chitosan Film  in water:acetic acid 2%
45669
    1CHTO  H203    1   4.975   5.447   2.982 -2.3732 -1.2424 -2.0231
    1CHTO   O82    2   5.030   5.423   2.911  0.6145 -0.0486 -0.2009
    1CHTO  C123    3   5.163   5.400   2.953 -0.3345  0.1326 -0.5999
    1CHTO  H227    4   5.163   5.358   3.055  1.6112  0.8720 -0.2629
    1CHTO   O77    5   5.193   5.288   2.868  0.2192 -0.0762  0.2823
    1CHTO  C118    6   5.323   5.233   2.887  0.3965 -0.1861 -0.0699
    1CHTO  H222    7   5.347   5.201   2.989 -1.2059 -1.2915 -0.0175
    1CHTO  C125    8   5.347   5.106   2.792 -0.3718  0.2776  1.1909
    1CHTO   O84    9   5.321   5.119   2.650 -0.3207 -0.2156  0.0407
    1CHTO  H205   10   5.349   5.037   2.614  1.4603  1.8929 -3.7828
    1CHTO  C114   11   5.433   5.338   2.867 -0.1634  0.3594  0.2883
    1CHTO  H218   12   5.428   5.363   2.761  0.7056 -0.8529 -0.0568
    1CHTO  C116   13   5.408   5.456   2.966 -0.0664 -0.1130 -0.0048
    1CHTO  H220   14   5.413   5.423   3.072  0.0154  0.8970  0.3078
    1CHTO   O79   15   5.500   5.563   2.968  0.5659 -0.2152  0.3255
    1CHTO  H201   16   5.575   5.531   3.016  0.8112 -1.0482 -0.6009
    1CHTO  C120   17   5.265   5.516   2.939 -0.3367 -0.1219  0.9362
    1CHTO  H224   18   5.272   5.560   2.838 -2.1688 -2.0032 -0.0401
    1CHTO   N21   19   5.234   5.622   3.034  0.9461 -0.4792 -0.8122
    1CHTO  H211   20   5.288   5.626   3.127  0.8908 -0.6630 -0.7738
    1CHTO  H212   21   5.127   5.635   3.041  1.1555  1.3935 -0.6996
    1CHTO   O75   22   5.555   5.273   2.897 -0.8775 -0.2461 -0.3150
    1CHTO  C112   23   5.669   5.310   2.811 -0.7909 -0.3374 -0.0014
    1CHTO  H216   24   5.656   5.411   2.769  1.5243  0.2439  0.6186
    1CHTO   O73   25   5.669   5.216   2.710 -0.5623  0.3721  0.0504
    1CHTO  C113   26   5.780   5.218   2.619 -0.2746 -0.3175  0.2910
    1CHTO  H217   27   5.787   5.322   2.580  2.2602  0.0055  1.5003
    1CHTO  C124   28   5.764   5.111   2.509 -0.0588 -0.5580 -0.9929
    1CHTO   O83   29   5.669   5.152   2.405 -0.0156 -0.3817  0.3986
    1CHTO  H204   30   5.666   5.084   2.340 -0.3094  0.1410 -0.1375
    1CHTO  C109   31   5.913   5.196   2.696  0.2664  0.6275 -0.0704
    1CHTO  H213   32   5.906   5.103   2.754  1.6537  0.9164  0.5997
    1CHTO  C110   33   5.927   5.312   2.802 -0.2151  0.0016 -0.0391
    1CHTO  H214   34   5.933   5.405   2.744 -1.4531 -1.3074 -2.3338
    1CHTO   O78   35   6.050   5.297   2.879 -0.0044  0.2400  0.0580
    1CHTO  H200   36   6.066   5.371   2.934  0.9194  1.2920 -1.6297
    1CHTO  C111   37   5.807   5.306   2.896  0.2651 -0.5507  0.7081
    1CHTO  H215   38   5.812   5.213   2.954  1.3545 -0.2924  1.0445
    1CHTO   N19   39   5.802   5.418   2.994 -0.6064  0.1148  0.5014
    1CHTO  H207   40   5.880   5.490   2.977 -1.2496  1.0160  1.3030
    1CHTO  H208   41   5.715   5.479   2.976  0.9938  1.8274 -1.6560
    1CHTO   O74   42   6.025   5.190   2.609 -0.1636 -0.2528  0.4384
    1CHTO  C115   43   6.114   5.046   2.606 -0.3617 -0.2378  0.0369
    1CHTO  H219   44   6.125   5.006   2.707 -0.1591 -0.7050 -0.1688
    1CHTO   O76   45   6.040   4.933   2.527  0.0417  0.5180 -0.1127
    1CHTO  C122   46   6.050   4.945   2.382  0.4488 -0.4636 -0.5149
    1CHTO  H226   47   5.999   5.032   2.341 -0.2315 -1.2879 -1.4242
    1CHTO  C126   48   5.976   4.828   2.327 -0.1431 -0.7244  0.1429
    1CHTO   O85   49   5.953   4.841   2.188 -0.0897  0.0412  0.4014
    1CHTO  H206   50   6.033   4.824   2.143  0.2662 -0.5971  1.2582
    1CHTO  C121   51   6.199   4.955   2.330  0.1703  0.4223 -0.6220
    1CHTO  H225   52   6.215   4.863   2.270  0.3204 -1.0777  1.6786
    1CHTO   O81   53   6.216   5.073   2.246  0.5246 -0.6615 -0.0436
    1CHTO  H202   54   6.282   5.059   2.181  2.2074  0.4397  1.4047
    1CHTO  C119   55   6.299   4.962   2.449  0.4779 -0.5967  0.0905
    1CHTO  H223   56   6.297   4.868   2.505  0.5752 -0.6131  0.0679
    1CHTO  C117   57   6.255   5.081   2.532  0.0826  0.0001 -0.8502
    1CHTO  H221   58   6.238   5.177   2.482 -0.2000  0.7986  0.7281
    1CHTO   N20   59   6.355   5.110   2.638  0.1333  0.3712 -0.7735
    1CHTO  H209   60   6.355   5.031   2.713 -2.4016  0.9826 -0.0909
    1CHTO  H210   61   6.347   5.208   2.681 -0.3333 -0.0109  0.0187
    1CHTO   O80   62   6.458   4.959   2.401  0.8028  0.0016 -0.4431
    1CHTO  C103   63   6.545   4.811   2.413 -0.1223  0.8429  0.7047
    1CHTO  H190   64   6.521   4.752   2.501 -0.4597  2.1566  1.5135
    1CHTO  C101   65   6.524   4.717   2.289  0.5299 -0.1228 -0.3330
    1CHTO  H188   66   6.524   4.779   2.199 -0.2897  0.8773  0.3549
    1CHTO   O68   67   6.375   4.648   2.294 -0.0720 -0.1315 -0.2865
    1CHTO  H168   68   6.336   4.621   2.213 -1.5049 -1.1739  0.7247
    1CHTO   C99   69   6.645   4.608   2.267 -0.2929 -0.0955 -0.7793
    1CHTO  H186   70   6.631   4.537   2.352  2.4728  1.0760  0.7315
    1CHTO   N17   71   6.640   4.536   2.136  0.1467  0.3054  0.4771
    1CHTO  H174   72   6.637   4.430   2.156  0.4132 -0.0430 -1.2594
    1CHTO  H175   73   6.721   4.563   2.071 -0.0324  1.7457  0.8296
    1CHTO   C97   74   6.786   4.672   2.301  0.7568 -0.4218  0.0777
    1CHTO  H184   75   6.804   4.746   2.222 -2.0833  0.2143 -0.0128
    1CHTO   O64   76   6.781   4.735   2.426 -0.0936 -0.3268  0.8145
    1CHTO  C104   77   6.697   4.855   2.423 -0.5573 -0.2457  0.1685
    1CHTO  H191   78   6.725   4.917   2.338  0.2643 -0.1342  0.5150
    1CHTO  C108   79   6.702   4.942   2.545  0.5437  0.2456 -0.6855
    1CHTO   O71   80   6.826   5.011   2.554  0.4116  0.0587  0.9769
    1CHTO  H171   81   6.865   4.994   2.637 -2.0162 -3.1215  1.5734
    1CHTO   O62   82   6.883   4.563   2.320 -0.1941  0.8902  0.4956
    1CHTO   C91   83   7.007   4.574   2.239  0.5596  0.9603  0.1654
    1CHTO  H178   84   7.043   4.677   2.229  1.4172  0.8406  1.7477
    1CHTO   C92   85   6.993   4.532   2.085 -0.2016 -0.2310 -0.4362
    1CHTO  H179   86   6.897   4.558   2.037  0.3664 -0.3965 -1.6886
    1CHTO   O66   87   7.100   4.601   2.014  0.1094 -0.4690 -0.7295
    1CHTO  H166   88   7.095   4.694   2.027 -0.5527 -0.3671 -1.6175
    1CHTO   C93   89   7.016   4.380   2.062 -0.1102 -0.0648 -0.3147
    1CHTO  H180   90   7.034   4.368   1.954  1.0481 -3.2746  0.1731
    1CHTO   N16   91   6.898   4.302   2.100 -0.2701 -0.0645 -0.0507
    1CHTO  H172   92   6.899   4.200   2.065  0.3361 -0.0824  0.0175
    1CHTO  H173   93   6.812   4.355   2.062 -0.2945  1.1757  1.6756
    1CHTO   C94   94   7.146   4.327   2.139  0.6955  0.0247 -0.3397
    1CHTO  H181   95   7.123   4.255   2.217  1.3817  0.4915  0.3072
    1CHTO   O61   96   7.212   4.432   2.209 -0.1438 -0.5315  0.0612
    1CHTO   C95   97   7.125   4.493   2.307  0.1191  0.0596  0.0692
    1CHTO  H182   98   7.079   4.415   2.367  0.6483  0.4205  0.9525
    1CHTO  C106   99   7.202   4.586   2.413  0.2976 -0.0741 -1.2360
    1CHTO   O69  100   7.313   4.657   2.361  0.0596  0.4289  0.3617
    1CHTO  H169  101   7.275   4.709   2.293 -3.1471 -1.5485  0.5154
    1CHTO   O63  102   7.242   4.254   2.027  0.0927 -0.1436  0.5183
    1CHTO   C96  103   7.290   4.108   2.076 -0.2847 -0.0068  0.1092
    1CHTO  H183  104   7.200   4.050   2.100 -0.4187  0.6176  1.1314
    1CHTO   C98  105   7.383   4.105   2.213 -0.1948 -0.3282 -0.3539
    1CHTO  H185  106   7.337   4.174   2.286  0.9879  0.9805 -0.8300
    1CHTO   O67  107   7.365   3.975   2.268  0.2345 -0.4990  0.2226
    1CHTO  H167  108   7.379   3.908   2.204  2.7776  0.9435 -0.8314
    1CHTO  C102  109   7.536   4.145   2.183 -0.3809  0.0499 -0.0363
    1CHTO  H189  110   7.582   4.145   2.283  0.1918 -0.1230 -0.3006
    1CHTO   N18  111   7.550   4.288   2.143 -0.0715 -0.6619 -0.4278
    1CHTO  H176  112   7.652   4.302   2.111 -0.2798  0.0165 -0.7968
    1CHTO  H177  113   7.535   4.347   2.232  0.4074  1.3716 -1.6599
    1CHTO  C105  114   7.595   4.047   2.078 -0.4363 -0.2728  0.2634
    1CHTO  H192  115   7.659   4.105   2.011  1.2979 -3.5030 -1.0170
    1CHTO   O65  116   7.494   3.976   2.002 -0.1519  1.3669 -0.3575
    1CHTO  C100  117   7.372   4.038   1.955 -0.6479 -0.0458  0.4638
    1CHTO  H187  118   7.395   4.118   1.882 -1.5578  0.6908  0.9635
    1CHTO  C107  119   7.294   3.925   1.885 -0.0368  0.1631  0.2173
    1CHTO   O70  120   7.181   3.960   1.811 -0.3559  0.2730  0.1557
    1CHTO  H170  121   7.142   3.884   1.772  0.6973 -0.3799  0.3311
    1CHTO   O57  122   7.691   3.953   2.148  0.4309 -0.0659  0.0986
    1CHTO   C85  123   7.837   3.962   2.133  0.2329 -0.3225  0.2685
    1CHTO  H157  124   7.850   3.974   2.023  0.8092  2.0728  0.5663
    1CHTO   C83  125   7.887   3.818   2.174  0.3749  0.5509  0.8705
    1CHTO  H155  126   7.868   3.749   2.092  0.7436  1.7001 -0.2023
    1CHTO   O56  127   7.816   3.755   2.286  0.1944  0.6299 -0.1885
    1CHTO  H135  128   7.858   3.781   2.367  0.3646 -1.5535  0.4526
    1CHTO   C81  129   8.048   3.828   2.187  0.9173 -0.5892 -0.7038
    1CHTO  H153  130   8.082   3.858   2.088 -0.1931 -2.5347 -1.7145
    1CHTO   N14  131   8.103   3.692   2.202 -0.0965  0.4455 -0.2277
    1CHTO  H141  132   8.207   3.696   2.225 -0.5626 -0.4120  2.2206
    1CHTO  H142  133   8.084   3.631   2.116 -0.6560 -1.0073  0.9037
    1CHTO   C79  134   8.089   3.936   2.289 -0.5805  0.5155 -0.3024
    1CHTO  H151  135   8.198   3.933   2.295 -0.6196 -0.6102 -0.0461
    1CHTO   O52  136   8.057   4.066   2.234 -0.0927 -0.3718  0.0134
    1CHTO   C86  137   7.912   4.083   2.214 -0.0276  0.5794 -0.0978
    1CHTO  H158  138   7.868   4.094   2.315 -1.9315  0.1650 -0.8681
    1CHTO   C90  139   7.901   4.222   2.137  0.5193 -0.5591  0.6188
    1CHTO   O60  140   7.989   4.234   2.026 -0.0475  0.2898  0.4651
    1CHTO  H138  141   8.019   4.322   2.016  0.9217 -0.1689 -0.6972
    1CHTO   O50  142   8.034   3.908   2.417 -0.3007 -0.3766 -0.2091
    1CHTO   C73  143   8.023   3.904   2.559  0.3305 -0.2464 -0.5486
    1CHTO  H145  144   8.107   3.843   2.597 -0.2376 -0.7136 -0.0487
    1CHTO   C74  145   7.892   3.844   2.605  0.7130  0.4575  0.0625
    1CHTO  H146  146   7.883   3.743   2.564  0.3540  0.9156 -0.9936
    1CHTO   O54  147   7.898   3.834   2.747 -0.0439  0.2816  0.0764
    1CHTO  H133  148   7.817   3.803   2.784 -0.0903  1.3058  0.8542
    1CHTO   C75  149   7.772   3.935   2.562 -0.2326  0.7891 -0.6036
    1CHTO  H147  150   7.772   3.940   2.453 -1.6402  2.3455 -0.5558
    1CHTO   N13  151   7.639   3.878   2.597  0.8564 -0.1214 -0.0022
    1CHTO  H139  152   7.591   3.840   2.508  1.4434  1.0468 -0.8413
    1CHTO  H140  153   7.577   3.951   2.647 -0.7802  0.4170 -2.6838
    1CHTO   C76  154   7.789   4.088   2.611  0.4563  0.0049 -0.0716
    1CHTO  H148  155   7.784   4.089   2.720  0.7366  1.0761 -0.0630
    1CHTO   O49  156   7.919   4.134   2.568 -0.2132  0.2928  0.5687
    1CHTO   C77  157   8.028   4.051   2.619 -0.6124  0.2672  0.6732
    1CHTO  H149  158   8.016   4.048   2.727  0.2557 -1.7446  0.7276
    1CHTO   C88  159   8.158   4.126   2.599 -0.3902 -0.9762 -0.2730
    1CHTO   O58  160   8.163   4.287   2.644  0.0757 -0.3438  0.6273
    1CHTO  H136  161   8.077   4.325   2.639 -0.0512 -0.6528  0.4467
    1CHTO   O51  162   7.680   4.199   2.537 -0.6281  0.2057  0.1915
    1CHTO   C78  163   7.665   4.334   2.631 -0.0059  0.4492 -0.6066
    1CHTO  H150  164   7.727   4.335   2.723  0.1080 -1.5610 -0.6277
    1CHTO   C80  165   7.517   4.329   2.683  0.2303 -0.6365 -0.1843
    1CHTO  H152  166   7.458   4.333   2.589  1.1259  1.6604 -0.6714
    1CHTO   O55  167   7.491   4.211   2.758 -0.1725 -0.1151  0.2500
    1CHTO  H134  168   7.479   4.138   2.700  1.0774 -1.7105  1.9365
    1CHTO   C84  169   7.478   4.455   2.769  0.3439 -0.1278 -0.1045
    1CHTO  H156  170   7.526   4.442   2.867  0.1213  0.5988  0.1046
    1CHTO   N15  171   7.332   4.460   2.785  0.6460 -0.2367 -0.3626
    1CHTO  H143  172   7.305   4.370   2.837  0.4091  0.0431  0.0048
    1CHTO  H144  173   7.284   4.543   2.834 -1.6065 -1.0525 -1.1114
    1CHTO   C87  174   7.521   4.588   2.703  0.1837  0.5425  0.0585
    1CHTO  H159  175   7.460   4.612   2.616  0.3415  0.5811 -0.0413
    1CHTO   O53  176   7.675   4.574   2.640 -0.0400 -0.2213 -0.6197
    1CHTO   C82  177   7.692   4.465   2.552 -0.1915 -0.1026  0.1526
    1CHTO  H154  178   7.624   4.471   2.466  2.1796 -1.2085 -1.8699
    1CHTO   C89  179   7.832   4.446   2.497 -0.3918  0.0702  0.9703
    1CHTO   O59  180   7.850   4.466   2.359 -0.6440 -0.3832 -0.4899
    1CHTO  H137  181   7.842   4.379   2.324 -1.0937  0.6228 -2.9866
    1CHTO   O45  182   7.523   4.709   2.811 -0.4462  0.1079  0.1173
    1CHTO   C67  183   7.418   4.810   2.814  0.2024  0.4170 -1.2767
    1CHTO  H124  184   7.340   4.775   2.746 -0.6558  1.1891 -0.7058
    1CHTO   C65  185   7.358   4.817   2.959 -0.4736  0.5818  0.1061
    1CHTO  H122  186   7.385   4.731   3.020 -3.0467  0.2541  0.8321
    1CHTO   O44  187   7.215   4.824   2.945  0.3089  0.4285 -0.1797
    1CHTO  H102  188   7.171   4.759   2.997  1.0300  1.6039  1.9594
    1CHTO   C63  189   7.409   4.943   3.038  0.0147  0.6437 -0.7752
    1CHTO  H120  190   7.517   4.952   3.042 -0.1251  1.4707  2.2350
    1CHTO   N11  191   7.388   4.947   3.188  0.9054  0.0457 -0.0654
    1CHTO  H108  192   7.328   5.030   3.218  0.0503 -0.4435 -0.3995
    1CHTO  H109  193   7.325   4.864   3.213  0.2499  0.0882 -1.5368
    1CHTO   C61  194   7.371   5.075   2.957  0.2034 -0.2026  0.0103
    1CHTO  H118  195   7.438   5.155   2.993  1.9279 -2.6426  2.4499
    1CHTO   O40  196   7.396   5.063   2.803 -0.5840 -0.2408 -0.2390
    1CHTO   C68  197   7.474   4.947   2.761 -0.3583 -0.5961 -0.6354
    1CHTO  H125  198   7.575   4.962   2.804 -0.6637 -2.6481  0.9025
    1CHTO   C72  199   7.489   4.948   2.612 -0.3531  0.1948 -0.5146
    1CHTO   O48  200   7.367   4.939   2.538 -0.0282 -0.3446  0.0326
    1CHTO  H105  201   7.356   4.866   2.480 -1.9924  0.6722 -0.9015
    1CHTO   O38  202   7.228   5.107   2.970  0.0417 -0.2201  0.3501
    1CHTO   C55  203   7.195   5.247   2.995 -0.4972  0.1156  0.0460
    1CHTO  H112  204   7.279   5.314   2.972 -2.0756  2.3427  0.5568
    1CHTO   C56  205   7.149   5.266   3.145 -0.3681 -1.4087  0.6689
    1CHTO  H113  206   7.076   5.188   3.172 -0.0930 -1.7965  0.3009
    1CHTO   O42  207   7.254   5.249   3.239 -0.5201 -0.6950  0.2646
    1CHTO  H100  208   7.327   5.302   3.214 -2.0697  0.3167 -2.2895
    1CHTO   C57  209   7.086   5.407   3.173 -0.1590  0.7821 -0.5346
    1CHTO  H114  210   7.165   5.480   3.187  0.6335 -0.1680  0.0440
    1CHTO   N10  211   7.003   5.419   3.298 -0.5976  0.4333  0.4996
    1CHTO  H106  212   7.048   5.498   3.357  1.5009  0.3157 -0.8949
    1CHTO  H107  213   7.002   5.328   3.357 -0.3933  1.1111  1.5646
    1CHTO   C58  214   6.998   5.449   3.050 -0.2085 -0.3430  0.4889
    1CHTO  H115  215   6.907   5.385   3.050 -0.9855  0.7444 -0.5610
    1CHTO   O37  216   7.061   5.434   2.914 -0.2579 -0.2119 -0.3589
    1CHTO   C59  217   7.085   5.293   2.895 -0.0575 -0.0649 -0.1960
    1CHTO  H116  218   6.990   5.239   2.900 -1.0076  1.5347 -0.6559
    1CHTO   C70  219   7.124   5.285   2.749  0.4207  0.3428 -0.4473
    1CHTO   O46  220   7.128   5.168   2.672  0.4047 -0.0144  0.2860
    1CHTO  H103  221   7.139   5.092   2.725 -0.5173 -0.4215 -0.1038
    1CHTO   O39  222   6.970   5.608   3.070  0.1787  0.0054  0.6031
    1CHTO   C60  223   6.869   5.660   2.987 -0.1067  0.4608 -0.4610
    1CHTO  H117  224   6.881   5.610   2.890  0.7413  3.6212 -2.0465
    1CHTO   C62  225   6.723   5.645   3.044 -0.1636  0.3938 -0.5552
    1CHTO  H119  226   6.710   5.536   3.062 -1.9069  1.0042  2.3028
    1CHTO   O43  227   6.716   5.716   3.170 -0.1224  0.5123  0.3876
    1CHTO  H101  228   6.769   5.793   3.169  0.7863 -0.1113 -1.2609
    1CHTO   C66  229   6.617   5.702   2.941  0.1249 -0.0718 -0.0245
    1CHTO  H123  230   6.632   5.656   2.843  0.9256  0.0904  0.0262
    1CHTO   N12  231   6.478   5.678   2.982  0.7747 -0.5040  0.3912
    1CHTO  H110  232   6.458   5.704   3.085 -0.1385 -0.4254  0.2007
    1CHTO  H111  233   6.429   5.586   2.952 -0.3618 -0.0153  0.7046
    1CHTO   C69  234   6.647   5.853   2.919  0.4472 -0.6337 -0.5913
    1CHTO  H126  235   6.619   5.907   3.011  0.9277 -0.4890 -0.5276
    1CHTO   O41  236   6.796   5.877   2.880 -0.7125 -0.3020  0.4227
    1CHTO   C64  237   6.897   5.812   2.954 -0.5623  0.3768  0.3195
    1CHTO  H121  238   6.897   5.861   3.054  1.0984 -0.6712  0.8580
    1CHTO   C71  239   7.030   5.819   2.874 -0.2089 -1.1526  0.0793
    1CHTO   O47  240   7.016   5.798   2.730  0.1485  0.0077 -0.1125
    1CHTO  H104  241   7.084   5.743   2.696  1.4020  0.9344  0.7994
    1CHTO   O34  242   6.558   5.898   2.813 -0.2448  0.4736  0.5802
    1CHTO   C49  243   6.593   5.987   2.707  0.1539 -0.6412 -0.1394
    1CHTO   H91  244   6.656   6.069   2.742 -1.5339  0.4763  0.3847
    1CHTO   C47  245   6.468   6.060   2.639 -0.2900 -0.1530  0.1516
    1CHTO   H89  246   6.508   6.124   2.557  1.6165  1.4645  2.2922
    1CHTO   O33  247   6.406   6.143   2.732 -0.1688 -0.0100  0.6402
    1CHTO   H70  248   6.324   6.185   2.714  0.5365  0.3466 -2.0827
    1CHTO   C45  249   6.382   5.951   2.565 -0.1155 -0.0130 -0.8147
    1CHTO   H87  250   6.344   5.879   2.640 -0.8553  1.7008  0.4968
    1CHTO    N8  251   6.259   6.005   2.506  0.0731  0.2603  0.4606
    1CHTO   H75  252   6.288   6.062   2.418  0.1033 -2.0308 -1.0553
    1CHTO   H76  253   6.214   6.063   2.585 -2.3041 -2.2107  0.9790
    1CHTO   C43  254   6.465   5.859   2.462  0.9263  0.3101 -0.3778
    1CHTO   H85  255   6.405   5.770   2.442 -0.3436  1.2071 -0.6763
    1CHTO   O29  256   6.591   5.826   2.514 -0.0404  0.8653 -0.1499
    1CHTO   C50  257   6.667   5.910   2.599  0.4822  0.3043 -0.5602
    1CHTO   H92  258   6.744   5.845   2.643 -0.5734  0.1824  1.1481
    1CHTO   C54  259   6.763   6.002   2.515  0.2746  0.3122 -0.2455
    1CHTO   O36  260   6.857   5.922   2.455 -0.3595  0.2360  0.3160
    1CHTO   H72  261   6.840   5.830   2.461 -1.1259  0.4215  1.1718
    1CHTO   O27  262   6.488   5.920   2.339  0.8998  0.3113  0.1082
    1CHTO   C37  263   6.571   5.925   2.222  0.0368  0.0091 -0.5692
    1CHTO   H79  264   6.672   5.943   2.262  0.5098  0.3121 -1.8606
    1CHTO   C38  265   6.584   5.787   2.157 -0.1740 -0.3788 -0.8989
    1CHTO   H80  266   6.483   5.751   2.131 -0.4509 -0.4101  0.2265
    1CHTO   O31  267   6.640   5.691   2.251 -0.0508  0.3959  0.1415
    1CHTO   H68  268   6.578   5.658   2.313 -1.3189  1.0519 -0.7617
    1CHTO   C39  269   6.666   5.792   2.017  0.5939 -0.2696 -0.0139
    1CHTO   H81  270   6.772   5.801   2.039  1.6867 -3.7478 -3.3980
    1CHTO    N7  271   6.643   5.680   1.920  0.2790 -0.3482  0.1194
    1CHTO   H73  272   6.608   5.595   1.976 -0.0768 -1.2932 -1.4963
    1CHTO   H74  273   6.733   5.665   1.863  0.8340 -1.3786  1.2419
    1CHTO   C40  274   6.636   5.920   1.926  0.5325 -0.0877 -0.6248
    1CHTO   H82  275   6.538   5.914   1.878  0.5226  2.7451 -1.0023
    1CHTO   O26  276   6.647   6.039   1.999  0.5516 -0.2692  0.1485
    1CHTO   C41  277   6.545   6.036   2.113 -0.4190 -0.3394  0.0831
    1CHTO   H83  278   6.444   6.023   2.072 -0.7501  1.7428  0.2151
    1CHTO   C52  279   6.552   6.169   2.178  0.0888 -0.4780 -0.0317
    1CHTO   O35  280   6.697   6.221   2.208  0.1092  0.2535  0.1171
    1CHTO   H71  281   6.721   6.206   2.298  1.2377  0.1268 -0.1966
    1CHTO   O28  282   6.736   5.928   1.818 -0.1132 -0.8977  0.8542
    1CHTO   C42  283   6.888   5.936   1.820  0.5039 -0.2202 -0.1564
    1CHTO   H84  284   6.921   5.840   1.859 -0.7084 -0.3829  0.5185
    1CHTO   C44  285   6.952   6.041   1.919  0.0017  0.0851 -0.9664
    1CHTO   H86  286   6.906   6.139   1.906  0.1890  0.1777 -0.9337
    1CHTO   O32  287   6.927   6.003   2.054  0.4216 -0.1538  0.3069
    1CHTO   H69  288   6.834   6.013   2.066  0.7111  0.3858  2.1281
    1CHTO   C48  289   7.107   6.061   1.897  0.2437  0.2927 -0.9122
    1CHTO   H90  290   7.167   5.982   1.941  0.4126  1.4885  1.0854
    1CHTO    N9  291   7.161   6.187   1.961  0.3280 -0.6000 -0.2014
    1CHTO   H77  292   7.267   6.194   1.943  0.3206  1.0241  0.2963
    1CHTO   H78  293   7.108   6.275   1.926  0.4578 -0.4918 -0.1268
    1CHTO   C51  294   7.142   6.063   1.744 -0.9082 -0.3251  0.2336
    1CHTO   H93  295   7.093   6.153   1.705  0.9970  0.9656  0.7491
    1CHTO   O30  296   7.086   5.943   1.686  0.6735 -0.6431  0.4730
    1CHTO   C46  297   6.949   5.949   1.678 -0.2010  0.3973  0.9432
    1CHTO   H88  298   6.906   6.040   1.636 -2.0218 -1.3591 -1.1131
    1CHTO   C53  299   6.895   5.831   1.590  0.3543 -0.4982 -0.3086
    1CHTO   O72  300   6.953   5.820   1.459  0.8550  0.2769  0.6408
    1CHTO  H199  301   7.046   5.803   1.461  1.0241  0.6359 -1.7616
    1CHTO   O22  302   7.284   6.064   1.723 -0.3026 -0.3273  0.3185
    1CHTO   C31  303   7.339   6.124   1.604  0.1888  0.2821 -0.4052
    1CHTO   H59  304   7.260   6.122   1.526  2.1609  0.4501 -2.4592
    1CHTO   C29  305   7.378   6.271   1.628  0.3230 -0.5877 -0.6492
    1CHTO   H57  306   7.445   6.274   1.714 -0.3321 -1.8364 -0.0803
    1CHTO   O21  307   7.258   6.345   1.671 -0.1375 -0.3995 -0.0407
    1CHTO   H37  308   7.283   6.424   1.714 -1.4632  0.3479 -0.6106
    1CHTO   C27  309   7.451   6.341   1.501  0.4056 -0.5307  0.0626
    1CHTO   H55  310   7.380   6.354   1.417  1.8382 -0.3652 -1.1416
    1CHTO    N5  311   7.504   6.474   1.544 -0.7603 -0.6573 -0.1995
    1CHTO   H43  312   7.554   6.472   1.639  1.7217 -0.4017 -1.4745
    1CHTO   H44  313   7.555   6.530   1.467 -3.0859 -0.9072 -1.9937
    1CHTO   C25  314   7.567   6.249   1.450  0.0211 -0.7803 -0.2900
    1CHTO   H53  315   7.650   6.257   1.523 -0.7860  2.0086  0.3767
    1CHTO   O17  316   7.504   6.114   1.422  0.4795 -0.2812  0.7982
    1CHTO   C32  317   7.459   6.057   1.543  0.1750 -0.0772  0.7518
    1CHTO   H60  318   7.543   6.059   1.614  0.4411  0.6073  0.4209
    1CHTO   C36  319   7.422   5.909   1.524 -0.6379  0.2599 -0.0527
    1CHTO   O25  320   7.326   5.899   1.420  0.1711  0.0322 -0.2325
    1CHTO   H40  321   7.247   5.909   1.469 -0.8766 -1.8224 -1.4793
    1CHTO   O15  322   7.617   6.300   1.304  0.1079  0.0139 -0.0259
    1CHTO   C19  323   7.576   6.374   1.190 -1.0064  0.2436  0.8888
    1CHTO   H47  324   7.504   6.453   1.215 -0.3939  0.9969  0.2664
    1CHTO   C20  325   7.693   6.449   1.120  0.4928  0.0131  0.1308
    1CHTO   H48  326   7.775   6.382   1.090  0.2481 -0.5853  0.7824
    1CHTO   O19  327   7.740   6.545   1.212  0.1372  0.5248 -0.2522
    1CHTO   H35  328   7.677   6.585   1.269 -2.4953 -1.6412 -1.5568
    1CHTO   C21  329   7.650   6.519   0.987 -0.1512  0.2285 -0.4643
    1CHTO   H49  330   7.578   6.596   1.014  0.0399  0.9547 -1.9767
    1CHTO    N4  331   7.759   6.584   0.917 -0.4843 -0.2253  0.0251
    1CHTO   H41  332   7.806   6.660   0.976 -1.9115  0.9867 -0.3638
    1CHTO   H42  333   7.724   6.622   0.822  1.1453 -2.2683 -1.4473
    1CHTO   C22  334   7.559   6.429   0.895 -0.1373 -0.3577  0.0388
    1CHTO   H50  335   7.626   6.351   0.860  0.7705  0.0601  0.8001
    1CHTO   O14  336   7.459   6.371   0.973  0.7792  0.3496 -0.4243
    1CHTO   C23  337   7.502   6.288   1.084 -0.2004 -0.8607 -0.2951
    1CHTO   H51  338   7.567   6.213   1.036  1.2879  0.3260 -0.1673
    1CHTO   C34  339   7.380   6.209   1.137  0.1824 -0.0818  0.1667
    1CHTO   O23  340   7.271   6.287   1.182 -0.2155 -0.2070 -0.0582
    1CHTO   H38  341   7.213   6.228   1.226 -1.8301  0.2623 -1.5078
    1CHTO   O16  342   7.505   6.507   0.788 -0.3321  0.0742  0.1368
    1CHTO   C24  343   7.455   6.420   0.676  0.1493 -0.1667  0.6386
    1CHTO   H52  344   7.425   6.321   0.710  2.3610 -0.4525  1.8792
    1CHTO   C26  345   7.571   6.411   0.572 -0.6680  0.5872 -0.2905
    1CHTO   H54  346   7.614   6.511   0.551  0.2489  0.3900  0.6031
    1CHTO   O20  347   7.688   6.347   0.620  0.1458 -0.3750  0.2681
    1CHTO   H36  348   7.722   6.401   0.689  0.5899 -0.1301 -0.1345
    1CHTO   C30  349   7.519   6.359   0.438  0.1401  0.6104  0.2565
    1CHTO   H58  350   7.517   6.250   0.452  0.1849  0.5537 -0.1543
    1CHTO    N6  351   7.612   6.377   0.322 -0.0937  0.0893 -0.1189
    1CHTO   H45  352   7.567   6.361   0.225 -2.0763 -0.4565  0.8622
    1CHTO   H46  353   7.688   6.300   0.325  1.0241  1.1508 -1.0161
    1CHTO   C33  354   7.374   6.400   0.399  0.4199 -0.4226 -0.0216
    1CHTO   H61  355   7.373   6.492   0.340  0.1132  0.0146  0.6590
    1CHTO   O18  356   7.286   6.415   0.505  0.0069 -0.8424 -0.3895
    1CHTO   C28  357   7.327   6.497   0.615 -0.3120  0.4152 -0.4405
    1CHTO   H56  358   7.358   6.593   0.575 -0.5961  0.1667 -1.2640
    1CHTO   C35  359   7.203   6.500   0.716  0.1638  0.5908  0.4829
    1CHTO   O24  360   7.144   6.370   0.743  0.6004 -0.0433  0.1009
    1CHTO   H39  361   7.062   6.369   0.697 -0.2032  0.6030  1.4741
    1CHTO    O9  362   7.332   6.303   0.306 -0.5294  0.0878 -0.5889
    1CHTO   C13  363   7.186   6.347   0.209  0.2108 -0.8798 -0.2069
    1CHTO   H26  364   7.183   6.458   0.202  0.3849 -0.7745  1.1801
    1CHTO   C11  365   7.050   6.286   0.274  0.0622 -0.0052 -0.1618
    1CHTO   H24  366   7.001   6.372   0.323 -2.7565 -0.7055 -1.6768
    1CHTO    O8  367   7.091   6.182   0.371 -0.4892 -0.5710  0.2594
    1CHTO    H3  368   7.095   6.095   0.335  1.0445 -1.0811  1.6137
    1CHTO    C9  369   6.958   6.254   0.157  0.3978 -0.0216  0.7249
    1CHTO   H22  370   6.952   6.344   0.094  0.8806 -0.9334 -0.6490
    1CHTO    N2  371   6.819   6.234   0.206  0.2929  0.2204  0.0548
    1CHTO   H10  372   6.752   6.225   0.122 -0.8120 -2.5552  1.1775
    1CHTO   H11  373   6.781   6.317   0.263  0.9685  0.6043 -0.0520
    1CHTO    C7  374   7.022   6.136   0.073 -0.2160  0.4981 -0.1852
    1CHTO   H20  375   6.972   6.151  -0.025 -0.9805  2.8857  0.5237
    1CHTO    O4  376   7.165   6.163   0.040  0.6487  0.1142 -0.6697
    1CHTO   C14  377   7.214   6.297   0.058  0.2748 -0.5654 -0.1932
    1CHTO   H27  378   7.154   6.361  -0.009 -0.0872 -2.0950 -1.3526
    1CHTO   C18  379   7.358   6.305   0.006  0.0288  0.0939 -0.6525
    1CHTO   O13  380   7.395   6.443   0.000 -0.3343  0.4472 -0.2734
    1CHTO    H7  381   7.477   6.456  -0.043 -0.5476 -0.0794 -0.8406
    1CHTO    O2  382   7.010   6.000   0.144 -0.1989 -0.0946  0.1780
    1CHTO    C1  383   6.944   5.887   0.091 -0.0695 -0.0319 -0.0923
    1CHTO   H14  384   6.857   5.910   0.025  0.2034  1.2300 -0.0127
    1CHTO    C2  385   6.888   5.811   0.215 -0.3378  0.1421  0.2591
    1CHTO   H15  386   6.970   5.794   0.286 -0.9271 -3.4410  0.1818
    1CHTO    O6  387   6.785   5.891   0.276 -0.8674 -0.4996  0.3695
    1CHTO    H1  388   6.747   5.836   0.342 -3.0813  1.0195  0.4255
    1CHTO    C3  389   6.822   5.674   0.169 -0.0626 -0.0006  0.6508
    1CHTO   H16  390   6.733   5.703   0.112  1.2533  0.2524 -1.3424
    1CHTO    N1  391   6.776   5.587   0.289  0.3499 -0.3611  0.1969
    1CHTO    H8  392   6.847   5.618   0.364 -0.6454  0.6041  0.7417
    1CHTO    H9  393   6.674   5.604   0.321  0.3003  1.7404 -1.0081
    1CHTO    C4  394   6.907   5.596   0.069  0.5997  0.3206 -0.5740
    1CHTO   H17  395   6.990   5.553   0.125  1.4560  0.4790 -1.6983
    1CHTO    O1  396   6.967   5.671  -0.036  0.0829 -0.3265  0.3470
    1CHTO    C5  397   7.037   5.789   0.008  0.8824 -0.7085  0.3107
    1CHTO   H18  398   7.129   5.758   0.057  1.3097 -1.0792 -0.7123
    1CHTO   C16  399   7.078   5.868  -0.114  0.4072 -0.1252  0.1842
    1CHTO   O11  400   7.198   5.821  -0.179  0.4322 -0.0578 -0.2442
    1CHTO    H5  401   7.181   5.815  -0.271  0.0657 -0.2107 -0.1695
    1CHTO    O3  402   6.820   5.487   0.018  0.2034  0.5997  0.0336
    1CHTO    C6  403   6.897   5.372  -0.039 -0.6158 -0.5918 -0.0346
    1CHTO   H19  404   6.998   5.387  -0.077 -0.6846 -0.8837 -0.3371
    1CHTO    C8  405   6.919   5.251   0.059  0.2849 -0.2449 -0.4932
    1CHTO   H21  406   6.826   5.231   0.113  0.3999  0.8193  0.1233
    1CHTO    O7  407   7.009   5.302   0.159  0.5705  0.3000  0.0617
    1CHTO    H2  408   6.964   5.362   0.215  0.3512  0.9740 -0.8262
    1CHTO   C12  409   6.982   5.131  -0.013  0.0944  0.7850  0.4532
    1CHTO   H25  410   7.081   5.155  -0.056  0.2591  0.8198  0.8480
    1CHTO    N3  411   7.004   5.007   0.075 -0.6131  0.3196 -0.4787
    1CHTO   H12  412   7.073   5.036   0.153 -0.3669 -0.5214 -0.3829
    1CHTO   H13  413   7.049   4.926   0.020  1.7274  0.8319  0.6585
    1CHTO   C15  414   6.884   5.097  -0.129  0.1950 -0.2845  0.0897
    1CHTO   H28  415   6.791   5.064  -0.083 -0.1238  2.0365  1.2346
    1CHTO   O10  416   6.937   4.989  -0.233  0.0043  0.5330  0.3193
    1CHTO    H4  417   7.031   4.993  -0.234 -0.0807  4.1202 -1.4806
    1CHTO    O5  418   6.867   5.209  -0.220  0.0684  0.5592  0.0919
    1CHTO   C10  419   6.821   5.325  -0.159 -0.1501 -0.0960  0.4960
    1CHTO   H23  420   6.719   5.307  -0.124  0.3425 -1.9032  1.0297
    1CHTO   C17  421   6.808   5.434  -0.268  0.0674 -0.5390  0.1009
    1CHTO   O12  422   6.930   5.493  -0.299 -0.3045  0.4763 -0.1455
    1CHTO    H6  423   6.990   5.437  -0.345 -1.4273  0.5235 -1.7394
    2CHTO  H203  424   5.686   3.208   4.363 -0.5128 -0.4873  0.1083
    2CHTO   O82  425   5.599   3.244   4.359 -0.3237 -0.0403  0.0266
    2CHTO  C123  426   5.590   3.294   4.223 -0.1100  0.8383  0.0025
    2CHTO  H227  427   5.605   3.208   4.156 -1.2802  0.0288  0.7573
    2CHTO   O77  428   5.454   3.347   4.221  0.0187 -0.1875  0.6986
    2CHTO  C118  429   5.417   3.399   4.093  0.2273  0.5981 -0.0019
    2CHTO  H222  430   5.418   3.334   4.004  1.3121  0.5167  0.0557
    2CHTO  C125  431   5.268   3.442   4.119  0.2218  0.0252  0.0544
    2CHTO   O84  432   5.189   3.470   4.009  0.2032  0.3762  0.5925
    2CHTO  H205  433   5.101   3.499   4.022  0.0624  0.0091  0.4611
    2CHTO  C114  434   5.504   3.522   4.058  0.4320  0.2381 -1.1151
    2CHTO  H218  435   5.485   3.603   4.128 -0.7225  0.4598 -1.6707
    2CHTO  C116  436   5.655   3.488   4.070  0.7354 -0.0623  1.3504
    2CHTO  H220  437   5.690   3.436   3.979 -1.7263  0.7874 -0.1203
    2CHTO   O79  438   5.718   3.619   4.067  0.0066  0.1566  0.0353
    2CHTO  H201  439   5.698   3.667   3.989  1.8414 -2.1748 -1.9321
    2CHTO  C120  440   5.686   3.413   4.204  0.5498  0.0604  0.5380
    2CHTO  H224  441   5.676   3.484   4.289  1.7425  1.1910 -0.2643
    2CHTO   N21  442   5.831   3.375   4.199 -0.1533 -0.0031 -0.0950
    2CHTO  H211  443   5.864   3.369   4.302  2.8040 -3.2951 -1.1457
    2CHTO  H212  444   5.831   3.279   4.149 -3.8484  0.1256 -0.4645
    2CHTO   O75  445   5.463   3.557   3.925 -0.2969 -0.3342 -0.1565
    2CHTO  C112  446   5.423   3.710   3.899 -0.5936  0.0632  0.3365
    2CHTO  H216  447   5.440   3.763   3.994 -2.2309  0.6297  0.3252
    2CHTO   O73  448   5.283   3.710   3.863  0.0137 -0.0367 -0.3984
    2CHTO  C113  449   5.221   3.835   3.835  0.3639  0.6847 -0.5544
    2CHTO  H217  450   5.232   3.904   3.921  1.4277 -2.2568  1.7577
    2CHTO  C124  451   5.071   3.816   3.806  0.8440  1.4937 -0.3282
    2CHTO   O83  452   5.006   3.754   3.920  0.1532 -0.3992 -0.2636
    2CHTO  H204  453   4.913   3.771   3.921  0.2339  0.0360  1.3711
    2CHTO  C109  454   5.292   3.889   3.708 -0.1278  0.2381  0.7762
    2CHTO  H213  455   5.267   3.821   3.625 -0.5249  2.0889 -0.6342
    2CHTO  C110  456   5.443   3.896   3.728 -0.1729 -0.6810  0.0213
    2CHTO  H214  457   5.464   3.985   3.787 -0.2076  0.3836 -1.5587
    2CHTO   O78  458   5.491   3.922   3.599 -0.4550 -0.3156 -0.0683
    2CHTO  H200  459   5.540   4.001   3.588  1.7599 -1.5563  0.6206
    2CHTO  C111  460   5.509   3.763   3.773 -1.0191  0.1736  0.0264
    2CHTO  H215  461   5.514   3.695   3.688  0.7475 -0.3438  0.5340
    2CHTO   N19  462   5.651   3.783   3.815 -0.4012  0.2767 -0.3824
    2CHTO  H207  463   5.696   3.868   3.766  1.4135 -0.3850  0.0864
    2CHTO  H208  464   5.640   3.819   3.916 -1.5631 -0.1424 -0.3641
    2CHTO   O74  465   5.234   4.022   3.675 -0.4215 -0.2929  0.4033
    2CHTO  C115  466   5.214   4.031   3.514  0.7609 -0.3423 -0.3374
    2CHTO  H219  467   5.287   3.970   3.460 -0.3474 -1.6736 -0.3487
    2CHTO   O76  468   5.068   3.975   3.462 -0.1213  0.2397  0.3841
    2CHTO  C122  469   4.962   4.063   3.504  0.2935  0.0030 -0.6517
    2CHTO  H226  470   4.943   4.039   3.609  1.9495 -0.5295 -0.4457
    2CHTO  C126  471   4.835   4.009   3.425 -0.7359 -0.2966  0.1665
    2CHTO   O85  472   4.820   3.873   3.423 -0.3412 -0.3053  0.3349
    2CHTO  H206  473   4.729   3.855   3.412 -0.9755  2.0547  1.5432
    2CHTO  C121  474   4.988   4.222   3.483  0.1840  0.0691  0.1361
    2CHTO  H225  475   4.904   4.255   3.418 -0.2793 -1.2255  0.0524
    2CHTO   O81  476   4.982   4.299   3.608 -0.2523  0.5686 -0.4447
    2CHTO  H202  477   4.992   4.390   3.588 -3.1924  0.9540 -0.4608
    2CHTO  C119  478   5.120   4.249   3.402  0.7237  0.3949 -0.8979
    2CHTO  H223  479   5.105   4.190   3.311 -3.1477  0.7166 -0.5732
    2CHTO  C117  480   5.237   4.187   3.477  1.3570  0.2461 -0.3600
    2CHTO  H221  481   5.259   4.230   3.575 -2.4392  1.2576  0.1336
    2CHTO   N20  482   5.365   4.205   3.398 -0.8365 -0.2321  0.4659
    2CHTO  H209  483   5.384   4.311   3.400 -2.1962  0.0350 -0.1646
    2CHTO  H210  484   5.344   4.162   3.301 -0.2040 -0.3928  0.3992
    2CHTO   O80  485   5.121   4.411   3.333 -0.0114  0.5240  0.3230
    2CHTO  C103  486   5.012   4.459   3.230  0.1102  0.0361 -0.1753
    2CHTO  H190  487   5.058   4.536   3.168 -0.0578 -0.8203 -1.3862
    2CHTO  C101  488   4.954   4.349   3.130  0.0006  0.2109  0.0698
    2CHTO  H188  489   4.924   4.263   3.191 -0.2446 -0.4996 -1.0398
    2CHTO   O68  490   5.066   4.295   3.036 -0.5435  0.6550 -0.1104
    2CHTO  H168  491   5.143   4.282   3.088 -0.7948 -1.1529 -0.1508
    2CHTO   C99  492   4.828   4.398   3.051 -0.3653  0.1672 -0.3209
    2CHTO  H186  493   4.870   4.465   2.973  1.5408  0.9396  1.3280
    2CHTO   N17  494   4.746   4.286   2.981 -0.6952  0.1254 -0.0160
    2CHTO  H174  495   4.683   4.240   3.056 -0.5709  0.1383  0.0995
    2CHTO  H175  496   4.815   4.210   2.948  0.6627  0.3749  2.1403
    2CHTO   C97  497   4.742   4.487   3.136 -0.1133 -0.5611  0.7594
    2CHTO  H184  498   4.686   4.419   3.202  2.3184 -4.3043 -0.8454
    2CHTO   O64  499   4.816   4.583   3.208 -0.0429  0.2256  0.1823
    2CHTO  C104  500   4.899   4.534   3.310  0.0363  0.2677 -0.0394
    2CHTO  H191  501   4.848   4.467   3.378  1.9763  1.2482  2.4654
    2CHTO  C108  502   4.960   4.641   3.394 -0.4765 -0.4061  0.1382
    2CHTO   O71  503   4.848   4.714   3.458 -0.2696 -0.3131  0.6153
    2CHTO  H171  504   4.792   4.757   3.397  0.8584  0.5252  0.1640
    2CHTO   O62  505   4.653   4.566   3.050  0.1286  0.3078  0.7840
    2CHTO   C91  506   4.529   4.619   3.108  0.0887  0.1076 -0.7923
    2CHTO  H178  507   4.554   4.639   3.212 -2.5694  0.4305 -0.1712
    2CHTO   C92  508   4.422   4.510   3.114  1.0713  0.2935 -0.1118
    2CHTO  H179  509   4.462   4.411   3.139  1.6203  0.6112  0.2777
    2CHTO   O66  510   4.332   4.541   3.220  0.3611 -0.0423  0.0384
    2CHTO  H166  511   4.245   4.512   3.201 -0.3333  2.6446 -1.0247
    2CHTO   C93  512   4.341   4.501   2.976  0.3167  0.4194 -0.3328
    2CHTO  H180  513   4.248   4.445   2.990  0.4510  0.2472 -0.1383
    2CHTO   N16  514   4.412   4.431   2.863 -0.3131  0.1721  0.0932
    2CHTO  H172  515   4.405   4.464   2.760 -0.5223  2.2391  0.7465
    2CHTO  H173  516   4.412   4.324   2.874  1.5703 -0.0325 -1.5685
    2CHTO   C94  517   4.301   4.645   2.924 -0.2604 -0.0094 -0.0120
    2CHTO  H181  518   4.356   4.677   2.836  1.5578 -0.0388  1.0794
    2CHTO   O61  519   4.332   4.743   3.022 -0.3632  0.0064  0.2764
    2CHTO   C95  520   4.473   4.754   3.046 -0.0662  0.3028  0.1356
    2CHTO  H182  521   4.524   4.770   2.951 -1.0356  1.0549 -0.2517
    2CHTO  C106  522   4.489   4.870   3.150  0.4645  0.2564  0.1833
    2CHTO   O69  523   4.628   4.888   3.185  0.0128 -0.2846  0.0615
    2CHTO  H169  524   4.634   4.967   3.236 -2.6370 -0.1754  0.2770
    2CHTO   O63  525   4.147   4.647   2.889 -0.4302 -0.3729  0.3413
    2CHTO   C96  526   4.077   4.784   2.853  0.5406 -0.8791  0.1767
    2CHTO  H183  527   4.125   4.866   2.906  1.1724 -0.4657 -1.0042
    2CHTO   C98  528   3.931   4.785   2.912  0.3864 -1.3307 -0.0337
    2CHTO  H185  529   3.875   4.699   2.872  2.5209 -1.9536 -1.7418
    2CHTO   O67  530   3.934   4.757   3.050 -0.1250  0.1745 -0.1831
    2CHTO  H167  531   3.996   4.689   3.071 -0.4045 -0.1219 -0.3177
    2CHTO  C102  532   3.860   4.930   2.873 -0.2309 -0.5619  0.5038
    2CHTO  H189  533   3.911   5.000   2.941 -1.4152 -0.6296  1.4888
    2CHTO   N18  534   3.718   4.940   2.913  0.3940 -0.1548 -0.1721
    2CHTO  H176  535   3.690   4.856   2.975  1.7340 -1.0694 -0.7951
    2CHTO  H177  536   3.697   5.026   2.975  2.3159  0.4247 -0.3000
    2CHTO  C105  537   3.888   4.970   2.728 -0.3865 -0.2594 -1.0738
    2CHTO  H192  538   3.794   4.983   2.675 -1.9413  1.7545  2.0265
    2CHTO   O65  539   3.966   4.868   2.645  0.3768  0.3782  0.0611
    2CHTO  C100  540   4.078   4.807   2.700 -0.9437 -0.1176 -0.2209
    2CHTO  H187  541   4.101   4.716   2.643 -1.8596 -0.7355  0.3852
    2CHTO  C107  542   4.206   4.885   2.672 -0.1892  0.2060  0.0243
    2CHTO   O70  543   4.216   4.916   2.533  0.1752  0.1504 -0.3306
    2CHTO  H170  544   4.195   5.005   2.514  0.3222  0.2812  0.1170
    2CHTO   O57  545   3.965   5.117   2.744  0.3946 -0.3256  0.5443
    2CHTO   C85  546   3.966   5.213   2.635  0.3697 -0.6158 -0.8250
    2CHTO  H157  547   3.874   5.183   2.581 -0.4479 -2.6831  1.5641
    2CHTO   C83  548   4.071   5.201   2.530  0.0237 -0.1846 -0.0009
    2CHTO  H155  549   4.060   5.102   2.486 -1.2494  0.6414 -1.6215
    2CHTO   O56  550   4.199   5.202   2.593 -0.0377 -0.4761  0.8211
    2CHTO  H135  551   4.226   5.291   2.602 -0.6960 -0.3368  1.4792
    2CHTO   C81  552   4.042   5.305   2.416  0.5812 -0.3156 -0.1417
    2CHTO  H153  553   3.937   5.291   2.389  0.6064 -0.6912 -0.0399
    2CHTO   N14  554   4.123   5.281   2.296 -0.6851  0.6478 -0.4018
    2CHTO  H141  555   4.071   5.284   2.203 -0.2092  0.7740 -0.6684
    2CHTO  H142  556   4.207   5.347   2.290 -0.1035 -0.0743 -0.3220
    2CHTO   C79  557   4.061   5.456   2.474 -0.1240  0.3671 -0.0141
    2CHTO  H151  558   4.039   5.527   2.394 -0.4303  0.8730  0.5134
    2CHTO   O52  559   3.961   5.468   2.578 -0.1602 -0.0462  0.4922
    2CHTO   C86  560   3.963   5.363   2.681 -0.4832 -0.0188 -0.2176
    2CHTO  H158  561   4.052   5.380   2.745 -3.1821  0.8991  3.4268
    2CHTO   C90  562   3.842   5.381   2.767  0.1457 -0.4912 -0.5635
    2CHTO   O60  563   3.840   5.503   2.843 -0.5224 -0.5563 -0.0725
    2CHTO  H138  564   3.836   5.577   2.785 -1.3467  0.5549  1.3884
    2CHTO   O50  565   4.189   5.478   2.530  0.3013 -0.0128 -0.1414
    2CHTO   C73  566   4.286   5.578   2.520 -0.8787  0.5843 -0.3338
    2CHTO  H145  567   4.246   5.668   2.471 -0.0771  1.0538 -0.1361
    2CHTO   C74  568   4.410   5.529   2.435 -0.8413  0.2066 -0.1004
    2CHTO  H146  569   4.370   5.498   2.337 -0.9996 -0.1979  0.0930
    2CHTO   O54  570   4.502   5.629   2.397  0.2046  0.0129 -0.4710
    2CHTO  H133  571   4.489   5.654   2.307 -2.6546 -1.5848 -0.5666
    2CHTO   C75  572   4.483   5.408   2.513 -0.2927 -0.0350 -0.1115
    2CHTO  H147  573   4.409   5.328   2.527  0.0962 -0.1204  1.4609
    2CHTO   N13  574   4.597   5.345   2.442 -0.3563 -0.0043  0.8853
    2CHTO  H139  575   4.652   5.271   2.497 -0.3781 -0.0543  0.8391
    2CHTO  H140  576   4.665   5.428   2.428  0.1554 -0.6087 -0.2653
    2CHTO   C76  577   4.520   5.455   2.658 -0.0192  0.2539 -0.2246
    2CHTO  H148  578   4.588   5.541   2.660  0.7848 -0.3954  0.9296
    2CHTO   O49  579   4.392   5.506   2.724  0.5059 -0.3494  0.5665
    2CHTO   C77  580   4.338   5.619   2.658  0.2708 -0.5943 -0.0676
    2CHTO  H149  581   4.414   5.696   2.644  0.4172 -1.0242 -1.7344
    2CHTO   C88  582   4.230   5.687   2.741 -0.7192  0.2074 -0.0758
    2CHTO   O58  583   4.304   5.741   2.864 -0.0681 -0.2139  0.2469
    2CHTO  H136  584   4.275   5.829   2.877 -1.3090 -0.9351  2.8116
    2CHTO   O51  585   4.550   5.336   2.747 -0.1078 -0.2851 -0.2583
    2CHTO   C78  586   4.549   5.359   2.919 -0.1728  0.3444  0.3701
    2CHTO  H150  587   4.479   5.436   2.957 -2.6465 -1.2380 -0.8292
    2CHTO   C80  588   4.692   5.395   2.965 -0.8182  0.4001 -0.0572
    2CHTO  H152  589   4.758   5.307   2.947 -1.7750 -0.4657  0.6027
    2CHTO   O55  590   4.751   5.501   2.886  0.2397 -0.4295  1.2208
    2CHTO  H134  591   4.794   5.480   2.806  1.3568  0.2170  1.6413
    2CHTO   C84  592   4.687   5.425   3.121 -0.0104 -0.5830  0.1922
    2CHTO  H156  593   4.607   5.497   3.141  0.9359  0.8314 -1.0213
    2CHTO   N15  594   4.815   5.475   3.187 -0.4574  0.0354 -0.1770
    2CHTO  H143  595   4.894   5.486   3.116  1.2118  0.6226  1.7390
    2CHTO  H144  596   4.791   5.571   3.229 -0.0455  0.4150 -0.7989
    2CHTO   C87  597   4.636   5.303   3.199  0.0443  0.3146  0.5435
    2CHTO  H159  598   4.709   5.227   3.173 -1.6176 -0.2844 -2.7049
    2CHTO   O53  599   4.492   5.254   3.132  0.5333  0.3408  0.1039
    2CHTO   C82  600   4.499   5.234   2.993 -0.2957 -0.3913 -0.7918
    2CHTO  H154  601   4.570   5.153   2.979  0.5277 -0.0048  0.9956
    2CHTO   C89  602   4.364   5.186   2.931  0.2691  0.6920 -0.1505
    2CHTO   O59  603   4.335   5.051   2.940  0.1630  0.3186  0.3518
    2CHTO  H137  604   4.342   5.013   2.855  0.2797  0.7287  0.1741
    2CHTO   O45  605   4.616   5.322   3.356  0.3880 -0.2992  0.1625
    2CHTO   C67  606   4.606   5.190   3.416  0.0966  1.3183 -0.0697
    2CHTO  H124  607   4.580   5.112   3.345  0.1685 -1.0930  2.4602
    2CHTO   C65  608   4.742   5.148   3.475 -0.3624 -0.1211  0.1318
    2CHTO  H122  609   4.805   5.235   3.458  0.1097 -0.9471 -2.4917
    2CHTO   O44  610   4.789   5.039   3.399 -0.4301  0.0517 -0.2728
    2CHTO  H102  611   4.881   5.024   3.410  0.2789  2.7359 -2.0079
    2CHTO   C63  612   4.750   5.133   3.631  0.0964  0.4667 -0.5987
    2CHTO  H120  613   4.727   5.231   3.672  1.8702  0.3948  0.5976
    2CHTO   N11  614   4.887   5.100   3.686 -1.0024  0.4669  0.4298
    2CHTO  H108  615   4.958   5.176   3.661  0.2718 -1.3880 -1.6938
    2CHTO  H109  616   4.876   5.096   3.793  0.2016  0.6966  0.5641
    2CHTO   C61  617   4.624   5.052   3.668 -0.2884 -0.0812 -0.3761
    2CHTO  H118  618   4.613   5.051   3.778 -1.6249  0.4001 -0.5047
    2CHTO   O40  619   4.494   5.093   3.612 -0.0781  0.2757 -0.4637
    2CHTO   C68  620   4.496   5.203   3.527  0.0695  0.2990 -0.5177
    2CHTO  H125  621   4.528   5.290   3.588 -0.7956 -0.5375  1.1558
    2CHTO   C72  622   4.362   5.238   3.466 -0.0552  0.0301 -0.0131
    2CHTO   O48  623   4.272   5.283   3.570 -0.5973 -0.1579 -0.1068
    2CHTO  H105  624   4.309   5.347   3.628 -1.8019  0.0989  0.3856
    2CHTO   O38  625   4.643   4.912   3.625  0.1865  0.7488  0.4239
    2CHTO   C55  626   4.574   4.811   3.696  0.4142 -0.9319  0.3488
    2CHTO  H112  627   4.482   4.855   3.737 -0.6161 -1.6744 -1.1090
    2CHTO   C56  628   4.668   4.753   3.805  0.2797  0.1760 -0.1665
    2CHTO  H113  629   4.761   4.716   3.760  0.1955  1.8417 -1.7861
    2CHTO   O42  630   4.703   4.865   3.890 -0.1273 -0.1452 -0.5282
    2CHTO  H100  631   4.768   4.922   3.855 -1.8060  2.4927  0.5057
    2CHTO   C57  632   4.585   4.641   3.873  0.2290 -0.1815 -0.3971
    2CHTO  H114  633   4.500   4.691   3.918  0.6103  1.7792 -1.8064
    2CHTO   N10  634   4.646   4.576   3.991 -0.7770  0.3225 -0.0095
    2CHTO  H106  635   4.614   4.637   4.073 -2.4605 -1.1231  0.4294
    2CHTO  H107  636   4.608   4.475   4.002 -0.0983 -0.1761 -1.8649
    2CHTO   C58  637   4.527   4.529   3.780  0.2746 -0.7401 -0.3739
    2CHTO  H115  638   4.600   4.453   3.747 -0.4060 -0.3052 -3.0348
    2CHTO   O37  639   4.460   4.594   3.669  0.4001  0.1679 -0.2733
    2CHTO   C59  640   4.519   4.694   3.598 -0.8026 -0.3169 -0.0649
    2CHTO  H116  641   4.612   4.657   3.554 -0.4542 -0.8457  1.0971
    2CHTO   C70  642   4.428   4.751   3.493  0.5467  0.8964 -0.4130
    2CHTO   O46  643   4.305   4.810   3.535 -0.4866  0.4736 -0.0795
    2CHTO  H103  644   4.234   4.753   3.513  1.5346 -2.2401  0.1172
    2CHTO   O39  645   4.410   4.449   3.866  0.1005  0.4617  0.0915
    2CHTO   C60  646   4.276   4.486   3.838 -0.1919 -0.9114 -0.6533
    2CHTO  H117  647   4.272   4.590   3.808 -1.9492 -0.2810  1.6168
    2CHTO   C62  648   4.207   4.402   3.729 -0.6787 -0.1415 -0.0440
    2CHTO  H119  649   4.272   4.410   3.639 -2.7953  1.2124 -1.5256
    2CHTO   O43  650   4.198   4.263   3.763 -0.5797 -0.3874 -0.0629
    2CHTO  H101  651   4.155   4.208   3.701  2.9870 -2.2318 -1.0638
    2CHTO   C66  652   4.066   4.475   3.692 -0.3982  0.2198 -0.3304
    2CHTO  H123  653   4.088   4.580   3.673  2.1818 -0.3761 -0.8485
    2CHTO   N12  654   3.997   4.414   3.575 -0.8742 -0.2187 -0.1773
    2CHTO  H110  655   3.987   4.308   3.588  0.1773 -0.0527  2.3317
    2CHTO  H111  656   4.031   4.437   3.474 -0.5963 -1.3948 -0.3541
    2CHTO   C69  657   3.966   4.486   3.803  0.3180 -0.7043  0.3199
    2CHTO  H126  658   3.916   4.389   3.824  1.2823 -1.1534  0.5421
    2CHTO   O41  659   4.035   4.528   3.944 -0.5284 -0.4543  0.1671
    2CHTO   C64  660   4.185   4.474   3.967  0.2882 -0.8193 -0.1196
    2CHTO  H121  661   4.184   4.371   4.008 -0.1682 -0.3325  1.0854
    2CHTO   C71  662   4.239   4.566   4.079  0.3458  0.5826 -0.2008
    2CHTO   O47  663   4.367   4.515   4.132 -0.5749 -0.5695 -0.1005
    2CHTO  H104  664   4.342   4.452   4.197 -0.4777  0.8979  1.3817
    2CHTO   O34  665   3.855   4.585   3.752 -0.1332  0.1193 -0.9219
    2CHTO   C49  666   3.821   4.740   3.715  0.4740  1.0768 -0.2354
    2CHTO   H91  667   3.794   4.780   3.813  0.6560 -3.0589  1.6043
    2CHTO   C47  668   3.701   4.752   3.619  0.2727  0.3346 -0.2377
    2CHTO   H89  669   3.666   4.858   3.619 -0.7574  0.0147  0.8817
    2CHTO   O33  670   3.592   4.668   3.663 -0.4409 -0.3405  0.4615
    2CHTO   H70  671   3.628   4.583   3.645  0.4023 -0.1390  1.1345
    2CHTO   C45  672   3.754   4.721   3.466 -0.8281  0.4227 -0.4194
    2CHTO   H87  673   3.780   4.615   3.478 -3.4255 -0.0118  1.8956
    2CHTO    N8  674   3.640   4.725   3.378 -0.1329  0.4319 -0.2009
    2CHTO   H75  675   3.608   4.623   3.364 -1.7484  0.7048  1.2941
    2CHTO   H76  676   3.659   4.769   3.281  2.9477 -1.7030 -0.6508
    2CHTO   C43  677   3.882   4.800   3.423  1.0841  0.1931 -0.3099
    2CHTO   H85  678   3.914   4.760   3.327 -0.6559  1.7807 -1.5786
    2CHTO   O29  679   3.984   4.788   3.525 -0.6592  0.3697 -0.0674
    2CHTO   C50  680   3.946   4.817   3.666 -0.3198 -0.1772  0.1445
    2CHTO   H92  681   4.041   4.786   3.713  0.5355  0.0050 -1.4106
    2CHTO   C54  682   3.956   4.969   3.702  0.3850 -0.0795 -0.4583
    2CHTO   O36  683   3.845   5.042   3.647  0.5410 -0.6460 -0.1750
    2CHTO   H72  684   3.846   5.034   3.554  0.9946 -0.3849 -0.1952
    2CHTO   O27  685   3.853   4.937   3.393  0.0263  0.1417 -0.5965
    2CHTO   C37  686   3.883   5.029   3.284  0.5304 -0.2106  0.0149
    2CHTO   H79  687   3.899   4.975   3.189  0.3925 -1.4537  0.6883
    2CHTO   C38  688   3.768   5.126   3.255  0.7894 -0.1174 -0.1631
    2CHTO   H80  689   3.753   5.183   3.348 -0.4845  0.9522 -1.0086
    2CHTO   O31  690   3.654   5.046   3.225 -0.0999 -0.1174 -0.3705
    2CHTO   H68  691   3.577   5.086   3.262  0.8366  0.5629  0.8835
    2CHTO   C39  692   3.810   5.232   3.143  0.5984 -0.4648 -0.0678
    2CHTO   H81  693   3.847   5.180   3.055 -3.0082 -1.4647 -1.0863
    2CHTO    N7  694   3.696   5.324   3.104  0.0196  0.5529  0.4302
    2CHTO   H73  695   3.733   5.385   3.023 -0.6859 -0.1739 -0.4437
    2CHTO   H74  696   3.610   5.265   3.077  0.8781 -1.1510  1.3352
    2CHTO   C40  697   3.929   5.313   3.199  0.5844  0.3156  0.9559
    2CHTO   H82  698   3.885   5.354   3.290 -0.3271  2.2009 -0.3154
    2CHTO   O26  699   4.041   5.227   3.222 -0.1039  0.2559 -0.3211
    2CHTO   C41  700   4.022   5.106   3.308  0.1887  0.0826  0.2068
    2CHTO   H83  701   4.028   5.137   3.413 -0.2119 -1.1965  0.6239
    2CHTO   C52  702   4.138   5.002   3.289  0.0186 -0.2427 -0.2705
    2CHTO   O35  703   4.160   4.960   3.122 -0.2404  0.5351  0.1244
    2CHTO   H71  704   4.104   5.024   3.080  0.2367  1.4285  0.8409
    2CHTO   O28  705   3.972   5.413   3.102  0.3170  0.3546 -0.8240
    2CHTO   C42  706   4.032   5.544   3.141  0.7056  0.3088  0.1405
    2CHTO   H84  707   4.047   5.593   3.045  1.8440 -1.5320 -0.6339
    2CHTO   C44  708   4.177   5.541   3.216  0.6575  0.5795 -0.2190
    2CHTO   H86  709   4.163   5.496   3.315  1.8123 -0.9119 -0.7095
    2CHTO   O32  710   4.261   5.458   3.137  0.4109 -0.1777  0.1704
    2CHTO   H69  711   4.253   5.479   3.046 -0.8471  0.3086  0.3941
    2CHTO   C48  712   4.237   5.690   3.242  0.5238 -0.2906  0.0480
    2CHTO   H90  713   4.248   5.752   3.153 -2.1763  1.4767  0.8910
    2CHTO    N9  714   4.370   5.675   3.310 -0.0275 -0.1494 -0.4125
    2CHTO   H77  715   4.424   5.769   3.308 -2.1053  1.1385  1.4467
    2CHTO   H78  716   4.429   5.592   3.275  2.6180  1.5830 -0.2784
    2CHTO   C51  717   4.129   5.766   3.328  0.7178 -0.1114  0.7006
    2CHTO   H93  718   4.107   5.702   3.414 -2.4188 -1.1393 -0.8036
    2CHTO   O30  719   4.012   5.774   3.246  0.1301 -0.0469 -1.3015
    2CHTO   C46  720   3.940   5.641   3.222  0.0448 -0.2537 -0.3387
    2CHTO   H88  721   3.924   5.599   3.321 -0.5273  3.1814  1.0993
    2CHTO   C53  722   3.802   5.680   3.154  0.4793 -0.9155 -0.4810
    2CHTO   O72  723   3.701   5.736   3.238  0.0438 -0.0045 -0.4162
    2CHTO  H199  724   3.643   5.794   3.192  1.2931  1.5007 -0.1544
    2CHTO   O22  725   4.178   5.896   3.369  0.4057  0.0717  0.2502
    2CHTO   C31  726   4.115   5.964   3.488 -0.1820 -0.3652 -1.0164
    2CHTO   H59  727   4.154   6.068   3.490 -0.6973 -0.1832  0.6473
    2CHTO   C29  728   3.961   5.970   3.493 -0.1138  0.6556 -0.4016
    2CHTO   H57  729   3.928   5.866   3.480 -0.5793  0.6681  0.6847
    2CHTO   O21  730   3.921   6.027   3.374  0.2991 -0.0667  0.2591
    2CHTO   H37  731   3.830   6.036   3.355  0.8039  3.1249 -0.9755
    2CHTO   C27  732   3.910   6.034   3.627  0.0325  0.4651 -0.8812
    2CHTO   H55  733   3.951   6.135   3.641 -1.7165  1.4548 -2.6567
    2CHTO    N5  734   3.763   6.037   3.638  0.8502  0.8369 -0.1275
    2CHTO   H43  735   3.716   6.037   3.541 -1.3840  0.3556  0.9149
    2CHTO   H44  736   3.727   6.118   3.700 -0.9257 -0.6352  0.8462
    2CHTO   C25  737   3.975   5.962   3.750 -0.1105 -0.2871  0.1288
    2CHTO   H53  738   3.937   5.859   3.752 -0.2639 -0.2293  2.5147
    2CHTO   O17  739   4.119   5.974   3.739 -0.3515 -0.0995  0.7435
    2CHTO   C32  740   4.163   5.903   3.622  0.0315  0.5167  0.1306
    2CHTO   H60  741   4.125   5.802   3.630  1.1121  0.2945  2.8713
    2CHTO   C36  742   4.319   5.895   3.608 -0.0044  0.7576 -0.2014
    2CHTO   O25  743   4.402   6.019   3.621 -0.0916  0.1054 -0.6676
    2CHTO   H40  744   4.493   5.997   3.617 -0.6361 -2.0478 -2.6766
    2CHTO   O15  745   3.937   6.027   3.885 -0.0268  0.1859 -0.2484
    2CHTO   C19  746   3.843   6.005   3.995 -0.0852  0.6838  1.1460
    2CHTO   H47  747   3.752   6.062   3.969  0.6162  0.6867 -1.4212
    2CHTO   C20  748   3.783   5.862   4.002 -0.0920  0.1107 -1.1821
    2CHTO   H48  749   3.860   5.785   4.019  0.2147  0.7861  0.6114
    2CHTO   O19  750   3.716   5.827   3.877  0.0206  0.4765 -0.4508
    2CHTO   H35  751   3.782   5.847   3.813  0.8737  2.8901  1.1218
    2CHTO   C21  752   3.677   5.848   4.118  0.5647 -0.0869 -0.5313
    2CHTO   H49  753   3.595   5.916   4.099  0.9033 -0.0072 -1.7761
    2CHTO    N4  754   3.614   5.716   4.134 -0.2921 -0.2318 -0.3296
    2CHTO   H41  755   3.554   5.689   4.049 -4.0648 -0.4424  2.2913
    2CHTO   H42  756   3.693   5.645   4.155  0.9428  0.8554 -1.1698
    2CHTO   C22  757   3.747   5.892   4.252 -0.2011  0.2235  0.0940
    2CHTO   H50  758   3.835   5.832   4.275  0.3152  0.9338 -0.0329
    2CHTO   O14  759   3.793   6.026   4.234  0.1352 -0.1783  0.2021
    2CHTO   C23  760   3.892   6.051   4.137 -0.0059 -0.1228  0.1352
    2CHTO   H51  761   3.987   6.004   4.167 -0.1011 -0.2935  0.1702
    2CHTO   C34  762   3.914   6.200   4.132  0.1490  0.4678  0.1827
    2CHTO   O23  763   3.966   6.261   4.250 -0.0414  0.2195  0.1414
    2CHTO   H38  764   3.922   6.237   4.329  1.1249 -1.5980  0.2665
    2CHTO   O16  765   3.656   5.888   4.363 -0.4932 -0.1905  0.0725
    2CHTO   C24  766   3.697   5.931   4.507 -0.0068  0.1365 -0.1324
    2CHTO   H52  767   3.801   5.962   4.512  0.2095 -0.5348 -0.4258
    2CHTO   C26  768   3.664   5.807   4.599 -0.0629 -0.7584  0.6260
    2CHTO   H54  769   3.556   5.786   4.588  0.0211 -0.5729 -0.6793
    2CHTO   O20  770   3.735   5.697   4.555 -0.5426  0.0372  0.5222
    2CHTO   H36  771   3.825   5.723   4.543 -0.2938 -1.3967 -0.7879
    2CHTO   C30  772   3.677   5.842   4.753 -0.4597  0.3828  0.0216
    2CHTO   H58  773   3.783   5.839   4.783 -0.5212 -2.6023  0.0776
    2CHTO    N6  774   3.606   5.737   4.831  0.2136  0.0666 -0.0096
    2CHTO   H45  775   3.543   5.671   4.774 -1.1189  0.3265  1.1351
    2CHTO   H46  776   3.560   5.765   4.925  2.7333 -0.7274  1.5033
    2CHTO   C33  777   3.609   5.977   4.778  0.0009 -0.1847 -0.7236
    2CHTO   H61  778   3.500   5.978   4.766 -0.0276 -0.1019 -0.4521
    2CHTO   O18  779   3.664   6.074   4.686 -0.8650  0.6091  0.0684
    2CHTO   C28  780   3.621   6.061   4.549  0.6941 -0.0332  0.3120
    2CHTO   H56  781   3.513   6.046   4.546  0.6184  0.5028  0.1960
    2CHTO   C35  782   3.655   6.181   4.460 -0.3186  0.1414  0.1334
    2CHTO   O24  783   3.577   6.291   4.496 -0.1427 -0.6166 -0.0812
    2CHTO   H39  784   3.598   6.366   4.443  0.4485  0.3885  1.5628
    2CHTO    O9  785   3.625   6.022   4.915 -0.1001 -0.5295  0.1124
    2CHTO   C13  786   3.550   6.145   4.963 -0.0289  0.3361  0.1497
    2CHTO   H26  787   3.456   6.168   4.908 -0.5386  1.7500  1.5755
    2CHTO   C11  788   3.660   6.263   4.950  0.0299  0.3146  0.1148
    2CHTO   H24  789   3.682   6.277   4.844  0.4877  1.2913  0.3264
    2CHTO    O8  790   3.786   6.229   5.017 -0.6625 -0.3064 -0.1936
    2CHTO    H3  791   3.829   6.158   4.975  0.1848 -0.9813  1.7721
    2CHTO    C9  792   3.589   6.393   5.005  0.3518 -0.1890  0.1024
    2CHTO   H22  793   3.490   6.389   4.957  0.4341  1.5602 -0.2547
    2CHTO    N2  794   3.647   6.523   4.967 -0.2692  0.2303 -0.0408
    2CHTO   H10  795   3.660   6.586   5.053  0.8810  0.0660 -0.0887
    2CHTO   H11  796   3.603   6.570   4.880 -1.4515  0.5318  0.7083
    2CHTO    C7  797   3.564   6.379   5.157  0.0428  0.3571 -0.6483
    2CHTO   H20  798   3.505   6.467   5.187  0.7816  0.8295 -0.5652
    2CHTO    O4  799   3.499   6.258   5.201  0.4275  0.5143 -0.1453
    2CHTO   C14  800   3.497   6.139   5.118  0.2558 -0.5381 -0.0449
    2CHTO   H27  801   3.391   6.107   5.117 -0.2018  0.8257  1.8332
    2CHTO   C18  802   3.575   6.036   5.188  0.6487  0.3874 -0.1102
    2CHTO   O13  803   3.519   6.008   5.313 -0.0244 -0.0580 -0.1134
    2CHTO    H7  804   3.427   5.986   5.309 -0.2783  0.5493  1.8700
    2CHTO    O2  805   3.698   6.382   5.242 -0.5727 -0.5323 -0.2103
    2CHTO    C1  806   3.713   6.488   5.339  0.2218  0.4923  0.5796
    2CHTO   H14  807   3.630   6.484   5.412 -0.2441  0.3955  0.0441
    2CHTO    C2  808   3.729   6.638   5.285  0.3938 -0.0220  0.0276
    2CHTO   H15  809   3.804   6.640   5.205  1.2210  0.7298  0.8080
    2CHTO    O6  810   3.598   6.680   5.241 -0.2097  0.1560 -0.2498
    2CHTO    H1  811   3.583   6.633   5.161 -2.2708  1.3581 -0.5988
    2CHTO    C3  812   3.771   6.737   5.407  0.2430  1.0740  0.8998
    2CHTO   H16  813   3.699   6.730   5.490  0.7703 -1.0888  1.2070
    2CHTO    N1  814   3.783   6.877   5.363  0.2640  0.6976 -0.4966
    2CHTO    H8  815   3.856   6.878   5.283 -0.2781 -1.4360 -1.0504
    2CHTO    H9  816   3.690   6.908   5.319 -0.6758 -2.2009 -0.6572
    2CHTO    C4  817   3.899   6.681   5.476  0.6505 -0.0780  0.1215
    2CHTO   H17  818   3.984   6.681   5.407  0.0914 -2.0179 -0.6037
    2CHTO    O1  819   3.874   6.541   5.515  0.5157  0.1613  0.2177
    2CHTO    C5  820   3.847   6.449   5.410 -0.3322 -0.1702  0.2644
    2CHTO   H18  821   3.924   6.461   5.334 -0.3649 -0.4146  0.1905
    2CHTO   C16  822   3.862   6.305   5.471 -0.0840 -0.4667 -0.2604
    2CHTO   O11  823   3.992   6.293   5.539 -0.0798 -0.1383  0.7611
    2CHTO    H5  824   3.974   6.295   5.631 -2.0027  0.1273  0.3993
    2CHTO    O3  825   3.943   6.739   5.596  0.1386 -0.2223  0.1865
    2CHTO    C6  826   4.078   6.727   5.634 -0.6041  0.6713 -0.5744
    2CHTO   H19  827   4.127   6.644   5.583  0.6794  2.3494 -2.1247
    2CHTO    C8  828   4.158   6.860   5.601 -0.7870  0.0032  0.3631
    2CHTO   H21  829   4.102   6.942   5.646  0.8672  0.7399  1.1140
    2CHTO    O7  830   4.159   6.873   5.459  0.4999 -0.3898  0.2266
    2CHTO    H2  831   4.067   6.876   5.440  0.4061 -1.5844  0.4423
    2CHTO   C12  832   4.299   6.857   5.671 -0.3681 -0.2938 -0.4313
    2CHTO   H25  833   4.366   6.785   5.619 -0.4802 -1.2702  0.7584
    2CHTO    N3  834   4.381   6.984   5.654  0.3789 -0.2547  0.2631
    2CHTO   H12  835   4.387   7.033   5.750  2.2253  1.7906 -0.8420
    2CHTO   H13  836   4.344   7.044   5.572 -1.1331 -0.3292  0.8864
    2CHTO   C15  837   4.285   6.818   5.826 -0.6110 -0.2527 -1.0521
    2CHTO   H28  838   4.234   6.895   5.884  1.7274  0.2129  0.4590
    2CHTO   O10  839   4.423   6.782   5.896 -0.1772  0.3779 -0.1871
    2CHTO    H4  840   4.448   6.693   5.912  0.7071  0.7358  0.4336
    2CHTO    O5  841   4.211   6.691   5.837 -0.6557  0.3727  0.4469
    2CHTO   C10  842   4.081   6.697   5.780 -0.2827  0.0599  0.2351
    2CHTO   H23  843   4.023   6.770   5.836 -0.8490 -1.4987  1.7381
    2CHTO   C17  844   4.018   6.559   5.815  0.3050  0.7096 -0.2097
    2CHTO   O12  845   4.102   6.457   5.749 -0.1125  0.4421  0.3373
    2CHTO    H6  846   4.060   6.373   5.743  0.1084  0.4694 -2.5086
    3CHTO  H203  847   6.042   2.564   1.777 -0.7158 -1.0938 -1.5349
    3CHTO   O82  848   6.062   2.480   1.813 -0.0699 -0.0894  0.5321
    3CHTO  C123  849   6.144   2.406   1.721 -0.2760 -0.1779 -0.4286
    3CHTO  H227  850   6.158   2.306   1.764  1.9991  0.1040 -0.4304
    3CHTO   O77  851   6.072   2.399   1.594  0.2394  0.0056  0.0023
    3CHTO  C118  852   6.146   2.347   1.484  0.6003 -0.4085 -0.2159
    3CHTO  H222  853   6.165   2.241   1.505  1.3556 -0.3082 -0.3809
    3CHTO  C125  854   6.059   2.353   1.354 -0.3899 -0.1838  0.5471
    3CHTO   O84  855   5.954   2.263   1.358  0.4624 -0.2153  0.0357
    3CHTO  H205  856   5.919   2.255   1.271  2.7322 -1.4188 -0.7976
    3CHTO  C114  857   6.279   2.424   1.459  0.8952  0.7316  0.0204
    3CHTO  H218  858   6.254   2.529   1.445  0.6183  0.5958 -0.5232
    3CHTO  C116  859   6.368   2.415   1.589  0.1638  0.3035 -0.1237
    3CHTO  H220  860   6.396   2.310   1.612 -0.3975 -0.0008 -0.8099
    3CHTO   O79  861   6.486   2.493   1.564 -0.2615 -0.3152  0.0033
    3CHTO  H201  862   6.563   2.440   1.572 -0.3453 -0.6584 -1.3823
    3CHTO  C120  863   6.287   2.483   1.711  0.6907  0.0135  0.5053
    3CHTO  H224  864   6.262   2.585   1.675  0.8313 -0.7950 -1.9509
    3CHTO   N21  865   6.366   2.487   1.836  0.0826  0.6148 -0.3934
    3CHTO  H211  866   6.473   2.501   1.824 -0.3192  4.0081 -0.6683
    3CHTO  H212  867   6.338   2.416   1.912  0.6204  1.1640  0.3263
    3CHTO   O75  868   6.346   2.379   1.334  0.2908  0.0109  0.1339
    3CHTO  C112  869   6.460   2.253   1.315 -0.3092  0.2332 -0.3063
    3CHTO  H216  870   6.414   2.157   1.291 -0.7147  0.5260 -0.7125
    3CHTO   O73  871   6.540   2.245   1.434  0.6063  0.0012 -0.0731
    3CHTO  C113  872   6.629   2.134   1.428  0.7416  0.9713  0.3900
    3CHTO  H217  873   6.572   2.048   1.386  1.0103  1.5698 -1.1914
    3CHTO  C124  874   6.667   2.112   1.581 -0.5293  1.2346  0.0952
    3CHTO   O83  875   6.749   1.996   1.602 -0.6359 -0.1999 -0.0786
    3CHTO  H204  876   6.795   2.006   1.683 -0.2534  0.8002 -0.4070
    3CHTO  C109  877   6.747   2.171   1.338  0.8026 -0.3110 -0.1731
    3CHTO  H213  878   6.793   2.259   1.383  0.9459  0.2999 -1.4880
    3CHTO  C110  879   6.691   2.223   1.197 -0.4100  0.6337 -0.4671
    3CHTO  H214  880   6.674   2.133   1.139  2.4084 -0.2919  0.0711
    3CHTO   O78  881   6.792   2.291   1.120  0.6000  0.4628 -0.3838
    3CHTO  H200  882   6.810   2.257   1.034 -1.1544  1.2878 -1.1276
    3CHTO  C111  883   6.554   2.299   1.194 -0.1143 -0.3796 -0.1072
    3CHTO  H215  884   6.571   2.406   1.215 -0.9622  0.4638 -3.4100
    3CHTO   N19  885   6.484   2.288   1.064 -0.1619 -0.1771 -0.3737
    3CHTO  H207  886   6.448   2.188   1.045 -1.2724  0.6091 -2.6657
    3CHTO  H208  887   6.403   2.360   1.058  0.7444  0.7231 -2.1727
    3CHTO   O74  888   6.840   2.062   1.319  0.1575  0.0281 -0.1011
    3CHTO  C115  889   6.963   2.080   1.222  0.1010  0.2693 -0.5361
    3CHTO  H219  890   6.940   2.127   1.127  0.9786 -0.3780 -1.0800
    3CHTO   O76  891   7.087   2.175   1.289  0.1305  0.0401  0.4070
    3CHTO  C122  892   7.127   2.120   1.413 -0.5456 -0.4681 -0.0372
    3CHTO  H226  893   7.040   2.121   1.478 -0.5787 -1.1113 -0.0743
    3CHTO  C126  894   7.229   2.216   1.488 -0.1319 -0.2605 -0.8341
    3CHTO   O85  895   7.281   2.155   1.604  0.0626  0.1572 -0.7824
    3CHTO  H206  896   7.330   2.225   1.643  0.1628  0.2428 -1.0600
    3CHTO  C121  897   7.185   1.969   1.386 -0.0102 -0.3965 -0.1178
    3CHTO  H225  898   7.293   1.988   1.404  0.2491 -2.5172  0.6327
    3CHTO   O81  899   7.143   1.890   1.499 -0.0783  0.3478  0.2064
    3CHTO  H202  900   7.210   1.853   1.553  1.2222  0.8779 -1.0455
    3CHTO  C119  901   7.156   1.909   1.247 -0.9527 -0.0520  0.2651
    3CHTO  H223  902   7.219   1.965   1.179 -2.3689  0.6493 -0.4990
    3CHTO  C117  903   7.010   1.933   1.194  0.0820  0.1835 -0.6611
    3CHTO  H221  904   6.945   1.865   1.248  1.4353 -1.1875 -0.7223
    3CHTO   N20  905   6.995   1.898   1.045  0.3317 -0.4402 -0.4685
    3CHTO  H209  906   7.065   1.963   0.994 -0.1769  0.5297  0.0529
    3CHTO  H210  907   6.891   1.902   1.016  0.1764 -0.4004  0.0877
    3CHTO   O80  908   7.208   1.765   1.232 -0.0468  0.0059  0.1424
    3CHTO  C103  909   7.152   1.622   1.320  0.8482 -0.5700 -0.1858
    3CHTO  H190  910   7.211   1.619   1.412  1.7883 -0.2935 -0.7736
    3CHTO  C101  911   6.999   1.594   1.335 -0.3723 -0.1704  0.4382
    3CHTO  H188  912   6.935   1.586   1.248 -0.4457  1.2191  0.3473
    3CHTO   O68  913   6.928   1.704   1.426 -0.0491  0.0657 -0.5808
    3CHTO  H168  914   6.847   1.734   1.390 -0.1112 -0.6807 -1.0726
    3CHTO   C99  915   6.982   1.450   1.400 -0.7339  0.7029  0.6429
    3CHTO  H186  916   7.032   1.454   1.499 -1.1446 -0.5700  0.9202
    3CHTO   N17  917   6.840   1.414   1.432 -0.2400 -0.1475 -0.6516
    3CHTO  H174  918   6.854   1.317   1.477  1.4233 -0.4243 -1.7168
    3CHTO  H175  919   6.777   1.410   1.344 -0.2622  0.4706 -0.6659
    3CHTO   C97  920   7.049   1.332   1.323  1.2159 -0.4253 -0.4581
    3CHTO  H184  921   6.990   1.315   1.231  1.3986 -2.0125 -0.2799
    3CHTO   O64  922   7.179   1.375   1.297  0.1282  0.5964 -0.1692
    3CHTO  C104  923   7.210   1.498   1.231  1.0746 -0.9601 -0.1941
    3CHTO  H191  924   7.162   1.492   1.133  2.4816  2.3211 -1.1487
    3CHTO  C108  925   7.359   1.501   1.202 -0.1310 -0.1086 -0.2931
    3CHTO   O71  926   7.396   1.391   1.115 -0.2047  0.4150 -0.7202
    3CHTO  H171  927   7.436   1.433   1.041  0.7579 -0.8115 -0.9056
    3CHTO   O62  928   7.065   1.212   1.396 -0.4103 -0.0287 -0.1111
    3CHTO   C91  929   6.985   1.099   1.362 -0.5357  0.1821 -0.4256
    3CHTO  H178  930   6.893   1.130   1.313 -0.8953  2.1887  1.4764
    3CHTO   C92  931   6.957   1.038   1.504  0.0646 -0.6417 -0.1441
    3CHTO  H179  932   7.056   1.024   1.551  0.6088  1.3132 -0.6521
    3CHTO   O66  933   6.886   1.139   1.575 -0.2201  0.2392  0.3411
    3CHTO  H166  934   6.818   1.093   1.621  2.2258 -3.2718  0.5842
    3CHTO   C93  935   6.868   0.905   1.494  0.0459 -0.4139  0.1114
    3CHTO  H180  936   6.764   0.939   1.506  0.0660 -0.1258 -0.4745
    3CHTO   N16  937   6.895   0.812   1.606 -0.7830  0.0791 -0.4894
    3CHTO  H172  938   6.852   0.850   1.697  1.9302 -0.9168  1.2507
    3CHTO  H173  939   6.867   0.711   1.581  2.0171 -0.2570 -2.5463
    3CHTO   C94  940   6.886   0.846   1.350  0.5356  0.8673  0.0976
    3CHTO  H181  941   6.856   0.742   1.342 -0.2820  1.1183 -0.2521
    3CHTO   O61  942   7.021   0.858   1.296  0.7355 -0.0718 -0.2761
    3CHTO   C95  943   7.075   0.990   1.284  0.6339  0.3503 -0.6124
    3CHTO  H182  944   7.169   0.997   1.338 -0.1694  1.2509  0.6986
    3CHTO  C106  945   7.086   1.025   1.127 -0.0339  0.2203 -0.2180
    3CHTO   O69  946   7.183   1.128   1.105 -0.2951  0.4343 -0.0618
    3CHTO  H169  947   7.252   1.144   1.167 -1.0767  1.8702  0.4714
    3CHTO   O63  948   6.778   0.923   1.251  0.1666  0.1399  0.3414
    3CHTO   C96  949   6.633   0.836   1.222 -0.1591 -0.4566  0.4968
    3CHTO  H183  950   6.590   0.811   1.319 -0.9123 -1.7436 -0.1471
    3CHTO   C98  951   6.642   0.711   1.140 -0.0124 -0.1856  0.7247
    3CHTO  H185  952   6.709   0.722   1.053  1.0248 -0.8413  1.4125
    3CHTO   O67  953   6.721   0.614   1.220  0.3918 -0.2190  0.1822
    3CHTO  H167  954   6.757   0.544   1.168  1.7755  2.4078 -2.5389
    3CHTO  C102  955   6.507   0.649   1.095  0.4482 -0.2733 -0.3418
    3CHTO  H189  956   6.462   0.615   1.189 -1.4681  0.2984 -1.0226
    3CHTO   N18  957   6.522   0.523   1.013  0.6843 -0.2719  0.4043
    3CHTO  H176  958   6.506   0.445   1.086  0.6730 -0.9680 -0.3329
    3CHTO  H177  959   6.619   0.511   0.967  0.0614 -0.9481 -0.7635
    3CHTO  C105  960   6.423   0.760   1.036 -0.2306 -0.0669 -0.5112
    3CHTO  H192  961   6.462   0.782   0.936  0.1343  3.4320  0.3220
    3CHTO   O65  962   6.417   0.877   1.115  0.1838 -0.5502  0.3591
    3CHTO  C100  963   6.539   0.937   1.153 -0.1206 -0.2421  0.7204
    3CHTO  H187  964   6.596   0.977   1.068 -0.2435 -4.6203 -1.5706
    3CHTO  C107  965   6.498   1.047   1.255 -0.6937 -0.2642  0.9502
    3CHTO   O70  966   6.428   1.154   1.189  0.1247  0.6546 -0.0591
    3CHTO  H170  967   6.337   1.144   1.206  0.2401 -1.3955 -0.5779
    3CHTO   O57  968   6.278   0.709   1.022 -0.0041  0.0636 -0.4974
    3CHTO   C85  969   6.173   0.790   0.965 -0.2813  0.3407  0.9769
    3CHTO  H157  970   6.200   0.840   0.870 -3.0603 -0.2108 -0.1289
    3CHTO   C83  971   6.140   0.919   1.053  0.5851  0.1471  0.5912
    3CHTO  H155  972   6.230   0.981   1.055  0.5392  0.2771 -0.6072
    3CHTO   O56  973   6.116   0.883   1.193 -0.4310  0.3694  0.3459
    3CHTO  H135  974   6.194   0.863   1.242  0.0562 -1.8495 -1.2615
    3CHTO   C81  975   6.028   0.997   0.980 -0.1637 -0.3108  1.4255
    3CHTO  H153  976   6.062   1.013   0.878 -0.8160  0.9102  1.3891
    3CHTO   N14  977   6.003   1.125   1.047  0.4096 -0.2417  0.4753
    3CHTO  H141  978   5.958   1.186   0.971  0.9372  0.0212  0.3753
    3CHTO  H142  979   5.943   1.117   1.136  0.1150  0.9117  0.3943
    3CHTO   C79  980   5.888   0.915   0.974  0.1465  0.5030  0.3051
    3CHTO  H151  981   5.824   0.971   0.906 -0.7150 -0.4125  0.3496
    3CHTO   O52  982   5.906   0.779   0.914  0.2892 -0.2574 -0.0136
    3CHTO   C86  983   6.030   0.712   0.951 -0.3762  0.2090 -0.1824
    3CHTO  H158  984   6.006   0.656   1.044 -1.2831  0.9660  0.0485
    3CHTO   C90  985   6.054   0.602   0.848 -0.3684 -0.7845  0.5858
    3CHTO   O60  986   5.955   0.502   0.850  0.1393  0.2172 -0.0384
    3CHTO  H138  987   5.967   0.434   0.787  0.5666 -0.4748  0.7715
    3CHTO   O50  988   5.821   0.905   1.099 -0.0446 -0.4217 -0.2193
    3CHTO   C73  989   5.714   0.841   1.167  0.8881 -0.0921 -0.5582
    3CHTO  H145  990   5.723   0.732   1.164 -0.7330 -0.2761  0.4649
    3CHTO   C74  991   5.570   0.880   1.112  0.3521  0.5005  0.3930
    3CHTO  H146  992   5.580   0.866   1.003  1.4095 -0.6869  0.6190
    3CHTO   O54  993   5.467   0.794   1.164 -0.0421  0.4028 -0.0089
    3CHTO  H133  994   5.485   0.702   1.155  1.1833  0.3730  2.3186
    3CHTO   C75  995   5.537   1.032   1.150  0.4367 -1.0820  0.3947
    3CHTO  H147  996   5.595   1.105   1.091  1.2455 -1.9090  0.1681
    3CHTO   N13  997   5.394   1.070   1.115 -0.5851 -0.9066 -0.8244
    3CHTO  H139  998   5.321   1.066   1.194  0.3633 -0.7121  0.0686
    3CHTO  H140  999   5.356   1.011   1.032 -1.6667 -2.0920  0.4885
    3CHTO   C76 1000   5.590   1.079   1.298 -0.7197  0.2389  0.0453
    3CHTO  H148 1001   5.512   1.057   1.371 -0.6941 -0.1222 -0.0341
    3CHTO   O49 1002   5.717   1.022   1.340 -0.1484 -0.2710 -0.0773
    3CHTO   C77 1003   5.720   0.880   1.321 -0.1937 -0.4796 -0.5101
    3CHTO  H149 1004   5.640   0.836   1.379  0.2647 -1.1156 -0.3469
    3CHTO   C88 1005   5.850   0.825   1.384 -0.2884 -0.3554 -0.8774
    3CHTO   O58 1006   5.848   0.815   1.531  0.3846 -0.3292  0.4961
    3CHTO  H136 1007   5.761   0.811   1.567  0.1318 -2.2864 -0.2863
    3CHTO   O51 1008   5.625   1.237   1.302 -0.3687  0.1625  0.2049
    3CHTO   C78 1009   5.587   1.312   1.431  0.5348  0.4830 -0.0358
    3CHTO  H150 1010   5.553   1.241   1.508 -2.0259 -0.0077 -1.5706
    3CHTO   C80 1011   5.470   1.416   1.410  0.3056 -0.8718  0.4120
    3CHTO  H152 1012   5.489   1.468   1.315  0.8748 -0.6365  0.6514
    3CHTO   O55 1013   5.344   1.351   1.387  0.2698 -0.1937  0.3807
    3CHTO  H134 1014   5.344   1.301   1.308  0.3896 -0.7996  0.7607
    3CHTO   C84 1015   5.449   1.522   1.523 -0.1774  0.3256 -0.4287
    3CHTO  H156 1016   5.405   1.466   1.606 -0.0358  0.8113 -0.0216
    3CHTO   N15 1017   5.355   1.631   1.483  0.2226 -0.0760  0.6591
    3CHTO  H143 1018   5.398   1.694   1.408  0.1859  1.3923  1.8387
    3CHTO  H144 1019   5.322   1.697   1.560  1.1395  0.4946  0.5664
    3CHTO   C87 1020   5.588   1.568   1.560  0.3522 -0.5379 -0.3929
    3CHTO  H159 1021   5.638   1.612   1.473 -0.3021 -3.6622 -2.4161
    3CHTO   O53 1022   5.666   1.454   1.599  0.6587 -0.7251 -0.4431
    3CHTO   C82 1023   5.707   1.392   1.484  0.1749  0.2731 -0.3906
    3CHTO  H154 1024   5.751   1.466   1.417  1.2326  0.7736  0.8322
    3CHTO   C89 1025   5.824   1.302   1.522  0.5311 -0.2316 -0.2544
    3CHTO   O59 1026   5.886   1.267   1.403  0.0842  0.0001 -0.5779
    3CHTO  H137 1027   5.844   1.195   1.360  0.9608 -0.3473 -0.8712
    3CHTO   O45 1028   5.578   1.676   1.680  0.2521  0.4780 -0.3331
    3CHTO   C67 1029   5.706   1.731   1.722 -0.1134  0.0851 -0.6853
    3CHTO  H124 1030   5.780   1.654   1.699 -0.5874 -0.0997 -1.6114
    3CHTO   C65 1031   5.740   1.866   1.647 -0.5933 -0.2121 -0.8279
    3CHTO  H122 1032   5.642   1.903   1.620 -0.0301  0.8428 -1.4714
    3CHTO   O44 1033   5.803   1.831   1.521  0.0977  0.1983  0.2805
    3CHTO  H102 1034   5.890   1.797   1.529  0.1549  0.4379  0.7122
    3CHTO   C63 1035   5.809   1.974   1.735  0.4420 -0.8492 -0.0931
    3CHTO  H120 1036   5.732   2.018   1.798  0.4664 -1.7195  0.5584
    3CHTO   N11 1037   5.875   2.087   1.658 -0.7475 -0.3507  0.1384
    3CHTO  H108 1038   5.972   2.057   1.623  0.1161  0.9711  1.3656
    3CHTO  H109 1039   5.810   2.125   1.582 -0.1158  0.0821 -0.1872
    3CHTO   C61 1040   5.913   1.901   1.835 -0.6488 -0.7780  0.3344
    3CHTO  H118 1041   5.960   1.974   1.903  1.3278 -0.6225 -1.1601
    3CHTO   O40 1042   5.842   1.798   1.920 -0.1488  0.4579 -0.0307
    3CHTO   C68 1043   5.715   1.756   1.883  0.0346 -0.3059 -0.2637
    3CHTO  H125 1044   5.651   1.843   1.910  0.8839  1.1480 -2.6831
    3CHTO   C72 1045   5.680   1.636   1.975 -0.0500  0.3724 -0.1664
    3CHTO   O48 1046   5.775   1.524   1.972 -0.1922 -0.4439  0.4371
    3CHTO  H105 1047   5.841   1.533   2.038 -0.6513  2.7466  0.5455
    3CHTO   O38 1048   6.009   1.831   1.761  0.1615  0.2026  0.5911
    3CHTO   C55 1049   6.137   1.793   1.818 -0.4714  0.3378  0.0582
    3CHTO  H112 1050   6.124   1.764   1.923  0.2512 -2.4032 -0.5582
    3CHTO   C56 1051   6.249   1.902   1.802 -0.6581 -0.7224  0.1748
    3CHTO  H113 1052   6.275   1.913   1.696  0.2486  3.7359  0.7433
    3CHTO   O42 1053   6.212   2.034   1.848 -0.2030 -0.3949 -0.4816
    3CHTO  H100 1054   6.208   2.089   1.773  0.6043  1.1259  0.5770
    3CHTO   C57 1055   6.379   1.838   1.874 -0.0530  0.5983 -0.0659
    3CHTO  H114 1056   6.357   1.832   1.981 -1.7303 -1.0706 -0.4620
    3CHTO   N10 1057   6.500   1.928   1.865  0.1781 -1.0521  1.1370
    3CHTO  H106 1058   6.572   1.879   1.929  1.8924  1.2855  1.0926
    3CHTO  H107 1059   6.488   2.030   1.897  0.5746 -0.1490 -1.4401
    3CHTO   C58 1060   6.416   1.693   1.823 -0.2548  0.6133 -0.5701
    3CHTO  H115 1061   6.465   1.701   1.724 -1.4066  0.1920 -1.1808
    3CHTO   O37 1062   6.299   1.602   1.809  0.3872 -0.5854  0.2981
    3CHTO   C59 1063   6.179   1.655   1.750  0.6944 -0.1042 -0.2294
    3CHTO  H116 1064   6.185   1.669   1.642 -1.2505 -2.3510 -0.6696
    3CHTO   C70 1065   6.071   1.548   1.772  0.1409 -0.5753  0.1472
    3CHTO   O46 1066   6.000   1.524   1.652 -0.2359  0.4312  0.4004
    3CHTO  H103 1067   6.055   1.486   1.586  1.6892 -1.9078  3.2192
    3CHTO   O39 1068   6.523   1.610   1.927  0.1856 -0.0741  0.2484
    3CHTO   C60 1069   6.640   1.570   1.857 -0.4287 -0.4165  0.1248
    3CHTO  H117 1070   6.617   1.549   1.753 -0.8321  1.1097 -0.1096
    3CHTO   C62 1071   6.759   1.675   1.851  0.8522  0.3978 -0.0622
    3CHTO  H119 1072   6.717   1.760   1.794 -1.7907 -1.0859 -0.4533
    3CHTO   O43 1073   6.783   1.729   1.981 -0.2696 -0.1764 -0.1773
    3CHTO  H101 1074   6.790   1.659   2.044  0.3316 -0.4463 -0.5440
    3CHTO   C66 1075   6.900   1.617   1.792  0.3008  0.0034  0.4812
    3CHTO  H123 1076   6.880   1.558   1.702  2.4231  2.5117 -1.7250
    3CHTO   N12 1077   7.001   1.718   1.767 -0.4206  0.2228 -0.3966
    3CHTO  H110 1078   7.089   1.697   1.708 -0.3425  1.1614 -0.6175
    3CHTO  H111 1079   6.970   1.821   1.759  0.5439  0.5480  0.0629
    3CHTO   C69 1080   6.948   1.506   1.890  0.1714  0.3843  0.6782
    3CHTO  H126 1081   6.954   1.546   1.993 -1.5969 -1.2530  1.4544
    3CHTO   O41 1082   6.834   1.394   1.880  0.0145  0.3033 -0.2836
    3CHTO   C64 1083   6.688   1.442   1.924 -0.2867  0.6287 -0.1151
    3CHTO  H121 1084   6.686   1.457   2.034  0.4817  0.8714 -0.1321
    3CHTO   C71 1085   6.591   1.330   1.900 -0.1044  0.1780  0.1726
    3CHTO   O47 1086   6.599   1.293   1.763  0.3998 -0.1865  0.3322
    3CHTO  H104 1087   6.624   1.203   1.763 -0.3993 -0.4213 -0.2297
    3CHTO   O34 1088   7.087   1.452   1.861  0.4951 -0.4078 -0.2423
    3CHTO   C49 1089   7.203   1.343   1.878  0.0588 -0.2222  0.1936
    3CHTO   H91 1090   7.207   1.329   1.986 -1.3232 -0.2557  0.2579
    3CHTO   C47 1091   7.336   1.403   1.826 -0.0988 -0.5855  0.2924
    3CHTO   H89 1092   7.420   1.347   1.871 -1.8725 -2.7157  1.0091
    3CHTO   O33 1093   7.344   1.535   1.886 -0.0833  0.3620  0.1043
    3CHTO   H70 1094   7.282   1.547   1.956  0.5751  1.8779  0.4497
    3CHTO   C45 1095   7.347   1.398   1.666  0.4227  0.2721  0.0349
    3CHTO   H87 1096   7.264   1.457   1.625  1.1418 -0.3860 -2.4591
    3CHTO    N8 1097   7.467   1.469   1.612  1.0543  0.3799 -0.2598
    3CHTO   H75 1098   7.467   1.442   1.508 -0.4794  0.3632 -0.2581
    3CHTO   H76 1099   7.452   1.574   1.630  0.3217  0.3546 -0.7056
    3CHTO   C43 1100   7.317   1.258   1.607  0.4662 -0.0454 -0.1521
    3CHTO   H85 1101   7.309   1.271   1.499  0.8307  1.1906 -0.0337
    3CHTO   O29 1102   7.197   1.207   1.665 -0.2320 -0.4380  0.3003
    3CHTO   C50 1103   7.172   1.210   1.808  0.3997  0.0206  0.5562
    3CHTO   H92 1104   7.066   1.184   1.827  0.7666 -1.2997  0.8494
    3CHTO   C54 1105   7.242   1.088   1.864  0.3012 -0.1187  0.2243
    3CHTO   O36 1106   7.199   0.955   1.822 -0.2811 -0.6760  0.0849
    3CHTO   H72 1107   7.106   0.945   1.816 -0.5249  1.1028  0.6729
    3CHTO   O27 1108   7.425   1.177   1.608 -0.0511 -0.3850 -0.1383
    3CHTO   C37 1109   7.500   1.091   1.517  0.6139  0.5386  0.2774
    3CHTO   H79 1110   7.600   1.079   1.562  0.8268  0.1097 -0.2972
    3CHTO   C38 1111   7.437   0.954   1.511  0.4559 -0.4014  0.4685
    3CHTO   H80 1112   7.329   0.974   1.499  0.3044  0.7666  3.3778
    3CHTO   O31 1113   7.449   0.892   1.633  0.2836 -0.0673  0.6321
    3CHTO   H68 1114   7.537   0.867   1.653  1.3709  0.0358 -3.6498
    3CHTO   C39 1115   7.488   0.860   1.397  0.3912  0.5280  0.2706
    3CHTO   H81 1116   7.594   0.832   1.406 -0.0669 -0.8861  1.6083
    3CHTO    N7 1117   7.404   0.735   1.380  1.0236  0.8637 -0.0654
    3CHTO   H73 1118   7.312   0.743   1.325  0.7318 -1.5130  0.0070
    3CHTO   H74 1119   7.382   0.709   1.483 -0.1029 -0.7341 -0.6822
    3CHTO   C40 1120   7.500   0.950   1.268  0.2043 -0.9050 -0.1604
    3CHTO   H82 1121   7.398   0.983   1.250  0.2067 -0.0489  1.3391
    3CHTO   O26 1122   7.583   1.061   1.298 -0.3149  0.0510  1.0282
    3CHTO   C41 1123   7.520   1.156   1.385  0.8398  0.2649  0.5877
    3CHTO   H83 1124   7.425   1.189   1.340  0.5409 -0.0451  0.9873
    3CHTO   C52 1125   7.626   1.268   1.395 -0.2003  0.6979 -0.2099
    3CHTO   O35 1126   7.673   1.322   1.235  0.1645 -0.6888 -0.0274
    3CHTO   H71 1127   7.765   1.337   1.224  0.5695 -3.3006 -0.5963
    3CHTO   O28 1128   7.562   0.875   1.157 -0.5274  0.7147  0.4114
    3CHTO   C42 1129   7.531   0.889   1.018  0.2275 -0.2188  0.1356
    3CHTO   H84 1130   7.617   0.875   0.953  0.7989  1.6667  0.4564
    3CHTO   C44 1131   7.481   1.028   0.976  0.4379 -0.1598  0.0696
    3CHTO   H86 1132   7.400   1.052   1.044 -1.5584 -0.8336 -2.0100
    3CHTO   O32 1133   7.588   1.122   0.998  0.0251 -0.4092 -0.6562
    3CHTO   H69 1134   7.665   1.082   0.961 -0.6492 -0.2839 -2.2104
    3CHTO   C48 1135   7.424   1.029   0.827  0.0407 -0.2567  0.3657
    3CHTO   H90 1136   7.503   1.027   0.752 -0.9442 -4.0611 -0.6696
    3CHTO    N9 1137   7.370   1.163   0.792 -0.0540  0.0298  0.1955
    3CHTO   H77 1138   7.279   1.182   0.848 -0.8669  0.0650 -1.1029
    3CHTO   H78 1139   7.340   1.170   0.689 -2.9377 -0.4407  0.9403
    3CHTO   C51 1140   7.315   0.914   0.800  0.1226  0.4923 -0.5681
    3CHTO   H93 1141   7.225   0.933   0.859 -1.4758 -1.0751 -2.4307
    3CHTO   O30 1142   7.369   0.788   0.826 -0.0351  0.4994 -0.3222
    3CHTO   C46 1143   7.429   0.776   0.976 -0.0920  0.2240  0.1457
    3CHTO   H88 1144   7.340   0.778   1.039 -0.5520  1.7781 -0.5317
    3CHTO   C53 1145   7.499   0.633   0.997  0.3245 -0.1775  0.2011
    3CHTO   O72 1146   7.594   0.607   0.895  0.0995  0.2738  0.1488
    3CHTO  H199 1147   7.633   0.522   0.893 -1.3789 -0.4145 -1.2538
    3CHTO   O22 1148   7.273   0.910   0.661  0.5575 -0.2759 -0.6235
    3CHTO   C31 1149   7.127   0.891   0.623  0.0375 -0.5914 -0.5687
    3CHTO   H59 1150   7.132   0.853   0.519 -0.2377 -0.7238 -0.5338
    3CHTO   C29 1151   7.041   0.793   0.711 -0.5571  0.3861  0.4443
    3CHTO   H57 1152   7.054   0.814   0.818  3.4153 -1.6942  0.4771
    3CHTO   O21 1153   7.108   0.666   0.692 -0.4422  0.5970  0.1063
    3CHTO   H37 1154   7.159   0.628   0.761 -0.7599  0.0419  0.0376
    3CHTO   C27 1155   6.888   0.784   0.673 -0.7354 -0.7250  0.2204
    3CHTO   H55 1156   6.884   0.735   0.575  1.2405  1.6566 -1.1086
    3CHTO    N5 1157   6.809   0.699   0.772  0.3270  0.0931  0.7187
    3CHTO   H43 1158   6.733   0.758   0.820 -1.4277 -0.7034 -0.9835
    3CHTO   H44 1159   6.776   0.609   0.721  2.0608 -0.1693  0.0247
    3CHTO   C25 1160   6.832   0.924   0.658 -0.4539  0.1309 -0.7877
    3CHTO   H53 1161   6.824   0.956   0.763  1.9135 -0.6147 -0.3323
    3CHTO   O17 1162   6.912   1.003   0.573 -0.2282 -0.3523  0.2266
    3CHTO   C32 1163   7.048   1.029   0.616  0.0468 -0.1168 -0.1190
    3CHTO   H60 1164   7.046   1.070   0.717 -0.2556 -1.3135  0.3625
    3CHTO   C36 1165   7.122   1.128   0.530  0.0279  0.6821 -0.3599
    3CHTO   O25 1166   7.061   1.247   0.499  0.0453 -0.3616  0.3612
    3CHTO   H40 1167   7.118   1.306   0.454 -0.1162  1.6385  2.6497
    3CHTO   O15 1168   6.668   0.922   0.589  0.0526 -0.1940  0.0423
    3CHTO   C19 1169   6.586   1.044   0.582  0.1852  0.3316 -0.1852
    3CHTO   H47 1170   6.502   1.010   0.520 -0.0258  1.0523 -0.2965
    3CHTO   C20 1171   6.545   1.096   0.723 -0.1037  0.2102  0.4917
    3CHTO   H48 1172   6.635   1.129   0.777  0.0620  0.9624 -0.2318
    3CHTO   O19 1173   6.490   0.990   0.795  0.1815  0.2721  0.0795
    3CHTO   H35 1174   6.442   1.033   0.864  1.0271  1.1308  0.1468
    3CHTO   C21 1175   6.446   1.213   0.711 -0.0559 -0.1333  0.9170
    3CHTO   H49 1176   6.355   1.175   0.666  0.1441  1.0648 -0.5511
    3CHTO    N4 1177   6.410   1.273   0.842  0.3156  0.1728  0.1624
    3CHTO   H41 1178   6.308   1.252   0.871  0.5943 -1.8241 -0.2466
    3CHTO   H42 1179   6.467   1.241   0.927 -1.1374  1.2984  1.5969
    3CHTO   C22 1180   6.497   1.325   0.623 -0.1877 -0.1286 -0.4195
    3CHTO   H50 1181   6.569   1.388   0.675  0.5143 -2.1060  1.0689
    3CHTO   O14 1182   6.555   1.275   0.506 -0.2996 -0.1038 -0.2921
    3CHTO   C23 1183   6.654   1.172   0.507  0.1572  0.3866 -0.1525
    3CHTO   H51 1184   6.733   1.217   0.569  1.5902  0.3941 -1.9473
    3CHTO   C34 1185   6.703   1.142   0.368  0.2521 -0.3345 -0.4685
    3CHTO   O23 1186   6.793   1.246   0.328  0.3665  0.5694  0.3587
    3CHTO   H38 1187   6.823   1.207   0.248 -3.1630 -3.1104  0.6607
    3CHTO   O16 1188   6.392   1.415   0.577 -0.2260  0.5285  0.4826
    3CHTO   C24 1189   6.461   1.558   0.494  1.0339 -0.4920 -0.0038
    3CHTO   H52 1190   6.565   1.542   0.465  0.7519  0.8994 -1.8682
    3CHTO   C26 1191   6.450   1.679   0.593  0.0211 -0.2283  0.2614
    3CHTO   H54 1192   6.345   1.688   0.628 -0.4267 -2.3506 -0.4343
    3CHTO   O20 1193   6.536   1.662   0.705  0.1126  0.0918  0.3682
    3CHTO   H36 1194   6.537   1.573   0.735 -1.0644  0.0642  0.3385
    3CHTO   C30 1195   6.484   1.813   0.516  0.0373 -0.7503 -0.4145
    3CHTO   H58 1196   6.591   1.814   0.493  0.5332  0.4975  1.7694
    3CHTO    N6 1197   6.464   1.943   0.600 -0.2432  0.0156 -0.1393
    3CHTO   H45 1198   6.509   1.928   0.697  1.5130  0.6509 -0.8400
    3CHTO   H46 1199   6.499   2.036   0.558  1.5718 -0.2679  0.7311
    3CHTO   C33 1200   6.403   1.820   0.379  0.7395 -0.3449 -0.3910
    3CHTO   H61 1201   6.296   1.821   0.402  0.3448  0.6004 -2.2068
    3CHTO   O18 1202   6.438   1.702   0.302 -0.5684 -0.5334 -0.1751
    3CHTO   C28 1203   6.391   1.581   0.360 -0.0574  0.1404 -0.3795
    3CHTO   H56 1204   6.283   1.583   0.372 -0.2083 -1.7121 -1.2822
    3CHTO   C35 1205   6.421   1.470   0.256  0.6706  0.3979  0.6660
    3CHTO   O24 1206   6.557   1.452   0.217 -0.1377  0.0878  0.6084
    3CHTO   H39 1207   6.597   1.378   0.259  1.6482 -0.5101 -2.0384
    3CHTO    O9 1208   6.433   1.938   0.305  0.0247 -0.1583 -0.2601
    3CHTO   C13 1209   6.553   1.931   0.183  0.2280  0.4191 -0.1960
    3CHTO   H26 1210   6.528   1.844   0.120 -3.9056  1.9820 -0.8738
    3CHTO   C11 1211   6.699   1.923   0.247 -0.5591 -0.1603 -0.5562
    3CHTO   H24 1212   6.686   1.821   0.286  0.4331 -0.6864 -1.5820
    3CHTO    O8 1213   6.720   2.025   0.346 -0.1143 -0.4423 -0.4403
    3CHTO    H3 1214   6.648   2.085   0.351 -2.5533 -3.2555 -0.3360
    3CHTO    C9 1215   6.802   1.912   0.133  0.4295  0.1525 -0.3954
    3CHTO   H22 1216   6.766   1.829   0.071 -0.3370 -0.7295  1.2067
    3CHTO    N2 1217   6.938   1.870   0.168  0.4105  0.0735 -0.3142
    3CHTO   H10 1218   6.960   1.879   0.273  2.8626  0.4578 -0.8237
    3CHTO   H11 1219   7.012   1.923   0.109 -0.2428  1.3328 -0.0359
    3CHTO    C7 1220   6.796   2.049   0.050  0.4570 -0.6456  0.7859
    3CHTO   H20 1221   6.798   2.016  -0.056  0.1653 -0.3797  0.6956
    3CHTO    O4 1222   6.674   2.128   0.065 -0.3140  0.1156 -0.6808
    3CHTO   C14 1223   6.548   2.063   0.089 -0.1079  0.0937  0.1562
    3CHTO   H27 1224   6.521   2.024  -0.011  0.4453 -0.7641  0.3313
    3CHTO   C18 1225   6.450   2.163   0.133  0.1234  0.2482 -0.3611
    3CHTO   O13 1226   6.421   2.264   0.038 -0.7094 -0.1616  0.0160
    3CHTO    H7 1227   6.459   2.341   0.076  1.1794 -0.2293 -1.6678
    3CHTO    O2 1228   6.920   2.143   0.059  0.1996 -0.5800 -0.5145
    3CHTO    C1 1229   6.957   2.233  -0.049 -0.0758  0.8451  0.7298
    3CHTO   H14 1230   7.060   2.268  -0.029  0.3792 -0.8618  1.4676
    3CHTO    C2 1231   6.859   2.354  -0.077 -0.5472  0.4915 -0.5142
    3CHTO   H15 1232   6.761   2.314  -0.106 -1.0756  1.3843  0.0089
    3CHTO    O6 1233   6.846   2.423   0.050  0.3795 -0.1899 -0.1228
    3CHTO    H1 1234   6.846   2.362   0.121  0.0918 -0.2272 -0.1564
    3CHTO    C3 1235   6.919   2.447  -0.195  0.8194  0.6938  0.1147
    3CHTO   H16 1236   7.013   2.497  -0.164  2.6848 -2.7983  0.2853
    3CHTO    N1 1237   6.825   2.555  -0.230 -0.3115 -0.0579  0.0561
    3CHTO    H8 1238   6.735   2.518  -0.276 -0.6446 -0.4323  0.9939
    3CHTO    H9 1239   6.873   2.612  -0.308 -0.6303  0.0190 -0.0817
    3CHTO    C4 1240   6.959   2.360  -0.317 -0.5281 -0.0045  0.2348
    3CHTO   H17 1241   6.868   2.336  -0.372 -0.5102 -1.4446  0.8114
    3CHTO    O1 1242   7.034   2.246  -0.280  0.0742 -0.3735 -0.0202
    3CHTO    C5 1243   6.977   2.157  -0.187  0.8149 -0.1685  0.6396
    3CHTO   H18 1244   6.879   2.121  -0.219  1.3646  1.1791 -2.7012
    3CHTO   C16 1245   7.069   2.038  -0.173  0.1399  1.0184  0.3006
    3CHTO   O11 1246   7.083   1.954  -0.289 -0.2351 -0.1007  1.1445
    3CHTO    H5 1247   7.142   1.884  -0.270 -0.8097 -1.1068 -0.6712
    3CHTO    O3 1248   7.055   2.428  -0.400 -0.0664  0.5419  0.4672
    3CHTO    C6 1249   7.041   2.399  -0.540 -0.3018 -0.2311  0.2849
    3CHTO   H19 1250   6.964   2.323  -0.557  1.2430 -1.8062  0.2808
    3CHTO    C8 1251   7.002   2.530  -0.617  0.8230  0.2083 -1.2480
    3CHTO   H21 1252   7.083   2.601  -0.599  0.3501  0.0710  1.8192
    3CHTO    O7 1253   6.879   2.588  -0.569 -0.1123  0.1468 -0.4796
    3CHTO    H2 1254   6.810   2.525  -0.567  0.2177 -0.1608  1.8924
    3CHTO   C12 1255   6.999   2.502  -0.769 -0.7143 -0.2692  0.3667
    3CHTO   H25 1256   6.913   2.435  -0.792 -0.6924  0.0382 -0.6452
    3CHTO    N3 1257   6.975   2.632  -0.842  0.3054  0.0333  0.4371
    3CHTO   H12 1258   6.878   2.669  -0.811  0.6933 -0.3043  2.1002
    3CHTO   H13 1259   7.052   2.707  -0.830  1.3442 -0.6009 -2.0083
    3CHTO   C15 1260   7.132   2.427  -0.819  0.3636 -0.8740 -0.4185
    3CHTO   H28 1261   7.214   2.498  -0.810 -1.9970  2.0616 -1.4346
    3CHTO   O10 1262   7.128   2.359  -0.952 -0.0255  0.0065 -0.6612
    3CHTO    H4 1263   7.201   2.392  -1.001 -0.2178  0.0354 -0.9292
    3CHTO    O5 1264   7.141   2.312  -0.741 -0.4779  0.1746 -0.6835
    3CHTO   C10 1265   7.168   2.337  -0.602  0.2269 -0.3867  0.1701
    3CHTO   H23 1266   7.247   2.411  -0.599 -0.5791  0.6168 -2.1541
    3CHTO   C17 1267   7.212   2.203  -0.549  0.0421  0.0795  0.3285
    3CHTO   O12 1268   7.099   2.121  -0.528 -0.5164 -0.1983 -0.6144
    3CHTO    H6 1269   7.120   2.032  -0.509  2.6454  0.4912 -0.5720
    4CHTO  H203 1270   6.566   6.284   1.700 -0.3536 -0.9095 -0.8463
    4CHTO   O82 1271   6.641   6.246   1.657  0.4057  0.0170 -0.3522
    4CHTO  C123 1272   6.760   6.330   1.658 -0.1753 -0.3600 -0.6038
    4CHTO  H227 1273   6.817   6.312   1.751 -1.3080 -0.1356  0.1406
    4CHTO   O77 1274   6.838   6.290   1.543 -0.3774 -0.5756  0.1996
    4CHTO  C118 1275   6.962   6.356   1.539 -0.6588 -0.1221 -0.5869
    4CHTO  H222 1276   7.018   6.333   1.631 -0.1628  2.3809 -0.2226
    4CHTO  C125 1277   7.038   6.300   1.425 -0.2631 -0.0674 -0.4064
    4CHTO   O84 1278   7.054   6.161   1.424 -0.5216  0.0392  0.5009
    4CHTO  H205 1279   6.986   6.118   1.472 -1.7435  1.5636  0.1618
    4CHTO  C114 1280   6.948   6.510   1.528 -0.4312 -0.2621 -0.0681
    4CHTO  H218 1281   6.892   6.538   1.438 -2.4761 -1.6871  0.7248
    4CHTO  C116 1282   6.855   6.570   1.631 -0.0477 -0.6598 -0.5992
    4CHTO  H220 1283   6.913   6.566   1.726  0.4914  2.2893 -0.7442
    4CHTO   O79 1284   6.829   6.703   1.602 -0.4063 -0.8977  0.5686
    4CHTO  H201 1285   6.795   6.725   1.518  2.2005  0.3980 -0.2127
    4CHTO  C120 1286   6.727   6.481   1.637  0.2285 -0.9796  0.1943
    4CHTO  H224 1287   6.667   6.493   1.544 -0.8307 -2.6385  0.6474
    4CHTO   N21 1288   6.640   6.526   1.752 -0.3853  0.3713 -0.2131
    4CHTO  H211 1289   6.535   6.508   1.736 -0.1470 -1.4013  0.2033
    4CHTO  H212 1290   6.687   6.504   1.846  0.3314 -1.1634 -0.9158
    4CHTO   O75 1291   7.085   6.556   1.532 -0.1254 -0.3802  0.1455
    4CHTO  C112 1292   7.117   6.671   1.430  0.3297 -0.1028  0.1447
    4CHTO  H216 1293   7.025   6.726   1.405  0.9747  0.5588 -0.8395
    4CHTO   O73 1294   7.175   6.612   1.316  0.0975  0.2461  0.0874
    4CHTO  C113 1295   7.218   6.703   1.215 -0.4562 -0.0621 -0.0799
    4CHTO  H217 1296   7.120   6.744   1.183 -1.5959 -2.0713  0.7352
    4CHTO  C124 1297   7.284   6.614   1.104  0.2883  0.1114  0.6056
    4CHTO   O83 1298   7.319   6.690   0.987 -0.7394  0.6157 -0.0973
    4CHTO  H204 1299   7.356   6.628   0.927  0.9817  0.9240  0.6150
    4CHTO  C109 1300   7.326   6.812   1.264  1.0820  0.0608 -0.2551
    4CHTO  H213 1301   7.420   6.763   1.290  0.6096 -0.3558  0.7097
    4CHTO  C110 1302   7.273   6.882   1.393  0.0100 -0.9441 -0.3625
    4CHTO  H214 1303   7.189   6.946   1.367 -0.1559 -1.9681 -2.3739
    4CHTO   O78 1304   7.376   6.962   1.447 -0.1279  0.3644  0.0281
    4CHTO  H200 1305   7.348   7.026   1.509 -0.4740  2.9675 -2.7075
    4CHTO  C111 1306   7.217   6.774   1.496  0.0894  0.4750 -0.3754
    4CHTO  H215 1307   7.302   6.716   1.535  0.3887  0.3934 -1.1372
    4CHTO   N19 1308   7.150   6.840   1.615 -0.1196  0.0245  0.0798
    4CHTO  H207 1309   7.218   6.866   1.695  0.4329 -1.7628  0.2204
    4CHTO  H208 1310   7.095   6.764   1.669 -0.5766  2.1252  2.6392
    4CHTO   O74 1311   7.355   6.906   1.153  0.0904  0.2072  0.3029
    4CHTO  C115 1312   7.491   6.973   1.146  0.5304  0.0969  0.4371
    4CHTO  H219 1313   7.504   7.042   1.230 -1.6356 -0.1036  0.9913
    4CHTO   O76 1314   7.628   6.852   1.147  0.1933  0.0686 -0.0653
    4CHTO  C122 1315   7.753   6.913   1.112  0.6377 -0.0914  0.1078
    4CHTO  H226 1316   7.818   6.833   1.075  1.9363  0.0063  2.1102
    4CHTO  C126 1317   7.821   6.969   1.236  0.6763  0.5757  0.7211
    4CHTO   O85 1318   7.733   7.057   1.306  0.1366  0.1284  0.7345
    4CHTO  H206 1319   7.742   7.145   1.276  1.4901 -0.3298 -0.2714
    4CHTO  C121 1320   7.747   7.012   0.996 -0.0079  0.2760  0.4336
    4CHTO  H225 1321   7.842   7.068   0.978 -0.9365  1.1210 -2.1364
    4CHTO   O81 1322   7.744   6.925   0.874 -0.2498  0.7277  0.0875
    4CHTO  H202 1323   7.821   6.872   0.870 -2.3586 -2.4600  0.2451
    4CHTO  C119 1324   7.628   7.112   0.980  0.3993 -0.2381 -0.0755
    4CHTO  H223 1325   7.658   7.186   1.054 -1.7412  1.2932 -0.6899
    4CHTO  C117 1326   7.486   7.062   1.018  0.2701  0.6338  0.1010
    4CHTO  H221 1327   7.427   7.006   0.945 -2.0844  1.5936  1.2161
    4CHTO   N20 1328   7.404   7.183   1.041  0.0322  0.2856  0.7104
    4CHTO  H209 1329   7.455   7.277   1.025  1.2668 -0.3853  0.7154
    4CHTO  H210 1330   7.339   7.189   1.127  0.3098  1.1758  0.8660
    4CHTO   O80 1331   7.626   7.201   0.835  0.1974  0.1882  0.2881
    4CHTO  C103 1332   7.693   7.352   0.830  0.1375 -0.0214 -0.6688
    4CHTO  H190 1333   7.630   7.418   0.891  2.8280  1.5476  0.5050
    4CHTO  C101 1334   7.849   7.372   0.868  1.0487 -0.0997  0.0584
    4CHTO  H188 1335   7.909   7.287   0.834  4.0137  1.7541  0.4409
    4CHTO   O68 1336   7.850   7.340   1.021 -0.9802  0.4201  0.4470
    4CHTO  H168 1337   7.786   7.393   1.065 -0.3746  2.2692 -0.8437
    4CHTO   C99 1338   7.908   7.505   0.821  0.6082  0.8888  0.5602
    4CHTO  H186 1339   7.853   7.591   0.866  1.4947  0.8518  1.7261
    4CHTO   N17 1340   8.049   7.523   0.857  0.3492  0.6727  0.6332
    4CHTO  H174 1341   8.083   7.507   0.959  1.1005  0.9295  0.4316
    4CHTO  H175 1342   8.117   7.484   0.782 -2.0226 -1.7356 -0.3232
    4CHTO   C97 1343   7.880   7.525   0.666  0.6244  0.7389  0.1219
    4CHTO  H184 1344   7.933   7.445   0.613  0.6825  1.1635 -0.4623
    4CHTO   O64 1345   7.742   7.514   0.650  0.1952  0.0470 -0.1950
    4CHTO  C104 1346   7.670   7.393   0.679 -0.1014  0.1190  0.0094
    4CHTO  H191 1347   7.707   7.312   0.615  0.8212  0.9164 -0.4884
    4CHTO  C108 1348   7.523   7.402   0.649  0.2696  0.5948 -0.3066
    4CHTO   O71 1349   7.484   7.443   0.518 -0.2706  0.5366 -0.2275
    4CHTO  H171 1350   7.390   7.445   0.517 -0.2821  0.4893  0.5933
    4CHTO   O62 1351   7.915   7.653   0.615 -0.2379  0.0344  0.2579
    4CHTO   C91 1352   7.989   7.667   0.494  0.0277  0.2069 -0.0813
    4CHTO  H178 1353   8.068   7.592   0.492  3.0490  2.9473  4.9337
    4CHTO   C92 1354   8.075   7.805   0.496 -0.5284 -0.1974 -0.0304
    4CHTO  H179 1355   8.008   7.881   0.538 -1.3670 -0.8106 -0.2574
    4CHTO   O66 1356   8.173   7.796   0.601  0.1764  0.1978  0.2467
    4CHTO  H166 1357   8.259   7.807   0.566  0.0598  0.2808 -0.0107
    4CHTO   C93 1358   8.131   7.849   0.351 -0.6829  0.2343  0.0144
    4CHTO  H180 1359   8.201   7.771   0.316  1.2327  2.2744 -0.8055
    4CHTO   N16 1360   8.212   7.974   0.353  0.7008  0.1159  0.7534
    4CHTO  H172 1361   8.298   7.951   0.414  0.7907  1.3471  1.0941
    4CHTO  H173 1362   8.230   8.006   0.251 -0.5973  0.4192  0.6030
    4CHTO   C94 1363   8.007   7.855   0.258 -0.2455  0.3112  0.3454
    4CHTO  H181 1364   7.920   7.899   0.306 -0.5128  0.1768 -0.0033
    4CHTO   O61 1365   7.960   7.719   0.243  0.4184  0.5916  0.2142
    4CHTO   C95 1366   7.898   7.655   0.363  0.0534 -0.1224 -0.2883
    4CHTO  H182 1367   7.801   7.703   0.377 -0.9100 -1.8657 -0.8045
    4CHTO  C106 1368   7.857   7.513   0.331  0.5720  0.1692  0.3246
    4CHTO   O69 1369   7.739   7.516   0.245 -0.1022 -0.5838 -0.6474
    4CHTO  H169 1370   7.664   7.557   0.283 -0.2816 -0.5243 -1.0608
    4CHTO   O63 1371   8.047   7.911   0.108  0.1311  0.5013  0.0870
    4CHTO   C96 1372   7.928   7.938   0.012 -0.1488  0.6931 -0.1494
    4CHTO  H183 1373   7.831   7.909   0.054 -0.0761  0.2232 -0.3062
    4CHTO   C98 1374   7.937   7.860  -0.125  0.3581  0.5737  0.5395
    4CHTO  H185 1375   8.023   7.897  -0.183  0.4253 -0.7443 -0.2370
    4CHTO   O67 1376   7.947   7.718  -0.111  0.3094  0.0580  0.5703
    4CHTO  H167 1377   8.028   7.677  -0.086  0.6182  0.9628  1.0795
    4CHTO  C102 1378   7.804   7.897  -0.213  0.2985 -0.3296 -0.3762
    4CHTO  H189 1379   7.722   7.832  -0.179 -0.7055  0.1727 -1.8298
    4CHTO   N18 1380   7.813   7.869  -0.360 -0.3511 -0.5647 -0.0990
    4CHTO  H176 1381   7.817   7.764  -0.383  0.4850 -0.6429  0.3775
    4CHTO  H177 1382   7.901   7.918  -0.400  0.4631 -0.6057  1.5858
    4CHTO  C105 1383   7.757   8.046  -0.196 -0.5041 -0.4295 -0.9141
    4CHTO  H192 1384   7.739   8.091  -0.293  2.1195 -0.0241 -1.2410
    4CHTO   O65 1385   7.857   8.133  -0.133 -0.1302  0.4457 -0.3926
    4CHTO  C100 1386   7.925   8.093  -0.015  0.7745 -0.6330  0.1127
    4CHTO  H187 1387   8.028   8.132  -0.022 -0.2817  2.3532  0.3953
    4CHTO  C107 1388   7.844   8.175   0.089 -0.6309  0.1171  0.2173
    4CHTO   O70 1389   7.902   8.180   0.222 -0.6548 -0.3920 -1.0233
    4CHTO  H170 1390   7.847   8.229   0.280  1.8753  0.5972  0.6404
    4CHTO   O57 1391   7.627   8.047  -0.119 -0.1256  0.2195  0.0122
    4CHTO   C85 1392   7.505   8.119  -0.167 -0.0942 -0.5342  0.2315
    4CHTO  H157 1393   7.523   8.128  -0.276  1.7064 -0.9357  0.4855
    4CHTO   C83 1394   7.502   8.271  -0.125  0.2142  0.4713  1.0131
    4CHTO  H155 1395   7.593   8.318  -0.160  1.2292 -1.3205  1.2099
    4CHTO   O56 1396   7.520   8.274   0.017 -0.2122 -0.4352 -0.2588
    4CHTO  H135 1397   7.592   8.223   0.048  1.1988  0.3612 -2.1315
    4CHTO   C81 1398   7.376   8.347  -0.173 -0.4346  0.2684  1.1875
    4CHTO  H153 1399   7.368   8.347  -0.282  1.3131  2.2407  1.0196
    4CHTO   N14 1400   7.384   8.492  -0.151 -0.5677 -1.0250  0.0678
    4CHTO  H141 1401   7.348   8.540  -0.240  2.6444 -0.4997 -1.0003
    4CHTO  H142 1402   7.314   8.518  -0.074 -0.7651  1.0199 -0.7639
    4CHTO   C79 1403   7.247   8.274  -0.112  0.3601 -0.4489 -0.8021
    4CHTO  H151 1404   7.162   8.333  -0.147  0.6500 -0.2070 -1.0999
    4CHTO   O52 1405   7.243   8.131  -0.158  0.7455  0.4536  0.4793
    4CHTO   C86 1406   7.366   8.048  -0.137  0.1592 -0.6779 -0.7169
    4CHTO  H158 1407   7.354   8.020  -0.030  2.1271 -1.7736 -0.7616
    4CHTO   C90 1408   7.359   7.917  -0.217  0.1428  0.7034  0.6911
    4CHTO   O60 1409   7.471   7.834  -0.189 -0.0799  0.7366 -0.0673
    4CHTO  H138 1410   7.457   7.788  -0.109  0.3117  1.3383  0.3522
    4CHTO   O50 1411   7.240   8.271   0.029 -0.2043 -0.0424  0.0046
    4CHTO   C73 1412   7.148   8.269   0.143 -0.5989 -0.2056 -0.4244
    4CHTO  H145 1413   7.076   8.350   0.128 -1.5130 -0.7521  0.8619
    4CHTO   C74 1414   7.229   8.289   0.272  0.7938  0.6287  0.0443
    4CHTO  H146 1415   7.292   8.378   0.257 -0.0285  1.2587  0.2905
    4CHTO   O54 1416   7.131   8.330   0.374 -0.0105  0.2074  0.3116
    4CHTO  H133 1417   7.112   8.261   0.435 -0.4776 -1.8006 -2.0295
    4CHTO   C75 1418   7.312   8.154   0.294 -0.5198 -0.6656 -0.7823
    4CHTO  H147 1419   7.370   8.134   0.203 -3.7124  1.5171 -3.4080
    4CHTO   N13 1420   7.404   8.169   0.407 -0.2937  0.2924  0.3835
    4CHTO  H139 1421   7.346   8.188   0.496  1.6204  1.1631  1.4960
    4CHTO  H140 1422   7.456   8.076   0.424  0.2376  0.4035 -0.6204
    4CHTO   C76 1423   7.203   8.029   0.306 -0.5691 -0.0898 -0.2166
    4CHTO  H148 1424   7.130   8.057   0.382 -1.5773 -1.3144 -0.7169
    4CHTO   O49 1425   7.142   8.025   0.168 -0.2162 -0.4490  0.2999
    4CHTO   C77 1426   7.063   8.135   0.145  0.0710  0.4796 -0.1078
    4CHTO  H149 1427   6.993   8.135   0.229  1.4253  0.4511  1.0472
    4CHTO   C88 1428   6.983   8.108   0.014  0.2509  0.9691 -0.2490
    4CHTO   O58 1429   6.882   7.992   0.049 -0.1445  0.1788 -0.0317
    4CHTO  H136 1430   6.803   8.000  -0.001  1.6162 -0.0661 -2.9192
    4CHTO   O51 1431   7.284   7.865   0.341 -0.1896  0.0283 -0.7507
    4CHTO   C78 1432   7.323   7.787   0.203  0.0429 -0.2154  1.1831
    4CHTO  H150 1433   7.333   7.867   0.127 -2.8433  0.6659  1.6701
    4CHTO   C80 1434   7.214   7.687   0.161  0.2677  1.0086 -0.0807
    4CHTO  H152 1435   7.209   7.613   0.244 -0.3712  1.0212 -0.1050
    4CHTO   O55 1436   7.086   7.757   0.140 -0.3470 -0.7007  0.0959
    4CHTO  H134 1437   7.015   7.703   0.112 -0.3955  0.6710 -2.5534
    4CHTO   C84 1438   7.255   7.608   0.034  0.3616 -0.3244  0.1991
    4CHTO  H156 1439   7.258   7.680  -0.049 -0.7571  0.4119  0.7873
    4CHTO   N15 1440   7.153   7.506  -0.015  0.4853 -0.2045 -0.4613
    4CHTO  H143 1441   7.056   7.512   0.030  1.5154 -0.9290  1.9200
    4CHTO  H144 1442   7.187   7.406   0.001  1.0218  0.2419  1.2251
    4CHTO   C87 1443   7.395   7.553   0.044 -0.2554 -0.4798  0.4260
    4CHTO  H159 1444   7.391   7.460   0.100  0.8480 -0.8218 -0.0431
    4CHTO   O53 1445   7.499   7.668   0.094  0.4850 -0.4543  0.4585
    4CHTO   C82 1446   7.461   7.723   0.221 -0.2407 -0.5177  0.1718
    4CHTO  H154 1447   7.457   7.642   0.294 -0.5431  2.2749  3.4302
    4CHTO   C89 1448   7.576   7.806   0.269 -0.4933 -0.2380 -0.4665
    4CHTO   O59 1449   7.614   7.925   0.193  0.4380  0.1284  0.7892
    4CHTO  H137 1450   7.552   7.992   0.214 -0.1236  0.3925 -1.6598
    4CHTO   O45 1451   7.440   7.505  -0.099  0.1058 -0.7203  0.5306
    4CHTO   C67 1452   7.570   7.451  -0.106  0.4651  0.1455  0.1034
    4CHTO  H124 1453   7.650   7.517  -0.070  1.3931 -1.5458  1.2272
    4CHTO   C65 1454   7.586   7.304  -0.035 -0.3787  0.2875  0.9183
    4CHTO  H122 1455   7.550   7.312   0.067 -3.3895 -0.5214 -0.0151
    4CHTO   O44 1456   7.730   7.277  -0.034  0.4866 -0.0801 -0.1220
    4CHTO  H102 1457   7.747   7.202   0.021  0.6212 -1.4994 -2.0691
    4CHTO   C63 1458   7.487   7.198  -0.111 -0.7626 -0.1816 -0.1241
    4CHTO  H120 1459   7.386   7.236  -0.096 -0.0104  2.1659 -0.8071
    4CHTO   N11 1460   7.474   7.060  -0.052 -1.0621 -0.2337 -0.1747
    4CHTO  H108 1461   7.378   7.047  -0.008 -1.4872  0.8700 -0.7491
    4CHTO  H109 1462   7.565   7.024  -0.008 -0.3899  1.4961 -0.1063
    4CHTO   C61 1463   7.509   7.196  -0.273  0.4719  0.0894  0.1239
    4CHTO  H118 1464   7.414   7.154  -0.308  0.1898  2.1520 -1.6653
    4CHTO   O40 1465   7.522   7.331  -0.331  0.4949  0.8338  0.0045
    4CHTO   C68 1466   7.595   7.441  -0.262  0.2253 -0.0549 -0.4847
    4CHTO  H125 1467   7.539   7.520  -0.314  0.0736 -0.0791 -0.3578
    4CHTO   C72 1468   7.741   7.442  -0.313  0.5914 -0.2570  0.2247
    4CHTO   O48 1469   7.757   7.432  -0.457 -0.2921 -0.1773  0.6086
    4CHTO  H105 1470   7.755   7.342  -0.481  0.1122  0.4284 -1.8817
    4CHTO   O38 1471   7.625   7.126  -0.316 -0.8368 -0.8016  0.1853
    4CHTO   C55 1472   7.591   7.005  -0.402 -0.4178  0.6510 -0.3018
    4CHTO  H112 1473   7.482   6.996  -0.415 -0.1712 -0.9472 -1.3537
    4CHTO   C56 1474   7.652   6.870  -0.335  0.6404 -0.1817  0.6650
    4CHTO  H113 1475   7.756   6.903  -0.316  0.8931  0.7750 -2.0296
    4CHTO   O42 1476   7.587   6.828  -0.210  0.8153  0.0375  0.0877
    4CHTO  H100 1477   7.600   6.900  -0.151 -1.5769  1.2849 -0.8451
    4CHTO   C57 1478   7.665   6.746  -0.439  0.4265 -0.0049 -0.1554
    4CHTO  H114 1479   7.564   6.707  -0.448 -0.2041  1.2724  1.1644
    4CHTO   N10 1480   7.763   6.653  -0.379 -0.1480 -0.2925  0.0170
    4CHTO  H106 1481   7.751   6.661  -0.272 -1.5976 -3.6809  0.1808
    4CHTO  H107 1482   7.763   6.546  -0.397  1.8550 -0.8436  2.9663
    4CHTO   C58 1483   7.709   6.806  -0.577 -0.3285  0.2386  0.4912
    4CHTO  H115 1484   7.813   6.845  -0.565  1.2297 -3.3700 -0.4138
    4CHTO   O37 1485   7.624   6.920  -0.628  0.0774  0.1820 -0.2166
    4CHTO   C59 1486   7.651   7.039  -0.543  0.1885  0.3230 -0.1170
    4CHTO  H116 1487   7.757   7.062  -0.539  0.2927  0.5368 -2.7411
    4CHTO   C70 1488   7.577   7.157  -0.603  0.1263 -0.4335  0.6053
    4CHTO   O46 1489   7.636   7.214  -0.719  0.2298 -0.2623 -0.0488
    4CHTO  H103 1490   7.659   7.302  -0.694 -1.7182  0.8820 -2.1488
    4CHTO   O39 1491   7.700   6.685  -0.698 -0.3727 -0.3144  0.0737
    4CHTO   C60 1492   7.569   6.640  -0.748  0.3005  0.1776  0.2102
    4CHTO  H117 1493   7.499   6.636  -0.665  0.7285  2.8442  0.7685
    4CHTO   C62 1494   7.506   6.731  -0.858 -0.1920  0.1249  0.8636
    4CHTO  H119 1495   7.475   6.828  -0.813  1.0166  1.2066 -0.5860
    4CHTO   O43 1496   7.605   6.751  -0.966  0.4510  0.1328  0.0112
    4CHTO  H101 1497   7.696   6.743  -0.944  0.6931  0.5095 -0.8342
    4CHTO   C66 1498   7.365   6.664  -0.918 -0.6248 -0.0192 -0.4158
    4CHTO  H123 1499   7.294   6.658  -0.836  1.4980 -0.4974  1.4534
    4CHTO   N12 1500   7.297   6.751  -1.014  0.4628 -0.1181 -0.1866
    4CHTO  H110 1501   7.332   6.716  -1.110 -2.0631 -3.2312 -0.0373
    4CHTO  H111 1502   7.339   6.850  -1.005  0.5211 -0.1922  0.3428
    4CHTO   C69 1503   7.411   6.526  -0.976  0.4668  0.0984  0.1380
    4CHTO  H126 1504   7.494   6.539  -1.049  1.6408  0.6731  1.5647
    4CHTO   O41 1505   7.452   6.448  -0.870  0.1756 -0.5946 -0.7855
    4CHTO   C64 1506   7.582   6.494  -0.804  0.1652  0.2676 -0.6766
    4CHTO  H121 1507   7.665   6.485  -0.876  0.4186 -0.1475 -0.3263
    4CHTO   C71 1508   7.610   6.393  -0.688  0.1310 -0.8225 -0.0249
    4CHTO   O47 1509   7.631   6.259  -0.736 -0.7478  0.1853 -0.0478
    4CHTO  H104 1510   7.710   6.254  -0.786 -1.4715  0.8115 -1.3012
    4CHTO   O34 1511   7.270   6.436  -1.052  0.2514  0.4250  0.4977
    4CHTO   C49 1512   7.284   6.334  -1.157 -0.5546  0.0051 -0.5474
    4CHTO   H91 1513   7.349   6.382  -1.230 -0.4607 -0.5072 -0.8062
    4CHTO   C47 1514   7.144   6.306  -1.210  0.9302 -0.2984  0.1851
    4CHTO   H89 1515   7.157   6.243  -1.301  1.0539 -0.4613  0.3152
    4CHTO   O33 1516   7.083   6.433  -1.253  0.3707  0.5643 -0.4814
    4CHTO   H70 1517   6.995   6.420  -1.283  0.1130  1.5789 -0.1889
    4CHTO   C45 1518   7.059   6.223  -1.101  0.4493 -0.0942 -0.7553
    4CHTO   H87 1519   7.079   6.261  -1.000  0.1835 -1.2533 -0.2597
    4CHTO    N8 1520   6.914   6.226  -1.131 -0.2956  0.1289  0.4143
    4CHTO   H75 1521   6.876   6.323  -1.102 -1.5345 -0.5932  1.2690
    4CHTO   H76 1522   6.860   6.144  -1.088  0.5924 -0.9600 -0.5118
    4CHTO   C43 1523   7.126   6.081  -1.088 -0.7113  0.4651  0.4155
    4CHTO   H85 1524   7.067   6.028  -1.013 -2.2136  0.4087 -0.7797
    4CHTO   O29 1525   7.263   6.094  -1.048 -0.2844  0.6906  0.2362
    4CHTO   C50 1526   7.347   6.186  -1.114  0.0530 -0.1847  0.0577
    4CHTO   H92 1527   7.431   6.214  -1.050 -1.8295  2.8144  1.2977
    4CHTO   C54 1528   7.420   6.124  -1.244 -0.2049 -0.0819 -0.7218
    4CHTO   O36 1529   7.509   6.019  -1.215  0.3871 -0.4142  0.0837
    4CHTO   H72 1530   7.579   6.050  -1.162 -1.1149  1.2856  1.1304
    4CHTO   O27 1531   7.112   5.997  -1.205  0.4416 -0.3719  0.4621
    4CHTO   C37 1532   7.121   5.853  -1.232  0.4382  0.3582 -0.0960
    4CHTO   H79 1533   7.074   5.826  -1.328  0.8616 -2.1478  0.3735
    4CHTO   C38 1534   7.264   5.803  -1.242  0.3755 -0.1272  0.3499
    4CHTO   H80 1535   7.319   5.836  -1.153 -0.4107  0.4584  0.6297
    4CHTO   O31 1536   7.313   5.862  -1.364 -0.1275 -0.0950  0.3569
    4CHTO   H68 1537   7.405   5.854  -1.353  0.1563  0.5825 -1.4576
    4CHTO   C39 1538   7.274   5.645  -1.245  0.2999 -0.6307 -0.5717
    4CHTO   H81 1539   7.224   5.614  -1.337 -1.4039 -2.7070  1.0326
    4CHTO    N7 1540   7.415   5.593  -1.261  0.0341 -0.0347  0.4643
    4CHTO   H73 1541   7.479   5.652  -1.325  0.7068 -0.8747  0.3553
    4CHTO   H74 1542   7.457   5.562  -1.166  1.3884 -0.4091 -0.2454
    4CHTO   C40 1543   7.205   5.590  -1.113 -0.4209 -0.5197  0.0949
    4CHTO   H82 1544   7.256   5.635  -1.028 -1.6155  2.1144 -0.5357
    4CHTO   O26 1545   7.065   5.633  -1.122 -0.0825  0.4987  0.5031
    4CHTO   C41 1546   7.048   5.774  -1.121  0.3388 -0.6926  0.7631
    4CHTO   H83 1547   7.096   5.810  -1.029  2.0655 -0.5097 -0.1873
    4CHTO   C52 1548   6.895   5.804  -1.112 -0.2704  0.1186 -0.3865
    4CHTO   O35 1549   6.841   5.775  -0.969  0.2871  0.4295  0.3867
    4CHTO   H71 1550   6.753   5.805  -0.973  0.3039  0.4408  0.0781
    4CHTO   O28 1551   7.195   5.447  -1.116 -1.0730 -0.3730  0.1015
    4CHTO   C42 1552   7.178   5.372  -0.994 -0.5749 -0.0621  0.2179
    4CHTO   H84 1553   7.179   5.270  -1.033  1.8032 -0.2356  0.6774
    4CHTO   C44 1554   7.039   5.394  -0.923 -0.0820  0.4836  0.5959
    4CHTO   H86 1555   7.029   5.500  -0.899 -4.2456  0.4735 -0.7502
    4CHTO   O32 1556   6.927   5.358  -1.009 -0.6807 -0.2165  0.1689
    4CHTO   H69 1557   6.848   5.356  -0.958 -1.3789 -3.2941 -0.9560
    4CHTO   C48 1558   7.034   5.311  -0.789 -0.3176  0.5731 -0.8164
    4CHTO   H90 1559   7.026   5.205  -0.815 -2.0395  0.8755 -1.5781
    4CHTO    N9 1560   6.910   5.336  -0.699 -0.0939  0.2537 -0.5261
    4CHTO   H77 1561   6.823   5.377  -0.747 -0.1480 -0.9826 -1.5073
    4CHTO   H78 1562   6.932   5.404  -0.618  1.3422  0.5958 -1.1869
    4CHTO   C51 1563   7.164   5.333  -0.694 -0.5059  0.2604 -0.7662
    4CHTO   H93 1564   7.160   5.439  -0.672 -1.2875  0.1187 -0.2202
    4CHTO   O30 1565   7.279   5.298  -0.771 -0.2602  0.0245  0.3078
    4CHTO   C46 1566   7.304   5.389  -0.891  0.6230 -1.0038  0.5183
    4CHTO   H88 1567   7.308   5.491  -0.854  0.5978 -0.3518 -1.2600
    4CHTO   C53 1568   7.430   5.356  -0.960  0.5311 -0.6364  0.7809
    4CHTO   O72 1569   7.435   5.216  -0.994  0.1992 -0.1499 -0.0758
    4CHTO  H199 1570   7.482   5.218  -1.075  0.3471 -0.8472 -0.0024
    4CHTO   O22 1571   7.154   5.261  -0.570  0.0393  0.1134 -0.5675
    4CHTO   C31 1572   7.262   5.267  -0.473  0.2663 -0.4679 -0.4282
    4CHTO   H59 1573   7.349   5.305  -0.530 -0.5982 -0.0239 -1.4662
    4CHTO   C29 1574   7.237   5.366  -0.354  0.3175 -0.0983 -0.7207
    4CHTO   H57 1575   7.141   5.327  -0.318  0.4126 -0.6046 -0.9997
    4CHTO   O21 1576   7.205   5.498  -0.411 -0.7358 -0.2564 -0.1159
    4CHTO   H37 1577   7.133   5.493  -0.471 -0.9244 -3.8815  0.3035
    4CHTO   C27 1578   7.339   5.361  -0.237  0.2638 -0.4001  0.1711
    4CHTO   H55 1579   7.436   5.399  -0.274 -0.6636  0.2680 -1.6450
    4CHTO    N5 1580   7.295   5.431  -0.116 -0.6120  0.4096 -0.1808
    4CHTO   H43 1581   7.275   5.534  -0.142  1.3263  1.2858  1.6561
    4CHTO   H44 1582   7.378   5.430  -0.047 -0.7847 -0.9660  0.0210
    4CHTO   C25 1583   7.371   5.211  -0.202  0.7351 -0.2954  0.3360
    4CHTO   H53 1584   7.289   5.168  -0.142  1.3128  1.6646  2.6131
    4CHTO   O17 1585   7.398   5.130  -0.318  0.4978  0.3070  0.4759
    4CHTO   C32 1586   7.302   5.124  -0.428  0.0292 -0.4705  0.2710
    4CHTO   H60 1587   7.210   5.070  -0.406 -3.9892  5.3416 -1.1586
    4CHTO   C36 1588   7.369   5.051  -0.543 -0.0067  0.1957  0.4715
    4CHTO   O25 1589   7.404   4.916  -0.490 -0.7575 -0.0997  0.0280
    4CHTO   H40 1590   7.338   4.861  -0.527 -1.2590 -0.3323  1.2404
    4CHTO   O15 1591   7.498   5.196  -0.119 -0.0880  0.3106 -0.4502
    4CHTO   C19 1592   7.575   5.222   0.005 -0.6380  1.0836 -0.3017
    4CHTO   H47 1593   7.639   5.133   0.012 -3.7755 -1.2460 -0.5759
    4CHTO   C20 1594   7.670   5.344   0.005  0.3525 -0.4945 -0.0762
    4CHTO   H48 1595   7.612   5.438   0.004 -1.1595 -1.4003 -0.1182
    4CHTO   O19 1596   7.747   5.334  -0.108 -0.3129 -0.2057 -0.5057
    4CHTO   H35 1597   7.838   5.330  -0.086 -0.2137  1.7124 -0.4741
    4CHTO   C21 1598   7.755   5.349   0.147  0.6066  0.5459 -0.3664
    4CHTO   H49 1599   7.819   5.261   0.140 -0.6237 -0.5011  1.1516
    4CHTO    N4 1600   7.842   5.463   0.150 -0.3295  0.4041 -0.3445
    4CHTO   H41 1601   7.792   5.553   0.117  1.1189  1.3187 -0.1362
    4CHTO   H42 1602   7.930   5.447   0.089 -0.8980  0.4779 -1.1934
    4CHTO   C22 1603   7.662   5.333   0.269  0.9871  0.0273  0.3078
    4CHTO   H50 1604   7.612   5.430   0.278  0.0687 -0.5050  0.9948
    4CHTO   O14 1605   7.572   5.223   0.243  0.4498 -0.2611 -0.1380
    4CHTO   C23 1606   7.487   5.221   0.129  0.3959  0.6569 -0.5762
    4CHTO   H51 1607   7.421   5.308   0.135 -1.6266 -0.7979 -1.2241
    4CHTO   C34 1608   7.397   5.097   0.137 -1.0839 -0.7353  0.9216
    4CHTO   O23 1609   7.291   5.102   0.238 -0.3867  0.0907  0.4781
    4CHTO   H38 1610   7.260   5.189   0.255 -1.3514 -0.0521 -0.4652
    4CHTO   O16 1611   7.739   5.299   0.385 -0.7662 -0.1562  0.5648
    4CHTO   C24 1612   7.699   5.394   0.516 -0.8098 -0.0847 -0.4654
    4CHTO   H52 1613   7.619   5.464   0.493 -1.7077 -0.8610  0.3025
    4CHTO   C26 1614   7.818   5.473   0.577  0.0831  0.3936  0.1432
    4CHTO   H54 1615   7.900   5.402   0.601  0.3456  1.0150  1.0698
    4CHTO   O20 1616   7.869   5.548   0.467 -0.2486  0.2899 -0.3159
    4CHTO   H36 1617   7.925   5.621   0.484 -1.5315  1.0399  0.7975
    4CHTO   C30 1618   7.780   5.552   0.701 -0.8876 -1.0457  0.0265
    4CHTO   H58 1619   7.705   5.626   0.669  0.5606  0.0547 -0.9059
    4CHTO    N6 1620   7.903   5.622   0.756 -0.5602  0.2352  0.2057
    4CHTO   H45 1621   7.972   5.549   0.797 -2.5439 -1.7601  0.1110
    4CHTO   H46 1622   7.949   5.690   0.686  1.4234 -1.2300  0.0327
    4CHTO   C33 1623   7.696   5.467   0.804  0.2355  1.1529 -0.4872
    4CHTO   H61 1624   7.771   5.410   0.861  0.2728 -1.0496 -2.6759
    4CHTO   O18 1625   7.598   5.380   0.740 -0.0724 -0.6572  0.4703
    4CHTO   C28 1626   7.649   5.298   0.633 -0.5719  0.1274  0.4624
    4CHTO   H56 1627   7.732   5.242   0.674 -1.5981 -0.4501  1.7607
    4CHTO   C35 1628   7.530   5.211   0.583 -0.4413  0.2165  0.0028
    4CHTO   O24 1629   7.428   5.285   0.512 -0.7306 -0.2732  0.0350
    4CHTO   H39 1630   7.439   5.376   0.531 -1.7687 -0.1369 -0.0033
    4CHTO    O9 1631   7.634   5.552   0.904  0.1628 -0.0653 -0.2236
    4CHTO   C13 1632   7.657   5.528   1.050  0.2232  0.0792 -0.3078
    4CHTO   H26 1633   7.764   5.548   1.072  0.5312  1.3883 -2.8002
    4CHTO   C11 1634   7.613   5.373   1.081  0.0196  0.2516 -0.1414
    4CHTO   H24 1635   7.693   5.305   1.049  1.0835  1.9761 -1.2596
    4CHTO    O8 1636   7.486   5.342   1.014 -0.5154  0.3064 -0.1058
    4CHTO    H3 1637   7.504   5.352   0.923 -1.2501 -0.0155 -0.2946
    4CHTO    C9 1638   7.604   5.337   1.235 -0.2036  0.2810 -0.2502
    4CHTO   H22 1639   7.703   5.352   1.280  0.3655 -2.4098 -0.5025
    4CHTO    N2 1640   7.570   5.197   1.276 -0.4150  0.9821  0.3341
    4CHTO   H10 1641   7.585   5.181   1.382  0.8844  1.4996  0.2413
    4CHTO   H11 1642   7.466   5.195   1.249  0.0889  0.4645 -1.6438
    4CHTO    C7 1643   7.513   5.444   1.299  0.5487  0.0544 -0.8532
    4CHTO   H20 1644   7.521   5.434   1.410 -0.2164  0.8628 -0.7163
    4CHTO    O4 1645   7.557   5.579   1.274 -0.4807 -0.6066 -0.1352
    4CHTO   C14 1646   7.566   5.625   1.138 -0.1653 -0.0031  0.0083
    4CHTO   H27 1647   7.619   5.721   1.149 -0.1526 -0.1032  0.8664
    4CHTO   C18 1648   7.428   5.664   1.083  0.2018  0.0958  0.9674
    4CHTO   O13 1649   7.387   5.796   1.106 -0.3740 -0.3577  0.4189
    4CHTO    H7 1650   7.294   5.794   1.090 -0.6219 -0.4182  1.7827
    4CHTO    O2 1651   7.366   5.443   1.265 -0.0979 -0.3630  0.0243
    4CHTO    C1 1652   7.262   5.373   1.339  0.1501 -0.4244 -0.0760
    4CHTO   H14 1653   7.318   5.307   1.409  2.0107  1.5758  0.4045
    4CHTO    C2 1654   7.166   5.295   1.247 -0.4136 -0.7301 -0.2915
    4CHTO   H15 1655   7.142   5.356   1.159  0.3169  0.6756  0.4680
    4CHTO    O6 1656   7.243   5.185   1.201 -0.6328  0.0766  0.3459
    4CHTO    H1 1657   7.216   5.141   1.123 -1.1601  3.6913 -1.6387
    4CHTO    C3 1658   7.037   5.233   1.315  0.5662 -0.7246  0.2107
    4CHTO   H16 1659   7.067   5.148   1.379  1.8080 -1.8238 -1.7886
    4CHTO    N1 1660   6.930   5.191   1.214  0.4290 -0.1180 -0.0642
    4CHTO    H8 1661   6.851   5.154   1.279  0.2968  0.1217 -0.0886
    4CHTO    H9 1662   6.968   5.110   1.153  0.6769 -0.4655  0.5559
    4CHTO    C4 1663   6.983   5.344   1.415  0.4162 -0.0003  0.2739
    4CHTO   H17 1664   6.920   5.413   1.359 -1.8297 -0.7147  1.8491
    4CHTO    O1 1665   7.080   5.407   1.494  0.3745  0.0003  0.4310
    4CHTO    C5 1666   7.180   5.473   1.420  0.0174 -0.0083 -0.4768
    4CHTO   H18 1667   7.146   5.546   1.346 -0.1875 -1.8039 -2.2082
    4CHTO   C16 1668   7.265   5.545   1.530  0.2904 -0.1941  0.5732
    4CHTO   O11 1669   7.193   5.643   1.612  0.4955 -0.3371  0.0197
    4CHTO    H5 1670   7.125   5.607   1.665  0.5511 -0.3606  0.0746
    4CHTO    O3 1671   6.918   5.271   1.515 -0.1035 -0.1151  0.4513
    4CHTO    C6 1672   6.815   5.341   1.592 -0.3578 -0.2697  0.0319
    4CHTO   H19 1673   6.816   5.450   1.589 -2.6836 -0.2340 -0.0520
    4CHTO    C8 1674   6.678   5.305   1.525  0.4137 -0.2670  0.5527
    4CHTO   H21 1675   6.665   5.197   1.516 -1.6389  0.1532 -2.2510
    4CHTO    O7 1676   6.684   5.376   1.399 -0.4895  0.3234 -0.4559
    4CHTO    H2 1677   6.734   5.336   1.330 -1.2540 -1.3336 -0.0714
    4CHTO   C12 1678   6.563   5.363   1.618 -0.6139 -0.5862 -0.0597
    4CHTO   H25 1679   6.562   5.473   1.603 -2.1172 -0.5133  0.4610
    4CHTO    N3 1680   6.432   5.301   1.559 -0.0647 -0.1846 -0.0004
    4CHTO   H12 1681   6.441   5.196   1.581  0.3359 -0.0024  0.7011
    4CHTO   H13 1682   6.338   5.351   1.580 -0.4611 -0.8388 -0.1890
    4CHTO   C15 1683   6.585   5.323   1.772 -0.9969 -0.4194  0.6673
    4CHTO   H28 1684   6.579   5.215   1.784 -0.2938 -0.7591 -1.8192
    4CHTO   O10 1685   6.499   5.391   1.860  0.0375  0.4540  0.1579
    4CHTO    H4 1686   6.413   5.407   1.824 -0.5514  1.1229  1.7919
    4CHTO    O5 1687   6.720   5.353   1.814  0.1012 -0.2179  0.7939
    4CHTO   C10 1688   6.830   5.298   1.736  0.0087  0.1795  0.9979
    4CHTO   H23 1689   6.822   5.190   1.746 -0.9825  0.1289 -0.2689
    4CHTO   C17 1690   6.954   5.365   1.800  0.0372  0.6158  0.1896
    4CHTO   O12 1691   7.063   5.278   1.773 -0.0377 -0.1659 -0.0526
    4CHTO    H6 1692   7.107   5.294   1.692  2.3605  1.7099  1.5431
    5CHTO  H203 1693   7.538   2.723   2.051  0.9380  0.8804  0.1158
    5CHTO   O82 1694   7.496   2.806   2.052  0.1538  0.4972 -0.1054
    5CHTO  C123 1695   7.520   2.869   2.183 -0.1057  0.7388  0.0425
    5CHTO  H227 1696   7.625   2.902   2.194  0.7619 -1.8589 -0.0396
    5CHTO   O77 1697   7.432   2.983   2.171 -0.2989 -0.6721  0.4024
    5CHTO  C118 1698   7.421   3.072   2.287  0.3297  0.2160 -0.1612
    5CHTO  H222 1699   7.517   3.121   2.308 -1.1966  3.0528  0.4590
    5CHTO  C125 1700   7.318   3.189   2.266  0.1573 -0.3683 -0.1887
    5CHTO   O84 1701   7.361   3.278   2.162 -0.2864 -0.0246 -0.2458
    5CHTO  H205 1702   7.454   3.289   2.158 -0.2974  0.6288  1.0095
    5CHTO  C114 1703   7.356   2.989   2.406  0.1975  1.1615  0.0573
    5CHTO  H218 1704   7.258   2.953   2.374  2.4313 -3.9850 -1.3812
    5CHTO  C116 1705   7.438   2.861   2.425 -0.3579 -0.1220  0.2324
    5CHTO  H220 1706   7.524   2.896   2.485 -0.2145  0.0958 -0.0999
    5CHTO   O79 1707   7.381   2.764   2.513 -0.1044  0.3996  0.2445
    5CHTO  H201 1708   7.395   2.787   2.603  0.4510  0.0638  0.2433
    5CHTO  C120 1709   7.486   2.778   2.296  0.5565 -0.1103  0.0414
    5CHTO  H224 1710   7.399   2.718   2.262  2.6868 -0.9526 -4.2677
    5CHTO   N21 1711   7.594   2.680   2.319 -0.3358  0.4081 -1.0763
    5CHTO  H211 1712   7.664   2.720   2.391  1.6282 -1.3640 -1.9549
    5CHTO  H212 1713   7.646   2.655   2.229 -0.1682 -1.4126 -0.4840
    5CHTO   O75 1714   7.350   3.076   2.526 -0.0492 -0.3617  0.1204
    5CHTO  C112 1715   7.231   3.038   2.620 -0.2929 -0.2292 -0.0504
    5CHTO  H216 1716   7.231   2.929   2.636  1.3333 -0.3555 -0.8089
    5CHTO   O73 1717   7.113   3.081   2.550 -0.6562 -0.7976 -0.1495
    5CHTO  C113 1718   7.000   3.066   2.626 -0.3804  0.0361 -0.4344
    5CHTO  H217 1719   7.002   2.965   2.673  2.3555 -0.2620 -1.0935
    5CHTO  C124 1720   6.888   3.059   2.529  0.3954 -0.5145  0.3693
    5CHTO   O83 1721   6.776   2.995   2.580 -0.1455  0.4790 -0.2293
    5CHTO  H204 1722   6.736   2.942   2.514 -0.6144  0.2454  0.2319
    5CHTO  C109 1723   7.000   3.174   2.730 -0.5350  0.2230 -0.3419
    5CHTO  H213 1724   7.008   3.267   2.672 -2.7555 -0.2386 -1.4552
    5CHTO  C110 1725   7.117   3.151   2.830  0.4558  0.6656  0.4748
    5CHTO  H214 1726   7.093   3.075   2.905 -0.8332  1.5531  0.9786
    5CHTO   O78 1727   7.132   3.269   2.909 -0.5892 -0.4422 -0.4559
    5CHTO  H200 1728   7.147   3.346   2.858  1.2193  0.5759  1.5660
    5CHTO  C111 1729   7.251   3.119   2.755  0.9139  0.3368  0.1411
    5CHTO  H215 1730   7.301   3.213   2.728 -0.4514  1.4271  1.3573
    5CHTO   N19 1731   7.346   3.042   2.836  0.1950 -0.0721  0.6406
    5CHTO  H207 1732   7.325   2.936   2.827  1.9679 -0.3940  0.1562
    5CHTO  H208 1733   7.449   3.072   2.837  0.5187 -0.9820 -1.4917
    5CHTO   O74 1734   6.885   3.169   2.806  0.5595 -0.3219  0.0671
    5CHTO  C115 1735   6.825   3.331   2.833  0.5254  0.1469 -0.1686
    5CHTO  H219 1736   6.888   3.385   2.903  1.5495 -0.0990 -0.8862
    5CHTO   O76 1737   6.829   3.419   2.703 -0.1182 -0.1661 -0.0644
    5CHTO  C122 1738   6.753   3.535   2.683  0.0527  0.3987  0.1517
    5CHTO  H226 1739   6.749   3.551   2.575 -2.3992  1.4938  0.3762
    5CHTO  C126 1740   6.826   3.661   2.742 -0.9823  0.1665 -0.5884
    5CHTO   O85 1741   6.773   3.788   2.702  0.2591  0.1193  0.1544
    5CHTO  H206 1742   6.788   3.850   2.771 -1.0443  2.7275 -1.8113
    5CHTO  C121 1743   6.598   3.515   2.731 -0.0796 -0.2073  0.5405
    5CHTO  H225 1744   6.545   3.612   2.743  0.8129  0.2506  0.9219
    5CHTO   O81 1745   6.529   3.442   2.629  0.4671 -0.1281  0.2477
    5CHTO  H202 1746   6.443   3.408   2.647 -0.5806  1.5319 -1.3915
    5CHTO  C119 1747   6.600   3.448   2.874  0.5968 -0.6134 -0.1921
    5CHTO  H223 1748   6.660   3.518   2.932  1.1229 -1.1616 -0.0733
    5CHTO  C117 1749   6.679   3.317   2.879  0.4631  0.2987  0.8208
    5CHTO  H221 1750   6.630   3.238   2.823 -0.3942  2.1214 -1.0661
    5CHTO   N20 1751   6.672   3.267   3.015  0.0942  0.6420 -1.0411
    5CHTO  H209 1752   6.584   3.296   3.069 -0.3814 -2.7238  0.1334
    5CHTO  H210 1753   6.685   3.160   3.015 -0.0763  0.6219 -1.3885
    5CHTO   O80 1754   6.446   3.456   2.956 -0.3298  0.3504 -0.2142
    5CHTO  C103 1755   6.317   3.431   2.874  0.4727  0.4169  0.1431
    5CHTO  H190 1756   6.321   3.448   2.767  0.1321  1.1623  0.2425
    5CHTO  C101 1757   6.265   3.282   2.893 -0.5285 -0.4270  0.4506
    5CHTO  H188 1758   6.268   3.248   2.996  0.1420 -2.2470 -0.1427
    5CHTO   O68 1759   6.357   3.164   2.814  0.5146  0.6795  0.1817
    5CHTO  H168 1760   6.314   3.151   2.732 -1.9425 -0.2278  1.5836
    5CHTO   C99 1761   6.116   3.275   2.841 -0.3190 -1.3364  0.0571
    5CHTO  H186 1762   6.111   3.304   2.734  1.1641  0.2308  0.3953
    5CHTO   N17 1763   6.054   3.136   2.852  0.1604  0.0722  0.3979
    5CHTO  H174 1764   5.980   3.116   2.776 -0.4864  1.7571  0.5626
    5CHTO  H175 1765   6.024   3.112   2.953 -0.7888  0.1508  0.1480
    5CHTO   C97 1766   6.040   3.384   2.921  0.0776  0.3163  0.1966
    5CHTO  H184 1767   6.047   3.365   3.029  2.2014 -0.5418 -0.0615
    5CHTO   O64 1768   6.088   3.512   2.890  0.2930  0.3832 -0.0224
    5CHTO  C104 1769   6.224   3.530   2.929 -0.7335  0.3298 -1.1418
    5CHTO  H191 1770   6.233   3.540   3.037 -3.4905  3.3079 -1.1231
    5CHTO  C108 1771   6.269   3.660   2.872 -0.3064 -0.0575  0.3620
    5CHTO   O71 1772   6.204   3.774   2.923 -0.4186 -0.2732 -0.0351
    5CHTO  H171 1773   6.269   3.837   2.947  0.3201 -0.5870 -1.1513
    5CHTO   O62 1774   5.898   3.375   2.895  0.1050 -0.3008 -0.0078
    5CHTO   C91 1775   5.829   3.444   2.784 -0.2771 -0.0463 -0.0013
    5CHTO  H178 1776   5.857   3.549   2.777  1.4223 -0.4685  0.2163
    5CHTO   C92 1777   5.680   3.451   2.824 -0.5546 -1.1968  0.2891
    5CHTO  H179 1778   5.678   3.479   2.931 -2.6051 -0.6779  0.1224
    5CHTO   O66 1779   5.618   3.551   2.739 -0.4192  0.0969 -0.2435
    5CHTO  H166 1780   5.632   3.635   2.778 -1.8329 -0.5841  1.7822
    5CHTO   C93 1781   5.602   3.316   2.803 -0.5548  0.1198  0.3823
    5CHTO  H180 1782   5.494   3.335   2.791 -0.3697  0.7195 -0.3294
    5CHTO   N16 1783   5.606   3.213   2.916  0.8859  0.3971 -0.6041
    5CHTO  H172 1784   5.515   3.159   2.935  0.0863  1.5708 -0.9962
    5CHTO  H173 1785   5.652   3.236   3.011 -0.8852  1.4767  0.0199
    5CHTO   C94 1786   5.656   3.246   2.667  0.1949  0.4189  0.4536
    5CHTO  H181 1787   5.723   3.163   2.688 -1.8945 -1.9324 -1.7385
    5CHTO   O61 1788   5.718   3.344   2.591 -0.3196  0.9830 -0.2327
    5CHTO   C95 1789   5.849   3.388   2.635 -0.2042 -0.0503  0.3994
    5CHTO  H182 1790   5.920   3.306   2.630  2.8090  2.1650  3.9565
    5CHTO  C106 1791   5.925   3.497   2.543  0.1728 -0.5326  0.3036
    5CHTO   O69 1792   5.969   3.442   2.422  0.1311 -0.7868  0.1178
    5CHTO  H169 1793   5.982   3.502   2.351 -1.0896 -3.3597 -2.4173
    5CHTO   O63 1794   5.543   3.198   2.590 -0.6321 -0.8127  0.8243
    5CHTO   C96 1795   5.556   3.050   2.548 -0.0085 -0.2267  0.5638
    5CHTO  H183 1796   5.590   3.001   2.638  0.4978 -1.1195 -0.1065
    5CHTO   C98 1797   5.658   3.032   2.429  0.2901 -0.2145 -0.2029
    5CHTO  H185 1798   5.751   3.086   2.448 -0.4968  0.9798  0.2542
    5CHTO   O67 1799   5.696   2.895   2.437  0.2956 -0.1831 -0.8713
    5CHTO  H167 1800   5.645   2.837   2.384  0.1128 -0.2776 -0.5935
    5CHTO  C102 1801   5.595   3.054   2.297 -0.4298  0.0162  0.0371
    5CHTO  H189 1802   5.669   3.017   2.224  0.0787 -0.9979  1.0390
    5CHTO   N18 1803   5.561   3.191   2.254 -0.3716 -0.1561 -0.4162
    5CHTO  H176 1804   5.472   3.223   2.307 -0.2621  3.8579 -2.4871
    5CHTO  H177 1805   5.654   3.241   2.280 -0.1778 -0.4028 -0.6328
    5CHTO  C105 1806   5.478   2.954   2.276  0.4614  0.3759  0.3717
    5CHTO  H192 1807   5.399   3.008   2.226  1.1176 -1.4769 -2.7591
    5CHTO   O65 1808   5.410   2.908   2.396 -0.2554 -0.0820 -0.1443
    5CHTO  C100 1809   5.414   3.003   2.511  0.0457 -0.0588 -0.5193
    5CHTO  H187 1810   5.360   3.089   2.469  0.6374  1.9402  2.6467
    5CHTO  C107 1811   5.348   2.928   2.626  0.3764 -0.7269 -0.5135
    5CHTO   O70 1812   5.202   2.927   2.609 -0.0925  0.0013  0.5009
    5CHTO  H170 1813   5.183   3.001   2.554  2.2314  0.8405  0.7789
    5CHTO   O57 1814   5.538   2.840   2.185 -0.2275  0.2992  0.2557
    5CHTO   C85 1815   5.455   2.730   2.162 -0.2476  0.3720  0.1913
    5CHTO  H157 1816   5.353   2.772   2.179 -1.1160 -1.2229 -0.9530
    5CHTO   C83 1817   5.472   2.615   2.267  0.3733  0.1830  0.2207
    5CHTO  H155 1818   5.463   2.652   2.370  0.1706  0.2175  0.1918
    5CHTO   O56 1819   5.610   2.564   2.264  0.1221 -0.5039  0.1264
    5CHTO  H135 1820   5.622   2.477   2.297 -1.6398 -1.1948 -0.9864
    5CHTO   C81 1821   5.368   2.500   2.240  0.2329 -0.1811  0.1628
    5CHTO  H153 1822   5.270   2.549   2.242  0.5982  0.5519  0.6177
    5CHTO   N14 1823   5.367   2.396   2.345 -0.5259  0.4680  0.3366
    5CHTO  H141 1824   5.452   2.332   2.357  0.5820  1.1477 -3.1935
    5CHTO  H142 1825   5.324   2.415   2.441 -0.7882  0.1603  0.2803
    5CHTO   C79 1826   5.393   2.443   2.091  0.5882 -1.0663  0.3337
    5CHTO  H151 1827   5.305   2.384   2.067  1.5190 -1.8817 -1.1513
    5CHTO   O52 1828   5.392   2.542   1.981 -0.0080 -0.0987 -0.1327
    5CHTO   C86 1829   5.469   2.664   2.011  0.4567  0.0933 -0.3490
    5CHTO  H158 1830   5.571   2.622   1.999 -0.2586 -1.1312 -2.2946
    5CHTO   C90 1831   5.450   2.764   1.903 -0.8190  0.0246  0.5753
    5CHTO   O60 1832   5.498   2.722   1.774 -0.2832  0.4115  0.6059
    5CHTO  H138 1833   5.585   2.755   1.763 -0.5876  1.0577  0.0890
    5CHTO   O50 1834   5.508   2.360   2.085  0.1737  0.6994 -0.1911
    5CHTO   C73 1835   5.596   2.261   2.038 -0.5898  0.0394  0.7659
    5CHTO  H145 1836   5.554   2.200   1.957 -2.4418  1.1262  0.8868
    5CHTO   C74 1837   5.623   2.169   2.161 -0.7258  0.3414  0.0313
    5CHTO  H146 1838   5.532   2.122   2.201 -0.7700 -0.3528 -0.8660
    5CHTO   O54 1839   5.695   2.059   2.094 -0.2012  0.1106  1.1314
    5CHTO  H133 1840   5.715   1.983   2.145  0.0904  0.2641  1.2440
    5CHTO   C75 1841   5.708   2.246   2.277  0.6921 -0.0883 -0.5772
    5CHTO  H147 1842   5.646   2.325   2.323  0.9747  1.0972 -2.1865
    5CHTO   N13 1843   5.738   2.153   2.390 -0.5484 -0.2704  0.2884
    5CHTO  H139 1844   5.666   2.073   2.387 -0.3172 -0.4590 -0.3315
    5CHTO  H140 1845   5.835   2.106   2.380 -1.0437 -1.3461  0.4023
    5CHTO   C76 1846   5.835   2.327   2.216 -0.5204 -0.3222  0.1279
    5CHTO  H148 1847   5.910   2.253   2.188 -0.4293 -1.2490  2.7500
    5CHTO   O49 1848   5.799   2.403   2.097 -0.1555 -0.0698 -0.0810
    5CHTO   C77 1849   5.728   2.332   1.990 -0.1449 -0.1246  0.1005
    5CHTO  H149 1850   5.795   2.259   1.945  0.7470 -0.5721  2.0635
    5CHTO   C88 1851   5.701   2.428   1.875 -0.5847  0.6152 -0.2032
    5CHTO   O58 1852   5.633   2.361   1.766  0.5340  0.0453  0.3411
    5CHTO  H136 1853   5.603   2.422   1.701  0.2122  1.1361  1.4959
    5CHTO   O51 1854   5.894   2.424   2.330 -0.2975  0.1387 -0.1161
    5CHTO   C78 1855   6.010   2.514   2.302 -0.5701  0.5271  0.1089
    5CHTO  H150 1856   5.978   2.583   2.221 -0.3166 -0.3985 -0.7935
    5CHTO   C80 1857   6.135   2.433   2.252 -0.4918 -0.6373  0.6443
    5CHTO  H152 1858   6.140   2.336   2.306  1.0086 -1.5297 -1.0547
    5CHTO   O55 1859   6.121   2.395   2.114  0.4685  0.3425  0.5430
    5CHTO  H134 1860   6.073   2.315   2.102  0.1832  0.6482 -0.3746
    5CHTO   C84 1861   6.273   2.511   2.267  0.3548 -0.5747 -0.2981
    5CHTO  H156 1862   6.280   2.574   2.177  1.8064  1.7822  1.4135
    5CHTO   N15 1863   6.389   2.420   2.263  0.6402 -0.5096  0.0011
    5CHTO  H143 1864   6.466   2.459   2.199  0.7970 -0.0713  0.4525
    5CHTO  H144 1865   6.350   2.329   2.222 -2.5618  0.9016 -0.2328
    5CHTO   C87 1866   6.270   2.595   2.396 -0.2882  0.3081 -0.0690
    5CHTO  H159 1867   6.274   2.527   2.480  0.2889  1.3891  0.7948
    5CHTO   O53 1868   6.152   2.693   2.415 -0.0846 -0.0106 -0.4419
    5CHTO   C82 1869   6.047   2.598   2.435 -0.0090  0.0948 -0.1163
    5CHTO  H154 1870   6.066   2.527   2.516 -0.3914 -0.0154 -0.1257
    5CHTO   C89 1871   5.914   2.671   2.477 -0.0201 -0.1349 -0.2437
    5CHTO   O59 1872   5.921   2.761   2.594  0.6230 -0.1218 -0.0788
    5CHTO  H137 1873   5.834   2.785   2.621  1.0704  1.0472  0.3528
    5CHTO   O45 1874   6.398   2.690   2.401 -0.6569  0.1188 -0.2163
    5CHTO   C67 1875   6.428   2.713   2.542 -0.0780 -0.1638  1.0435
    5CHTO  H124 1876   6.339   2.707   2.603 -0.3379  0.2386  0.7042
    5CHTO   C65 1877   6.535   2.604   2.579 -0.2176  0.3717 -0.1178
    5CHTO  H122 1878   6.591   2.570   2.492 -0.0493 -0.0691  0.1594
    5CHTO   O44 1879   6.458   2.493   2.623 -0.1621  0.1652  0.2423
    5CHTO  H102 1880   6.510   2.416   2.612  1.6040  1.4128 -0.2945
    5CHTO   C63 1881   6.645   2.659   2.679 -0.0317 -0.0455 -0.7461
    5CHTO  H120 1882   6.713   2.719   2.618 -0.3073  1.3325  0.2672
    5CHTO   N11 1883   6.735   2.554   2.736 -0.2194  0.2776 -0.0735
    5CHTO  H108 1884   6.815   2.605   2.787  0.5049  0.0179 -0.9270
    5CHTO  H109 1885   6.683   2.497   2.810  1.1718 -0.6680  0.1870
    5CHTO   C61 1886   6.577   2.770   2.774  0.2712 -0.1860  0.6603
    5CHTO  H118 1887   6.663   2.806   2.832  0.0203 -0.9395  1.5228
    5CHTO   O40 1888   6.520   2.875   2.698  0.1731 -0.3823  0.0468
    5CHTO   C68 1889   6.483   2.861   2.559 -0.3375  0.4018 -1.4365
    5CHTO  H125 1890   6.572   2.888   2.499 -0.0199  0.5108 -0.9219
    5CHTO   C72 1891   6.372   2.957   2.527 -0.1963 -0.0292 -0.3418
    5CHTO   O48 1892   6.408   3.093   2.510 -0.0079  0.0594  0.5964
    5CHTO  H105 1893   6.453   3.102   2.428  1.9588 -1.4413  1.4582
    5CHTO   O38 1894   6.476   2.722   2.872  0.1246  0.2092  0.2047
    5CHTO   C55 1895   6.408   2.824   2.948  0.0026 -0.2257  0.5186
    5CHTO  H112 1896   6.403   2.923   2.901 -1.9743 -0.0935  0.9610
    5CHTO   C56 1897   6.476   2.833   3.085 -0.2871  0.1733 -0.6140
    5CHTO  H113 1898   6.475   2.730   3.124 -0.4154 -0.4074 -2.1347
    5CHTO   O42 1899   6.614   2.872   3.082  0.0521 -0.3155 -0.1084
    5CHTO  H100 1900   6.637   2.866   2.991  0.0253 -1.5950 -0.0485
    5CHTO   C57 1901   6.399   2.938   3.183 -0.2649  0.1453 -0.6765
    5CHTO  H114 1902   6.409   3.039   3.145 -0.7041  0.8990  1.1339
    5CHTO   N10 1903   6.436   2.937   3.327 -0.1256  0.1362  0.0350
    5CHTO  H106 1904   6.490   2.846   3.348 -2.0192 -1.2305 -0.7770
    5CHTO  H107 1905   6.500   3.023   3.338 -1.4489  1.3387 -1.3298
    5CHTO   C58 1906   6.246   2.903   3.172  0.0539 -0.1540  0.5756
    5CHTO  H115 1907   6.233   2.800   3.210 -0.8359 -1.0545 -2.0961
    5CHTO   O37 1908   6.205   2.906   3.039 -0.5554 -0.1740 -0.2102
    5CHTO   C59 1909   6.261   2.788   2.973 -0.0570  0.3906 -0.0145
    5CHTO  H116 1910   6.259   2.695   3.030  0.0421  0.8109  0.6843
    5CHTO   C70 1911   6.179   2.764   2.844  0.3641 -0.3063  0.7608
    5CHTO   O46 1912   6.046   2.726   2.868  0.5161 -0.6078 -0.7237
    5CHTO  H103 1913   6.057   2.649   2.920  0.2874 -0.9239 -1.1450
    5CHTO   O39 1914   6.140   3.019   3.262  0.1912 -0.1402  0.5586
    5CHTO   C60 1915   5.997   3.006   3.236  0.1144  0.0198  0.3383
    5CHTO  H117 1916   5.986   3.066   3.146  3.4546 -2.2365 -1.6665
    5CHTO   C62 1917   5.937   2.866   3.199  0.0224 -0.8813  1.1592
    5CHTO  H119 1918   6.008   2.835   3.120 -2.0131 -1.5790 -0.4595
    5CHTO   O43 1919   5.953   2.782   3.315 -0.2440 -0.2150 -0.1103
    5CHTO  H101 1920   5.879   2.803   3.369 -0.1622  0.1739 -0.1498
    5CHTO   C66 1921   5.788   2.881   3.145 -0.3206 -0.4336 -0.0664
    5CHTO  H123 1922   5.783   2.953   3.064 -1.3426 -0.0395  0.3409
    5CHTO   N12 1923   5.730   2.753   3.084 -0.2315 -0.6409 -0.3762
    5CHTO  H110 1924   5.786   2.742   2.992 -1.2877 -2.4510 -0.8438
    5CHTO  H111 1925   5.625   2.776   3.070  0.2426  1.0539 -1.2941
    5CHTO   C69 1926   5.709   2.954   3.254 -0.2631 -0.0606 -0.4246
    5CHTO  H126 1927   5.711   2.892   3.346  1.4656  2.0319  0.9992
    5CHTO   O41 1928   5.774   3.095   3.298 -0.3052 -0.3630  0.2338
    5CHTO   C64 1929   5.920   3.086   3.348 -0.0891  0.0366  0.0375
    5CHTO  H121 1930   5.925   3.036   3.447  0.6210  0.3563  0.1632
    5CHTO   C71 1931   5.968   3.224   3.372 -0.3448  0.1031  0.2527
    5CHTO   O47 1932   5.971   3.314   3.258 -0.6071 -0.1791  0.0003
    5CHTO  H104 1933   5.888   3.304   3.217 -2.4193  0.1891  3.4120
    5CHTO   O34 1934   5.560   2.981   3.205  0.1312  0.8080 -0.3101
    5CHTO   C49 1935   5.408   2.891   3.239  0.0967 -1.3299  0.5873
    5CHTO   H91 1936   5.448   2.791   3.254 -0.7875 -1.3788  3.0040
    5CHTO   C47 1937   5.318   2.896   3.113 -0.9056  0.1375 -0.9409
    5CHTO   H89 1938   5.238   2.820   3.129  1.2317 -1.8229  0.7953
    5CHTO   O33 1939   5.394   2.862   2.993  0.2623 -0.4572  0.3635
    5CHTO   H70 1940   5.352   2.796   2.941  3.0454 -0.5980 -1.8312
    5CHTO   C45 1941   5.250   3.040   3.105  0.6185  0.9519  0.3069
    5CHTO   H87 1942   5.330   3.115   3.111  0.0240  1.7786 -1.7732
    5CHTO    N8 1943   5.168   3.052   2.983 -0.9238 -0.2160 -0.1103
    5CHTO   H75 1944   5.080   2.995   3.008 -1.5707  1.0957  0.6471
    5CHTO   H76 1945   5.219   2.999   2.904 -1.0229  0.3051 -0.5306
    5CHTO   C43 1946   5.166   3.070   3.241 -0.2911 -0.2980 -0.2987
    5CHTO   H85 1947   5.117   3.167   3.231 -0.0511  0.1338  2.3385
    5CHTO   O29 1948   5.252   3.066   3.359  0.1801 -0.0304  0.4818
    5CHTO   C50 1949   5.339   2.942   3.368  0.0573  0.8538  0.1721
    5CHTO   H92 1950   5.425   2.959   3.435  1.1130 -0.8217 -0.6999
    5CHTO   C54 1951   5.273   2.832   3.452 -0.1424  0.7612 -0.5270
    5CHTO   O36 1952   5.245   2.871   3.587 -0.3656 -0.3524 -0.2217
    5CHTO   H72 1953   5.328   2.880   3.629 -0.1786  1.5287 -0.9546
    5CHTO   O27 1954   5.056   2.979   3.252  0.5132 -0.3541 -0.1653
    5CHTO   C37 1955   4.934   2.908   3.234 -0.4213  0.1123  0.0629
    5CHTO   H79 1956   4.878   2.952   3.150 -0.1441 -0.9319 -0.6788
    5CHTO   C38 1957   4.962   2.761   3.196  0.4346 -0.4348 -0.4157
    5CHTO   H80 1958   5.050   2.724   3.251 -0.2421 -1.6206 -0.1280
    5CHTO   O31 1959   4.958   2.758   3.052 -0.1200 -0.5455 -0.3262
    5CHTO   H68 1960   5.043   2.791   3.031 -0.4859  1.7198  1.5546
    5CHTO   C39 1961   4.845   2.659   3.237  0.2148 -0.3981 -0.2243
    5CHTO   H81 1962   4.756   2.676   3.176  1.0880 -0.1912 -1.4626
    5CHTO    N7 1963   4.876   2.509   3.221  0.3853  0.0996 -0.0841
    5CHTO   H73 1964   4.854   2.436   3.297  3.3091 -1.0726 -0.3073
    5CHTO   H74 1965   4.796   2.475   3.158 -0.2004 -0.4193  0.9331
    5CHTO   C40 1966   4.809   2.700   3.380  0.4415  0.7422 -0.2298
    5CHTO   H82 1967   4.906   2.707   3.430  0.2814 -0.1255  0.2097
    5CHTO   O26 1968   4.743   2.827   3.377 -0.1848  0.1574 -0.3269
    5CHTO   C41 1969   4.854   2.926   3.365  0.3266 -0.8904  0.0679
    5CHTO   H83 1970   4.929   2.902   3.442  0.6117 -0.8572 -0.1970
    5CHTO   C52 1971   4.810   3.078   3.356 -0.2031  0.1415  0.0418
    5CHTO   O35 1972   4.732   3.121   3.480 -0.0864  0.2939  0.5306
    5CHTO   H71 1973   4.711   3.213   3.485 -0.4300  0.1592  1.5052
    5CHTO   O28 1974   4.696   2.621   3.432 -0.1646  0.2703 -0.2462
    5CHTO   C42 1975   4.682   2.596   3.575 -1.4091  0.5395 -0.1771
    5CHTO   H84 1976   4.586   2.544   3.578 -1.8524  1.3935  1.1104
    5CHTO   C44 1977   4.664   2.728   3.666 -0.5160 -0.2665  0.3639
    5CHTO   H86 1978   4.755   2.788   3.656 -1.1095  0.5761 -0.0663
    5CHTO   O32 1979   4.556   2.804   3.612  0.0391  0.0285 -0.1757
    5CHTO   H69 1980   4.474   2.759   3.613 -0.9799  1.7182 -2.4030
    5CHTO   C48 1981   4.641   2.686   3.816 -0.2473  0.1904 -0.9337
    5CHTO   H90 1982   4.555   2.619   3.825  0.8314 -1.1375 -0.3266
    5CHTO    N9 1983   4.626   2.809   3.902  0.3922  0.4602  0.2852
    5CHTO   H77 1984   4.522   2.838   3.895  0.6384  1.6658  1.3579
    5CHTO   H78 1985   4.681   2.884   3.847  1.1975 -0.2129  0.1765
    5CHTO   C51 1986   4.759   2.601   3.865  0.0114  0.2791 -0.3659
    5CHTO   H93 1987   4.852   2.657   3.851  0.6110 -0.8899 -1.1873
    5CHTO   O30 1988   4.764   2.478   3.784 -0.1542 -0.3996 -0.3338
    5CHTO   C46 1989   4.792   2.496   3.629  0.0386 -0.9169  0.3284
    5CHTO   H88 1990   4.888   2.543   3.609 -1.3037  1.7016 -0.1772
    5CHTO   C53 1991   4.795   2.359   3.554  0.1060  0.7895 -0.1925
    5CHTO   O72 1992   4.893   2.284   3.617  0.4939  0.8194  0.0823
    5CHTO  H199 1993   4.962   2.260   3.558 -0.6064 -4.5523  0.7874
    5CHTO   O22 1994   4.749   2.541   3.997 -0.3500  0.0662 -0.6793
    5CHTO   C31 1995   4.861   2.533   4.092  0.3502 -0.6424 -0.4728
    5CHTO   H59 1996   4.837   2.448   4.159  0.1131 -0.1478  0.0746
    5CHTO   C29 1997   4.992   2.495   4.030 -0.7919 -0.0049 -0.0168
    5CHTO   H57 1998   5.007   2.558   3.941 -3.1479  0.3477 -0.1982
    5CHTO   O21 1999   4.967   2.367   3.965  0.3228  0.6601  0.1657
    5CHTO   H37 2000   4.987   2.298   4.026  0.2508  3.0536  2.9827
    5CHTO   C27 2001   5.124   2.512   4.120  0.5272  0.2228  0.5041
    5CHTO   H55 2002   5.123   2.442   4.205  0.3343  0.9817  1.1252
    5CHTO    N5 2003   5.249   2.484   4.040  0.5712 -0.4502 -0.0839
    5CHTO   H43 2004   5.232   2.499   3.935 -0.5053  0.5543  0.2166
    5CHTO   H44 2005   5.315   2.406   4.075  0.6690  0.0867  0.9546
    5CHTO   C25 2006   5.125   2.651   4.191  0.5299 -0.0629  0.6816
    5CHTO   H53 2007   5.116   2.716   4.104 -0.1593 -4.0988 -2.4155
    5CHTO   O17 2008   4.997   2.668   4.261 -0.0253  0.5790  0.4260
    5CHTO   C32 2009   4.876   2.659   4.179 -0.2478 -0.0648  0.6001
    5CHTO   H60 2010   4.864   2.752   4.124 -0.4112 -2.1508 -3.0574
    5CHTO   C36 2011   4.756   2.680   4.277  0.3898  0.3029 -0.1235
    5CHTO   O25 2012   4.763   2.606   4.401 -0.0905 -0.1470  0.3806
    5CHTO   H40 2013   4.676   2.623   4.431 -0.9248  1.8043 -2.8898
    5CHTO   O15 2014   5.251   2.670   4.270  0.3415  0.4020  0.1415
    5CHTO   C19 2015   5.352   2.781   4.274 -0.0847  0.0166 -0.8041
    5CHTO   H47 2016   5.287   2.869   4.275 -2.6286 -1.8229  0.2080
    5CHTO   C20 2017   5.438   2.788   4.402 -0.2390 -0.3652 -0.2639
    5CHTO   H48 2018   5.477   2.690   4.434 -3.2732 -1.3951  0.4423
    5CHTO   O19 2019   5.340   2.795   4.506  0.2163 -0.3660  0.3614
    5CHTO   H35 2020   5.360   2.829   4.591  0.5822 -0.6956  0.4072
    5CHTO   C21 2021   5.546   2.903   4.401  0.6288  0.5107  0.0724
    5CHTO   H49 2022   5.493   2.998   4.412 -2.9084 -1.5222  1.4499
    5CHTO    N4 2023   5.627   2.891   4.526 -0.5756  0.0250  0.5525
    5CHTO   H41 2024   5.692   2.976   4.538  0.2086 -0.3670 -0.8898
    5CHTO   H42 2025   5.676   2.797   4.545 -1.2639 -0.9108 -2.1844
    5CHTO   C22 2026   5.632   2.897   4.274  0.2456 -0.3967  0.2740
    5CHTO   H50 2027   5.694   2.807   4.278  1.8719  0.6475 -0.8423
    5CHTO   O14 2028   5.546   2.899   4.158  0.0984 -0.3050 -0.6647
    5CHTO   C23 2029   5.447   2.796   4.149  0.2621  0.0456  0.5124
    5CHTO   H51 2030   5.510   2.708   4.129  0.9813  1.3066 -3.0899
    5CHTO   C34 2031   5.364   2.832   4.021  0.0083 -0.7082  1.1836
    5CHTO   O23 2032   5.289   2.957   4.040 -0.4448 -0.6081 -0.3733
    5CHTO   H38 2033   5.344   3.031   4.029 -1.5848  0.6884  2.1428
    5CHTO   O16 2034   5.721   3.005   4.256  0.1949  0.4958 -0.4024
    5CHTO   C24 2035   5.862   2.961   4.190  0.1713 -0.2101  0.6756
    5CHTO   H52 2036   5.866   2.854   4.171 -0.6843 -0.2864  0.8796
    5CHTO   C26 2037   5.970   3.013   4.292  0.1022  0.2346  0.0595
    5CHTO   H54 2038   5.938   3.115   4.322 -0.9980  0.2855 -1.2456
    5CHTO   O20 2039   5.951   2.934   4.415 -0.2533 -0.4255  0.3012
    5CHTO   H36 2040   5.994   2.853   4.394  0.8585 -0.3331  2.0842
    5CHTO   C30 2041   6.116   3.014   4.245  0.2362  0.1650 -0.4429
    5CHTO   H58 2042   6.146   2.908   4.243  0.0374  0.1210 -1.5103
    5CHTO    N6 2043   6.196   3.082   4.348 -0.3340 -0.1261 -0.4278
    5CHTO   H45 2044   6.270   3.022   4.401  1.3340  0.9499 -1.4925
    5CHTO   H46 2045   6.244   3.175   4.320  1.4217 -0.6401  0.7672
    5CHTO   C33 2046   6.130   3.078   4.105  0.3392 -0.3406  0.4578
    5CHTO   H61 2047   6.095   3.182   4.114  2.3230  0.2900  1.1627
    5CHTO   O18 2048   6.039   3.009   4.022 -0.1311 -1.1467  0.2124
    5CHTO   C28 2049   5.895   3.027   4.049 -0.4903  0.3063 -0.1688
    5CHTO   H56 2050   5.869   3.132   4.060 -2.2042 -0.2489  1.4336
    5CHTO   C35 2051   5.815   2.970   3.930 -0.0582  0.2045 -0.5936
    5CHTO   O24 2052   5.836   3.054   3.808  0.0064 -0.5943 -0.0897
    5CHTO   H39 2053   5.761   3.036   3.756  0.1044 -1.2360 -0.0160
    5CHTO    O9 2054   6.258   3.090   4.043 -0.0625  0.2544  0.0782
    5CHTO   C13 2055   6.317   2.933   3.960  0.0356  0.4156  0.2425
    5CHTO   H26 2056   6.236   2.858   3.970 -0.3734  0.8561  0.2528
    5CHTO   C11 2057   6.454   2.882   4.021 -0.2233  0.8957 -0.0636
    5CHTO   H24 2058   6.448   2.867   4.129 -0.7229  1.1765 -0.0529
    5CHTO    O8 2059   6.548   2.987   4.008 -0.4073 -0.0746  0.1586
    5CHTO    H3 2060   6.523   3.061   4.059  1.7852  0.4929  0.4159
    5CHTO    C9 2061   6.495   2.761   3.938  0.2086 -0.1151 -0.2308
    5CHTO   H22 2062   6.409   2.693   3.945  1.0445 -1.0539  1.2536
    5CHTO    N2 2063   6.603   2.686   3.998 -0.0948 -0.3174 -0.4307
    5CHTO   H10 2064   6.672   2.663   3.918 -0.1253  0.4757 -0.6921
    5CHTO   H11 2065   6.569   2.596   4.046 -3.2618  1.3022  0.5153
    5CHTO    C7 2066   6.520   2.799   3.787 -0.0312 -0.4544  0.0197
    5CHTO   H20 2067   6.474   2.714   3.732  0.3354 -2.3946  2.6517
    5CHTO    O4 2068   6.465   2.929   3.753  0.2751 -0.2792  0.1037
    5CHTO   C14 2069   6.330   2.947   3.804  0.0342  1.3635 -0.2931
    5CHTO   H27 2070   6.259   2.869   3.769 -0.1389  0.3542  2.2577
    5CHTO   C18 2071   6.272   3.090   3.765  0.1347  0.2490  0.6812
    5CHTO   O13 2072   6.239   3.090   3.628 -0.4024  0.0849 -0.3117
    5CHTO    H7 2073   6.205   3.177   3.621  1.7789  1.0056  0.2262
    5CHTO    O2 2074   6.681   2.807   3.737 -0.0716  0.3364  0.7179
    5CHTO    C1 2075   6.701   2.765   3.602  0.0801  0.3300  0.1316
    5CHTO   H14 2076   6.607   2.762   3.543 -0.4897  0.3914  1.0226
    5CHTO    C2 2077   6.770   2.623   3.593 -0.1384 -0.6583  0.1811
    5CHTO   H15 2078   6.859   2.630   3.658 -2.3777 -1.0031  3.4225
    5CHTO    O6 2079   6.675   2.538   3.662 -0.0462  0.0741 -0.1985
    5CHTO    H1 2080   6.715   2.501   3.739 -1.2005 -1.2471 -0.2258
    5CHTO    C3 2081   6.803   2.583   3.443 -0.3386  0.1202 -0.1764
    5CHTO   H16 2082   6.712   2.566   3.384 -1.0239 -0.9710  1.1617
    5CHTO    N1 2083   6.869   2.448   3.438  0.2348  0.0023  0.4604
    5CHTO    H8 2084   6.960   2.455   3.496  0.5372  2.4798 -0.2599
    5CHTO    H9 2085   6.812   2.367   3.481 -2.8542  1.1687 -1.3456
    5CHTO    C4 2086   6.874   2.702   3.370  0.3986  0.1230 -0.1924
    5CHTO   H17 2087   6.980   2.707   3.395  0.4315  0.6649 -0.4251
    5CHTO    O1 2088   6.814   2.832   3.400 -0.1548  0.1261 -0.0938
    5CHTO    C5 2089   6.799   2.870   3.540  0.2197  0.1850 -0.0749
    5CHTO   H18 2090   6.895   2.872   3.591 -0.1502  0.4364  0.6172
    5CHTO   C16 2091   6.741   3.012   3.534 -0.0664 -0.1212  0.0578
    5CHTO   O11 2092   6.755   3.090   3.649 -0.2199  0.1005 -0.5474
    5CHTO    H5 2093   6.773   3.179   3.627  1.7357 -0.0567  0.3449
    5CHTO    O3 2094   6.857   2.682   3.230 -0.0381 -0.4052 -0.7101
    5CHTO    C6 2095   6.973   2.681   3.135 -0.1442  0.8119 -0.3068
    5CHTO   H19 2096   7.070   2.694   3.182 -0.1052  1.9773 -0.7025
    5CHTO    C8 2097   6.969   2.549   3.052 -0.0496  0.4590 -0.8474
    5CHTO   H21 2098   6.874   2.540   2.999 -0.3134 -0.3453 -0.2449
    5CHTO    O7 2099   6.979   2.450   3.158 -0.3411 -0.0625  0.0168
    5CHTO    H2 2100   6.954   2.365   3.128 -0.5278  0.0949 -0.2714
    5CHTO   C12 2101   7.092   2.547   2.942  0.0582  0.4815 -0.1354
    5CHTO   H25 2102   7.190   2.545   2.993 -1.0766  1.9317  2.2248
    5CHTO    N3 2103   7.087   2.422   2.867 -0.1432  0.9044  0.4467
    5CHTO   H12 2104   7.104   2.340   2.934 -0.4118 -0.0913 -0.6868
    5CHTO   H13 2105   7.147   2.425   2.777  1.0349  0.9523  1.2281
    5CHTO   C15 2106   7.081   2.681   2.856 -0.4617 -1.3714 -0.3473
    5CHTO   H28 2107   7.002   2.675   2.781 -1.3522  1.4474  0.2853
    5CHTO   O10 2108   7.224   2.721   2.777  0.4585  0.4575  0.5087
    5CHTO    H4 2109   7.215   2.789   2.713 -0.2427  0.4869  0.6309
    5CHTO    O5 2110   7.064   2.800   2.935 -0.1970  0.0919  0.3444
    5CHTO   C10 2111   6.954   2.792   3.029 -0.4261  0.4797 -0.5722
    5CHTO   H23 2112   6.863   2.764   2.976 -0.5305  1.7643 -1.0779
    5CHTO   C17 2113   6.936   2.928   3.096 -0.0839 -0.0127  0.0823
    5CHTO   O12 2114   7.061   2.973   3.160  0.0533  0.3071 -0.3413
    5CHTO    H6 2115   7.046   3.048   3.214  0.8337  0.9030 -0.9458
    6CHTO  H203 2116   7.503   4.371   4.656 -0.6904  1.4535  0.2087
    6CHTO   O82 2117   7.430   4.314   4.671  0.1902  0.0417 -0.6425
    6CHTO  C123 2118   7.311   4.404   4.669  0.0625 -0.3259  0.7784
    6CHTO  H227 2119   7.320   4.481   4.591  0.3941 -3.2188 -2.1369
    6CHTO   O77 2120   7.211   4.301   4.652 -0.0934 -0.5649  0.4415
    6CHTO  C118 2121   7.084   4.360   4.624  0.2428  0.1459  0.6961
    6CHTO  H222 2122   7.093   4.427   4.537 -3.4403  0.0299  0.1474
    6CHTO  C125 2123   6.982   4.240   4.590 -0.6208  0.0318 -0.2031
    6CHTO   O84 2124   6.977   4.177   4.462  0.2261 -0.1647  0.0436
    6CHTO  H205 2125   6.901   4.206   4.415  0.0171  0.5975  0.8325
    6CHTO  C114 2126   7.036   4.440   4.745 -0.3420 -0.2528  0.1791
    6CHTO  H218 2127   7.004   4.372   4.824 -1.1340  0.9148  0.8720
    6CHTO  C116 2128   7.145   4.539   4.803 -0.5680  0.4617  0.2508
    6CHTO  H220 2129   7.143   4.632   4.743 -2.4581  0.3490  0.1001
    6CHTO   O79 2130   7.102   4.578   4.935 -0.8429  0.0774  0.3734
    6CHTO  H201 2131   7.107   4.507   4.997  0.8593 -0.7386 -0.6728
    6CHTO  C120 2132   7.288   4.478   4.805  0.7037  0.0878  0.2742
    6CHTO  H224 2133   7.288   4.405   4.888  0.2175  0.7371  0.8516
    6CHTO   N21 2134   7.394   4.574   4.835  0.0566  0.4437  0.1394
    6CHTO  H211 2135   7.403   4.581   4.942  0.6343 -0.6150  0.1671
    6CHTO  H212 2136   7.492   4.543   4.802  0.8989  2.4561  0.6212
    6CHTO   O75 2137   6.916   4.508   4.694 -0.6587 -0.5453 -0.6720
    6CHTO  C112 2138   6.789   4.476   4.790  0.4123  0.9471  0.3435
    6CHTO  H216 2139   6.825   4.485   4.894 -0.0490 -0.7229  0.6705
    6CHTO   O73 2140   6.735   4.344   4.766 -0.2858 -0.3267  0.2014
    6CHTO  C113 2141   6.609   4.310   4.830 -0.5577  0.8271  0.6036
    6CHTO  H217 2142   6.629   4.297   4.938  0.1583  0.2328  0.4013
    6CHTO  C124 2143   6.557   4.176   4.782 -0.4097 -0.1143  0.3016
    6CHTO   O83 2144   6.538   4.168   4.641  0.1643  0.2949 -0.1685
    6CHTO  H204 2145   6.492   4.087   4.634  0.3839  0.3832 -3.0710
    6CHTO  C109 2146   6.496   4.423   4.797  0.0293  0.2302 -0.0037
    6CHTO  H213 2147   6.485   4.433   4.688 -2.5808 -2.3497 -0.0468
    6CHTO  C110 2148   6.554   4.555   4.842  0.4771  0.3575  0.2841
    6CHTO  H214 2149   6.589   4.551   4.945  1.5278 -0.4356 -0.0938
    6CHTO   O78 2150   6.454   4.660   4.836  0.2283  0.2121  0.7930
    6CHTO  H200 2151   6.429   4.673   4.747  0.0829 -1.7754  0.5056
    6CHTO  C111 2152   6.680   4.592   4.757 -0.8147  0.2187 -0.2967
    6CHTO  H215 2153   6.657   4.592   4.649  1.2522 -1.2982 -0.7657
    6CHTO   N19 2154   6.733   4.731   4.794 -0.3430  0.5689 -0.5036
    6CHTO  H207 2155   6.810   4.763   4.725  1.9074 -1.4226  0.9580
    6CHTO  H208 2156   6.652   4.802   4.798 -1.6596 -0.9414  0.5857
    6CHTO   O74 2157   6.368   4.389   4.853 -0.1130  0.2070 -0.0376
    6CHTO  C115 2158   6.357   4.396   5.015 -0.0844 -0.1651 -0.0218
    6CHTO  H219 2159   6.456   4.396   5.061 -0.5080  0.3325  0.9027
    6CHTO   O76 2160   6.295   4.529   5.059 -0.5173 -0.5327  0.4630
    6CHTO  C122 2161   6.151   4.537   5.046  0.4293 -0.2445 -0.5522
    6CHTO  H226 2162   6.120   4.567   4.945  0.2597  1.8311  0.0857
    6CHTO  C126 2163   6.094   4.655   5.139  0.4017 -0.1020 -0.2049
    6CHTO   O85 2164   6.134   4.780   5.079  0.0274  0.4159  0.1103
    6CHTO  H206 2165   6.224   4.792   5.101  0.2573  2.2689 -1.7392
    6CHTO  C121 2166   6.069   4.416   5.075  0.0068  0.2061 -0.1480
    6CHTO  H225 2167   5.982   4.446   5.137 -0.4274  0.2962 -0.7954
    6CHTO   O81 2168   6.012   4.356   4.956 -0.1438  0.0141 -0.7147
    6CHTO  H202 2169   5.992   4.418   4.889 -1.0724  0.8166  0.2809
    6CHTO  C119 2170   6.151   4.305   5.148 -0.2469 -0.1642 -0.3612
    6CHTO  H223 2171   6.189   4.347   5.242  0.1835  0.0226 -0.6187
    6CHTO  C117 2172   6.278   4.267   5.062 -0.8355 -0.2315 -0.5619
    6CHTO  H221 2173   6.249   4.206   4.977  0.7202 -0.7266 -0.7514
    6CHTO   N20 2174   6.357   4.170   5.149  0.2297 -0.0494 -0.1167
    6CHTO  H209 2175   6.394   4.214   5.241 -0.1095  0.3440 -0.1649
    6CHTO  H210 2176   6.311   4.074   5.165 -0.7428  0.6849  1.7611
    6CHTO   O80 2177   6.056   4.187   5.215 -0.3096  0.3638 -0.8152
    6CHTO  C103 2178   5.986   4.220   5.365  0.7687  0.0441 -0.2177
    6CHTO  H190 2179   6.057   4.239   5.445  3.3982  1.5742 -2.8000
    6CHTO  C101 2180   5.885   4.332   5.369 -0.0287  0.2944  0.6151
    6CHTO  H188 2181   5.825   4.345   5.279 -1.0361  0.2874  1.2717
    6CHTO   O68 2182   5.969   4.463   5.376  0.0360 -0.4792 -0.2126
    6CHTO  H168 2183   5.982   4.487   5.466 -0.0239 -1.6069  0.1038
    6CHTO   C99 2184   5.786   4.328   5.496 -0.5540  0.6116  0.5013
    6CHTO  H186 2185   5.839   4.342   5.592 -0.9971 -0.0467  0.8395
    6CHTO   N17 2186   5.681   4.435   5.495  0.2541  0.3666 -0.1258
    6CHTO  H174 2187   5.718   4.529   5.532  0.8006  0.3497 -0.6155
    6CHTO  H175 2188   5.587   4.411   5.543 -0.5747  2.2888 -0.7322
    6CHTO   C97 2189   5.722   4.187   5.497 -0.2956 -0.3217  0.0036
    6CHTO  H184 2190   5.665   4.177   5.404 -0.3447 -0.7752  0.0786
    6CHTO   O64 2191   5.823   4.082   5.513  0.3908 -0.1201 -0.3387
    6CHTO  C104 2192   5.911   4.080   5.401 -0.5859  0.2378 -0.4103
    6CHTO  H191 2193   5.858   4.039   5.315  0.1290 -1.5255 -0.0325
    6CHTO  C108 2194   6.013   3.975   5.438 -0.5117  0.1653 -0.0350
    6CHTO   O71 2195   5.960   3.843   5.417  0.1366  0.1827  0.4825
    6CHTO  H171 2196   5.883   3.834   5.470  0.4110 -0.8517  0.7127
    6CHTO   O62 2197   5.636   4.169   5.612  0.7383 -0.4264 -0.2645
    6CHTO   C91 2198   5.549   4.046   5.606  0.5903  0.3413 -0.2118
    6CHTO  H178 2199   5.542   4.011   5.502 -3.1690 -0.6529  0.2953
    6CHTO   C92 2200   5.409   4.109   5.626  0.0619  0.3208 -0.9245
    6CHTO  H179 2201   5.414   4.208   5.578  1.1029  0.2459 -0.9984
    6CHTO   O66 2202   5.330   4.030   5.532  0.5985 -0.3955  0.4706
    6CHTO  H166 2203   5.243   4.064   5.522  0.1267 -1.7084  0.0953
    6CHTO   C93 2204   5.354   4.106   5.768  0.3222 -0.0987 -0.0433
    6CHTO  H180 2205   5.250   4.135   5.752  0.6232  0.4921 -0.9466
    6CHTO   N16 2206   5.416   4.199   5.861 -0.0185 -0.2967 -0.4026
    6CHTO  H172 2207   5.501   4.161   5.917 -0.6655 -0.0145  0.7905
    6CHTO  H173 2208   5.449   4.289   5.810  1.7158 -0.7419 -0.0889
    6CHTO   C94 2209   5.360   3.955   5.809 -0.6232 -0.2869 -0.3399
    6CHTO  H181 2210   5.388   3.939   5.913  1.8402 -1.5502 -1.1651
    6CHTO   O61 2211   5.456   3.873   5.738  0.7748  0.2815 -0.5301
    6CHTO   C95 2212   5.575   3.935   5.713  0.1823 -0.0867  0.2167
    6CHTO  H182 2213   5.603   3.988   5.804  0.3312  1.7207 -0.8534
    6CHTO  C106 2214   5.686   3.836   5.653  0.0039 -0.7081  0.1632
    6CHTO   O69 2215   5.743   3.755   5.761  0.3484  0.5888  0.0511
    6CHTO  H169 2216   5.818   3.707   5.730  0.7632  0.9397  0.5182
    6CHTO   O63 2217   5.190   3.889   5.792  0.6079  0.2926  0.3833
    6CHTO   C96 2218   5.175   3.741   5.789 -0.4546 -0.4197 -0.3776
    6CHTO  H183 2219   5.278   3.704   5.784 -0.9979 -2.0006 -0.0837
    6CHTO   C98 2220   5.099   3.669   5.675 -1.1248  0.2518  0.0058
    6CHTO  H185 2221   4.993   3.698   5.677 -0.5994  2.2154  0.1577
    6CHTO   O67 2222   5.147   3.718   5.550 -0.4944 -0.6848  0.5613
    6CHTO  H167 2223   5.079   3.770   5.512  0.0328 -0.8625 -0.6749
    6CHTO  C102 2224   5.132   3.515   5.682 -0.8953 -0.4339 -0.0269
    6CHTO  H189 2225   5.218   3.496   5.616 -0.0372  2.3699  0.2326
    6CHTO   N18 2226   5.020   3.434   5.629 -0.1952 -0.0512  0.4207
    6CHTO  H176 2227   5.050   3.332   5.612  0.7837  0.3398 -0.2555
    6CHTO  H177 2228   4.936   3.422   5.696 -0.1797 -2.5894  0.0036
    6CHTO  C105 2229   5.163   3.464   5.826 -0.0510 -0.2334 -0.2307
    6CHTO  H192 2230   5.144   3.357   5.835  0.3718 -0.2728  0.2279
    6CHTO   O65 2231   5.100   3.543   5.932 -0.1183  0.3446  0.0027
    6CHTO  C100 2232   5.113   3.687   5.926  0.2202  0.3797 -0.4279
    6CHTO  H187 2233   5.011   3.726   5.937 -0.1500 -0.5467 -0.5154
    6CHTO  C107 2234   5.192   3.738   6.057 -0.1497  0.4971  0.3531
    6CHTO   O70 2235   5.111   3.712   6.176 -0.0598 -0.0707  0.1399
    6CHTO  H170 2236   5.132   3.632   6.221  0.4305 -0.4569 -0.7537
    6CHTO   O57 2237   5.317   3.491   5.833 -0.4060 -0.0770 -0.6550
    6CHTO   C85 2238   5.414   3.395   5.875  0.8560  0.0222  0.0568
    6CHTO  H157 2239   5.369   3.300   5.841  0.4109  0.1798  0.1909
    6CHTO   C83 2240   5.417   3.384   6.025 -0.2506  0.2106 -0.7307
    6CHTO  H155 2241   5.321   3.343   6.057  0.5204 -0.5615  0.5916
    6CHTO   O56 2242   5.437   3.516   6.079 -0.1918 -0.0251 -0.1111
    6CHTO  H135 2243   5.413   3.521   6.170 -0.0551  0.0574 -0.0791
    6CHTO   C81 2244   5.532   3.287   6.076  0.5134  0.4247 -0.6813
    6CHTO  H153 2245   5.518   3.188   6.033 -0.2911  0.4217 -0.4186
    6CHTO   N14 2246   5.533   3.274   6.228  0.0931 -0.5521  0.8144
    6CHTO  H141 2247   5.432   3.250   6.252  0.0911 -0.6584  0.6975
    6CHTO  H142 2248   5.552   3.374   6.261  0.3081  0.2152 -1.5137
    6CHTO   C79 2249   5.671   3.341   6.029 -0.8859  0.2698  0.0252
    6CHTO  H151 2250   5.747   3.267   6.056 -1.0943  0.2183  0.4759
    6CHTO   O52 2251   5.667   3.341   5.884 -0.4624 -0.4452  0.2518
    6CHTO   C86 2252   5.558   3.421   5.824 -0.0377 -0.3369  0.1082
    6CHTO  H158 2253   5.585   3.526   5.848  2.5850 -0.9952  0.1504
    6CHTO   C90 2254   5.560   3.397   5.668  0.4809  0.7536  0.0376
    6CHTO   O60 2255   5.665   3.466   5.602 -0.3810  0.8126 -0.4702
    6CHTO  H138 2256   5.632   3.548   5.572 -2.1251  0.3307  0.0780
    6CHTO   O50 2257   5.716   3.475   6.065  0.4683  0.3287 -0.7292
    6CHTO   C73 2258   5.808   3.536   6.162 -0.5281  0.2481 -0.2752
    6CHTO  H145 2259   5.829   3.466   6.244 -0.6802  0.0586 -0.3960
    6CHTO   C74 2260   5.727   3.656   6.229 -0.2506  1.0209 -1.0080
    6CHTO  H146 2261   5.632   3.610   6.261  0.7191  0.7342  1.5930
    6CHTO   O54 2262   5.803   3.686   6.350 -0.6463  0.4385  0.1528
    6CHTO  H133 2263   5.823   3.603   6.387 -2.7735  0.1078  0.6115
    6CHTO   C75 2264   5.708   3.782   6.135  0.6529 -0.3958 -0.3158
    6CHTO  H147 2265   5.661   3.754   6.039 -0.9425 -0.8188  0.5623
    6CHTO   N13 2266   5.624   3.892   6.181  0.1200 -0.1218  0.4235
    6CHTO  H139 2267   5.651   3.929   6.279 -0.0634 -0.0858  0.4588
    6CHTO  H140 2268   5.520   3.889   6.154  0.2451 -1.1932  0.0184
    6CHTO   C76 2269   5.859   3.827   6.082  0.9469  0.2170 -0.5483
    6CHTO  H148 2270   5.913   3.865   6.169  1.2833 -0.0563 -0.6328
    6CHTO   O49 2271   5.931   3.711   6.026 -0.3609 -0.1279  0.3999
    6CHTO   C77 2272   5.948   3.597   6.105  0.5562 -0.0579 -0.1313
    6CHTO  H149 2273   6.017   3.609   6.188  0.0400  2.5555 -0.0539
    6CHTO   C88 2274   6.027   3.499   6.021  0.0051  0.2026  0.0333
    6CHTO   O58 2275   5.964   3.458   5.901 -0.2925 -0.7596 -0.8128
    6CHTO  H136 2276   6.025   3.402   5.858 -0.8143 -0.9792 -1.2792
    6CHTO   O51 2277   5.837   3.935   5.943  0.7353  0.1611 -0.4972
    6CHTO   C78 2278   5.936   4.050   5.946  0.0698  0.4778  0.1740
    6CHTO  H150 2279   6.005   4.040   6.032  0.1539  1.4108  0.2226
    6CHTO   C80 2280   5.854   4.174   5.960  0.0987  0.3477 -0.0307
    6CHTO  H152 2281   5.779   4.177   5.878  1.1854  4.0060 -0.9499
    6CHTO   O55 2282   5.781   4.156   6.084 -0.0198  0.4609 -0.3229
    6CHTO  H134 2283   5.721   4.085   6.073  1.3637 -0.7180 -0.4418
    6CHTO   C84 2284   5.953   4.301   5.955  0.1632 -0.6244 -0.7244
    6CHTO  H156 2285   6.021   4.281   6.038 -0.6935 -0.5867 -0.0063
    6CHTO   N15 2286   5.878   4.431   5.971 -0.2231  0.0918  0.9961
    6CHTO  H143 2287   5.855   4.465   5.872  1.8497  0.5175  0.6243
    6CHTO  H144 2288   5.788   4.421   6.028 -1.2065  0.4932 -0.4472
    6CHTO   C87 2289   6.046   4.299   5.826 -0.1071 -0.1839  0.1301
    6CHTO  H159 2290   5.996   4.318   5.732  1.4650 -0.5834 -0.8136
    6CHTO   O53 2291   6.115   4.156   5.834  0.4110  0.2587 -1.0320
    6CHTO   C82 2292   6.023   4.049   5.820 -0.8732  0.2092  0.0308
    6CHTO  H154 2293   5.973   4.065   5.724 -2.2873 -1.6410  0.4328
    6CHTO   C89 2294   6.090   3.918   5.809 -0.6156  0.0827 -1.0670
    6CHTO   O59 2295   6.176   3.892   5.918 -0.6346  0.3688  0.3976
    6CHTO  H137 2296   6.221   3.810   5.907  0.4510  0.8263  1.4156
    6CHTO   O45 2297   6.158   4.412   5.826 -0.4616  0.2093 -0.2185
    6CHTO   C67 2298   6.278   4.395   5.748  0.7342 -0.0416 -0.4189
    6CHTO  H124 2299   6.313   4.293   5.764 -0.7102 -0.3652  0.8006
    6CHTO   C65 2300   6.264   4.415   5.596  0.7331  0.0302  0.2964
    6CHTO  H122 2301   6.164   4.447   5.567  1.4244  0.6922 -1.4240
    6CHTO   O44 2302   6.293   4.285   5.536  0.4324  0.6323  0.3810
    6CHTO  H102 2303   6.217   4.230   5.538  0.2829  0.7819 -0.6479
    6CHTO   C63 2304   6.348   4.539   5.551 -0.1252 -0.1105 -0.4246
    6CHTO  H120 2305   6.310   4.625   5.606  1.7497  0.2498  0.3288
    6CHTO   N11 2306   6.333   4.579   5.413 -0.0631 -0.9609  0.4542
    6CHTO  H108 2307   6.397   4.655   5.373 -2.1601  1.0032  0.7444
    6CHTO  H109 2308   6.338   4.496   5.345 -2.3869 -0.1088 -0.8203
    6CHTO   C61 2309   6.500   4.511   5.598  0.2285 -0.0831  0.5817
    6CHTO  H118 2310   6.551   4.605   5.576  0.7764 -0.3851  0.5528
    6CHTO   O40 2311   6.520   4.486   5.740 -0.0989  0.4374  0.1311
    6CHTO   C68 2312   6.390   4.484   5.814 -0.2512  1.0905  0.6306
    6CHTO  H125 2313   6.348   4.587   5.811 -0.3503  1.0585  0.8886
    6CHTO   C72 2314   6.405   4.447   5.958  0.3791 -0.1962  0.1267
    6CHTO   O48 2315   6.484   4.537   6.042 -0.0127 -0.1522  0.2153
    6CHTO  H105 2316   6.429   4.568   6.111  3.4172  1.3669  2.4072
    6CHTO   O38 2317   6.559   4.401   5.528  0.0971 -0.1672  0.0145
    6CHTO   C55 2318   6.699   4.413   5.494 -0.1898  0.6301 -0.3009
    6CHTO  H112 2319   6.740   4.505   5.536  0.9510 -0.2361  0.4914
    6CHTO   C56 2320   6.711   4.411   5.331  0.0853  0.8158 -0.1950
    6CHTO  H113 2321   6.651   4.323   5.307 -0.8444  1.5372 -0.5321
    6CHTO   O42 2322   6.642   4.518   5.271 -0.1727 -0.1916  0.0413
    6CHTO  H100 2323   6.551   4.500   5.283 -0.5634  0.6938 -1.4474
    6CHTO   C57 2324   6.862   4.406   5.284 -0.1247 -0.2249 -0.4147
    6CHTO  H114 2325   6.914   4.498   5.310  0.5995 -0.5247 -0.7726
    6CHTO   N10 2326   6.882   4.384   5.132  0.0042  0.0397 -0.0060
    6CHTO  H106 2327   6.883   4.278   5.114  0.4182 -0.4561  2.7369
    6CHTO  H107 2328   6.799   4.427   5.078 -1.0213  1.2035  2.4257
    6CHTO   C58 2329   6.933   4.287   5.367  0.1911 -0.0021  0.3912
    6CHTO  H115 2330   6.888   4.191   5.335 -2.5050  0.8218  1.5874
    6CHTO   O37 2331   6.922   4.311   5.508 -0.0759  0.1735  0.0895
    6CHTO   C59 2332   6.786   4.300   5.559  0.0281  0.7602  0.3547
    6CHTO  H116 2333   6.751   4.204   5.520  0.8392 -0.2713  2.1074
    6CHTO   C70 2334   6.800   4.301   5.711 -0.1834 -0.3533 -0.0713
    6CHTO   O46 2335   6.852   4.425   5.779  0.3114  0.1087  0.0626
    6CHTO  H103 2336   6.912   4.479   5.731 -0.6426  0.4579 -0.7387
    6CHTO   O39 2337   7.085   4.291   5.337  0.2555  0.2786  0.4824
    6CHTO   C60 2338   7.151   4.161   5.353  0.2588 -0.0999 -0.7015
    6CHTO  H117 2339   7.081   4.096   5.405  3.1627 -2.1837  0.7860
    6CHTO   C62 2340   7.180   4.100   5.215  0.2407  0.6812  0.5575
    6CHTO  H119 2341   7.080   4.078   5.170 -0.2643  0.3169  1.8414
    6CHTO   O43 2342   7.237   4.195   5.123  0.0318 -0.4020  0.2855
    6CHTO  H101 2343   7.168   4.254   5.096 -1.0604 -2.3971 -1.4004
    6CHTO   C66 2344   7.258   3.954   5.213  0.3777 -0.1784  0.0859
    6CHTO  H123 2345   7.190   3.880   5.257  0.2384  0.7329  1.4218
    6CHTO   N12 2346   7.284   3.895   5.077  0.6113  0.8213 -0.3331
    6CHTO  H110 2347   7.313   3.975   5.011 -0.1754  1.6740  0.3551
    6CHTO  H111 2348   7.196   3.839   5.048 -0.0440  1.9673 -0.5963
    6CHTO   C69 2349   7.381   3.961   5.309  0.2673 -0.1060  0.1823
    6CHTO  H126 2350   7.461   4.028   5.271  1.5900 -0.7240  1.7945
    6CHTO   O41 2351   7.325   4.011   5.453 -0.1890  0.1880 -0.3580
    6CHTO   C64 2352   7.276   4.160   5.446 -0.2706  0.1257 -0.7459
    6CHTO  H121 2353   7.363   4.218   5.407 -1.1322  0.3915 -2.3282
    6CHTO   C71 2354   7.237   4.208   5.586 -0.0608  0.7161  0.6833
    6CHTO   O47 2355   7.152   4.113   5.655  0.1221  0.3215 -0.2994
    6CHTO  H104 2356   7.199   4.061   5.718 -1.0650 -0.7700 -0.2890
    6CHTO   O34 2357   7.453   3.820   5.328  0.3149  0.4133 -0.2089
    6CHTO   C49 2358   7.579   3.761   5.363 -0.0930  0.0566 -0.4297
    6CHTO   H91 2359   7.591   3.671   5.302  1.2364 -0.4926  0.6073
    6CHTO   C47 2360   7.570   3.718   5.514  0.1082  0.1451 -0.3756
    6CHTO   H89 2361   7.662   3.659   5.532 -0.2620 -0.5033 -0.5626
    6CHTO   O33 2362   7.456   3.637   5.538 -0.2073 -0.0676 -0.1520
    6CHTO   H70 2363   7.377   3.686   5.525 -1.1724 -1.8774 -1.3921
    6CHTO   C45 2364   7.575   3.841   5.620 -0.2131  0.3024 -0.1216
    6CHTO   H87 2365   7.470   3.869   5.637 -0.6569  0.8148 -3.3239
    6CHTO    N8 2366   7.646   3.799   5.745 -0.0721 -0.3957  0.5273
    6CHTO   H75 2367   7.644   3.877   5.820  2.2658 -0.3543  0.5815
    6CHTO   H76 2368   7.618   3.701   5.781  0.9297 -0.7954  0.2355
    6CHTO   C43 2369   7.637   3.976   5.550  0.3926  0.5999  0.8160
    6CHTO   H85 2370   7.554   4.020   5.495  0.0031 -1.5551 -0.3747
    6CHTO   O29 2371   7.743   3.948   5.457 -0.2374  0.3570 -0.3261
    6CHTO   C50 2372   7.715   3.850   5.349  0.6353 -0.3751  0.3682
    6CHTO   H92 2373   7.705   3.909   5.257 -2.4043  0.3715  1.0954
    6CHTO   C54 2374   7.836   3.771   5.318  0.0722  0.5240 -0.1207
    6CHTO   O36 2375   7.815   3.688   5.203 -0.0457 -0.1576 -0.1799
    6CHTO   H72 2376   7.826   3.739   5.125 -0.8115 -2.3514 -1.7558
    6CHTO   O27 2377   7.673   4.075   5.645  0.8280  0.3667 -0.5429
    6CHTO   C37 2378   7.716   4.203   5.697 -0.5975 -0.8823 -0.6974
    6CHTO   H79 2379   7.802   4.233   5.636 -0.6157 -2.1080 -1.3497
    6CHTO   C38 2380   7.609   4.312   5.677 -0.8165 -0.5659  0.1802
    6CHTO   H80 2381   7.516   4.288   5.729 -0.4668  1.3125  1.7326
    6CHTO   O31 2382   7.592   4.320   5.533 -0.3487  0.1399 -0.4298
    6CHTO   H68 2383   7.518   4.267   5.511  0.9690 -1.7097 -0.5230
    6CHTO   C39 2384   7.661   4.445   5.740 -0.1071  0.0223  0.4493
    6CHTO   H81 2385   7.752   4.487   5.697 -2.1930  2.4716 -1.7157
    6CHTO    N7 2386   7.573   4.563   5.728 -0.1229  0.4939 -0.7637
    6CHTO   H73 2387   7.593   4.615   5.635 -0.0224  0.1110 -0.9612
    6CHTO   H74 2388   7.469   4.537   5.715 -0.1586  1.1394 -1.7894
    6CHTO   C40 2389   7.706   4.431   5.892  0.0654 -1.0213 -0.0410
    6CHTO   H82 2390   7.619   4.426   5.958  0.2920 -1.3582  0.2367
    6CHTO   O26 2391   7.786   4.315   5.912 -0.3549 -0.5102 -0.1603
    6CHTO   C41 2392   7.755   4.184   5.850 -0.1711  0.0159  0.2644
    6CHTO   H83 2393   7.672   4.135   5.904 -0.0317  1.7981  2.1201
    6CHTO   C52 2394   7.874   4.100   5.869 -1.0277 -0.1750  0.4701
    6CHTO   O35 2395   7.889   4.080   6.030 -0.4613  0.4760  0.0397
    6CHTO   H71 2396   7.815   4.050   6.078 -0.8678  2.7736  0.9221
    6CHTO   O28 2397   7.800   4.529   5.942 -0.3301 -0.1898 -0.1932
    6CHTO   C42 2398   7.793   4.589   6.077 -0.8288  0.1302  0.0842
    6CHTO   H84 2399   7.894   4.630   6.088 -0.4243 -1.1535  1.2400
    6CHTO   C44 2400   7.782   4.498   6.194  0.1799  0.8337 -0.5598
    6CHTO   H86 2401   7.685   4.450   6.189 -0.0546  1.2388  0.0193
    6CHTO   O32 2402   7.892   4.402   6.178  0.0883  0.3979  0.2796
    6CHTO   H69 2403   7.888   4.350   6.100  0.6800  1.1390 -0.2601
    6CHTO   C48 2404   7.789   4.580   6.327  0.8285 -0.0200 -0.6898
    6CHTO   H90 2405   7.878   4.641   6.336  1.0820 -0.6481  1.1446
    6CHTO    N9 2406   7.788   4.490   6.442  0.0324 -0.2257 -0.0282
    6CHTO   H77 2407   7.875   4.515   6.502 -0.5397  0.6662  0.4444
    6CHTO   H78 2408   7.693   4.480   6.492 -1.0895 -0.7476 -2.2256
    6CHTO   C51 2409   7.656   4.665   6.329 -0.0923  0.0270 -0.0325
    6CHTO   H93 2410   7.562   4.611   6.320 -1.2672  1.9398  0.5723
    6CHTO   O30 2411   7.669   4.757   6.222  0.5552  0.1700  0.1039
    6CHTO   C46 2412   7.688   4.705   6.089 -0.7968  0.6162 -0.3151
    6CHTO   H88 2413   7.596   4.656   6.058 -1.1100  0.6876  0.5124
    6CHTO   C53 2414   7.721   4.820   5.994 -0.2111  0.0046 -0.5052
    6CHTO   O72 2415   7.842   4.890   6.030 -0.3509 -0.5294  0.0894
    6CHTO  H199 2416   7.913   4.839   6.063  2.1409  0.7117 -3.0759
    6CHTO   O22 2417   7.652   4.757   6.443 -0.1429  0.5003 -0.2945
    6CHTO   C31 2418   7.533   4.824   6.504 -0.4795  0.4067 -0.7011
    6CHTO   H59 2419   7.572   4.903   6.572 -1.2858  1.7256 -1.7429
    6CHTO   C29 2420   7.442   4.891   6.404 -0.2447 -0.5089  0.4339
    6CHTO   H57 2421   7.423   4.806   6.337 -1.4136 -0.0975  0.2272
    6CHTO   O21 2422   7.517   4.988   6.330  0.4987  0.4205  0.2185
    6CHTO   H37 2423   7.491   4.991   6.240 -1.7237  0.6058  0.8265
    6CHTO   C27 2424   7.306   4.945   6.464 -0.1406 -0.5070 -0.1971
    6CHTO   H55 2425   7.330   5.029   6.530  0.1516  0.2382 -1.2479
    6CHTO    N5 2426   7.217   4.986   6.354 -0.2044  0.7343  0.1215
    6CHTO   H43 2427   7.113   4.979   6.383  0.1433  1.2534  1.5419
    6CHTO   H44 2428   7.237   4.914   6.276 -3.8172 -0.9469  0.6611
    6CHTO   C25 2429   7.248   4.835   6.549  0.3235 -0.1623  0.4000
    6CHTO   H53 2430   7.201   4.750   6.497 -0.1761  0.2812  0.1266
    6CHTO   O17 2431   7.339   4.790   6.646 -0.1773  0.3943  0.0838
    6CHTO   C32 2432   7.455   4.728   6.601  0.4619 -0.0054 -0.7069
    6CHTO   H60 2433   7.446   4.636   6.543  1.4691  0.7588 -2.0934
    6CHTO   C36 2434   7.535   4.692   6.729 -0.2010  0.0180  0.4795
    6CHTO   O25 2435   7.456   4.636   6.839 -0.2235  0.7875  0.2608
    6CHTO   H40 2436   7.495   4.672   6.917 -0.6557  0.5457  0.5868
    6CHTO   O15 2437   7.130   4.888   6.622  0.1381 -0.5954  0.4533
    6CHTO   C19 2438   7.087   4.935   6.756 -0.1215 -0.5657 -0.1610
    6CHTO   H47 2439   7.094   4.848   6.823  0.7064 -0.5037 -0.1516
    6CHTO   C20 2440   7.184   5.044   6.820 -0.1316  0.3085 -1.1347
    6CHTO   H48 2441   7.214   5.124   6.751  1.1269  2.0571  1.3440
    6CHTO   O19 2442   7.298   4.968   6.866  0.2602  0.0810  0.5052
    6CHTO   H35 2443   7.383   4.986   6.832 -0.0103  0.8956  0.2513
    6CHTO   C21 2444   7.123   5.111   6.943 -0.5627  0.1391  0.4113
    6CHTO   H49 2445   7.124   5.047   7.030 -1.6513 -0.3224  0.0950
    6CHTO    N4 2446   7.197   5.234   6.987 -0.1724 -0.7013 -0.4218
    6CHTO   H41 2447   7.279   5.254   6.919 -0.0674  1.3979  0.2810
    6CHTO   H42 2448   7.241   5.217   7.084 -1.4277 -0.3168  0.2162
    6CHTO   C22 2449   6.973   5.137   6.929  0.1103  0.7361 -0.0960
    6CHTO   H50 2450   6.958   5.215   6.854  1.3426  0.6860 -0.4087
    6CHTO   O14 2451   6.900   5.019   6.885  0.0345  0.0443  0.5366
    6CHTO   C23 2452   6.948   4.988   6.755 -0.1238  0.8263 -0.3241
    6CHTO   H51 2453   6.937   5.073   6.686 -1.9956  1.0739  0.2298
    6CHTO   C34 2454   6.854   4.886   6.704 -0.1904 -0.0882  0.7690
    6CHTO   O23 2455   6.722   4.926   6.642  0.1801 -1.0981  0.3073
    6CHTO   H38 2456   6.661   4.855   6.635 -0.1385 -0.7032 -1.1118
    6CHTO   O16 2457   6.915   5.164   7.059 -0.3178  0.4176  0.3118
    6CHTO   C24 2458   6.818   5.312   7.078  0.0425 -0.3999 -0.1715
    6CHTO   H52 2459   6.844   5.391   7.007 -0.4481 -0.6669 -0.6498
    6CHTO   C26 2460   6.835   5.374   7.219 -0.1205 -0.0050  0.6947
    6CHTO   H54 2461   6.820   5.293   7.294  0.2622 -0.9609 -0.2367
    6CHTO   O20 2462   6.968   5.427   7.224  0.5265  0.3922  0.5341
    6CHTO   H36 2463   7.025   5.368   7.179  0.8786  0.6098  0.6882
    6CHTO   C30 2464   6.726   5.482   7.242 -0.2263 -0.0645 -0.8046
    6CHTO   H58 2465   6.749   5.567   7.176  0.1674 -0.4463 -1.1613
    6CHTO    N6 2466   6.739   5.540   7.380  0.3265 -0.2323  0.8077
    6CHTO   H45 2467   6.843   5.566   7.388  0.3432  0.9107 -2.2508
    6CHTO   H46 2468   6.709   5.483   7.466  2.0268  1.1377  2.3239
    6CHTO   C33 2469   6.579   5.431   7.209  0.0015  0.0397 -0.7186
    6CHTO   H61 2470   6.552   5.348   7.276 -0.5308  0.7365 -0.0598
    6CHTO   O18 2471   6.582   5.376   7.073 -0.4650 -0.3142  0.6644
    6CHTO   C28 2472   6.671   5.267   7.045 -0.3542  0.3056 -0.1922
    6CHTO   H56 2473   6.648   5.186   7.114  1.8843  1.0993  1.5642
    6CHTO   C35 2474   6.650   5.215   6.902 -0.5981  0.3296  0.1286
    6CHTO   O24 2475   6.518   5.183   6.863 -0.0199  0.0718  0.4364
    6CHTO   H39 2476   6.477   5.135   6.932 -0.1460  1.4046  1.3073
    6CHTO    O9 2477   6.471   5.532   7.224  0.3855  0.5818  0.1388
    6CHTO   C13 2478   6.330   5.457   7.183 -0.6430 -0.5031 -0.3769
    6CHTO   H26 2479   6.339   5.347   7.197 -4.4744 -0.8366  0.0042
    6CHTO   C11 2480   6.293   5.494   7.041 -0.2041 -0.0014  0.3187
    6CHTO   H24 2481   6.343   5.431   6.967 -2.6394 -2.1113  0.3876
    6CHTO    O8 2482   6.308   5.631   7.010  0.5075 -0.1684  0.5133
    6CHTO    H3 2483   6.391   5.665   7.039  1.2078 -1.2558 -0.1934
    6CHTO    C9 2484   6.152   5.441   7.013 -0.3290  0.6116 -0.0901
    6CHTO   H22 2485   6.160   5.333   7.035 -0.3252  0.0592 -2.6342
    6CHTO    N2 2486   6.112   5.448   6.873 -0.2674 -0.6371  0.4214
    6CHTO   H10 2487   6.133   5.546   6.835  1.5084 -1.0293  0.3698
    6CHTO   H11 2488   6.179   5.374   6.832  0.1700 -1.2981  2.2653
    6CHTO    C7 2489   6.044   5.517   7.111  0.1688 -0.3727  0.8333
    6CHTO   H20 2490   5.991   5.430   7.156  0.4890 -0.7194  0.5510
    6CHTO    O4 2491   6.107   5.578   7.224  0.0224 -0.0262  0.4981
    6CHTO   C14 2492   6.214   5.501   7.281 -0.1941  0.4291 -0.2893
    6CHTO   H27 2493   6.160   5.409   7.314 -1.7536  0.9131 -1.4191
    6CHTO   C18 2494   6.256   5.566   7.409  0.0234  0.8769  0.2943
    6CHTO   O13 2495   6.146   5.566   7.506  0.6574 -0.5456 -0.1689
    6CHTO    H7 2496   6.068   5.528   7.472  0.1190  0.0194  0.4275
    6CHTO    O2 2497   5.944   5.631   7.049  0.2361 -0.2067 -0.1390
    6CHTO    C1 2498   5.799   5.620   7.060 -0.4422 -0.4582  0.1385
    6CHTO   H14 2499   5.765   5.707   7.001 -1.6746 -1.7718 -1.1209
    6CHTO    C2 2500   5.755   5.643   7.215 -0.6653  0.4791  0.1779
    6CHTO   H15 2501   5.809   5.565   7.270 -1.0858  0.5115  0.6404
    6CHTO    O6 2502   5.803   5.784   7.232 -0.4064  0.2151 -0.3613
    6CHTO    H1 2503   5.850   5.783   7.314 -0.3107 -1.1634 -0.4173
    6CHTO    C3 2504   5.596   5.633   7.230 -0.0692 -0.6537  0.8666
    6CHTO   H16 2505   5.550   5.710   7.166  1.4347  0.5916  1.2525
    6CHTO    N1 2506   5.557   5.658   7.369  0.2606 -0.3420  0.1756
    6CHTO    H8 2507   5.459   5.703   7.373  0.4296  0.1472 -0.9785
    6CHTO    H9 2508   5.629   5.724   7.417  0.6614  1.3735 -2.6782
    6CHTO    C4 2509   5.548   5.500   7.164  0.3385  0.8452  0.1594
    6CHTO   H17 2510   5.576   5.418   7.229  0.2497  0.1127 -0.7090
    6CHTO    O1 2511   5.597   5.477   7.034 -0.3141  0.9832  0.4469
    6CHTO    C5 2512   5.737   5.487   7.014 -0.2262 -0.1553 -0.1549
    6CHTO   H18 2513   5.785   5.408   7.071  0.7722 -1.7238 -3.0590
    6CHTO   C16 2514   5.763   5.456   6.865  0.7114 -0.2554  0.4066
    6CHTO   O11 2515   5.754   5.317   6.846 -0.0065 -0.0139 -0.3086
    6CHTO    H5 2516   5.667   5.292   6.870 -0.8526  2.9465 -0.1285
    6CHTO    O3 2517   5.406   5.514   7.148  0.9009 -0.5422  0.4258
    6CHTO    C6 2518   5.315   5.418   7.210  0.4603 -0.0232 -1.0074
    6CHTO   H19 2519   5.358   5.365   7.295  0.7630  1.0486 -0.4888
    6CHTO    C8 2520   5.179   5.490   7.246 -0.0154 -0.2757  0.1816
    6CHTO   H21 2521   5.155   5.546   7.156 -1.6678 -0.8317  0.2652
    6CHTO    O7 2522   5.220   5.584   7.342 -0.3364 -0.0657 -0.4424
    6CHTO    H2 2523   5.256   5.665   7.311  1.4296 -1.5104 -2.1865
    6CHTO   C12 2524   5.065   5.393   7.293  0.1842  0.3322 -0.0168
    6CHTO   H25 2525   5.086   5.341   7.389  1.6848 -0.4000 -0.7299
    6CHTO    N3 2526   4.943   5.468   7.328 -0.1219  0.4426  0.0891
    6CHTO   H12 2527   4.971   5.523   7.416  1.6053  0.3028 -0.3504
    6CHTO   H13 2528   4.871   5.395   7.363 -2.0667  2.1770 -0.1978
    6CHTO   C15 2529   5.043   5.285   7.187  0.7563  0.1168  0.0464
    6CHTO   H28 2530   5.014   5.332   7.093 -0.5539  0.6930  0.7238
    6CHTO   O10 2531   4.950   5.166   7.233  0.5045  0.4951  0.1406
    6CHTO    H4 2532   4.949   5.174   7.326 -0.7090  2.7341 -0.0259
    6CHTO    O5 2533   5.168   5.216   7.152 -0.0293 -0.5986  0.0502
    6CHTO   C10 2534   5.269   5.307   7.105 -0.6538 -0.5183 -0.3136
    6CHTO   H23 2535   5.221   5.352   7.017 -0.2948  3.0527  1.2059
    6CHTO   C17 2536   5.388   5.225   7.059  0.2412 -0.1628 -0.4922
    6CHTO   O12 2537   5.377   5.148   6.943 -0.5278 -0.6378  0.3504
    6CHTO    H6 2538   5.364   5.199   6.865 -0.6255 -1.6110 -0.2753
    7CHTO  H203 2539   5.245   2.167   2.727 -0.6577  0.5922  0.4910
    7CHTO   O82 2540   5.273   2.215   2.651 -0.8479 -0.0658  0.0006
    7CHTO  C123 2541   5.413   2.238   2.663 -0.2520  0.5878 -0.5017
    7CHTO  H227 2542   5.451   2.219   2.562 -1.3582  0.0170 -0.8172
    7CHTO   O77 2543   5.445   2.375   2.708 -0.6298 -1.0493 -0.3237
    7CHTO  C118 2544   5.587   2.407   2.689  0.5838  0.2327  0.7700
    7CHTO  H222 2545   5.620   2.398   2.584  2.0601  2.0670  1.0490
    7CHTO  C125 2546   5.596   2.559   2.724 -0.2872  0.0178  0.0170
    7CHTO   O84 2547   5.516   2.637   2.638 -0.0004  0.0076  0.1791
    7CHTO  H205 2548   5.524   2.720   2.680  0.7147  0.0653 -0.0700
    7CHTO  C114 2549   5.685   2.325   2.767  0.8337 -0.2531 -0.3607
    7CHTO  H218 2550   5.679   2.355   2.872  1.8669 -1.3521  0.0222
    7CHTO  C116 2551   5.643   2.172   2.760  0.1038 -0.5162  0.9399
    7CHTO  H220 2552   5.674   2.138   2.659  1.7887  1.1857  0.8420
    7CHTO   O79 2553   5.725   2.095   2.850  0.2912 -0.3662 -0.5306
    7CHTO  H201 2554   5.709   2.003   2.839  1.8114 -1.1263  2.9827
    7CHTO  C120 2555   5.489   2.152   2.773 -0.0757  0.6811  0.3946
    7CHTO  H224 2556   5.469   2.180   2.878 -0.3985 -0.5507  0.6780
    7CHTO   N21 2557   5.450   2.008   2.763  0.0649  0.2170  0.0940
    7CHTO  H211 2558   5.523   1.951   2.707  0.8687  1.6941 -0.4015
    7CHTO  H212 2559   5.457   1.977   2.866  2.3724 -1.0828 -0.4306
    7CHTO   O75 2560   5.813   2.360   2.714  0.0339 -0.1637  0.0400
    7CHTO  C112 2561   5.934   2.322   2.802  0.1119  0.0787 -0.2962
    7CHTO  H216 2562   5.927   2.215   2.825  1.3185  0.1139  0.2594
    7CHTO   O73 2563   5.935   2.408   2.915  0.4023  0.1151  0.9125
    7CHTO  C113 2564   6.033   2.371   3.010  0.5893 -0.1918 -0.1726
    7CHTO  H217 2565   6.020   2.262   3.027 -0.5182  0.5251  4.0125
    7CHTO  C124 2566   6.020   2.448   3.142 -0.4818 -0.3434 -0.2576
    7CHTO   O83 2567   6.073   2.576   3.137  0.1417 -0.0459 -0.2154
    7CHTO  H204 2568   6.098   2.613   3.219  1.4636 -0.6879 -0.3189
    7CHTO  C109 2569   6.176   2.389   2.954  0.6231 -0.1598 -0.0490
    7CHTO  H213 2570   6.187   2.496   2.932  1.3534  0.1120  1.5351
    7CHTO  C110 2571   6.183   2.297   2.826 -0.2844  0.6705 -0.8347
    7CHTO  H214 2572   6.176   2.190   2.844 -0.7833  0.9324  0.6261
    7CHTO   O78 2573   6.316   2.317   2.773 -0.1249  0.0804  0.6355
    7CHTO  H200 2574   6.333   2.410   2.778 -1.7291  0.3326  1.5210
    7CHTO  C111 2575   6.066   2.338   2.727  0.1151 -0.0511 -0.5845
    7CHTO  H215 2576   6.080   2.442   2.692  0.7591  0.1548  0.2671
    7CHTO   N19 2577   6.064   2.255   2.604  0.2235 -0.1140  0.0668
    7CHTO  H207 2578   5.967   2.274   2.561  0.0796  1.7687  1.1614
    7CHTO  H208 2579   6.082   2.149   2.621 -0.3231 -0.3686 -0.9478
    7CHTO   O74 2580   6.267   2.346   3.064 -0.0195  0.5951  0.4443
    7CHTO  C115 2581   6.376   2.438   3.098 -0.0868 -0.5082 -0.7752
    7CHTO  H219 2582   6.389   2.510   3.017 -0.9197 -0.7167 -1.1020
    7CHTO   O76 2583   6.344   2.522   3.223 -0.6288 -0.0710  0.3614
    7CHTO  C122 2584   6.358   2.456   3.349 -0.1594  0.2817  0.0122
    7CHTO  H226 2585   6.270   2.391   3.355 -0.6618  0.4032 -4.2353
    7CHTO  C126 2586   6.343   2.568   3.458 -0.1193 -0.0782 -0.2078
    7CHTO   O85 2587   6.228   2.648   3.430 -0.0516 -0.5026  0.1950
    7CHTO  H206 2588   6.236   2.731   3.473 -1.5875 -0.0455 -0.3685
    7CHTO  C121 2589   6.488   2.369   3.368  0.2382 -0.2679  0.0050
    7CHTO  H225 2590   6.579   2.431   3.379 -0.8552  1.3512  0.1825
    7CHTO   O81 2591   6.466   2.294   3.490 -0.4404 -0.7132  0.3020
    7CHTO  H202 2592   6.538   2.317   3.546 -1.4437  0.6957  1.0699
    7CHTO  C119 2593   6.501   2.280   3.247  0.0879 -0.3025  0.0784
    7CHTO  H223 2594   6.599   2.232   3.255 -0.6449 -1.9979 -0.8766
    7CHTO  C117 2595   6.504   2.354   3.106  0.3676  0.0862  0.4488
    7CHTO  H221 2596   6.503   2.300   3.011  0.1674  0.3463  0.3026
    7CHTO   N20 2597   6.619   2.444   3.091 -0.4169  0.2058  0.0316
    7CHTO  H209 2598   6.707   2.381   3.097 -1.1897 -0.7970  1.2694
    7CHTO  H210 2599   6.616   2.495   2.996  2.8130 -0.0150 -0.2709
    7CHTO   O80 2600   6.420   2.166   3.245 -0.1942  0.4397 -0.6974
    7CHTO  C103 2601   6.418   2.057   3.134  0.2835  0.7625 -0.6639
    7CHTO  H190 2602   6.377   2.097   3.042  4.6830  0.1903 -2.9978
    7CHTO  C101 2603   6.556   1.984   3.096  0.7617 -0.3512  0.2523
    7CHTO  H188 2604   6.608   1.945   3.184  2.2585 -1.4311 -1.0734
    7CHTO   O68 2605   6.657   2.089   3.016  0.3827  0.1645 -0.2156
    7CHTO  H168 2606   6.639   2.067   2.926  0.7841 -1.2776  0.0304
    7CHTO   C99 2607   6.516   1.860   3.003 -0.0319 -0.5706  0.6133
    7CHTO  H186 2608   6.460   1.887   2.911  1.1373 -0.0330  0.0479
    7CHTO   N17 2609   6.636   1.790   2.944 -0.3269  0.0992  0.4051
    7CHTO  H174 2610   6.598   1.701   2.897  0.4568 -0.0672  0.0747
    7CHTO  H175 2611   6.709   1.769   3.020 -0.4724 -0.1597  0.4743
    7CHTO   C97 2612   6.425   1.773   3.088  0.2988  0.4403 -0.5921
    7CHTO  H184 2613   6.478   1.759   3.183 -1.0605  1.2464  0.2919
    7CHTO   O64 2614   6.302   1.846   3.107 -0.3501 -0.5076  0.4997
    7CHTO  C104 2615   6.322   1.957   3.194  0.6943  0.2474  0.1482
    7CHTO  H191 2616   6.361   1.932   3.293 -0.5063  0.9711  0.8121
    7CHTO  C108 2617   6.184   2.024   3.220 -0.7229 -0.4285  0.1853
    7CHTO   O71 2618   6.109   1.974   3.332  0.1690 -0.4353 -0.1988
    7CHTO  H171 2619   6.111   2.034   3.405  0.1940 -1.1045  0.3557
    7CHTO   O62 2620   6.383   1.643   3.030  0.3988 -0.1490 -0.0717
    7CHTO   C91 2621   6.333   1.542   3.120  0.0153  0.5138 -0.5498
    7CHTO  H178 2622   6.280   1.467   3.061  0.7287 -0.2532 -0.2381
    7CHTO   C92 2623   6.225   1.607   3.220  0.1827  0.5675 -0.5156
    7CHTO  H179 2624   6.264   1.689   3.283  0.1227  0.5241 -0.4223
    7CHTO   O66 2625   6.115   1.663   3.144 -0.3328  0.3078  0.6749
    7CHTO  H166 2626   6.095   1.752   3.164  0.2228  0.9571 -1.5570
    7CHTO   C93 2627   6.176   1.496   3.324 -0.3552  0.2365  0.6349
    7CHTO  H180 2628   6.121   1.415   3.274 -1.4229  0.1430  1.9386
    7CHTO   N16 2629   6.082   1.549   3.428 -0.0800 -0.0996 -0.0305
    7CHTO  H172 2630   6.035   1.473   3.489  0.3162  0.3808  0.8682
    7CHTO  H173 2631   6.127   1.635   3.475 -0.7387  1.2576 -1.8302
    7CHTO   C94 2632   6.300   1.420   3.388  0.5593 -0.2972  0.0330
    7CHTO  H181 2633   6.356   1.485   3.456 -0.5585 -2.1232  2.7757
    7CHTO   O61 2634   6.384   1.367   3.283 -0.2841  0.1518 -0.1034
    7CHTO   C95 2635   6.448   1.472   3.211  0.0592 -0.2156 -0.5190
    7CHTO  H182 2636   6.488   1.547   3.279  0.7024 -2.7312  1.9751
    7CHTO  C106 2637   6.574   1.423   3.140 -0.6645 -0.3750  0.9594
    7CHTO   O69 2638   6.682   1.386   3.224  0.2870  0.3781  0.2381
    7CHTO  H169 2639   6.764   1.404   3.183 -0.4436  1.8495 -0.5960
    7CHTO   O63 2640   6.269   1.299   3.470 -0.2836  0.7353 -0.4464
    7CHTO   C96 2641   6.282   1.307   3.634  0.0031  0.2731 -0.8926
    7CHTO  H183 2642   6.223   1.392   3.668  0.0658 -0.6229  1.5563
    7CHTO   C98 2643   6.428   1.314   3.687  0.1264  0.4458 -1.0368
    7CHTO  H185 2644   6.472   1.409   3.653 -1.4745  0.9975 -1.6209
    7CHTO   O67 2645   6.415   1.334   3.831  0.2559  0.7991 -0.2235
    7CHTO  H167 2646   6.344   1.392   3.850 -1.2335 -1.1935  0.4544
    7CHTO  C102 2647   6.517   1.183   3.665 -0.0365 -0.0332  0.3831
    7CHTO  H189 2648   6.597   1.193   3.740  2.0197  3.4289 -2.0985
    7CHTO   N18 2649   6.591   1.176   3.532  0.2501  0.1626  0.0156
    7CHTO  H176 2650   6.669   1.102   3.539 -0.1775 -0.3346 -0.4803
    7CHTO  H177 2651   6.525   1.165   3.448  1.9892 -0.4506 -1.2853
    7CHTO  C105 2652   6.429   1.056   3.684  0.1605  0.4925 -0.6995
    7CHTO  H192 2653   6.399   1.012   3.588 -0.6920 -2.2856  0.7759
    7CHTO   O65 2654   6.307   1.084   3.748  0.6996  0.7674 -0.2026
    7CHTO  C100 2655   6.211   1.176   3.683 -0.6228  0.7044 -0.3601
    7CHTO  H187 2656   6.169   1.132   3.591 -0.7379  1.7095 -0.7988
    7CHTO  C107 2657   6.085   1.206   3.776 -0.2386 -0.7699 -0.1269
    7CHTO   O70 2658   5.992   1.100   3.793 -0.0786  0.2891  0.4471
    7CHTO  H170 2659   6.028   1.041   3.856  0.1611 -1.4922 -1.3081
    7CHTO   O57 2660   6.514   0.952   3.776 -0.0007  0.2193  0.9929
    7CHTO   C85 2661   6.482   0.818   3.763 -0.2389 -0.1438  0.4337
    7CHTO  H157 2662   6.463   0.792   3.657  0.9142  1.6194 -0.2301
    7CHTO   C83 2663   6.347   0.786   3.832 -0.2153  0.9964  0.3569
    7CHTO  H155 2664   6.270   0.841   3.778  3.4646  2.8918 -3.2232
    7CHTO   O56 2665   6.353   0.842   3.968 -0.1558 -0.2512  0.1527
    7CHTO  H135 2666   6.419   0.806   4.024  0.5252 -0.9690 -1.0894
    7CHTO   C81 2667   6.323   0.632   3.814  0.2052  0.7004  0.9969
    7CHTO  H153 2668   6.325   0.609   3.707  1.8481 -1.2228  1.4385
    7CHTO   N14 2669   6.186   0.601   3.857  0.1881 -0.3919  0.1724
    7CHTO  H141 2670   6.165   0.496   3.854 -1.2034 -0.0998 -0.7046
    7CHTO  H142 2671   6.149   0.641   3.949  1.2977 -3.8486  2.2236
    7CHTO   C79 2672   6.437   0.555   3.880 -0.8148 -0.4476  0.1265
    7CHTO  H151 2673   6.427   0.449   3.858 -0.4862 -0.5250  0.3361
    7CHTO   O52 2674   6.567   0.580   3.830  0.3190 -0.3911 -0.4240
    7CHTO   C86 2675   6.598   0.722   3.823  0.0252  0.2957  0.5908
    7CHTO  H158 2676   6.618   0.747   3.929  1.2120  1.4105  0.1198
    7CHTO   C90 2677   6.728   0.747   3.747 -0.5566 -0.6750 -0.5994
    7CHTO   O60 2678   6.842   0.686   3.817  0.5719  0.7227  0.1706
    7CHTO  H138 2679   6.838   0.704   3.909 -1.4873 -2.0249  0.6984
    7CHTO   O50 2680   6.436   0.564   4.022 -0.5238 -0.3132 -0.0932
    7CHTO   C73 2681   6.475   0.471   4.132 -0.1495  0.3246  0.7948
    7CHTO  H145 2682   6.560   0.410   4.097  0.9504  2.2723  0.0215
    7CHTO   C74 2683   6.358   0.375   4.164  0.1497  0.3455  0.1308
    7CHTO  H146 2684   6.337   0.327   4.067 -1.6479  0.0706  0.6463
    7CHTO   O54 2685   6.408   0.272   4.244 -0.0033  0.5616  0.8076
    7CHTO  H133 2686   6.428   0.300   4.331  0.7331 -0.9271  1.1461
    7CHTO   C75 2687   6.237   0.456   4.217 -0.5149  0.0703 -0.2827
    7CHTO  H147 2688   6.204   0.535   4.147  1.6573  2.3091  1.1509
    7CHTO   N13 2689   6.117   0.369   4.236 -0.5630  0.0724  0.3770
    7CHTO  H139 2690   6.104   0.315   4.143 -1.5939 -0.5779  0.8881
    7CHTO  H140 2691   6.029   0.427   4.259 -0.4356 -0.3008  1.8759
    7CHTO   C76 2692   6.284   0.540   4.350  0.2159 -0.5720  0.6199
    7CHTO  H148 2693   6.289   0.479   4.440  0.5192  1.1067  1.7663
    7CHTO   O49 2694   6.404   0.610   4.324  0.1737  0.5895  0.4055
    7CHTO   C77 2695   6.515   0.544   4.267  0.1733 -0.0391  0.0378
    7CHTO  H149 2696   6.558   0.470   4.335  0.8531  1.4081  1.1940
    7CHTO   C88 2697   6.627   0.642   4.235 -0.0404  0.2613  0.5002
    7CHTO   O58 2698   6.660   0.753   4.358  0.4752 -0.1100  0.0945
    7CHTO  H136 2699   6.574   0.769   4.392  1.1360 -0.4042  1.9278
    7CHTO   O51 2700   6.161   0.655   4.381 -0.6092  0.5128 -0.8664
    7CHTO   C78 2701   6.126   0.663   4.539 -0.3599 -0.0664  0.1632
    7CHTO  H150 2702   6.186   0.589   4.596 -0.6201 -0.2468  0.2035
    7CHTO   C80 2703   5.977   0.618   4.548  0.1136  0.1965 -0.0416
    7CHTO  H152 2704   5.925   0.667   4.463  0.6107 -1.6265 -1.4031
    7CHTO   O55 2705   5.981   0.481   4.511  0.8936 -0.2616  1.0335
    7CHTO  H134 2706   5.901   0.456   4.469  1.9926  0.2009 -1.3947
    7CHTO   C84 2707   5.919   0.660   4.696 -0.5900 -0.5198 -0.2334
    7CHTO  H156 2708   5.967   0.587   4.761  2.7495 -0.5360 -2.6341
    7CHTO   N15 2709   5.774   0.651   4.716  0.2545  0.0028 -0.4954
    7CHTO  H143 2710   5.742   0.594   4.800  1.1087  0.0794 -0.1222
    7CHTO  H144 2711   5.730   0.748   4.724 -3.2757 -1.5632  0.1914
    7CHTO   C87 2712   5.966   0.800   4.736  0.7385 -0.3427  0.1452
    7CHTO  H159 2713   5.933   0.878   4.667  0.4664 -1.9681 -1.5742
    7CHTO   O53 2714   6.104   0.800   4.733 -0.0180 -0.3024 -0.2560
    7CHTO   C82 2715   6.151   0.800   4.600 -0.0735  0.8419 -0.1409
    7CHTO  H154 2716   6.099   0.871   4.535 -0.0862 -0.8096 -1.9806
    7CHTO   C89 2717   6.300   0.835   4.599 -0.0653 -0.6801  0.6816
    7CHTO   O59 2718   6.331   0.959   4.661 -0.1927  0.0435 -0.2598
    7CHTO  H137 2719   6.423   0.979   4.656 -0.1700  0.0620  0.2147
    7CHTO   O45 2720   5.923   0.841   4.891 -0.4646  0.3001  0.0059
    7CHTO   C67 2721   5.877   0.970   4.904  0.0332 -0.5221 -0.3480
    7CHTO  H124 2722   5.926   1.026   4.825 -0.8594  0.6844 -0.0569
    7CHTO   C65 2723   5.723   0.969   4.879 -0.5559 -0.7225  0.2815
    7CHTO  H122 2724   5.679   0.869   4.879 -0.2517 -0.9178 -3.1990
    7CHTO   O44 2725   5.704   1.023   4.748 -0.1322  0.1345  0.4592
    7CHTO  H102 2726   5.749   0.969   4.686 -1.4093  0.0639 -0.4304
    7CHTO   C63 2727   5.663   1.045   5.004  0.3257 -0.3395 -0.1425
    7CHTO  H120 2728   5.688   0.986   5.093  0.9153 -0.6600 -0.5177
    7CHTO   N11 2729   5.515   1.065   5.004  0.0521 -0.1533 -0.5120
    7CHTO  H108 2730   5.482   1.110   5.095 -0.9642 -1.1630 -0.3573
    7CHTO  H109 2731   5.457   0.986   4.959  2.0193 -1.6582 -0.4723
    7CHTO   C61 2732   5.734   1.178   5.024  1.0219  0.0802 -0.0052
    7CHTO  H118 2733   5.680   1.234   5.102  0.5555 -1.0628  0.5105
    7CHTO   O40 2734   5.873   1.162   5.069  0.1762 -0.3414  0.4717
    7CHTO   C68 2735   5.936   1.034   5.043 -0.3376  0.4177 -0.1964
    7CHTO  H125 2736   5.910   0.965   5.126  0.4212  0.4110  0.0380
    7CHTO   C72 2737   6.087   1.058   5.048 -0.5559 -0.1143  0.3101
    7CHTO   O48 2738   6.139   1.159   5.140  0.0435  0.1570 -0.6122
    7CHTO  H105 2739   6.220   1.127   5.177 -0.7375  0.0614  1.0666
    7CHTO   O38 2740   5.736   1.262   4.907 -0.4864  0.1778 -0.2058
    7CHTO   C55 2741   5.775   1.400   4.922  0.7255  0.1626 -0.7140
    7CHTO  H112 2742   5.843   1.420   5.006  0.6879  0.0555 -0.6579
    7CHTO   C56 2743   5.643   1.485   4.920 -0.3399  0.5610 -0.5511
    7CHTO  H113 2744   5.574   1.451   4.842  0.0022 -0.2245 -0.5135
    7CHTO   O42 2745   5.562   1.456   5.034 -0.1618  0.4777 -0.1687
    7CHTO  H100 2746   5.611   1.411   5.100  0.9193  2.5105  0.4616
    7CHTO   C57 2747   5.669   1.648   4.902 -0.1176 -0.3408  0.5673
    7CHTO  H114 2748   5.719   1.677   4.994 -1.2712 -1.0480  1.4327
    7CHTO   N10 2749   5.547   1.736   4.893  0.4415 -0.5188 -0.2212
    7CHTO  H106 2750   5.459   1.686   4.856 -0.6341  2.0001 -1.1577
    7CHTO  H107 2751   5.572   1.824   4.835  1.1360  0.8079  2.0254
    7CHTO   C58 2752   5.766   1.659   4.779 -0.0090 -0.2043  0.6999
    7CHTO  H115 2753   5.713   1.644   4.682 -0.2467  1.1018  0.6181
    7CHTO   O37 2754   5.881   1.574   4.783 -0.1359 -0.0236 -0.2217
    7CHTO   C59 2755   5.856   1.434   4.801  0.3503 -0.1054 -0.2629
    7CHTO  H116 2756   5.809   1.403   4.707 -1.0151 -1.5627  0.8746
    7CHTO   C70 2757   5.991   1.369   4.794  0.3457 -0.2734 -0.2643
    7CHTO   O46 2758   6.087   1.403   4.894  0.0735  0.1092 -0.1514
    7CHTO  H103 2759   6.061   1.391   4.984  1.4063  0.2905  0.2694
    7CHTO   O39 2760   5.811   1.816   4.793  0.1441  0.2004 -0.7722
    7CHTO   C60 2761   5.882   1.867   4.682 -0.0119  0.4862 -0.4663
    7CHTO  H117 2762   5.921   1.782   4.627 -0.0128 -0.1469  0.4998
    7CHTO   C62 2763   5.795   1.959   4.594  0.2606 -0.1247  0.1706
    7CHTO  H119 2764   5.714   1.892   4.557  0.9560 -0.3143 -1.0453
    7CHTO   O43 2765   5.729   2.050   4.680  0.3407 -0.6843 -0.2927
    7CHTO  H101 2766   5.636   2.037   4.675  0.1191  0.4322  0.7566
    7CHTO   C66 2767   5.887   2.030   4.472 -0.5181 -0.2081  0.0177
    7CHTO  H123 2768   5.945   1.955   4.419 -0.1062 -0.4659  0.8236
    7CHTO   N12 2769   5.804   2.100   4.372 -0.0007 -0.2309 -0.5947
    7CHTO  H110 2770   5.839   2.202   4.379 -1.0112 -0.0026  1.7081
    7CHTO  H111 2771   5.821   2.059   4.274 -0.4081 -1.8028 -0.0310
    7CHTO   C69 2772   6.000   2.118   4.532 -0.6555 -0.2606  0.0587
    7CHTO  H126 2773   5.973   2.211   4.586 -0.9382 -1.2822  1.7231
    7CHTO   O41 2774   6.088   2.011   4.638 -0.3010  0.2855 -0.0666
    7CHTO   C64 2775   6.007   1.943   4.745  0.1963 -0.9107  0.4082
    7CHTO  H121 2776   5.972   2.026   4.810  1.0175  0.5209 -0.9534
    7CHTO   C71 2777   6.108   1.858   4.827 -0.0811  0.1748 -0.0994
    7CHTO   O47 2778   6.051   1.797   4.944 -0.4556  0.3188  0.7228
    7CHTO  H104 2779   6.113   1.740   4.986 -1.4447  0.3491  2.2781
    7CHTO   O34 2780   6.102   2.157   4.414  0.2520  0.2022 -0.2128
    7CHTO   C49 2781   6.244   2.201   4.379  0.7750  0.1773  0.0074
    7CHTO   H91 2782   6.229   2.308   4.369 -2.8875 -0.2878 -0.2753
    7CHTO   C47 2783   6.281   2.135   4.254  0.2157  0.3375  0.4651
    7CHTO   H89 2784   6.382   2.179   4.248 -0.2272  1.4775  1.1512
    7CHTO   O33 2785   6.206   2.184   4.142  0.2897 -0.2249 -0.0086
    7CHTO   H70 2786   6.119   2.150   4.149 -0.1019  0.3718 -1.8603
    7CHTO   C45 2787   6.283   1.971   4.267  0.0266 -0.6580  0.0567
    7CHTO   H87 2788   6.181   1.933   4.249 -1.2431  2.4834  0.3063
    7CHTO    N8 2789   6.369   1.914   4.158 -0.2167 -0.2491  0.0250
    7CHTO   H75 2790   6.311   1.910   4.067 -1.7416 -0.9567  1.0120
    7CHTO   H76 2791   6.406   1.818   4.191  1.6031 -0.0115 -1.2642
    7CHTO   C43 2792   6.322   1.937   4.422 -1.0623  0.3837  0.3648
    7CHTO   H85 2793   6.230   1.925   4.478 -0.6517  0.2869  1.0235
    7CHTO   O29 2794   6.410   2.043   4.473 -0.2640  0.2833 -0.1869
    7CHTO   C50 2795   6.345   2.171   4.491 -0.0105 -0.6841 -0.1067
    7CHTO   H92 2796   6.297   2.185   4.588  1.7056 -1.3011  0.8610
    7CHTO   C54 2797   6.469   2.272   4.496  0.4357 -0.1004  0.1928
    7CHTO   O36 2798   6.412   2.401   4.522  0.2745  0.6260  0.0489
    7CHTO   H72 2799   6.373   2.433   4.444 -1.8432  0.1764  0.8945
    7CHTO   O27 2800   6.381   1.803   4.444  0.5668 -0.2123 -0.5446
    7CHTO   C37 2801   6.405   1.691   4.540  0.1141  0.1368  0.8268
    7CHTO   H79 2802   6.374   1.732   4.637  0.9761 -0.5501  1.4002
    7CHTO   C38 2803   6.329   1.561   4.519 -0.6024 -0.1174 -0.2827
    7CHTO   H80 2804   6.340   1.535   4.412  0.4779  2.7834 -0.8977
    7CHTO   O31 2805   6.198   1.600   4.538  0.7311  0.2794 -0.8036
    7CHTO   H68 2806   6.140   1.528   4.523 -0.2987  1.0432 -0.5472
    7CHTO   C39 2807   6.376   1.438   4.611  0.5111  0.3953 -0.3055
    7CHTO   H81 2808   6.349   1.471   4.712  1.8557 -0.2680  0.2913
    7CHTO    N7 2809   6.312   1.307   4.578 -0.3184 -0.0688  0.3252
    7CHTO   H73 2810   6.301   1.250   4.669  3.1298 -1.8878 -0.3152
    7CHTO   H74 2811   6.366   1.259   4.498 -1.0414  0.3794 -0.4441
    7CHTO   C40 2812   6.534   1.436   4.606 -0.2268  0.2943  0.1328
    7CHTO   H82 2813   6.556   1.406   4.504  0.2629  1.8993 -0.2395
    7CHTO   O26 2814   6.587   1.565   4.637  0.0872  0.0988 -0.1520
    7CHTO   C41 2815   6.558   1.662   4.538 -0.1283 -0.2290 -0.2685
    7CHTO   H83 2816   6.589   1.625   4.439  0.7497 -0.2048 -0.0072
    7CHTO   C52 2817   6.630   1.793   4.562  1.3075  0.1088  0.2534
    7CHTO   O35 2818   6.789   1.778   4.585  0.6205 -0.2536  0.4878
    7CHTO   H71 2819   6.810   1.687   4.598 -0.5044 -0.1734  3.3504
    7CHTO   O28 2820   6.577   1.318   4.689 -0.3869 -0.3501  0.1866
    7CHTO   C42 2821   6.715   1.271   4.663  0.4958  0.4585 -0.5098
    7CHTO   H84 2822   6.728   1.200   4.745 -1.8271 -1.0611 -1.4141
    7CHTO   C44 2823   6.834   1.373   4.679  0.0495 -0.2710  0.6123
    7CHTO   H86 2824   6.827   1.445   4.597 -0.4167 -1.3038 -0.2707
    7CHTO   O32 2825   6.823   1.424   4.813 -0.1648  0.4814 -0.0568
    7CHTO   H69 2826   6.857   1.511   4.806 -0.5083  0.6180 -0.0304
    7CHTO   C48 2827   6.965   1.292   4.651 -0.0051 -0.3958  0.0239
    7CHTO   H90 2828   6.984   1.220   4.731  0.7679  1.1888  1.2867
    7CHTO    N9 2829   7.088   1.387   4.640 -0.3687 -0.2388 -0.7181
    7CHTO   H77 2830   7.175   1.356   4.697 -1.2595 -1.3693  0.0653
    7CHTO   H78 2831   7.063   1.490   4.662  1.3360  0.1598 -0.6320
    7CHTO   C51 2832   6.964   1.206   4.517 -0.2935 -0.6873 -0.4851
    7CHTO   H93 2833   6.962   1.270   4.429 -0.5605  0.2752  0.2250
    7CHTO   O30 2834   6.846   1.121   4.523  0.3842  0.0137  0.7722
    7CHTO   C46 2835   6.730   1.184   4.529 -1.2393 -0.0475  0.5316
    7CHTO   H88 2836   6.721   1.251   4.443  0.4322 -0.9485 -0.3794
    7CHTO   C53 2837   6.622   1.077   4.515  0.2842  0.2906 -0.7486
    7CHTO   O72 2838   6.623   0.978   4.618  0.0367  0.5373 -0.5935
    7CHTO  H199 2839   6.566   0.904   4.620  0.1856  0.4635  2.3575
    7CHTO   O22 2840   7.078   1.114   4.506 -0.4392  0.5378 -0.1856
    7CHTO   C31 2841   7.132   1.060   4.375 -0.5548  0.0075 -0.5462
    7CHTO   H59 2842   7.226   1.004   4.396  0.1566  1.5142  0.3746
    7CHTO   C29 2843   7.033   0.959   4.300  0.6254 -0.4301 -0.6043
    7CHTO   H57 2844   6.950   1.022   4.264  0.1757 -0.9845 -0.5517
    7CHTO   O21 2845   6.968   0.875   4.391  0.6817 -0.0514 -0.0225
    7CHTO   H37 2846   7.015   0.795   4.405 -0.9303 -1.3719 -1.7841
    7CHTO   C27 2847   7.096   0.899   4.166 -0.3915  0.8072  0.2563
    7CHTO   H55 2848   7.190   0.849   4.194  0.4580  1.6475 -1.0230
    7CHTO    N5 2849   7.016   0.808   4.082 -0.0532 -0.6180  0.0109
    7CHTO   H43 2850   6.926   0.857   4.049 -0.0530 -1.1627 -0.7941
    7CHTO   H44 2851   7.078   0.760   4.008 -1.4843 -0.3177 -1.3948
    7CHTO   C25 2852   7.147   1.022   4.075 -0.1045  0.3977 -0.2834
    7CHTO   H53 2853   7.063   1.086   4.046  1.0179  0.8118 -2.7362
    7CHTO   O17 2854   7.233   1.114   4.149  0.2088 -0.0507 -0.1433
    7CHTO   C32 2855   7.172   1.170   4.269  0.0019 -0.3812  0.5163
    7CHTO   H60 2856   7.078   1.218   4.244 -0.7137 -0.5465  2.7361
    7CHTO   C36 2857   7.281   1.272   4.316 -0.1863  1.2805  0.3716
    7CHTO   O25 2858   7.297   1.367   4.208  0.1396 -0.5686 -0.1497
    7CHTO   H40 2859   7.237   1.437   4.219 -1.6182 -1.7787 -1.7039
    7CHTO   O15 2860   7.234   0.978   3.958 -0.1213 -0.3338 -0.4482
    7CHTO   C19 2861   7.228   1.041   3.821  0.1569  0.0646 -0.6856
    7CHTO   H47 2862   7.306   0.997   3.757  3.0597  1.6955  1.6124
    7CHTO   C20 2863   7.095   1.007   3.745 -0.5371 -0.2047 -0.4945
    7CHTO   H48 2864   7.007   1.031   3.806  1.6992 -2.1359  3.6728
    7CHTO   O19 2865   7.098   0.865   3.744 -0.3373 -0.4418  0.3511
    7CHTO   H35 2866   7.055   0.832   3.667 -0.6631 -0.7168  0.6517
    7CHTO   C21 2867   7.093   1.083   3.607  0.4245  0.4123 -0.1261
    7CHTO   H49 2868   7.160   1.036   3.536 -0.6137  0.2194 -0.9816
    7CHTO    N4 2869   6.966   1.060   3.540  0.1269  0.1168  0.1939
    7CHTO   H41 2870   6.941   0.956   3.523 -0.4784 -0.0324  1.8985
    7CHTO   H42 2871   6.880   1.112   3.580 -1.3386 -0.7089 -1.7606
    7CHTO   C22 2872   7.126   1.230   3.631  0.7696  0.1916 -0.8295
    7CHTO   H50 2873   7.047   1.273   3.693  0.0751 -2.5272  0.2010
    7CHTO   O14 2874   7.249   1.248   3.694  0.5322 -0.0782  0.0691
    7CHTO   C23 2875   7.253   1.195   3.828 -0.4143 -0.3844  0.5432
    7CHTO   H51 2876   7.185   1.244   3.899  0.2087 -2.0534  2.3401
    7CHTO   C34 2877   7.391   1.235   3.880  0.3373 -0.1630 -0.6179
    7CHTO   O23 2878   7.426   1.377   3.867  0.0485 -0.2749 -0.4166
    7CHTO   H38 2879   7.366   1.430   3.917  0.2448 -0.7529  0.3184
    7CHTO   O16 2880   7.148   1.302   3.508  0.9534 -0.7627 -0.5565
    7CHTO   C24 2881   7.095   1.467   3.519 -0.9749 -0.2980 -0.5311
    7CHTO   H52 2882   7.075   1.499   3.621 -0.0601 -0.4293 -0.3001
    7CHTO   C26 2883   6.970   1.493   3.420 -0.9610  0.3081  0.0601
    7CHTO   H54 2884   6.995   1.462   3.317 -0.2634  0.4861  0.1720
    7CHTO   O20 2885   6.859   1.406   3.455 -0.2705 -0.4566 -0.2116
    7CHTO   H36 2886   6.857   1.398   3.548  0.2295 -2.4493 -0.3586
    7CHTO   C30 2887   6.927   1.642   3.410 -0.5092 -0.2669  0.0982
    7CHTO   H58 2888   6.883   1.679   3.503 -0.8285  1.1067 -0.5906
    7CHTO    N6 2889   6.816   1.659   3.308 -0.6363 -0.4174  0.0048
    7CHTO   H45 2890   6.764   1.566   3.292 -1.4007  0.3059 -1.8260
    7CHTO   H46 2891   6.750   1.735   3.348  0.9088  1.5825 -1.1024
    7CHTO   C33 2892   7.053   1.728   3.381 -0.3892  0.5253 -0.7454
    7CHTO   H61 2893   7.088   1.719   3.277 -0.0220  1.4821 -0.7118
    7CHTO   O18 2894   7.163   1.692   3.470 -0.4405  0.4649  0.3067
    7CHTO   C28 2895   7.212   1.552   3.474  0.3321  0.2708 -0.0378
    7CHTO   H56 2896   7.248   1.525   3.375 -0.1942  0.2437 -0.2216
    7CHTO   C35 2897   7.327   1.535   3.572  0.5177 -0.4705  0.2097
    7CHTO   O24 2898   7.312   1.615   3.688  0.3858  0.7467  0.0276
    7CHTO   H39 2899   7.221   1.620   3.714  0.8198  2.0507  1.4159
    7CHTO    O9 2900   7.018   1.873   3.400 -0.1148  0.1872 -0.0199
    7CHTO   C13 2901   7.127   1.967   3.366 -0.4114 -0.0886  0.0335
    7CHTO   H26 2902   7.199   1.923   3.294 -0.4142 -1.2562  0.7351
    7CHTO   C11 2903   7.195   2.015   3.495  0.0910 -0.3644  0.4553
    7CHTO   H24 2904   7.222   1.924   3.551  0.1112  0.3190  1.5629
    7CHTO    O8 2905   7.108   2.092   3.580 -0.6084 -0.2882 -0.1687
    7CHTO    H3 2906   7.031   2.124   3.537  0.2106  1.1567 -0.6202
    7CHTO    C9 2907   7.321   2.085   3.437 -0.0204  0.0584 -0.5809
    7CHTO   H22 2908   7.365   2.008   3.372  0.4337 -0.4607  0.3341
    7CHTO    N2 2909   7.427   2.100   3.538 -0.1579  0.0412  0.0729
    7CHTO   H10 2910   7.388   2.114   3.638 -0.1359 -1.0763  0.2415
    7CHTO   H11 2911   7.499   2.179   3.525  0.8319 -1.0615 -1.3169
    7CHTO    C7 2912   7.278   2.216   3.361 -0.9176  0.7011 -0.1375
    7CHTO   H20 2913   7.331   2.215   3.264  1.9203  0.1235  1.3957
    7CHTO    O4 2914   7.131   2.215   3.327 -0.3753  0.6756  0.0206
    7CHTO   C14 2915   7.075   2.087   3.281  0.3002  0.2344  0.1354
    7CHTO   H27 2916   7.113   2.086   3.177  1.0107 -0.8625  0.3885
    7CHTO   C18 2917   6.922   2.102   3.276 -0.0559 -0.1652 -0.8842
    7CHTO   O13 2918   6.868   1.991   3.200  0.1213  0.2409 -0.5067
    7CHTO    H7 2919   6.798   2.027   3.149 -0.8743 -0.6853  0.1756
    7CHTO    O2 2920   7.313   2.370   3.446  0.1334  0.0687  0.2652
    7CHTO    C1 2921   7.313   2.492   3.372 -0.3010  0.7834  0.0585
    7CHTO   H14 2922   7.214   2.505   3.322  0.8428  1.3087 -2.1161
    7CHTO    C2 2923   7.421   2.510   3.270  0.3616  0.0874  0.0881
    7CHTO   H15 2924   7.514   2.469   3.312 -0.2296 -2.8185 -1.2928
    7CHTO    O6 2925   7.389   2.421   3.156  0.1186 -0.3122 -0.0381
    7CHTO    H1 2926   7.423   2.459   3.077 -0.6551 -0.1234 -0.2773
    7CHTO    C3 2927   7.431   2.658   3.208  0.2285  0.4580 -0.0891
    7CHTO   H16 2928   7.343   2.688   3.148  0.7544  1.7518 -0.2297
    7CHTO    N1 2929   7.544   2.677   3.105  0.2957  0.6964  0.1914
    7CHTO    H8 2930   7.640   2.656   3.151  1.1106 -1.0324 -2.2104
    7CHTO    H9 2931   7.532   2.609   3.022 -1.4790  0.8450  0.3012
    7CHTO    C4 2932   7.431   2.758   3.329 -0.1581 -0.0171  0.4289
    7CHTO   H17 2933   7.522   2.746   3.388  0.6368  0.1258 -0.7449
    7CHTO    O1 2934   7.317   2.735   3.408 -0.1918 -0.0622 -0.3348
    7CHTO    C5 2935   7.314   2.605   3.478 -0.2220 -0.6303 -0.0103
    7CHTO   H18 2936   7.407   2.598   3.534  0.3162 -2.3471 -1.1005
    7CHTO   C16 2937   7.182   2.617   3.568 -0.5183 -0.0744  0.2408
    7CHTO   O11 2938   7.188   2.720   3.663 -0.0392 -0.7453  0.4357
    7CHTO    H5 2939   7.237   2.690   3.736 -0.8984  0.0436  1.3496
    7CHTO    O3 2940   7.432   2.895   3.280 -1.0663  0.6095  0.8480
    7CHTO    C6 2941   7.457   2.987   3.391 -0.2617 -0.4396  0.2055
    7CHTO   H19 2942   7.474   2.941   3.488  4.0767  0.6079  0.0294
    7CHTO    C8 2943   7.596   3.068   3.358  0.0948 -0.5584  0.1629
    7CHTO   H21 2944   7.586   3.106   3.256 -0.2069 -0.8286  0.0939
    7CHTO    O7 2945   7.699   2.970   3.371 -0.4279 -0.0609  0.2293
    7CHTO    H2 2946   7.776   2.993   3.323 -0.1962  0.7612  0.9834
    7CHTO   C12 2947   7.622   3.189   3.458 -0.3689  0.8546  0.1127
    7CHTO   H25 2948   7.660   3.141   3.551  0.1817 -1.5386 -1.3248
    7CHTO    N3 2949   7.729   3.282   3.414  0.0810 -0.2128 -0.3576
    7CHTO   H12 2950   7.716   3.317   3.312  1.1778  2.6348  0.4430
    7CHTO   H13 2951   7.744   3.364   3.482  1.3475  0.6073 -1.5999
    7CHTO   C15 2952   7.492   3.265   3.490  0.0203 -0.6497  0.0534
    7CHTO   H28 2953   7.467   3.346   3.421  0.0902  0.2323  1.0533
    7CHTO   O10 2954   7.506   3.349   3.638 -0.0498  0.0473 -0.4145
    7CHTO    H4 2955   7.588   3.394   3.642  0.9476 -1.8580  1.5516
    7CHTO    O5 2956   7.380   3.182   3.510 -0.0170  0.7123 -0.3277
    7CHTO   C10 2957   7.348   3.096   3.403 -0.3975 -0.0294  0.3635
    7CHTO   H23 2958   7.336   3.159   3.315  0.7304  0.6249  0.6632
    7CHTO   C17 2959   7.209   3.046   3.424  0.4853 -0.6774  0.1994
    7CHTO   O12 2960   7.107   3.151   3.435 -0.7859  0.0175 -0.3892
    7CHTO    H6 2961   7.118   3.191   3.519  0.9444 -0.7591 -0.2327
    8CHTO  H203 2962   8.007   6.817   0.018  0.4932  0.0117  1.9258
    8CHTO   O82 2963   7.969   6.898   0.045 -0.4137  0.0736  0.5387
    8CHTO  C123 2964   7.888   6.877   0.165 -0.1220 -0.3597  0.5474
    8CHTO  H227 2965   7.950   6.834   0.245 -0.1379 -0.4691  0.5002
    8CHTO   O77 2966   7.828   7.007   0.186 -0.5167 -0.7291 -0.3037
    8CHTO  C118 2967   7.775   7.006   0.315 -0.2268  0.2439 -0.0206
    8CHTO  H222 2968   7.842   6.962   0.390 -0.0311  0.3538 -0.1319
    8CHTO  C125 2969   7.739   7.148   0.369  0.8404  0.4185 -0.4687
    8CHTO   O84 2970   7.642   7.215   0.289  0.2914  0.0927  0.1249
    8CHTO  H205 2971   7.558   7.220   0.331 -0.0341 -0.8760 -0.3801
    8CHTO  C114 2972   7.643   6.925   0.306 -0.4766 -0.8796 -0.7042
    8CHTO  H218 2973   7.575   6.976   0.237  0.5153 -0.9986 -1.7927
    8CHTO  C116 2974   7.673   6.776   0.261  0.0435 -0.0721  0.2363
    8CHTO  H220 2975   7.711   6.727   0.353  0.5621  0.8392  0.5111
    8CHTO   O79 2976   7.551   6.700   0.240  0.2313 -0.2599  0.4428
    8CHTO  H201 2977   7.485   6.742   0.188  1.1869  0.6146 -0.0940
    8CHTO  C120 2978   7.774   6.773   0.141  0.7347  0.4013 -0.7505
    8CHTO  H224 2979   7.721   6.806   0.049 -0.4071 -2.6447 -1.2470
    8CHTO   N21 2980   7.829   6.631   0.111  0.3061 -0.3915 -0.0161
    8CHTO  H211 2981   7.777   6.568   0.042 -0.7594  0.6739 -0.1999
    8CHTO  H212 2982   7.864   6.581   0.200  0.1561 -0.2247  0.1383
    8CHTO   O75 2983   7.588   6.918   0.442 -0.1090  0.3846  0.4010
    8CHTO  C112 2984   7.423   6.946   0.448  0.5255 -0.0189 -0.1472
    8CHTO  H216 2985   7.361   6.862   0.415  0.2809  0.7409 -1.6222
    8CHTO   O73 2986   7.391   7.064   0.373  0.0909  0.1161  0.0467
    8CHTO  C113 2987   7.253   7.103   0.372  0.2259  0.1672  0.7984
    8CHTO  H217 2988   7.197   7.013   0.340  0.9303  0.7320 -2.1562
    8CHTO  C124 2989   7.236   7.223   0.283 -0.5815 -0.1098  0.0344
    8CHTO   O83 2990   7.327   7.332   0.296  0.0445  0.3275  0.1071
    8CHTO  H204 2991   7.278   7.409   0.320 -0.2742  0.1314  0.0793
    8CHTO  C109 2992   7.225   7.152   0.524 -0.5684 -0.0115 -0.1356
    8CHTO  H213 2993   7.288   7.241   0.540  0.6637 -0.8077 -0.4045
    8CHTO  C110 2994   7.257   7.036   0.627  0.0974 -0.0101 -0.2018
    8CHTO  H214 2995   7.191   6.952   0.605  0.1424  0.0858 -0.7162
    8CHTO   O78 2996   7.237   7.086   0.756  0.1037 -0.2485 -0.2289
    8CHTO  H200 2997   7.280   7.036   0.822 -1.5398 -0.4903  0.6935
    8CHTO  C111 2998   7.400   6.973   0.611 -0.1837  0.0344  0.3307
    8CHTO  H215 2999   7.479   7.043   0.644  0.3863 -0.0807 -0.7481
    8CHTO   N19 3000   7.410   6.843   0.686  0.0029 -0.5713 -0.6916
    8CHTO  H207 3001   7.506   6.795   0.684  2.3417  3.7053  1.3838
    8CHTO  H208 3002   7.327   6.780   0.657  0.0065 -1.2524  0.7337
    8CHTO   O74 3003   7.079   7.186   0.540 -0.0917  0.2634  0.4677
    8CHTO  C115 3004   7.054   7.343   0.633  0.7576 -0.6018 -0.0322
    8CHTO  H219 3005   6.953   7.351   0.673  0.6210 -0.4306 -0.4069
    8CHTO   O76 3006   7.146   7.352   0.760  0.5183 -0.3179 -0.0989
    8CHTO  C122 3007   7.125   7.462   0.850 -0.0820 -0.1194  0.6128
    8CHTO  H226 3008   7.215   7.455   0.912  0.3478  0.4764  0.0585
    8CHTO  C126 3009   7.000   7.413   0.935  0.0610  0.7935 -0.0335
    8CHTO   O85 3010   7.023   7.309   1.028  0.0056 -0.3044 -0.0761
    8CHTO  H206 3011   7.046   7.228   0.986 -1.2460  0.5023 -2.3561
    8CHTO  C121 3012   7.110   7.605   0.777 -0.5636 -0.6058  0.0606
    8CHTO  H225 3013   7.054   7.670   0.847  0.4451 -0.2463  0.5425
    8CHTO   O81 3014   7.245   7.657   0.755  0.4612 -0.0872 -0.8117
    8CHTO  H202 3015   7.309   7.620   0.813 -1.7705 -0.4928  1.5237
    8CHTO  C119 3016   7.041   7.599   0.637 -0.2007  0.2768 -0.1834
    8CHTO  H223 3017   6.933   7.592   0.652  0.1071 -0.7855  1.6867
    8CHTO  C117 3018   7.074   7.470   0.551 -0.4205 -0.1989  0.2468
    8CHTO  H221 3019   7.175   7.462   0.510 -0.1957 -1.5935  1.0275
    8CHTO   N20 3020   6.984   7.463   0.437  0.2470  0.4681 -0.0390
    8CHTO  H209 3021   6.952   7.561   0.405  2.3780  1.0627 -0.4754
    8CHTO  H210 3022   6.892   7.408   0.445 -0.9145  2.4410  0.5121
    8CHTO   O80 3023   7.058   7.731   0.563  0.4250  0.1926  0.4840
    8CHTO  C103 3024   6.986   7.870   0.627 -0.1863  0.1873 -0.9028
    8CHTO  H190 3025   6.909   7.834   0.694  3.9955 -0.5767  3.7140
    8CHTO  C101 3026   7.087   7.969   0.697 -0.1039 -0.7536 -1.0172
    8CHTO  H188 3027   7.175   7.998   0.639  1.2851 -1.9088  0.4643
    8CHTO   O68 3028   7.139   7.922   0.836  0.0778 -0.1257  0.0283
    8CHTO  H168 3029   7.202   7.990   0.853 -0.8464  1.3634 -2.2745
    8CHTO   C99 3030   7.003   8.107   0.715 -0.0403  0.2560 -0.2636
    8CHTO  H186 3031   6.928   8.077   0.791  0.5682 -2.0894 -0.5468
    8CHTO   N17 3032   7.090   8.213   0.768  0.0226  0.5292 -0.2772
    8CHTO  H174 3033   7.019   8.286   0.801 -1.6901 -1.0047 -0.4858
    8CHTO  H175 3034   7.157   8.185   0.848  0.1195  2.0293  0.1726
    8CHTO   C97 3035   6.925   8.159   0.591 -0.5198 -0.0143  0.0972
    8CHTO  H184 3036   7.000   8.197   0.520 -3.8823  2.0334 -2.5243
    8CHTO   O64 3037   6.843   8.052   0.531  0.7453 -0.3332 -0.6752
    8CHTO  C104 3038   6.914   7.934   0.502 -0.7515 -0.7314 -0.0874
    8CHTO  H191 3039   6.992   7.952   0.427 -0.1404  0.4598  0.8296
    8CHTO  C108 3040   6.819   7.832   0.433  0.6725  0.0639 -1.0128
    8CHTO   O71 3041   6.758   7.885   0.315  0.4637  0.1179 -0.6661
    8CHTO  H171 3042   6.667   7.898   0.333  0.9855  0.6318  1.7757
    8CHTO   O62 3043   6.833   8.267   0.617 -0.3977  0.0782 -0.8393
    8CHTO   C91 3044   6.858   8.395   0.565  0.0608  0.6908 -0.1987
    8CHTO  H178 3045   6.966   8.407   0.573  0.2325 -1.4314  0.7094
    8CHTO   C92 3046   6.791   8.490   0.674 -0.1109 -0.2059  0.4612
    8CHTO  H179 3047   6.683   8.470   0.676 -0.3682  1.1854  0.8537
    8CHTO   O66 3048   6.852   8.460   0.806 -0.3452  0.1428  0.0541
    8CHTO  H166 3049   6.805   8.392   0.850  0.1424 -0.0855  0.2196
    8CHTO   C93 3050   6.819   8.637   0.643 -0.8280  0.9038 -0.4238
    8CHTO  H180 3051   6.926   8.651   0.664 -0.9798 -0.9127  1.7556
    8CHTO   N16 3052   6.751   8.735   0.737 -0.8068  0.3154 -0.5128
    8CHTO  H172 3053   6.796   8.831   0.715  0.4576  0.0918  1.0486
    8CHTO  H173 3054   6.760   8.716   0.842 -0.7353 -2.4384 -0.9868
    8CHTO   C94 3055   6.793   8.670   0.489 -0.2323  0.4367  0.1060
    8CHTO  H181 3056   6.688   8.688   0.466 -0.3480 -0.0477  0.2476
    8CHTO   O61 3057   6.832   8.567   0.398 -0.3353 -0.4840 -0.0331
    8CHTO   C95 3058   6.787   8.433   0.435 -1.1707  0.6664  0.2913
    8CHTO  H182 3059   6.679   8.440   0.453 -1.0661  0.8270  0.8619
    8CHTO  C106 3060   6.816   8.340   0.314  0.1608  0.3403  0.4068
    8CHTO   O69 3061   6.741   8.356   0.187  0.3001 -0.2468 -0.1173
    8CHTO  H169 3062   6.804   8.394   0.129 -0.9989 -0.6517 -1.8551
    8CHTO   O63 3063   6.881   8.803   0.458  0.2706  0.1293  0.1363
    8CHTO   C96 3064   6.860   8.866   0.313  0.2223  0.3628  0.6265
    8CHTO  H183 3065   6.791   8.803   0.258 -1.7950  1.0408  2.2864
    8CHTO   C98 3066   6.980   8.881   0.231  0.6432 -0.1163 -0.3001
    8CHTO  H185 3067   7.056   8.943   0.282 -1.2147  1.1831  0.9568
    8CHTO   O67 3068   7.035   8.751   0.196 -0.6378 -0.4116 -0.5773
    8CHTO  H167 3069   7.128   8.745   0.202 -0.5923  1.2142  0.7052
    8CHTO  C102 3070   6.946   8.961   0.089  0.0059  0.3659 -0.6449
    8CHTO  H189 3071   6.892   8.888   0.028  1.3784  0.2389 -1.7518
    8CHTO   N18 3072   7.069   8.997   0.011 -0.7495  0.1562 -0.4601
    8CHTO  H176 3073   7.061   8.954  -0.088  0.6300  0.7262 -0.8225
    8CHTO  H177 3074   7.156   8.971   0.069  1.0210  2.0791 -2.1424
    8CHTO  C105 3075   6.849   9.082   0.113  0.5363 -0.0753 -0.1779
    8CHTO  H192 3076   6.907   9.170   0.140 -0.2046 -0.5217  2.9896
    8CHTO   O65 3077   6.757   9.070   0.221  0.2652  0.5552 -0.0587
    8CHTO  C100 3078   6.801   9.003   0.341 -0.1807  0.0613  1.2944
    8CHTO  H187 3079   6.876   9.067   0.389 -0.6136 -0.9350  3.3532
    8CHTO  C107 3080   6.676   8.999   0.433 -0.1702 -0.5707  0.2108
    8CHTO   O70 3081   6.637   9.132   0.476 -0.3875  0.4203 -0.4214
    8CHTO  H170 3082   6.592   9.170   0.403 -0.2799 -0.5982 -1.0264
    8CHTO   O57 3083   6.769   9.100  -0.035 -0.1661 -0.0460  0.1294
    8CHTO   C85 3084   6.785   9.212  -0.127  0.4033  0.2893 -0.2648
    8CHTO  H157 3085   6.891   9.213  -0.162  0.8820  0.9355  1.1156
    8CHTO   C83 3086   6.773   9.353  -0.056 -0.3015 -0.1011  0.5342
    8CHTO  H155 3087   6.865   9.371   0.000 -0.6115 -0.2081  1.0797
    8CHTO   O56 3088   6.657   9.352   0.032 -0.0518 -0.1752  0.4026
    8CHTO  H135 3089   6.675   9.357   0.123  2.4638  2.2360 -0.1502
    8CHTO   C81 3090   6.767   9.476  -0.156 -0.0586  0.7241 -0.0701
    8CHTO  H153 3091   6.858   9.477  -0.214  0.4586  0.2778  0.7202
    8CHTO   N14 3092   6.773   9.607  -0.078 -0.0775  0.0446  0.0906
    8CHTO  H141 3093   6.807   9.678  -0.151  0.1067 -0.1558 -0.0202
    8CHTO  H142 3094   6.675   9.629  -0.042  0.0569  2.1588 -0.7678
    8CHTO   C79 3095   6.650   9.458  -0.258 -0.9536  0.5270  0.7288
    8CHTO  H151 3096   6.661   9.536  -0.334 -1.3095 -0.0317  0.1035
    8CHTO   O52 3097   6.667   9.324  -0.328  0.8899 -0.5962 -0.4093
    8CHTO   C86 3098   6.689   9.209  -0.245  0.5017 -0.0895  0.0344
    8CHTO  H158 3099   6.586   9.180  -0.217  0.4530 -0.3636 -0.4262
    8CHTO   C90 3100   6.736   9.096  -0.335  0.4016  0.5044 -0.1044
    8CHTO   O60 3101   6.669   8.976  -0.297  0.7119  0.7493 -0.2978
    8CHTO  H138 3102   6.600   8.950  -0.354  0.1172  0.8544  0.3672
    8CHTO   O50 3103   6.521   9.476  -0.191 -0.1620  0.5518  0.1974
    8CHTO   C73 3104   6.384   9.509  -0.201 -0.1120  0.6967  0.4914
    8CHTO  H145 3105   6.363   9.517  -0.308 -0.8590 -2.1632  0.3943
    8CHTO   C74 3106   6.362   9.643  -0.128  0.0532  0.2538 -0.2833
    8CHTO  H146 3107   6.430   9.717  -0.173 -0.3131  1.2192  0.7382
    8CHTO   O54 3108   6.231   9.690  -0.144 -0.1328 -0.4235  0.0220
    8CHTO  H133 3109   6.225   9.737  -0.225 -1.2598  1.3135  1.0907
    8CHTO   C75 3110   6.393   9.624   0.028  0.0609  0.0814  0.0808
    8CHTO  H147 3111   6.494   9.584   0.041  0.0777  0.2377  0.4376
    8CHTO   N13 3112   6.385   9.752   0.107 -0.1286 -0.3178  0.1849
    8CHTO  H139 3113   6.281   9.770   0.131  0.3983 -1.9739  3.8958
    8CHTO  H140 3114   6.455   9.760   0.188  2.9970 -0.5436 -2.3690
    8CHTO   C76 3115   6.297   9.507   0.087 -0.3094  0.1394  0.1018
    8CHTO  H148 3116   6.198   9.551   0.098 -0.4187  0.0580 -0.5798
    8CHTO   O49 3117   6.311   9.389   0.008  0.9352 -0.4424 -0.5794
    8CHTO   C77 3118   6.298   9.398  -0.139  0.6817  0.2417  0.7169
    8CHTO  H149 3119   6.197   9.426  -0.167  0.2253  0.0392  2.1298
    8CHTO   C88 3120   6.322   9.259  -0.204 -0.0796  0.7620 -0.1487
    8CHTO   O58 3121   6.240   9.168  -0.139  0.1699 -0.1199  0.0305
    8CHTO  H136 3122   6.276   9.081  -0.147  2.4894  0.5298  2.8231
    8CHTO   O51 3123   6.338   9.457   0.236 -0.2322  0.0404  0.5297
    8CHTO   C78 3124   6.229   9.355   0.291  0.5194  0.3966  0.5612
    8CHTO  H150 3125   6.150   9.352   0.212  0.5790  1.5889  0.4449
    8CHTO   C80 3126   6.163   9.408   0.424  0.8197  0.6340 -0.1229
    8CHTO  H152 3127   6.241   9.429   0.501 -2.1070  1.6189  2.6761
    8CHTO   O55 3128   6.099   9.530   0.385 -0.5945  0.1245  0.1807
    8CHTO  H134 3129   6.161   9.598   0.370  1.0906 -1.3890  0.1695
    8CHTO   C84 3130   6.050   9.310   0.490  0.4819  0.3267  0.8758
    8CHTO  H156 3131   5.976   9.304   0.410  0.1843 -0.6447  1.2117
    8CHTO   N15 3132   5.975   9.359   0.609  0.2394 -0.0827  0.4529
    8CHTO  H143 3133   5.871   9.361   0.581  0.3756 -0.0647 -0.0549
    8CHTO  H144 3134   6.006   9.461   0.617  1.5954 -0.6691  3.1154
    8CHTO   C87 3135   6.116   9.169   0.502 -0.3025 -0.0483 -0.0032
    8CHTO  H159 3136   6.189   9.172   0.582  0.1708 -0.9238 -0.4000
    8CHTO   O53 3137   6.174   9.131   0.367  0.1181  0.5071  0.1123
    8CHTO   C82 3138   6.283   9.215   0.317  0.4961  0.3629 -0.1084
    8CHTO  H154 3139   6.357   9.225   0.397 -1.3395  0.1927  1.6638
    8CHTO   C89 3140   6.358   9.157   0.192  0.0146  0.2205  0.5464
    8CHTO   O59 3141   6.442   9.050   0.230  0.0033  0.0036  0.2579
    8CHTO  H137 3142   6.479   9.011   0.153  1.1779 -0.4080  1.0236
    8CHTO   O45 3143   5.992   9.050   0.532  0.1229 -0.1897 -0.0685
    8CHTO   C67 3144   6.029   8.935   0.620  0.3167 -0.0495  0.0691
    8CHTO  H124 3145   6.133   8.912   0.599  0.2195  1.0984 -1.7713
    8CHTO   C65 3146   6.013   8.966   0.770 -0.0884  0.1319  0.0402
    8CHTO  H122 3147   5.940   9.044   0.786 -0.3185 -0.2654  0.9821
    8CHTO   O44 3148   6.135   9.025   0.815  0.4805 -0.2767 -0.9250
    8CHTO  H102 3149   6.128   9.068   0.899 -0.4542  1.4223 -1.8516
    8CHTO   C63 3150   5.959   8.848   0.865 -0.2858  0.3116 -0.0080
    8CHTO  H120 3151   5.852   8.841   0.844 -0.1430  0.9097 -0.9370
    8CHTO   N11 3152   5.965   8.868   1.016  0.6363  0.4237 -0.2965
    8CHTO  H108 3153   5.861   8.881   1.039  0.7172 -1.3901  1.1805
    8CHTO  H109 3154   5.988   8.774   1.061 -1.1104 -1.4247 -3.0938
    8CHTO   C61 3155   6.021   8.710   0.815  0.1410  0.2951  0.2823
    8CHTO  H118 3156   5.966   8.627   0.861 -0.0452  0.1869 -0.1376
    8CHTO   O40 3157   6.013   8.690   0.670  0.3908 -0.0288  0.0470
    8CHTO   C68 3158   5.958   8.802   0.587  0.2451  0.0485 -0.2609
    8CHTO  H125 3159   5.849   8.813   0.603 -0.0549  0.1733 -2.2774
    8CHTO   C72 3160   5.973   8.750   0.444 -0.1484 -0.0204  0.1338
    8CHTO   O48 3161   6.112   8.749   0.405 -0.3984  0.2661 -0.1628
    8CHTO  H105 3162   6.132   8.699   0.329 -1.8846 -2.3238  1.0898
    8CHTO   O38 3163   6.162   8.704   0.848  0.1886  0.0743  0.7004
    8CHTO   C55 3164   6.223   8.572   0.842  0.2353  0.0717 -0.2352
    8CHTO  H112 3165   6.159   8.500   0.789 -0.9394  0.8393  0.1290
    8CHTO   C56 3166   6.245   8.522   0.986 -0.5907 -0.3262 -0.2526
    8CHTO  H113 3167   6.313   8.589   1.040 -1.3000 -0.8162  1.2933
    8CHTO   O42 3168   6.114   8.534   1.044 -0.1604 -0.2608 -0.3392
    8CHTO  H100 3169   6.105   8.616   1.088  1.0345 -0.4644  0.2927
    8CHTO   C57 3170   6.300   8.370   0.986 -0.1275  0.3126  0.4602
    8CHTO  H114 3171   6.216   8.309   0.955 -0.5957  1.9094 -1.5444
    8CHTO   N10 3172   6.344   8.330   1.119  0.2010  0.0770  0.5656
    8CHTO  H106 3173   6.256   8.295   1.172  1.6648  0.0955  3.0571
    8CHTO  H107 3174   6.404   8.243   1.099 -0.4751 -0.4162  0.6627
    8CHTO   C58 3175   6.409   8.353   0.878 -0.0982 -0.0025  1.1517
    8CHTO  H115 3176   6.509   8.381   0.918 -0.7114  1.2030  1.8632
    8CHTO   O37 3177   6.394   8.427   0.760  0.5748 -0.2679  0.1829
    8CHTO   C59 3178   6.359   8.565   0.774 -0.4079  0.3310  0.4040
    8CHTO  H116 3179   6.430   8.618   0.838 -0.4793 -0.1365  0.8706
    8CHTO   C70 3180   6.356   8.613   0.630 -0.6092  0.0715  0.9425
    8CHTO   O46 3181   6.342   8.753   0.607 -0.5177  0.0056 -0.0224
    8CHTO  H103 3182   6.320   8.770   0.517  0.6628  0.0166 -0.3142
    8CHTO   O39 3183   6.418   8.188   0.839  0.0673 -0.8285 -0.4067
    8CHTO   C60 3184   6.348   8.154   0.721  0.6997 -0.8435  0.3918
    8CHTO  H117 3185   6.269   8.225   0.694 -0.7508 -2.2688  0.8380
    8CHTO   C62 3186   6.464   8.154   0.615  0.3990  0.2642  0.0137
    8CHTO  H119 3187   6.507   8.257   0.617 -0.7081  0.7483 -0.3924
    8CHTO   O43 3188   6.563   8.064   0.646 -0.7876 -0.5523  0.2843
    8CHTO  H101 3189   6.625   8.070   0.575  1.0523  2.2599  2.0482
    8CHTO   C66 3190   6.402   8.131   0.467 -0.0397 -0.1139  0.0410
    8CHTO  H123 3191   6.339   8.217   0.441  0.7984  0.7748  0.8891
    8CHTO   N12 3192   6.499   8.139   0.361  0.2168  0.2258  0.0940
    8CHTO  H110 3193   6.602   8.152   0.393  0.8356 -0.9874 -1.3225
    8CHTO  H111 3194   6.481   8.216   0.286 -0.8797  0.2043  0.3372
    8CHTO   C69 3195   6.327   7.997   0.456 -0.8125  0.0756  0.0187
    8CHTO  H126 3196   6.387   7.904   0.450 -2.7378 -1.1830 -0.2265
    8CHTO   O41 3197   6.229   7.967   0.590  0.0455 -0.5037  0.5500
    8CHTO   C64 3198   6.282   8.014   0.732  0.7143  0.3163  0.2388
    8CHTO  H121 3199   6.357   7.938   0.761  0.1862 -0.3564 -0.1613
    8CHTO   C71 3200   6.160   8.003   0.828  0.0967  0.7026 -0.1603
    8CHTO   O47 3201   6.039   8.071   0.794  0.1166 -0.1166  0.0536
    8CHTO  H104 3202   6.037   8.150   0.844  1.7376 -0.6772  1.0790
    8CHTO   O34 3203   6.222   7.993   0.331 -0.0119  0.2389 -0.5352
    8CHTO   C49 3204   6.062   8.052   0.268 -0.7186  0.9313  0.1534
    8CHTO   H91 3205   6.057   8.004   0.170 -0.2871 -1.2792  1.1750
    8CHTO   C47 3206   6.062   8.210   0.261  0.3156 -0.1715 -0.1359
    8CHTO   H89 3207   5.975   8.237   0.198  2.4764  0.1219 -3.1285
    8CHTO   O33 3208   6.176   8.252   0.190 -0.5954 -0.1595 -0.3531
    8CHTO   H70 3209   6.259   8.242   0.233 -0.1457  0.7252 -1.0053
    8CHTO   C45 3210   6.067   8.268   0.411  0.3150  1.2421 -0.1265
    8CHTO   H87 3211   6.151   8.221   0.464 -0.3253 -0.1041 -0.2714
    8CHTO    N8 3212   6.073   8.414   0.417  0.1461  0.1577 -0.2275
    8CHTO   H75 3213   6.048   8.451   0.515 -2.0439 -2.1595  0.1462
    8CHTO   H76 3214   6.173   8.440   0.387 -0.3623  1.4200 -0.8675
    8CHTO   C43 3215   5.941   8.214   0.497 -0.0264 -0.1449  0.3064
    8CHTO   H85 3216   5.969   8.243   0.598 -1.1612  0.3652  0.4782
    8CHTO   O29 3217   5.933   8.067   0.492  0.2686 -0.5017  0.0433
    8CHTO   C50 3218   5.946   8.003   0.360  0.4418  0.7531  0.6215
    8CHTO   H92 3219   5.961   7.895   0.379  1.7530  0.6539 -0.8378
    8CHTO   C54 3220   5.808   8.009   0.283 -0.5163 -0.1046 -0.2040
    8CHTO   O36 3221   5.711   7.917   0.336 -0.1425  0.3269  0.0430
    8CHTO   H72 3222   5.664   7.967   0.401  0.6434  1.7331 -0.4424
    8CHTO   O27 3223   5.818   8.280   0.462 -0.2474 -0.2529 -0.0809
    8CHTO   C37 3224   5.703   8.341   0.512  0.7241  0.5919 -1.1433
    8CHTO   H79 3225   5.632   8.263   0.542 -0.7620  1.5715 -2.0314
    8CHTO   C38 3226   5.749   8.431   0.638  0.0314 -0.1394 -0.3542
    8CHTO   H80 3227   5.847   8.478   0.620  0.4608 -0.3554  1.3338
    8CHTO   O31 3228   5.764   8.343   0.750  0.4703 -0.4881  0.6677
    8CHTO   H68 3229   5.689   8.289   0.763  1.0954 -1.2103  1.3362
    8CHTO   C39 3230   5.629   8.531   0.672  0.8767  0.2424  0.9589
    8CHTO   H81 3231   5.558   8.461   0.715  0.1177 -0.9738 -2.1223
    8CHTO    N7 3232   5.663   8.627   0.780 -0.0872  0.3798 -0.1343
    8CHTO   H73 3233   5.627   8.725   0.754 -1.0191  0.6482  2.0094
    8CHTO   H74 3234   5.768   8.626   0.806  0.4692 -2.3358 -2.3362
    8CHTO   C40 3235   5.577   8.603   0.540 -0.2877 -0.4676  0.4188
    8CHTO   H82 3236   5.667   8.656   0.508  0.0162 -0.9584  0.4489
    8CHTO   O26 3237   5.532   8.511   0.442 -0.0136  0.4125  0.6734
    8CHTO   C41 3238   5.641   8.425   0.393  0.2010  0.0093  0.3268
    8CHTO   H83 3239   5.715   8.492   0.347  0.6027  1.8125  3.4448
    8CHTO   C52 3240   5.569   8.331   0.292 -0.1583  0.2474  0.1215
    8CHTO   O35 3241   5.523   8.403   0.181  0.2666 -0.1002 -0.0462
    8CHTO   H71 3242   5.433   8.430   0.190  0.2738  0.1225 -0.6577
    8CHTO   O28 3243   5.465   8.688   0.560 -0.0087  0.5104  0.4409
    8CHTO   C42 3244   5.438   8.818   0.497  0.0907  0.2878 -0.1990
    8CHTO   H84 3245   5.366   8.865   0.563  0.9424  1.7653 -0.2959
    8CHTO   C44 3246   5.361   8.810   0.356 -0.0325  0.2015 -0.1221
    8CHTO   H86 3247   5.428   8.773   0.278  1.8233  2.2278  0.4329
    8CHTO   O32 3248   5.251   8.726   0.392 -0.7514 -0.1398  0.3314
    8CHTO   H69 3249   5.273   8.635   0.398 -1.8832 -0.5150 -0.8877
    8CHTO   C48 3250   5.314   8.956   0.314  0.6598 -0.0887 -1.0221
    8CHTO   H90 3251   5.257   8.995   0.398 -2.2934 -0.9000 -2.5963
    8CHTO    N9 3252   5.229   8.955   0.193  0.3124 -0.0365 -0.7605
    8CHTO   H77 3253   5.141   9.010   0.221 -0.7885 -2.3720  0.5288
    8CHTO   H78 3254   5.198   8.854   0.174  0.2747  0.1105 -1.4790
    8CHTO   C51 3255   5.442   9.048   0.298  0.4485 -0.0967 -0.2448
    8CHTO   H93 3256   5.498   9.005   0.215 -1.5297  1.0556 -2.2458
    8CHTO   O30 3257   5.512   9.052   0.421 -0.2249  0.0731 -0.0346
    8CHTO   C46 3258   5.557   8.922   0.494 -0.3404  0.5265  0.4936
    8CHTO   H88 3259   5.643   8.884   0.439 -2.3893  0.6249 -2.9125
    8CHTO   C53 3260   5.588   8.974   0.632 -0.0438  0.5354  0.4037
    8CHTO   O72 3261   5.690   9.073   0.627 -0.5502 -0.0499 -0.4996
    8CHTO  H199 3262   5.765   9.023   0.600 -1.7397 -2.3899  0.4258
    8CHTO   O22 3263   5.412   9.183   0.281  0.2768 -0.5610 -0.2651
    8CHTO   C31 3264   5.486   9.275   0.198 -0.3520  0.0438  0.2137
    8CHTO   H59 3265   5.440   9.376   0.211 -2.1323 -0.7242  0.0399
    8CHTO   C29 3266   5.640   9.285   0.226  0.0371  0.1103 -0.4851
    8CHTO   H57 3267   5.677   9.182   0.219 -0.0588  0.1552 -1.8072
    8CHTO   O21 3268   5.649   9.317   0.367  0.3085  0.1944  0.4852
    8CHTO   H37 3269   5.652   9.243   0.425 -0.8159  0.7251  1.2447
    8CHTO   C27 3270   5.712   9.381   0.119  0.5889 -0.0513 -0.7798
    8CHTO   H55 3271   5.667   9.482   0.120 -1.0955 -0.7898 -0.0165
    8CHTO    N5 3272   5.857   9.403   0.148  0.5224  0.0270  0.4409
    8CHTO   H43 3273   5.857   9.490   0.212 -0.8686 -0.4632  1.1223
    8CHTO   H44 3274   5.927   9.401   0.065  0.5807 -0.7985  0.5071
    8CHTO   C25 3275   5.693   9.311  -0.016 -0.2076  0.3343 -0.4446
    8CHTO   H53 3276   5.724   9.206  -0.018 -0.5960  0.2442 -2.0738
    8CHTO   O17 3277   5.549   9.325  -0.035  0.1729  0.1936 -0.0712
    8CHTO   C32 3278   5.467   9.245   0.048  0.5793  0.0413 -0.5199
    8CHTO   H60 3279   5.510   9.147   0.026  1.4770 -0.0521  1.5198
    8CHTO   C36 3280   5.313   9.269   0.006  0.1414 -0.0459  0.0933
    8CHTO   O25 3281   5.286   9.211  -0.121  0.1873  0.2581 -0.2461
    8CHTO   H40 3282   5.295   9.119  -0.107 -2.6259 -0.1146 -0.6296
    8CHTO   O15 3283   5.765   9.382  -0.152  0.2959 -0.0803  0.6953
    8CHTO   C19 3284   5.821   9.349  -0.283 -0.7355 -0.1027  0.0452
    8CHTO   H47 3285   5.738   9.334  -0.353 -0.9869 -2.0971  0.7505
    8CHTO   C20 3286   5.898   9.472  -0.337  0.1331  0.4160  0.0141
    8CHTO   H48 3287   5.972   9.509  -0.264 -2.8434  0.2648  3.2393
    8CHTO   O19 3288   5.798   9.577  -0.351  0.5053  0.0779 -0.3248
    8CHTO   H35 3289   5.829   9.648  -0.404  2.4159 -1.1297 -0.8695
    8CHTO   C21 3290   5.973   9.442  -0.477 -0.0177 -0.0230 -0.7698
    8CHTO   H49 3291   5.896   9.419  -0.552 -1.3298  0.9403  0.2522
    8CHTO    N4 3292   6.046   9.557  -0.525 -0.0089  0.1893  0.7650
    8CHTO   H41 3293   6.076   9.533  -0.626  0.2207 -1.9000  1.3225
    8CHTO   H42 3294   6.001   9.655  -0.518  0.5479  0.5369 -0.2958
    8CHTO   C22 3295   6.048   9.312  -0.469 -0.1377  0.6171 -0.4600
    8CHTO   H50 3296   6.143   9.322  -0.416  1.4778 -0.1749 -3.0942
    8CHTO   O14 3297   5.965   9.205  -0.423 -0.2937 -0.1356 -0.4515
    8CHTO   C23 3298   5.907   9.222  -0.292 -0.4167 -0.5456 -0.2558
    8CHTO   H51 3299   5.989   9.220  -0.219  0.7145 -0.2864 -1.4953
    8CHTO   C34 3300   5.830   9.088  -0.268  0.2088 -0.0710  0.1956
    8CHTO   O23 3301   5.919   8.979  -0.260  0.2551 -0.0577  1.0918
    8CHTO   H38 3302   5.936   8.948  -0.347 -0.6905  2.3833  0.0047
    8CHTO   O16 3303   6.089   9.261  -0.594  0.0094 -0.0580  0.9922
    8CHTO   C24 3304   6.210   9.160  -0.584 -0.5211  0.5907  0.0933
    8CHTO   H52 3305   6.220   9.111  -0.487 -1.6104 -1.6813 -0.9072
    8CHTO   C26 3306   6.338   9.239  -0.621 -0.5209 -0.6626 -0.8156
    8CHTO   H54 3307   6.325   9.282  -0.722  0.1621 -1.0224 -1.0618
    8CHTO   O20 3308   6.362   9.349  -0.531  0.1410 -0.1248 -0.9410
    8CHTO   H36 3309   6.345   9.317  -0.445  0.0208  1.4508 -0.3607
    8CHTO   C30 3310   6.468   9.154  -0.634 -0.2062 -0.1083  1.4984
    8CHTO   H58 3311   6.497   9.118  -0.534 -0.0350  0.8062  1.7873
    8CHTO    N6 3312   6.584   9.244  -0.683  0.2082  0.3447 -0.0357
    8CHTO   H45 3313   6.553   9.347  -0.678  1.1766  0.6183  0.3252
    8CHTO   H46 3314   6.668   9.233  -0.617  0.0597  0.5659  0.1905
    8CHTO   C33 3315   6.431   9.040  -0.729 -0.5143  0.2818 -0.3454
    8CHTO   H61 3316   6.420   9.075  -0.832 -2.3613 -2.4524 -1.1221
    8CHTO   O18 3317   6.314   8.968  -0.677 -0.1609  0.6416  0.2659
    8CHTO   C28 3318   6.194   9.049  -0.683 -0.2549  0.1048 -0.4598
    8CHTO   H56 3319   6.178   9.086  -0.784  0.8902 -1.0407 -1.0773
    8CHTO   C35 3320   6.073   8.967  -0.647  0.0712  0.0284  0.1937
    8CHTO   O24 3321   6.052   8.879  -0.754 -0.2613 -0.2093 -0.0620
    8CHTO   H39 3322   6.009   8.915  -0.829 -0.0821 -1.8171 -0.9739
    8CHTO    O9 3323   6.545   8.949  -0.743  0.2181 -0.7719  0.2287
    8CHTO   C13 3324   6.523   8.816  -0.850 -0.2289  0.3655  0.0330
    8CHTO   H26 3325   6.453   8.847  -0.930  0.5716 -0.8153 -1.1318
    8CHTO   C11 3326   6.459   8.697  -0.770 -0.4640 -1.3514  0.2808
    8CHTO   H24 3327   6.361   8.726  -0.732 -0.7479 -0.1196 -1.3500
    8CHTO    O8 3328   6.541   8.659  -0.660  0.2423  0.3802 -0.0622
    8CHTO    H3 3329   6.491   8.673  -0.581  0.1799 -1.4379  0.2263
    8CHTO    C9 3330   6.434   8.584  -0.873  0.2230 -0.6759 -0.5368
    8CHTO   H22 3331   6.383   8.628  -0.959  0.6625  0.2598 -0.3304
    8CHTO    N2 3332   6.343   8.475  -0.838 -0.6932  0.4263 -0.9834
    8CHTO   H10 3333   6.389   8.410  -0.765 -2.9386 -0.7668 -0.5795
    8CHTO   H11 3334   6.260   8.522  -0.786  0.3917  1.6677 -0.3582
    8CHTO    C7 3335   6.574   8.545  -0.938 -0.6910 -0.3809  0.1697
    8CHTO   H20 3336   6.545   8.470  -1.016 -0.9769  0.5175 -0.5991
    8CHTO    O4 3337   6.650   8.648  -0.992  0.0623 -0.4651  1.2427
    8CHTO   C14 3338   6.660   8.771  -0.922  0.2016 -0.1819 -0.0341
    8CHTO   H27 3339   6.685   8.840  -1.006 -2.1568  0.5212 -0.1882
    8CHTO   C18 3340   6.773   8.781  -0.815 -0.1270  0.0476 -0.1814
    8CHTO   O13 3341   6.812   8.912  -0.785 -0.5712 -0.3086  0.8784
    8CHTO    H7 3342   6.900   8.911  -0.818 -1.6018  2.1469 -2.1191
    8CHTO    O2 3343   6.679   8.457  -0.820  0.8729  0.4131  0.5205
    8CHTO    C1 3344   6.779   8.365  -0.862  0.1331  0.4392 -0.3510
    8CHTO   H14 3345   6.825   8.327  -0.768 -0.3173  0.1193 -0.2596
    8CHTO    C2 3346   6.884   8.423  -0.970 -0.1925  0.1927 -0.1872
    8CHTO   H15 3347   6.834   8.477  -1.051  1.2578  1.3380 -0.3466
    8CHTO    O6 3348   6.952   8.531  -0.897  0.5307  0.1939 -0.8949
    8CHTO    H1 3349   6.913   8.613  -0.920 -0.5077 -0.1723 -0.4953
    8CHTO    C3 3350   6.980   8.313  -1.028 -0.3798 -0.5842 -0.5914
    8CHTO   H16 3351   7.049   8.282  -0.947  0.0335  3.0318  0.5105
    8CHTO    N1 3352   7.060   8.368  -1.145 -0.2916  0.2652 -1.0386
    8CHTO    H8 3353   7.115   8.453  -1.108  1.1098 -1.0347 -0.1263
    8CHTO    H9 3354   7.120   8.289  -1.186  1.6868  2.5482 -2.6869
    8CHTO    C4 3355   6.903   8.182  -1.066  0.0068  1.0041  0.0685
    8CHTO   H17 3356   6.826   8.199  -1.141 -0.9975 -0.7118  0.6986
    8CHTO    O1 3357   6.817   8.143  -0.964  0.6077 -0.3236  0.1350
    8CHTO    C5 3358   6.716   8.230  -0.916  0.1071 -0.3554  0.6689
    8CHTO   H18 3359   6.663   8.256  -1.008 -0.6836 -1.7866  0.7061
    8CHTO   C16 3360   6.619   8.174  -0.812  0.2222  0.1498 -0.2729
    8CHTO   O11 3361   6.682   8.102  -0.709 -0.1145  0.0396 -0.2184
    8CHTO    H5 3362   6.699   8.146  -0.628 -2.2216 -1.4632  1.0996
    8CHTO    O3 3363   6.987   8.070  -1.084  0.0704  0.7618 -0.3695
    8CHTO    C6 3364   6.924   7.948  -1.153  0.5752  0.5284 -0.7708
    8CHTO   H19 3365   6.816   7.947  -1.142  0.5504  0.1637 -1.0198
    8CHTO    C8 3366   6.957   7.942  -1.309  0.0668 -0.1642 -0.3499
    8CHTO   H21 3367   7.063   7.968  -1.316  0.3140 -1.5047 -1.7110
    8CHTO    O7 3368   6.878   8.047  -1.368 -0.1549 -0.0420 -0.2440
    8CHTO    H2 3369   6.785   8.038  -1.357 -0.2292 -0.4096 -1.1031
    8CHTO   C12 3370   6.919   7.804  -1.368  0.0621 -0.0096  0.3174
    8CHTO   H25 3371   6.809   7.797  -1.377  0.1440 -1.0774  0.1294
    8CHTO    N3 3372   6.979   7.789  -1.506 -0.5460  0.2794  0.6323
    8CHTO   H12 3373   7.083   7.815  -1.500 -0.2154 -0.9048  0.1773
    8CHTO   H13 3374   6.973   7.686  -1.540  3.1879 -0.4059  1.8032
    8CHTO   C15 3375   6.958   7.682  -1.272  0.2056  0.0664 -0.3201
    8CHTO   H28 3376   7.065   7.662  -1.265  0.1051 -0.4464 -0.2334
    8CHTO   O10 3377   6.891   7.560  -1.308  0.4687  0.3558 -0.2706
    8CHTO    H4 3378   6.801   7.578  -1.330  0.7658  0.7866 -1.1593
    8CHTO    O5 3379   6.911   7.709  -1.137 -0.2954  0.3346  0.7890
    8CHTO   C10 3380   6.974   7.825  -1.078  0.1159 -0.2612  0.2338
    8CHTO   H23 3381   7.080   7.809  -1.098 -0.2744 -0.5329 -1.7838
    8CHTO   C17 3382   6.947   7.819  -0.929  0.0035  0.0601  0.5212
    8CHTO   O12 3383   7.039   7.898  -0.860  0.3066 -0.2694  0.1034
    8CHTO    H6 3384   7.129   7.878  -0.880  0.0109 -1.3107 -0.1982
    9CHTO  H203 3385   6.955   3.956   3.660  2.3352  1.1893 -1.2142
    9CHTO   O82 3386   6.977   3.865   3.653 -0.1187  0.5321 -0.5670
    9CHTO  C123 3387   7.117   3.864   3.637  0.0149 -0.2874  0.2602
    9CHTO  H227 3388   7.162   3.874   3.737 -1.1319 -0.9164  0.8451
    9CHTO   O77 3389   7.143   3.738   3.581 -0.4485 -0.0085  0.0911
    9CHTO  C118 3390   7.281   3.710   3.546  0.1492 -0.0843 -0.7165
    9CHTO  H222 3391   7.343   3.706   3.637 -1.9972  0.4338  0.8366
    9CHTO  C125 3392   7.264   3.568   3.492  0.0327  0.4431  0.0402
    9CHTO   O84 3393   7.221   3.478   3.594  0.4670 -0.0680  0.7649
    9CHTO  H205 3394   7.255   3.393   3.570  2.2926  1.1453 -1.0746
    9CHTO  C114 3395   7.319   3.809   3.436 -0.8532  0.6495  0.7686
    9CHTO  H218 3396   7.250   3.797   3.353  0.8131 -1.6053 -0.3526
    9CHTO  C116 3397   7.305   3.964   3.475  0.2195 -0.2765 -0.0982
    9CHTO  H220 3398   7.388   3.981   3.547  0.2908  0.6554 -0.3953
    9CHTO   O79 3399   7.338   4.054   3.373  0.0085  0.0685  0.3573
    9CHTO  H201 3400   7.277   4.036   3.304 -0.7636 -1.9497  1.5220
    9CHTO  C120 3401   7.163   3.975   3.535 -0.0594 -1.2897  0.1646
    9CHTO  H224 3402   7.099   3.973   3.444  1.0640 -1.8473 -0.6233
    9CHTO   N21 3403   7.139   4.110   3.590 -0.3068  0.2815  0.7353
    9CHTO  H211 3404   7.034   4.135   3.588 -0.1743  1.0815  2.6911
    9CHTO  H212 3405   7.174   4.123   3.691 -1.0604 -1.0882  1.1871
    9CHTO   O75 3406   7.459   3.783   3.397  0.0696  0.3102  0.0580
    9CHTO  C112 3407   7.473   3.721   3.233  0.0287  0.4622  0.2390
    9CHTO  H216 3408   7.406   3.761   3.156  0.0725  1.5866  0.7795
    9CHTO   O73 3409   7.472   3.579   3.228  0.3034  0.1185 -0.0064
    9CHTO  C113 3410   7.481   3.515   3.099 -0.4855  0.3688  0.9791
    9CHTO  H217 3411   7.412   3.567   3.029 -1.2831 -2.6152 -0.5014
    9CHTO  C124 3412   7.464   3.366   3.098  0.1621  0.0492  0.8915
    9CHTO   O83 3413   7.324   3.328   3.118 -0.0210  0.0780  0.0891
    9CHTO  H204 3414   7.310   3.248   3.165  0.3132  0.4343  0.7995
    9CHTO  C109 3415   7.625   3.550   3.040 -0.0753  0.0457  0.0554
    9CHTO  H213 3416   7.695   3.501   3.110  0.2940  0.6878  0.1403
    9CHTO  C110 3417   7.641   3.708   3.034  0.1267 -0.0633 -0.0026
    9CHTO  H214 3418   7.578   3.749   2.955 -0.2661  0.4935  0.5971
    9CHTO   O78 3419   7.773   3.732   2.987 -0.3460  0.1010 -0.2108
    9CHTO  H200 3420   7.782   3.702   2.898  4.3281  2.4022 -0.6933
    9CHTO  C111 3421   7.613   3.768   3.178 -1.0128 -0.1198  0.0080
    9CHTO  H215 3422   7.685   3.725   3.249  0.5715  1.7830 -0.4219
    9CHTO   N19 3423   7.635   3.912   3.179  0.4281 -0.0793  0.3492
    9CHTO  H207 3424   7.739   3.930   3.198  0.6642 -0.1186 -0.8727
    9CHTO  H208 3425   7.571   3.954   3.255 -2.0796 -1.4941 -0.9001
    9CHTO   O74 3426   7.639   3.490   2.909 -0.4476 -0.0913 -0.3692
    9CHTO  C115 3427   7.771   3.440   2.866 -0.0883  0.5160  0.3532
    9CHTO  H219 3428   7.852   3.498   2.909  0.1660  0.5853 -0.2214
    9CHTO   O76 3429   7.800   3.288   2.915  1.3766  0.2597  0.4834
    9CHTO  C122 3430   7.726   3.183   2.849  0.1471 -0.9591  0.0494
    9CHTO  H226 3431   7.619   3.183   2.871 -0.2100 -0.5253 -1.5987
    9CHTO  C126 3432   7.781   3.042   2.895 -0.3193 -0.3314  0.3318
    9CHTO   O85 3433   7.748   3.021   3.032  0.2216 -0.2920  0.0437
    9CHTO  H206 3434   7.654   3.016   3.033  0.1189  1.1726  2.7394
    9CHTO  C121 3435   7.748   3.195   2.692  0.5426  0.9031  0.3042
    9CHTO  H225 3436   7.857   3.186   2.671  0.4232  0.5526 -0.1910
    9CHTO   O81 3437   7.676   3.085   2.626 -0.2546  0.1256  0.4386
    9CHTO  H202 3438   7.584   3.080   2.640 -0.3505 -0.6649 -0.4063
    9CHTO  C119 3439   7.703   3.338   2.642 -0.6049 -0.0390 -0.8479
    9CHTO  H223 3440   7.723   3.345   2.535 -0.1899 -2.4109 -0.9477
    9CHTO  C117 3441   7.783   3.459   2.707 -0.1679  0.5394 -0.2273
    9CHTO  H221 3442   7.737   3.557   2.698  1.9548  1.5632 -0.3243
    9CHTO   N20 3443   7.926   3.473   2.663 -0.1942 -0.0646  0.5168
    9CHTO  H209 3444   7.939   3.578   2.641 -1.9306 -0.2969 -1.7539
    9CHTO  H210 3445   7.947   3.413   2.576 -0.4771  2.1326 -1.0999
    9CHTO   O80 3446   7.535   3.366   2.654  0.7454 -0.1063 -0.4993
    9CHTO  C103 3447   7.477   3.488   2.590  0.4495 -0.1770 -0.2118
    9CHTO  H190 3448   7.517   3.572   2.647 -0.8185  0.2190  0.1200
    9CHTO  C101 3449   7.516   3.509   2.440 -0.2393  0.1000  0.9557
    9CHTO  H188 3450   7.521   3.414   2.387  2.6557  0.2387  0.8913
    9CHTO   O68 3451   7.669   3.573   2.431 -0.2438  0.1930  0.2333
    9CHTO  H168 3452   7.711   3.541   2.354 -0.6186 -1.6792  0.7697
    9CHTO   C99 3453   7.421   3.609   2.361 -0.1880 -0.3864  0.3271
    9CHTO  H186 3454   7.447   3.714   2.385  0.3679 -0.0800 -1.5201
    9CHTO   N17 3455   7.426   3.597   2.212  0.1782 -0.1582  0.0474
    9CHTO  H174 3456   7.456   3.499   2.179  1.7235  0.1881  0.4014
    9CHTO  H175 3457   7.487   3.673   2.166  0.3845 -0.0269  0.5352
    9CHTO   C97 3458   7.274   3.593   2.395  0.5871 -0.3758 -0.6887
    9CHTO  H184 3459   7.228   3.501   2.356 -0.1854 -0.0391 -0.5799
    9CHTO   O64 3460   7.262   3.604   2.539 -0.5300  0.7496 -0.1018
    9CHTO  C104 3461   7.317   3.492   2.613  0.5343 -0.0258 -0.1263
    9CHTO  H191 3462   7.276   3.399   2.574  0.3180  0.4589 -1.0782
    9CHTO  C108 3463   7.268   3.502   2.760  0.3210  0.0831 -0.0722
    9CHTO   O71 3464   7.317   3.625   2.822  0.1408 -0.6202 -0.0536
    9CHTO  H171 3465   7.307   3.703   2.772 -0.7904 -0.2660  0.6619
    9CHTO   O62 3466   7.187   3.703   2.364 -0.2165  0.3207  0.6849
    9CHTO   C91 3467   7.087   3.663   2.273  0.1613  0.3645 -0.2195
    9CHTO  H178 3468   7.128   3.588   2.205 -0.6977  0.1566 -0.5242
    9CHTO   C92 3469   7.046   3.784   2.191 -0.4867  0.1272  0.5242
    9CHTO  H179 3470   7.132   3.846   2.165  0.8807 -1.9982 -0.1377
    9CHTO   O66 3471   6.980   3.744   2.069  0.6923 -0.1811  0.1721
    9CHTO  H166 3472   6.907   3.801   2.055  0.8516  0.0431  0.2596
    9CHTO   C93 3473   6.942   3.883   2.277 -0.5261  0.2147 -0.3935
    9CHTO  H180 3474   6.897   3.953   2.205  2.6496  1.4891 -1.2419
    9CHTO   N16 3475   7.005   3.972   2.381 -0.2994  0.4403  0.3316
    9CHTO  H172 3476   6.939   4.044   2.427 -0.1091  1.8015 -1.4330
    9CHTO  H173 3477   7.087   4.027   2.336 -0.8032  0.9307 -0.0023
    9CHTO   C94 3478   6.829   3.802   2.344  0.1136 -0.0224  0.2858
    9CHTO  H181 3479   6.837   3.802   2.453 -1.1965  0.8065  0.3973
    9CHTO   O61 3480   6.835   3.666   2.292  0.2192 -0.1470  0.5713
    9CHTO   C95 3481   6.955   3.593   2.332  0.4620 -1.2549  1.0823
    9CHTO  H182 3482   6.949   3.577   2.440  3.5883  0.2312  1.5353
    9CHTO  C106 3483   6.926   3.443   2.277 -0.1130  0.4319  0.3831
    9CHTO   O69 3484   7.023   3.341   2.313 -0.4507 -0.0161  0.1388
    9CHTO  H169 3485   7.018   3.320   2.404 -2.6536  1.3356  0.3646
    9CHTO   O63 3486   6.693   3.873   2.308  0.1053 -0.1995 -0.2028
    9CHTO   C96 3487   6.582   3.861   2.419 -0.1627 -0.2489 -0.2838
    9CHTO  H183 3488   6.626   3.859   2.519  1.1421  0.1135 -0.8430
    9CHTO   C98 3489   6.484   3.743   2.404 -0.0862  0.5281 -0.3772
    9CHTO  H185 3490   6.438   3.744   2.304 -1.4807  0.8057  0.2512
    9CHTO   O67 3491   6.558   3.622   2.411 -0.2468 -0.1168  0.1180
    9CHTO  H167 3492   6.613   3.626   2.335 -0.2720  1.7117  0.1716
    9CHTO  C102 3493   6.360   3.749   2.505  0.7150  0.5565 -0.1776
    9CHTO  H189 3494   6.406   3.739   2.604  0.1261  0.4426  0.0885
    9CHTO   N18 3495   6.265   3.634   2.491 -0.0311  0.1882  0.4226
    9CHTO  H176 3496   6.309   3.538   2.469 -0.5613  0.0699 -0.1484
    9CHTO  H177 3497   6.207   3.629   2.582  1.0652  1.7794  1.2454
    9CHTO  C105 3498   6.294   3.885   2.481 -0.3503  0.3355  0.4430
    9CHTO  H192 3499   6.260   3.884   2.378  1.7338  0.6615 -0.2797
    9CHTO   O65 3500   6.389   3.987   2.504 -0.2247 -0.7586  0.2007
    9CHTO  C100 3501   6.490   3.995   2.402  0.4280 -1.1432 -0.3538
    9CHTO  H187 3502   6.431   4.002   2.310 -0.0284 -0.5782 -0.0240
    9CHTO  C107 3503   6.583   4.119   2.426  0.3823 -0.1954  0.2286
    9CHTO   O70 3504   6.502   4.236   2.393  0.1950  0.0225  0.1767
    9CHTO  H170 3505   6.556   4.313   2.399  0.4017 -0.0484 -0.6758
    9CHTO   O57 3506   6.152   3.909   2.592  0.3436  0.0894 -0.2245
    9CHTO   C85 3507   6.029   3.965   2.541 -0.4499  0.0583  0.5535
    9CHTO  H157 3508   6.001   3.883   2.471 -0.2575 -0.8517  1.5285
    9CHTO   C83 3509   6.055   4.100   2.466 -0.1513 -0.1229 -0.0852
    9CHTO  H155 3510   6.087   4.070   2.366 -2.9298 -0.6746 -0.8420
    9CHTO   O56 3511   6.173   4.158   2.525 -0.4979  0.0816  0.3680
    9CHTO  H135 3512   6.230   4.178   2.453 -1.0823  0.6701  0.0645
    9CHTO   C81 3513   5.938   4.205   2.462  0.6890 -0.0463 -0.4756
    9CHTO  H153 3514   5.853   4.165   2.407 -1.4489  0.5732  2.2350
    9CHTO   N14 3515   5.972   4.331   2.384  0.3775 -0.0728  0.2958
    9CHTO  H141 3516   5.903   4.408   2.411 -1.2528 -1.2740 -0.3242
    9CHTO  H142 3517   5.963   4.316   2.278  0.4815  3.0111 -0.1938
    9CHTO   C79 3518   5.890   4.222   2.611 -0.0916  0.7040 -0.2533
    9CHTO  H151 3519   5.805   4.291   2.613 -0.3100  0.4469 -0.6857
    9CHTO   O52 3520   5.831   4.095   2.650 -0.0803  0.0446 -0.0668
    9CHTO   C86 3521   5.923   3.982   2.652 -0.0178  0.2362 -0.5004
    9CHTO  H158 3522   5.978   3.987   2.748  1.4243  0.7007 -1.3486
    9CHTO   C90 3523   5.835   3.857   2.657  0.2354  0.4384 -1.2489
    9CHTO   O60 3524   5.767   3.844   2.786  0.0695  0.0630  0.0514
    9CHTO  H138 3525   5.688   3.892   2.770 -0.2836  0.6688  3.3361
    9CHTO   O50 3526   5.986   4.268   2.703 -0.1439 -0.6800 -0.1412
    9CHTO   C73 3527   6.009   4.361   2.817  0.2035 -0.2217 -0.5138
    9CHTO  H145 3528   5.923   4.382   2.881 -0.2941  0.1511 -1.2919
    9CHTO   C74 3529   6.069   4.487   2.749 -0.0108 -0.0926  0.2375
    9CHTO  H146 3530   5.990   4.525   2.683 -0.1845 -0.4333  0.2500
    9CHTO   O54 3531   6.081   4.581   2.858 -0.2286  0.3947 -0.4719
    9CHTO  H133 3532   6.109   4.663   2.821  1.9856  0.3968  1.1393
    9CHTO   C75 3533   6.209   4.464   2.671 -1.0010 -0.3165 -0.1847
    9CHTO  H147 3534   6.197   4.390   2.591  1.8361 -1.2388  0.2048
    9CHTO   N13 3535   6.258   4.588   2.604  0.1136 -0.3662  0.1285
    9CHTO  H139 3536   6.332   4.571   2.527  2.4192 -1.2429  2.4768
    9CHTO  H140 3537   6.300   4.658   2.675 -4.2082  0.0966  2.4356
    9CHTO   C76 3538   6.306   4.406   2.782 -0.4757 -0.4108  0.4275
    9CHTO  H148 3539   6.322   4.488   2.852  1.7864 -0.2268 -0.2621
    9CHTO   O49 3540   6.253   4.295   2.852 -0.0693  0.6782  0.3578
    9CHTO   C77 3541   6.119   4.308   2.907  0.3348 -0.1644 -0.2687
    9CHTO  H149 3542   6.128   4.373   2.994  1.3668 -0.4219 -0.1782
    9CHTO   C88 3543   6.073   4.176   2.977  0.4531  0.4834  0.1318
    9CHTO   O58 3544   5.925   4.164   2.998 -0.2366  0.2072  0.1683
    9CHTO  H136 3545   5.877   4.135   2.922  0.8447 -0.7197 -0.1685
    9CHTO   O51 3546   6.445   4.348   2.711  0.1706  0.3541 -0.4456
    9CHTO   C78 3547   6.572   4.363   2.796 -0.5579  0.3460 -0.2343
    9CHTO  H150 3548   6.539   4.400   2.896 -0.3536 -2.1970  0.8272
    9CHTO   C80 3549   6.662   4.467   2.726  0.6423  0.5050 -0.2403
    9CHTO  H152 3550   6.670   4.440   2.618 -1.3439  0.2860 -0.3527
    9CHTO   O55 3551   6.594   4.592   2.705 -0.0574  0.1284  0.3322
    9CHTO  H134 3552   6.561   4.633   2.783  1.1351  1.1952  0.2746
    9CHTO   C84 3553   6.797   4.487   2.799 -0.6107 -0.0270  0.9061
    9CHTO  H156 3554   6.769   4.521   2.899  0.0458 -0.8290  1.3690
    9CHTO   N15 3555   6.888   4.585   2.732 -0.8995  0.5326 -0.2112
    9CHTO  H143 3556   6.921   4.661   2.799 -1.8010  1.3067 -0.6529
    9CHTO  H144 3557   6.848   4.633   2.645  1.2024  0.5525 -1.2114
    9CHTO   C87 3558   6.861   4.349   2.818  1.0508  0.5643  0.2423
    9CHTO  H159 3559   6.897   4.312   2.722  0.1087 -1.7563  0.7547
    9CHTO   O53 3560   6.757   4.244   2.886 -0.4060  0.0029 -0.1985
    9CHTO   C82 3561   6.641   4.228   2.806 -0.6925  0.0230  0.0015
    9CHTO  H154 3562   6.676   4.192   2.710  1.4404  0.9919  0.3919
    9CHTO   C89 3563   6.558   4.114   2.870 -0.1629  0.0250 -0.9938
    9CHTO   O59 3564   6.620   3.984   2.865 -0.1976 -0.5735 -0.4738
    9CHTO  H137 3565   6.705   3.987   2.905  0.0751  0.7774 -1.1082
    9CHTO   O45 3566   7.009   4.359   2.920 -0.4757  0.4369 -0.1144
    9CHTO   C67 3567   7.048   4.227   2.968 -0.1779 -0.6025 -0.2331
    9CHTO  H124 3568   6.952   4.184   2.995 -0.2928  1.7782  3.5822
    9CHTO   C65 3569   7.126   4.127   2.869 -0.5772 -0.0636  0.3870
    9CHTO  H122 3570   7.190   4.194   2.811 -0.6372  1.7089  2.2755
    9CHTO   O44 3571   7.020   4.075   2.787  0.2605  0.4711  0.0697
    9CHTO  H102 3572   7.061   4.015   2.727  0.6482 -1.8878  2.5735
    9CHTO   C63 3573   7.228   4.028   2.938 -0.4987 -0.4576  0.0931
    9CHTO  H120 3574   7.321   4.080   2.959  0.2585 -2.2714  1.3684
    9CHTO   N11 3575   7.269   3.919   2.843  0.7998  0.0662 -0.7184
    9CHTO  H108 3576   7.349   3.854   2.873  1.2429 -0.1750 -2.3893
    9CHTO  H109 3577   7.190   3.857   2.806  0.9340 -0.3471 -0.3121
    9CHTO   C61 3578   7.169   3.981   3.074 -0.6127 -0.4809  0.1225
    9CHTO  H118 3579   7.247   3.919   3.121 -0.1655  0.6650  0.9127
    9CHTO   O40 3580   7.135   4.094   3.162  0.0549 -0.3656  0.0744
    9CHTO   C68 3581   7.132   4.229   3.093 -0.3506  0.4650 -0.6817
    9CHTO  H125 3582   7.239   4.255   3.078  0.1454 -1.0962  0.0264
    9CHTO   C72 3583   7.080   4.325   3.202 -0.1249  0.1554 -0.1072
    9CHTO   O48 3584   7.193   4.378   3.268  0.1175  0.8080 -0.1168
    9CHTO  H105 3585   7.162   4.423   3.344 -0.8445 -1.0380  0.6199
    9CHTO   O38 3586   7.040   3.911   3.059  0.5801 -0.0826 -0.3285
    9CHTO   C55 3587   6.990   3.848   3.181  0.3201 -0.4674  0.2070
    9CHTO  H112 3588   7.056   3.878   3.263  3.4740 -1.1718 -1.9700
    9CHTO   C56 3589   6.992   3.684   3.162 -0.0746  0.2818  0.1691
    9CHTO  H113 3590   6.936   3.646   3.075 -0.4291 -0.3454  0.6677
    9CHTO   O42 3591   7.126   3.638   3.140  0.2151 -0.5640  0.3558
    9CHTO  H100 3592   7.179   3.666   3.213  0.1705  1.0953 -0.2316
    9CHTO   C57 3593   6.928   3.620   3.296  0.8012 -1.0861 -0.5569
    9CHTO  H114 3594   6.991   3.639   3.383  0.9837  2.2159 -1.3558
    9CHTO   N10 3595   6.917   3.468   3.288 -0.6279  0.1196 -0.2198
    9CHTO  H106 3596   6.994   3.423   3.226 -0.8964 -1.0777  0.3014
    9CHTO  H107 3597   6.910   3.411   3.379  1.6991  0.9301  0.4852
    9CHTO   C58 3598   6.785   3.676   3.323 -0.0254  0.0591 -0.5879
    9CHTO  H115 3599   6.726   3.659   3.230 -0.7351 -1.0983  0.0620
    9CHTO   O37 3600   6.797   3.817   3.331 -0.4629  0.0386 -0.2854
    9CHTO   C59 3601   6.846   3.890   3.215  0.0103 -0.3051  0.4982
    9CHTO  H116 3602   6.785   3.868   3.127  2.2890  2.8588 -1.9975
    9CHTO   C70 3603   6.835   4.033   3.265 -0.2696  1.0745 -0.4729
    9CHTO   O46 3604   6.702   4.078   3.258  0.2536 -0.0498 -0.4643
    9CHTO  H103 3605   6.683   4.124   3.338  0.6227  0.1710 -0.5004
    9CHTO   O39 3606   6.718   3.616   3.460 -0.6963  0.0058 -0.3187
    9CHTO   C60 3607   6.578   3.619   3.449  0.2431  0.1304 -0.2131
    9CHTO  H117 3608   6.543   3.713   3.405 -1.0679 -0.3048 -0.1141
    9CHTO   C62 3609   6.518   3.491   3.380 -0.3505 -0.4225  0.0273
    9CHTO  H119 3610   6.549   3.491   3.273 -0.2132 -1.2565  0.0688
    9CHTO   O43 3611   6.564   3.369   3.436  0.0210 -0.0738 -0.4691
    9CHTO  H101 3612   6.570   3.302   3.370  2.6833  0.9058 -1.3107
    9CHTO   C66 3613   6.359   3.501   3.375 -0.4726  0.1771 -1.0489
    9CHTO  H123 3614   6.327   3.593   3.326 -1.1233  0.3626 -0.2880
    9CHTO   N12 3615   6.294   3.391   3.300  0.0414  0.2115  0.0206
    9CHTO  H110 3616   6.353   3.302   3.282  3.2898  1.9397  1.7051
    9CHTO  H111 3617   6.197   3.359   3.337  0.2845 -1.8736 -1.0534
    9CHTO   C69 3618   6.312   3.507   3.526 -0.2225 -0.2677 -0.6398
    9CHTO  H126 3619   6.356   3.420   3.579 -0.5246  0.3792  0.7057
    9CHTO   O41 3620   6.369   3.632   3.578 -0.3396 -0.2119 -0.3610
    9CHTO   C64 3621   6.528   3.626   3.593 -0.5189 -0.4902  0.7242
    9CHTO  H121 3622   6.560   3.538   3.652  0.9105  0.7332  1.8253
    9CHTO   C71 3623   6.577   3.753   3.668  0.4123 -0.1503  0.1643
    9CHTO   O47 3624   6.706   3.730   3.720 -0.1216 -0.0733 -0.1338
    9CHTO  H104 3625   6.724   3.784   3.795 -0.3514 -2.5323  1.7340
    9CHTO   O34 3626   6.159   3.508   3.563 -0.0053 -0.0154  0.0149
    9CHTO   C49 3627   6.036   3.533   3.640 -0.0134  0.2921  1.1113
    9CHTO   H91 3628   5.962   3.559   3.564  0.9243 -0.4511 -0.0841
    9CHTO   C47 3629   6.051   3.663   3.721 -0.3243 -0.5725 -1.0313
    9CHTO   H89 3630   5.951   3.698   3.752  0.5924  0.5404  0.7820
    9CHTO   O33 3631   6.110   3.765   3.636  0.2096  0.2554 -0.7318
    9CHTO   H70 3632   6.052   3.783   3.564 -1.8220  1.4147  1.1413
    9CHTO   C45 3633   6.144   3.653   3.845  0.2262  0.0701 -0.5847
    9CHTO   H87 3634   6.232   3.716   3.826 -0.2355  0.4693 -1.4714
    9CHTO    N8 3635   6.073   3.704   3.968 -0.1198 -0.2055 -0.8173
    9CHTO   H75 3636   6.067   3.811   3.963 -1.5940 -0.2492 -0.3150
    9CHTO   H76 3637   5.975   3.663   3.990 -1.0829  1.5323 -1.7292
    9CHTO   C43 3638   6.189   3.501   3.862 -0.4112 -0.2685 -0.4515
    9CHTO   H85 3639   6.260   3.481   3.781 -1.0721  0.6050 -1.2467
    9CHTO   O29 3640   6.075   3.410   3.858 -0.2079 -0.1788 -0.9994
    9CHTO   C50 3641   6.002   3.412   3.729 -0.1384  0.8807 -0.3989
    9CHTO   H92 3642   6.029   3.316   3.683  3.6638  1.4024  0.6094
    9CHTO   C54 3643   5.853   3.403   3.770 -0.1717 -0.0866  0.2851
    9CHTO   O36 3644   5.771   3.407   3.652  0.1538  0.1002  0.5974
    9CHTO   H72 3645   5.775   3.489   3.607  3.2465 -0.1047  0.3641
    9CHTO   O27 3646   6.271   3.471   3.974 -0.3622 -0.2148  0.5109
    9CHTO   C37 3647   6.401   3.435   4.018  0.5578 -0.5155  0.5285
    9CHTO   H79 3648   6.397   3.330   4.052  0.1539 -0.4643  0.6471
    9CHTO   C38 3649   6.519   3.438   3.913 -0.1771 -0.2324  0.0066
    9CHTO   H80 3650   6.510   3.538   3.869 -1.4475 -0.4063 -0.1428
    9CHTO   O31 3651   6.495   3.336   3.819  0.5503 -0.8240 -0.6462
    9CHTO   H68 3652   6.551   3.342   3.744 -1.3040 -1.5152 -2.1271
    9CHTO   C39 3653   6.660   3.427   3.980  0.3138 -0.6330  0.7549
    9CHTO   H81 3654   6.671   3.327   4.022 -0.9470 -0.6789  0.9913
    9CHTO    N7 3655   6.762   3.440   3.868 -0.2500 -0.1357  0.0855
    9CHTO   H73 3656   6.751   3.360   3.795  0.5340  0.2197 -0.4291
    9CHTO   H74 3657   6.862   3.451   3.908 -0.6408  1.0070  0.7608
    9CHTO   C40 3658   6.669   3.538   4.082  0.4424  0.6488  0.6034
    9CHTO   H82 3659   6.642   3.636   4.042 -0.6380 -0.6457 -1.9066
    9CHTO   O26 3660   6.576   3.498   4.184  0.7071  0.2675  0.4429
    9CHTO   C41 3661   6.437   3.527   4.150 -0.6100  0.2697  0.4324
    9CHTO   H83 3662   6.419   3.635   4.138  0.6839  0.8926  3.7565
    9CHTO   C52 3663   6.348   3.497   4.273 -0.0779  0.3792  0.4746
    9CHTO   O35 3664   6.385   3.577   4.384 -0.0391  0.2973 -0.1250
    9CHTO   H71 3665   6.307   3.580   4.436  0.1090  0.0879  0.1107
    9CHTO   O28 3666   6.795   3.552   4.152  0.3834  0.6159  0.1913
    9CHTO   C42 3667   6.824   3.676   4.221  0.3594  0.2116 -0.0168
    9CHTO   H84 3668   6.922   3.664   4.268  1.0260 -2.2014 -1.9482
    9CHTO   C44 3669   6.714   3.711   4.337  0.5305 -0.0842 -0.5199
    9CHTO   H86 3670   6.617   3.693   4.293  0.4852  0.0941 -0.4921
    9CHTO   O32 3671   6.733   3.633   4.448 -0.7621  0.1521  0.3391
    9CHTO   H69 3672   6.680   3.555   4.448 -3.3476  1.8215  1.4320
    9CHTO   C48 3673   6.717   3.870   4.365 -0.0083 -0.1781 -0.0164
    9CHTO   H90 3674   6.812   3.902   4.409  0.3034  0.3401 -1.0513
    9CHTO    N9 3675   6.611   3.912   4.459 -0.3450 -0.0241 -0.3339
    9CHTO   H77 3676   6.545   3.984   4.413  1.4340  0.3869 -2.3115
    9CHTO   H78 3677   6.648   3.942   4.556  0.8164  0.6328 -0.9729
    9CHTO   C51 3678   6.701   3.941   4.229 -0.1180  0.0465 -0.4981
    9CHTO   H93 3679   6.625   3.878   4.184  0.5824 -0.6723 -0.6872
    9CHTO   O30 3680   6.828   3.926   4.169  0.1600 -0.1891  0.3180
    9CHTO   C46 3681   6.844   3.789   4.111 -0.5611  0.3310  0.6877
    9CHTO   H88 3682   6.772   3.784   4.030 -0.2286  2.7632  0.1919
    9CHTO   C53 3683   6.988   3.777   4.051  0.0708  0.2892  0.3622
    9CHTO   O72 3684   7.020   3.655   3.981  0.1496 -0.2450  0.2088
    9CHTO  H199 3685   6.948   3.628   3.928 -0.0560  0.1364  0.2933
    9CHTO   O22 3686   6.672   4.087   4.225 -0.0293 -0.1628  0.7891
    9CHTO   C31 3687   6.613   4.154   4.110  0.7812  0.1760 -0.5936
    9CHTO   H59 3688   6.575   4.253   4.143  4.7357  2.2370 -1.7909
    9CHTO   C29 3689   6.711   4.180   3.992  0.5814  0.3251  0.1844
    9CHTO   H57 3690   6.755   4.082   3.970 -1.1088 -0.6636  1.1435
    9CHTO   O21 3691   6.824   4.256   4.049 -0.0154 -0.0400 -0.8380
    9CHTO   H37 3692   6.795   4.328   4.102 -1.1081 -0.8681 -0.2880
    9CHTO   C27 3693   6.641   4.245   3.863 -0.4780  0.2513  0.1288
    9CHTO   H55 3694   6.609   4.348   3.887 -0.9761  0.2524 -0.5175
    9CHTO    N5 3695   6.731   4.254   3.749  0.2475 -0.0336 -0.5412
    9CHTO   H43 3696   6.837   4.259   3.771 -0.0440  2.1494  0.4180
    9CHTO   H44 3697   6.715   4.156   3.705  2.4711 -1.1689  1.0724
    9CHTO   C25 3698   6.507   4.163   3.840 -0.0385  0.6926  0.8595
    9CHTO   H53 3699   6.517   4.056   3.817  0.1478  0.9893 -0.5106
    9CHTO   O17 3700   6.427   4.162   3.959  0.4301  0.7381  0.7839
    9CHTO   C32 3701   6.486   4.074   4.060  0.4086 -0.0210  0.2624
    9CHTO   H60 3702   6.515   3.978   4.017  0.5261 -0.2339  0.8192
    9CHTO   C36 3703   6.379   4.048   4.166  0.0236 -0.1296  0.0782
    9CHTO   O25 3704   6.261   3.983   4.119  0.5810 -0.0336  0.1121
    9CHTO   H40 3705   6.260   3.893   4.146  1.5017 -0.4101 -1.0554
    9CHTO   O15 3706   6.419   4.226   3.740  0.4690  0.2784 -0.6417
    9CHTO   C19 3707   6.334   4.181   3.626  0.1407  0.4423  0.4491
    9CHTO   H47 3708   6.281   4.268   3.585  0.8428  0.5563 -0.2210
    9CHTO   C20 3709   6.412   4.119   3.506  0.4036  0.2359 -0.2180
    9CHTO   H48 3710   6.459   4.023   3.534  0.4250  0.6390  1.1634
    9CHTO   O19 3711   6.521   4.199   3.461 -0.4960  0.3186 -0.4203
    9CHTO   H35 3712   6.490   4.286   3.441  1.3480  0.9525 -0.6499
    9CHTO   C21 3713   6.314   4.085   3.388  0.3479  0.3524 -1.0610
    9CHTO   H49 3714   6.293   4.176   3.331  1.2700  1.2097 -0.0795
    9CHTO    N4 3715   6.378   3.988   3.288  0.1014  0.5951 -0.2399
    9CHTO   H41 3716   6.394   4.046   3.198  1.8535  0.4382 -0.0550
    9CHTO   H42 3717   6.474   3.951   3.322 -0.4922 -1.0520 -0.3325
    9CHTO   C22 3718   6.178   4.019   3.438 -0.5245 -0.9874 -0.1993
    9CHTO   H50 3719   6.192   3.913   3.462 -2.0815 -1.1232  0.1201
    9CHTO   O14 3720   6.133   4.083   3.551 -0.5795 -0.1289  0.2709
    9CHTO   C23 3721   6.222   4.091   3.664  0.1406 -0.4620  0.1041
    9CHTO   H51 3722   6.255   3.989   3.689 -0.4914 -0.4390  1.0752
    9CHTO   C34 3723   6.141   4.146   3.781 -0.2664 -0.1683 -0.7420
    9CHTO   O23 3724   6.009   4.095   3.820  0.3135 -0.1198  0.6188
    9CHTO   H38 3725   5.945   4.136   3.765 -1.2708 -1.2847  1.5744
    9CHTO   O16 3726   6.084   4.042   3.327  0.5054  0.1291  0.5887
    9CHTO   C24 3727   5.967   3.925   3.334 -0.5959  1.0375 -0.4391
    9CHTO   H52 3728   5.964   3.879   3.433  0.4748  0.0508 -0.8540
    9CHTO   C26 3729   5.991   3.816   3.233  0.1401  0.5054 -0.4085
    9CHTO   H54 3730   6.000   3.861   3.132 -1.6328 -1.4540 -1.5006
    9CHTO   O20 3731   6.114   3.759   3.268  0.2033  0.5118  0.2496
    9CHTO   H36 3732   6.186   3.820   3.271  1.6134 -1.1741  1.9885
    9CHTO   C30 3733   5.868   3.718   3.233  0.2419 -0.2554  0.1422
    9CHTO   H58 3734   5.876   3.656   3.324  0.8691  0.6237  0.6895
    9CHTO    N6 3735   5.871   3.615   3.125 -0.7164  0.3740  0.3380
    9CHTO   H45 3736   5.957   3.552   3.140 -0.8232  0.1036 -0.1770
    9CHTO   H46 3737   5.878   3.663   3.028  2.1311 -0.0706  0.2885
    9CHTO   C33 3738   5.727   3.793   3.232  0.6506  0.4528  0.0345
    9CHTO   H61 3739   5.696   3.820   3.130  1.5136  0.3094 -0.2736
    9CHTO   O18 3740   5.721   3.908   3.318  0.2947  0.2151  0.0443
    9CHTO   C28 3741   5.832   3.999   3.305  0.1894  0.4292  0.3457
    9CHTO   H56 3742   5.827   4.030   3.201  2.4412  0.1277  0.1206
    9CHTO   C35 3743   5.813   4.125   3.393 -0.1396 -0.1769 -0.1593
    9CHTO   O24 3744   5.854   4.099   3.527  0.4471 -0.4164 -0.1835
    9CHTO   H39 3745   5.920   4.155   3.562  0.5021 -0.6915  0.1540
    9CHTO    O9 3746   5.627   3.699   3.270 -0.0730  0.5516  0.4468
    9CHTO   C13 3747   5.495   3.677   3.177  0.1653 -0.4883  0.1848
    9CHTO   H26 3748   5.521   3.708   3.074  0.6424 -1.2152  0.0855
    9CHTO   C11 3749   5.379   3.772   3.239 -0.1111 -0.1079 -0.5021
    9CHTO   H24 3750   5.399   3.875   3.207  0.6557  0.2903  1.2553
    9CHTO    O8 3751   5.386   3.768   3.384 -1.2475 -0.0864 -0.4511
    9CHTO    H3 3752   5.374   3.679   3.411  1.4732 -0.2786  0.2811
    9CHTO    C9 3753   5.245   3.720   3.174 -0.4503  0.0917 -0.0369
    9CHTO   H22 3754   5.261   3.721   3.065 -0.4693 -0.8575 -0.0549
    9CHTO    N2 3755   5.127   3.802   3.200  0.1899  0.0420 -0.2246
    9CHTO   H10 3756   5.036   3.784   3.145 -0.4454 -1.4555  1.2640
    9CHTO   H11 3757   5.155   3.907   3.205 -0.0443  0.0350  1.4974
    9CHTO    C7 3758   5.231   3.569   3.217  0.3729  0.5068 -0.3311
    9CHTO   H20 3759   5.127   3.542   3.192  0.7156 -1.6174  0.4297
    9CHTO    O4 3760   5.332   3.495   3.147  0.6591 -0.2351  0.4822
    9CHTO   C14 3761   5.467   3.522   3.159 -0.4292  0.5576 -0.1208
    9CHTO   H27 3762   5.523   3.491   3.068 -0.5722  0.1906 -0.0850
    9CHTO   C18 3763   5.524   3.442   3.276  0.6507  0.0243  0.1431
    9CHTO   O13 3764   5.501   3.304   3.262  0.7394  0.0782  0.4022
    9CHTO    H7 3765   5.584   3.261   3.261  2.0029  2.4385  0.6049
    9CHTO    O2 3766   5.250   3.541   3.376 -0.1762  0.5011 -0.6332
    9CHTO    C1 3767   5.143   3.477   3.447 -0.1191  0.3231 -0.3623
    9CHTO   H14 3768   5.131   3.381   3.391 -0.7893  0.0672  0.2175
    9CHTO    C2 3769   5.007   3.552   3.459  0.5966 -0.1036 -0.1136
    9CHTO   H15 3770   5.031   3.655   3.487  1.8451 -0.3031 -0.4140
    9CHTO    O6 3771   4.946   3.554   3.331 -0.0962 -0.0587  0.4141
    9CHTO    H1 3772   5.010   3.588   3.272  0.9404  1.1596  2.1921
    9CHTO    C3 3773   4.899   3.489   3.566  0.6793 -0.7806 -0.1691
    9CHTO   H16 3774   4.856   3.397   3.524 -1.2566 -0.3209  0.7168
    9CHTO    N1 3775   4.782   3.582   3.594 -0.3851  0.3493  0.2892
    9CHTO    H8 3776   4.774   3.660   3.520 -0.6836 -0.5786 -0.6496
    9CHTO    H9 3777   4.817   3.641   3.678  0.0034  0.7497 -0.1529
    9CHTO    C4 3778   4.967   3.443   3.697  0.0966  0.7494 -0.3010
    9CHTO   H17 3779   4.985   3.531   3.760  2.8286  0.4875 -0.6430
    9CHTO    O1 3780   5.091   3.385   3.665  0.0792 -0.0927 -0.3685
    9CHTO    C5 3781   5.188   3.457   3.592  0.1539 -0.4220  0.1723
    9CHTO   H18 3782   5.203   3.558   3.630  1.7387  0.3785 -2.4649
    9CHTO   C16 3783   5.321   3.381   3.605 -0.0744  0.1248  0.0993
    9CHTO   O11 3784   5.338   3.360   3.744 -0.0753 -0.1190 -0.4196
    9CHTO    H5 3785   5.287   3.285   3.767  0.8008 -0.4810  0.3700
    9CHTO    O3 3786   4.895   3.344   3.770 -0.1694  0.4903  0.4483
    9CHTO    C6 3787   4.956   3.274   3.885 -0.1315 -0.0448  0.3024
    9CHTO   H19 3788   5.063   3.296   3.889 -0.1950 -0.0223  1.8321
    9CHTO    C8 3789   4.891   3.309   4.023 -0.2376 -0.0223  0.1420
    9CHTO   H21 3790   4.784   3.292   4.017 -0.3750 -0.1437  2.4823
    9CHTO    O7 3791   4.915   3.454   4.045 -0.0268 -0.6516  0.6601
    9CHTO    H2 3792   4.994   3.473   3.999 -0.6460 -0.2683 -0.2643
    9CHTO   C12 3793   4.957   3.218   4.141 -0.3759 -0.2404  0.3497
    9CHTO   H25 3794   5.065   3.242   4.142 -0.1760 -1.0117 -1.2828
    9CHTO    N3 3795   4.907   3.262   4.271 -0.5290 -0.1665 -0.1626
    9CHTO   H12 3796   4.858   3.183   4.326 -1.2448  1.4903  1.6221
    9CHTO   H13 3797   4.857   3.357   4.274  1.4397  0.9359 -1.2060
    9CHTO   C15 3798   4.940   3.067   4.105 -0.0367  0.7345  0.8461
    9CHTO   H28 3799   4.837   3.032   4.107  0.2588 -0.2216 -0.1730
    9CHTO   O10 3800   5.007   2.980   4.200  0.6046  0.3540  0.6075
    9CHTO    H4 3801   4.980   2.892   4.184 -3.3018  1.8222 -1.5194
    9CHTO    O5 3802   4.991   3.039   3.973  0.0754 -0.7208  0.0994
    9CHTO   C10 3803   4.944   3.121   3.869 -0.7119  0.0589 -0.2589
    9CHTO   H23 3804   4.837   3.104   3.859 -1.4412  3.4843  1.0278
    9CHTO   C17 3805   5.026   3.078   3.747 -0.0866  0.0277  0.0767
    9CHTO   O12 3806   5.000   2.942   3.704  0.5414  0.4697  0.2292
    9CHTO    H6 3807   5.005   2.946   3.610 -1.2766 -2.3477 -0.0526
   10CHTO  H203 3808   5.260   5.986   3.236 -0.6196  0.1191 -0.3220
   10CHTO   O82 3809   5.264   5.927   3.309  0.0719  0.0223 -0.4386
   10CHTO  C123 3810   5.143   5.852   3.324  0.0872  0.0132  0.3648
   10CHTO  H227 3811   5.109   5.820   3.225  0.3793  1.8041 -0.3252
   10CHTO   O77 3812   5.177   5.733   3.402 -0.2112  0.2915  0.9123
   10CHTO  C118 3813   5.073   5.645   3.407 -0.0685  0.5081  0.0939
   10CHTO  H222 3814   5.034   5.628   3.306 -0.6469 -1.2370  0.5962
   10CHTO  C125 3815   5.130   5.507   3.465 -0.0818 -0.6548  0.2158
   10CHTO   O84 3816   5.167   5.531   3.601  0.6478 -0.3168 -0.5312
   10CHTO  H205 3817   5.245   5.481   3.618  0.8020 -0.0700 -0.5027
   10CHTO  C114 3818   4.962   5.707   3.496  0.7907  0.1348 -0.2497
   10CHTO  H218 3819   5.003   5.737   3.592  1.7164 -1.4711 -0.1197
   10CHTO  C116 3820   4.903   5.842   3.431 -0.1652  0.1733  0.7560
   10CHTO  H220 3821   4.847   5.822   3.337 -0.4125 -0.7380  1.0967
   10CHTO   O79 3822   4.811   5.904   3.520 -0.0971 -0.2461  0.1377
   10CHTO  H201 3823   4.727   5.863   3.526 -0.2662 -0.1631 -1.3754
   10CHTO  C120 3824   5.025   5.937   3.395 -0.0661  0.9112 -0.3531
   10CHTO  H224 3825   5.064   5.980   3.490  2.3286 -1.5463 -0.1556
   10CHTO   N21 3826   4.980   6.052   3.317 -0.5423 -0.0084 -0.1295
   10CHTO  H211 3827   4.899   6.028   3.250 -0.5328  2.0074 -0.8765
   10CHTO  H212 3828   5.057   6.097   3.256 -0.7892 -1.3209 -1.4447
   10CHTO   O75 3829   4.874   5.597   3.516  0.0074 -0.1946  0.0215
   10CHTO  C112 3830   4.813   5.582   3.681 -0.0623 -0.6025  0.5895
   10CHTO  H216 3831   4.830   5.683   3.723  0.9985  0.3231 -1.9339
   10CHTO   O73 3832   4.892   5.483   3.751  0.0433 -0.1817  0.8618
   10CHTO  C113 3833   4.861   5.466   3.891 -0.3070  0.2077  0.4725
   10CHTO  H217 3834   4.869   5.567   3.936  0.1086  0.7753 -0.8470
   10CHTO  C124 3835   4.961   5.377   3.967 -0.0153  0.1106 -0.8774
   10CHTO   O83 3836   4.946   5.236   3.961  0.3601 -0.4666 -0.0622
   10CHTO  H204 3837   4.972   5.205   3.876  0.5692  0.4600 -0.3368
   10CHTO  C109 3838   4.710   5.409   3.906  0.4061  0.1848 -0.3836
   10CHTO  H213 3839   4.706   5.314   3.851  1.7486 -0.6406  0.9014
   10CHTO  C110 3840   4.612   5.506   3.833  0.0966  0.5702 -0.1661
   10CHTO  H214 3841   4.595   5.594   3.895  2.0401  0.0741  1.1166
   10CHTO   O78 3842   4.476   5.444   3.821  0.1495  1.1100  0.1313
   10CHTO  H200 3843   4.415   5.511   3.798  1.6361  2.5020  0.0941
   10CHTO  C111 3844   4.662   5.536   3.686 -0.1421  0.2068  0.4874
   10CHTO  H215 3845   4.645   5.446   3.625 -4.2026  0.0948  1.6506
   10CHTO   N19 3846   4.578   5.645   3.628 -0.0783  0.2046  0.0070
   10CHTO  H207 3847   4.602   5.665   3.525  1.5802  0.0955  0.3644
   10CHTO  H208 3848   4.583   5.732   3.693  0.8519  0.3677 -0.2785
   10CHTO   O74 3849   4.672   5.402   4.043  0.1124 -0.4967 -0.3809
   10CHTO  C115 3850   4.538   5.300   4.076  0.5207 -0.6210  0.7943
   10CHTO  H219 3851   4.444   5.355   4.066 -0.7712 -2.8706  0.2258
   10CHTO   O76 3852   4.529   5.184   3.972 -0.0146 -0.2606 -0.0716
   10CHTO  C122 3853   4.418   5.096   3.993 -0.0621  0.0735 -0.6896
   10CHTO  H226 3854   4.420   5.024   3.911 -1.8737 -0.6334 -0.1322
   10CHTO  C126 3855   4.280   5.159   3.980 -0.0062 -0.1137  0.3278
   10CHTO   O85 3856   4.248   5.187   3.844 -0.1247  0.0221 -0.3372
   10CHTO  H206 3857   4.179   5.251   3.836  1.4061  1.6849 -0.4562
   10CHTO  C121 3858   4.437   5.030   4.132 -0.2523 -0.2158 -0.2344
   10CHTO  H225 3859   4.346   4.968   4.144 -1.5356  1.1953 -2.2317
   10CHTO   O81 3860   4.552   4.942   4.126 -0.0090  0.2468  0.2164
   10CHTO  H202 3861   4.535   4.867   4.073 -1.3104  0.3413  0.5003
   10CHTO  C119 3862   4.451   5.128   4.254 -0.3510  0.0724 -0.1493
   10CHTO  H223 3863   4.351   5.171   4.259 -1.6186 -2.2856 -3.2502
   10CHTO  C117 3864   4.554   5.248   4.221  0.3141  0.5220 -0.4839
   10CHTO  H221 3865   4.660   5.221   4.230 -0.0364 -0.3974  0.9873
   10CHTO   N20 3866   4.529   5.363   4.314 -0.0734 -0.0735  0.2455
   10CHTO  H209 3867   4.590   5.451   4.295 -0.3158 -0.0494 -0.4365
   10CHTO  H210 3868   4.425   5.391   4.303  0.2804  0.9725 -0.5269
   10CHTO   O80 3869   4.456   5.057   4.388  0.1526  0.2282  0.0327
   10CHTO  C103 3870   4.330   4.984   4.436  0.3997 -0.1165  0.3055
   10CHTO  H190 3871   4.247   5.015   4.372  1.0047 -1.3946 -1.1306
   10CHTO  C101 3872   4.327   4.822   4.447  0.6721  0.3723 -0.6979
   10CHTO  H188 3873   4.414   4.791   4.504 -0.8187 -0.3702  1.2150
   10CHTO   O68 3874   4.344   4.755   4.303  0.2282 -0.8402 -0.2177
   10CHTO  H168 3875   4.333   4.819   4.235 -2.8428 -1.1683 -0.1401
   10CHTO   C99 3876   4.190   4.771   4.510  0.6156  0.9003 -0.7328
   10CHTO  H186 3877   4.111   4.784   4.434  0.3861  0.2695 -0.6022
   10CHTO   N17 3878   4.181   4.621   4.537 -0.3954 -0.1131 -0.0261
   10CHTO  H174 3879   4.270   4.594   4.592 -0.1944 -1.4226 -0.9562
   10CHTO  H175 3880   4.173   4.560   4.448 -0.0417 -1.7644  1.0499
   10CHTO   C97 3881   4.152   4.853   4.634  0.0500 -0.4374 -0.3057
   10CHTO  H184 3882   4.215   4.810   4.714  2.0841  0.3624 -1.4348
   10CHTO   O64 3883   4.175   4.996   4.623  0.1749  0.3960  0.1804
   10CHTO  C104 3884   4.307   5.040   4.575  0.5697  0.2069  0.6627
   10CHTO  H191 3885   4.384   5.003   4.642 -1.0150 -4.7180 -0.0247
   10CHTO  C108 3886   4.305   5.197   4.575 -0.2285 -0.7560 -0.0816
   10CHTO   O71 3887   4.200   5.257   4.499  0.5325  0.1844 -0.3511
   10CHTO  H171 3888   4.220   5.346   4.481  0.5488  0.0904 -0.7920
   10CHTO   O62 3889   4.011   4.841   4.671 -0.6799  0.2919  0.2947
   10CHTO   C91 3890   3.970   4.919   4.785 -0.3965 -0.1050 -0.0510
   10CHTO  H178 3891   4.046   4.985   4.827 -0.2065 -0.1906 -0.2624
   10CHTO   C92 3892   3.932   4.814   4.892  0.1610 -0.0991  0.4354
   10CHTO  H179 3893   3.862   4.742   4.847  0.1549 -0.7041  1.4150
   10CHTO   O66 3894   4.054   4.739   4.937 -0.1294 -0.1342 -0.3608
   10CHTO  H166 3895   4.044   4.682   5.011  2.6490 -0.6682 -0.3611
   10CHTO   C93 3896   3.864   4.872   5.023 -0.3398 -0.0232  0.4101
   10CHTO  H180 3897   3.942   4.915   5.087 -2.0618 -0.5657  2.9549
   10CHTO   N16 3898   3.805   4.763   5.109  0.0686  0.2222 -0.6868
   10CHTO  H172 3899   3.740   4.694   5.056 -1.6537 -0.9174  2.7699
   10CHTO  H173 3900   3.753   4.808   5.192  0.5893  0.1477 -0.3182
   10CHTO   C94 3901   3.752   4.983   4.990  0.2981  0.8485 -0.3044
   10CHTO  H181 3902   3.666   4.936   4.941  2.4585 -1.1835 -2.2734
   10CHTO   O61 3903   3.801   5.070   4.881  0.2376  0.0357  0.1345
   10CHTO   C95 3904   3.845   5.009   4.761  0.5540  0.3569 -0.4884
   10CHTO  H182 3905   3.768   4.947   4.716 -3.2392  2.3207  2.9466
   10CHTO  C106 3906   3.873   5.125   4.655  0.2973 -0.1224 -0.4168
   10CHTO   O69 3907   3.904   5.069   4.526  0.2418  0.1709  0.0013
   10CHTO  H169 3908   3.928   5.131   4.460  1.4441  0.9224  1.0950
   10CHTO   O63 3909   3.705   5.093   5.123  0.0031  0.2431 -0.0885
   10CHTO   C96 3910   3.813   5.198   5.166  1.0832 -0.0010 -0.0152
   10CHTO  H183 3911   3.889   5.202   5.088  0.5489  0.5046 -0.5211
   10CHTO   C98 3912   3.870   5.164   5.306  0.1236  0.3070  0.3696
   10CHTO  H185 3913   3.785   5.154   5.375  1.2085 -0.0030  1.6790
   10CHTO   O67 3914   3.936   5.035   5.307 -0.0833  0.0386  0.3688
   10CHTO  H167 3915   3.954   4.988   5.386  0.3938 -1.1956 -0.4477
   10CHTO  C102 3916   3.958   5.292   5.358 -0.0029  0.2889  0.6340
   10CHTO  H189 3917   4.043   5.300   5.288 -1.9903  3.8062 -1.5272
   10CHTO   N18 3918   4.017   5.281   5.497  0.0489 -0.2200  0.2736
   10CHTO  H176 3919   4.106   5.340   5.507  0.5242 -1.1266  1.5574
   10CHTO  H177 3920   4.036   5.176   5.513  2.3752  0.4652  2.2785
   10CHTO  C105 3921   3.873   5.424   5.346 -0.7143  0.2553  0.4772
   10CHTO  H192 3922   3.793   5.417   5.419 -2.5957 -0.5750 -1.5822
   10CHTO   O65 3923   3.831   5.441   5.212  0.4821  0.3646 -0.3870
   10CHTO  C100 3924   3.737   5.338   5.172  0.2320  0.1738  1.1445
   10CHTO  H187 3925   3.656   5.328   5.246 -0.6917  3.0983  0.5917
   10CHTO  C107 3926   3.664   5.386   5.049  0.1279 -0.4430  0.1672
   10CHTO   O70 3927   3.736   5.372   4.934 -0.7168  0.1690  0.1117
   10CHTO  H170 3928   3.672   5.370   4.865  0.6893 -0.2688 -1.2141
   10CHTO   O57 3929   3.965   5.548   5.381  0.1430  0.0273  0.1477
   10CHTO   C85 3930   3.923   5.681   5.400  0.5708  0.1498  0.1286
   10CHTO  H157 3931   3.812   5.679   5.400  0.5890 -0.7896  0.5064
   10CHTO   C83 3932   3.974   5.766   5.280  0.1532  0.1841  0.5466
   10CHTO  H155 3933   3.922   5.729   5.192  0.1160 -0.6893  0.9344
   10CHTO   O56 3934   4.111   5.756   5.252 -0.1298  0.1200  0.3359
   10CHTO  H135 3935   4.159   5.823   5.297  0.4656 -0.2133  0.2005
   10CHTO   C81 3936   3.927   5.913   5.306  0.1984  0.1090  0.0783
   10CHTO  H153 3937   3.819   5.913   5.320  0.2630 -1.5351  0.6369
   10CHTO   N14 3938   3.958   6.002   5.187 -0.0946 -0.0275  0.2912
   10CHTO  H141 3939   3.978   6.100   5.225 -0.1490  0.3489 -0.6429
   10CHTO  H142 3940   3.864   6.004   5.138 -0.5356  1.2935  1.1693
   10CHTO   C79 3941   3.984   5.960   5.442 -0.6138 -0.0698 -0.6755
   10CHTO  H151 3942   3.929   6.048   5.473  0.4916  0.1574  0.7099
   10CHTO   O52 3943   3.949   5.872   5.555 -0.0972 -0.1024 -0.0746
   10CHTO   C86 3944   3.984   5.735   5.531 -0.0986  0.8066  0.2058
   10CHTO  H158 3945   4.095   5.728   5.526 -0.1973  0.6583 -3.2515
   10CHTO   C90 3946   3.939   5.646   5.644  0.0724 -0.4791 -0.3540
   10CHTO   O60 3947   4.007   5.669   5.766 -0.0370  0.4773  0.1482
   10CHTO  H138 3948   3.985   5.603   5.829  2.1438 -0.9958 -0.5540
   10CHTO   O50 3949   4.129   5.987   5.446 -0.2058 -0.3110 -0.1415
   10CHTO   C73 3950   4.266   5.944   5.470  0.1730 -0.0535 -0.1829
   10CHTO  H145 3951   4.284   5.849   5.417 -0.9586 -1.0597  1.2037
   10CHTO   C74 3952   4.295   5.921   5.616  0.2986 -0.2753 -0.1698
   10CHTO  H146 3953   4.224   5.846   5.654 -0.0779 -0.3068 -0.9386
   10CHTO   O54 3954   4.421   5.842   5.622  0.2778 -0.2219 -0.2323
   10CHTO  H133 3955   4.420   5.779   5.691  0.3358 -0.0278 -0.0517
   10CHTO   C75 3956   4.291   6.060   5.695  0.1377 -0.5659  0.1651
   10CHTO  H147 3957   4.191   6.106   5.691  0.3033 -0.0396  1.6434
   10CHTO   N13 3958   4.317   6.032   5.841  0.0707  0.3424  0.0030
   10CHTO  H139 3959   4.420   6.006   5.862 -0.5975 -1.4802  1.1012
   10CHTO  H140 3960   4.292   6.122   5.895 -0.4214  1.1094 -1.4587
   10CHTO   C76 3961   4.405   6.151   5.628  0.4822  0.1316  0.1336
   10CHTO  H148 3962   4.496   6.094   5.648 -0.0489  0.1040  2.7056
   10CHTO   O49 3963   4.390   6.169   5.493  0.6562 -0.7623 -0.2405
   10CHTO   C77 3964   4.377   6.049   5.415  0.0248  0.3188  0.1001
   10CHTO  H149 3965   4.474   6.000   5.418  1.1647  2.4879 -0.4822
   10CHTO   C88 3966   4.358   6.107   5.273 -0.2913 -0.4473 -0.1164
   10CHTO   O58 3967   4.391   5.991   5.178  0.0429  0.1440  0.8278
   10CHTO  H136 3968   4.388   6.009   5.086  0.3933 -2.5027  0.2726
   10CHTO   O51 3969   4.393   6.301   5.687 -0.3521  0.1079 -0.5310
   10CHTO   C78 3970   4.528   6.386   5.665  0.3048 -0.5040  0.3039
   10CHTO  H150 3971   4.601   6.336   5.598  0.7066  0.7978 -0.2594
   10CHTO   C80 3972   4.604   6.411   5.794 -0.3222 -0.3471 -0.5344
   10CHTO  H152 3973   4.532   6.444   5.871 -1.5001 -0.7693 -1.4413
   10CHTO   O55 3974   4.645   6.282   5.838 -0.0235 -0.2458 -0.2593
   10CHTO  H134 3975   4.710   6.251   5.778 -0.9137 -3.2542  0.2411
   10CHTO   C84 3976   4.729   6.510   5.772  0.6236 -0.5017 -0.0041
   10CHTO  H156 3977   4.784   6.468   5.688 -0.2001 -0.2662 -0.6672
   10CHTO   N15 3978   4.808   6.539   5.895 -0.1983 -0.6015 -0.4079
   10CHTO  H143 3979   4.781   6.454   5.954 -0.8399  0.2638  0.5550
   10CHTO  H144 3980   4.914   6.549   5.884 -0.4329  1.1549 -1.3071
   10CHTO   C87 3981   4.676   6.641   5.702  1.2021 -0.6113 -0.1572
   10CHTO  H159 3982   4.615   6.686   5.781  2.8856 -0.9924  1.3923
   10CHTO   O53 3983   4.588   6.601   5.587 -0.3066 -0.5682  0.4117
   10CHTO   C82 3984   4.481   6.517   5.602  0.3016  0.0169  0.2773
   10CHTO  H154 3985   4.403   6.574   5.651 -0.9609  0.2772 -1.9380
   10CHTO   C89 3986   4.434   6.488   5.459  0.0449 -0.1538  0.6518
   10CHTO   O59 3987   4.305   6.432   5.471 -0.4718  0.2722  0.2475
   10CHTO  H137 3988   4.237   6.485   5.436 -0.3094  0.5346  0.3267
   10CHTO   O45 3989   4.784   6.731   5.644  0.3385  0.2271 -0.1542
   10CHTO   C67 3990   4.748   6.869   5.668 -0.1866  0.6712 -0.2665
   10CHTO  H124 3991   4.643   6.893   5.647 -0.4899 -0.4934 -0.1248
   10CHTO   C65 3992   4.793   6.910   5.820 -0.0078  0.7601  0.3309
   10CHTO  H122 3993   4.742   6.833   5.878  0.7709  1.2617  1.6899
   10CHTO   O44 3994   4.740   7.043   5.852 -0.0476  0.1649 -0.2488
   10CHTO  H102 3995   4.796   7.098   5.904  0.5123  0.6358 -1.3253
   10CHTO   C63 3996   4.950   6.893   5.841  0.4077 -0.1775  0.3247
   10CHTO  H120 3997   4.979   6.795   5.804  0.8553 -0.1639  0.6346
   10CHTO   N11 3998   5.000   6.888   5.981  0.3941 -0.4636  0.1176
   10CHTO  H108 3999   5.102   6.856   5.994  0.5805 -0.3740 -1.0353
   10CHTO  H109 4000   4.970   6.972   6.039 -0.2365  0.2225 -1.1733
   10CHTO   C61 4001   5.023   6.999   5.741  0.8732  1.0179  0.4399
   10CHTO  H118 4002   5.125   6.960   5.727 -0.3737 -1.8384 -1.0689
   10CHTO   O40 4003   4.956   7.009   5.609 -0.2546  0.8522 -0.3220
   10CHTO   C68 4004   4.829   6.954   5.567  0.5099 -0.2784 -0.1429
   10CHTO  H125 4005   4.856   6.887   5.483  2.4527  0.5238 -0.1825
   10CHTO   C72 4006   4.744   7.062   5.504  0.3957  0.1643  0.1783
   10CHTO   O48 4007   4.803   7.120   5.385  0.0123  0.2909 -0.2646
   10CHTO  H105 4008   4.793   7.050   5.323 -0.4020 -0.4010  0.5629
   10CHTO   O38 4009   5.041   7.131   5.796 -0.4386 -0.9445 -0.2972
   10CHTO   C55 4010   5.149   7.214   5.743 -0.3963 -0.5890  0.3511
   10CHTO  H112 4011   5.181   7.186   5.641 -1.2406  1.8215 -0.6253
   10CHTO   C56 4012   5.276   7.212   5.845  0.3784 -0.7100  0.5431
   10CHTO  H113 4013   5.240   7.247   5.943 -0.4015  1.0636 -0.3520
   10CHTO   O42 4014   5.320   7.075   5.865 -0.3584 -0.3736  0.7237
   10CHTO  H100 4015   5.394   7.069   5.922 -0.0794  1.8497  0.6029
   10CHTO   C57 4016   5.388   7.311   5.800 -0.1367  0.6418 -0.0098
   10CHTO  H114 4017   5.436   7.267   5.713  2.4064 -1.1375  2.1704
   10CHTO   N10 4018   5.513   7.341   5.875 -0.4403  0.0736 -0.3817
   10CHTO  H106 4019   5.592   7.372   5.809 -0.2169  0.8086  0.2236
   10CHTO  H107 4020   5.494   7.413   5.953  0.1020 -1.3951  1.1511
   10CHTO   C58 4021   5.320   7.449   5.760 -0.6273 -0.4586  0.5942
   10CHTO  H115 4022   5.275   7.497   5.850 -2.1386 -0.1824 -0.3061
   10CHTO   O37 4023   5.212   7.439   5.664  0.0025 -0.6303 -0.1876
   10CHTO   C59 4024   5.103   7.364   5.723  0.7581 -0.0659  0.7146
   10CHTO  H116 4025   5.073   7.403   5.820  1.0288 -2.5511  1.8498
   10CHTO   C70 4026   4.977   7.364   5.626 -0.4252 -0.2411  0.7032
   10CHTO   O46 4027   5.018   7.343   5.493 -0.0838 -0.5950 -0.1985
   10CHTO  H103 4028   5.083   7.404   5.465 -1.2151  0.2713 -0.9504
   10CHTO   O39 4029   5.427   7.555   5.691  0.4961  0.2044  0.1002
   10CHTO   C60 4030   5.371   7.683   5.681  0.6480 -0.4605  0.1807
   10CHTO  H117 4031   5.264   7.668   5.670  0.6559  0.2301 -0.8613
   10CHTO   C62 4032   5.398   7.776   5.814  0.2732  0.0736 -0.3524
   10CHTO  H119 4033   5.370   7.720   5.905  0.1352 -2.1959 -1.7476
   10CHTO   O43 4034   5.539   7.785   5.844  0.3314 -0.0968  0.2125
   10CHTO  H101 4035   5.576   7.867   5.817 -0.6635  0.7900  1.4346
   10CHTO   C66 4036   5.317   7.913   5.796 -0.0910  0.0762  0.0287
   10CHTO  H123 4037   5.211   7.891   5.784 -0.0404 -0.7003  0.8966
   10CHTO   N12 4038   5.338   8.000   5.918  0.0595  0.3492 -0.3136
   10CHTO  H110 4039   5.442   7.992   5.944  0.7544  3.1405 -2.0177
   10CHTO  H111 4040   5.276   7.966   6.000 -1.6184  1.9794 -0.8647
   10CHTO   C69 4041   5.370   7.986   5.668  0.2589  0.1705  0.6915
   10CHTO  H126 4042   5.477   8.004   5.691  0.7810 -0.9832 -0.7886
   10CHTO   O41 4043   5.359   7.903   5.534 -0.0045 -0.0881 -0.5467
   10CHTO   C64 4044   5.422   7.754   5.550  0.1268  0.1123  0.2372
   10CHTO  H121 4045   5.533   7.750   5.553  0.0739 -0.3175  2.3942
   10CHTO   C71 4046   5.388   7.668   5.424 -0.5528  0.1643 -0.3156
   10CHTO   O47 4047   5.463   7.708   5.308  0.9059  0.1654 -0.3842
   10CHTO  H104 4048   5.555   7.692   5.323  1.1717  1.8253 -0.0967
   10CHTO   O34 4049   5.295   8.115   5.651  0.7077  0.1930  0.3299
   10CHTO   C49 4050   5.320   8.240   5.575  0.4421 -0.1929 -0.1429
   10CHTO   H91 4051   5.393   8.224   5.495 -0.3105 -0.7926 -0.7263
   10CHTO   C47 4052   5.368   8.346   5.671 -0.3634  0.0843  0.1260
   10CHTO   H89 4053   5.384   8.437   5.610  0.8852 -0.8832 -1.0051
   10CHTO   O33 4054   5.495   8.315   5.725 -0.0357  0.3349 -0.1798
   10CHTO   H70 4055   5.539   8.387   5.766 -0.2913  0.1613  0.4059
   10CHTO   C45 4056   5.251   8.377   5.773 -0.0303  0.3223 -0.5147
   10CHTO   H87 4057   5.208   8.285   5.815  0.4872  0.0262 -0.6330
   10CHTO    N8 4058   5.297   8.470   5.888 -0.0817 -0.0789 -0.0601
   10CHTO   H75 4059   5.332   8.411   5.971  3.3869  1.7944 -0.1114
   10CHTO   H76 4060   5.233   8.553   5.915  2.0807  1.6013  0.0531
   10CHTO   C43 4061   5.120   8.435   5.695 -0.2493  0.3521  0.5676
   10CHTO   H85 4062   5.037   8.459   5.761 -1.2000 -0.6797 -0.2312
   10CHTO   O29 4063   5.079   8.341   5.591  0.3384 -0.0681 -0.4505
   10CHTO   C50 4064   5.179   8.276   5.506 -0.0817  0.3119  0.1681
   10CHTO   H92 4065   5.140   8.176   5.482 -3.1119  1.1920  1.1778
   10CHTO   C54 4066   5.193   8.355   5.375 -0.1272 -0.5874 -0.3826
   10CHTO   O36 4067   5.071   8.343   5.297 -0.3158  0.3139 -0.1470
   10CHTO   H72 4068   5.096   8.365   5.209  1.5131 -0.5698  0.1308
   10CHTO   O27 4069   5.147   8.559   5.628  0.5455 -0.0956 -0.2183
   10CHTO   C37 4070   5.117   8.665   5.539 -0.2031 -0.2381  0.5321
   10CHTO   H79 4071   5.176   8.634   5.451 -1.1042 -2.2227  0.6004
   10CHTO   C38 4072   4.964   8.679   5.495 -0.4895 -0.3827 -0.2001
   10CHTO   H80 4073   4.906   8.716   5.581  0.7574 -0.3674  0.6498
   10CHTO   O31 4074   4.917   8.548   5.447  0.5540 -0.3291 -0.7154
   10CHTO   H68 4075   4.842   8.554   5.391 -0.2686 -1.3241  0.2650
   10CHTO   C39 4076   4.956   8.792   5.381 -0.0212 -0.1769  0.4928
   10CHTO   H81 4077   5.014   8.742   5.303 -0.4715 -1.4813  0.9797
   10CHTO    N7 4078   4.819   8.823   5.326  0.0012 -0.1159  0.7464
   10CHTO   H73 4079   4.747   8.749   5.357  0.8905 -1.4090 -0.1865
   10CHTO   H74 4080   4.787   8.915   5.372  2.3619  1.3999 -0.5249
   10CHTO   C40 4081   5.024   8.930   5.424 -0.6922 -0.6723  0.0463
   10CHTO   H82 4082   4.959   8.974   5.500 -1.2450  0.2984 -0.9775
   10CHTO   O26 4083   5.156   8.906   5.472  0.5978  0.4405  0.6819
   10CHTO   C41 4084   5.173   8.804   5.576 -0.5829 -0.0865 -0.0730
   10CHTO   H83 4085   5.130   8.836   5.672 -0.6909 -0.4591  0.0037
   10CHTO   C52 4086   5.324   8.809   5.583 -0.1537 -0.0357  0.0422
   10CHTO   O35 4087   5.382   8.946   5.629  0.1239  0.0866  0.2344
   10CHTO   H71 4088   5.366   9.012   5.564  0.8695 -0.5312 -0.5932
   10CHTO   O28 4089   5.062   9.018   5.314 -0.4095  0.3816  0.2739
   10CHTO   C42 4090   5.043   9.162   5.297  0.2689  0.6804  0.2118
   10CHTO   H84 4091   4.969   9.191   5.371  0.8792  1.1783  0.6327
   10CHTO   C44 4092   4.978   9.195   5.161  0.0663  0.2040 -0.1493
   10CHTO   H86 4093   5.035   9.141   5.086 -1.4743  0.5049 -1.5686
   10CHTO   O32 4094   4.843   9.143   5.154  0.2628  0.2212  0.2031
   10CHTO   H69 4095   4.850   9.050   5.152  0.4050  0.2609 -2.0134
   10CHTO   C48 4096   4.984   9.357   5.127 -0.4033 -0.4346  0.6015
   10CHTO   H90 4097   4.913   9.417   5.184 -2.6147  0.4757 -2.9643
   10CHTO    N9 4098   4.953   9.388   4.982  0.5563 -0.1656 -0.0835
   10CHTO   H77 4099   5.005   9.473   4.942 -1.2667  1.2956  0.5928
   10CHTO   H78 4100   4.847   9.409   4.989  0.7143  0.2037  1.6112
   10CHTO   C51 4101   5.125   9.419   5.168  0.3478  0.2695  0.0316
   10CHTO   H93 4102   5.196   9.369   5.102  1.1998 -0.5684  1.5513
   10CHTO   O30 4103   5.154   9.387   5.302 -0.0341  0.0891 -0.4688
   10CHTO   C46 4104   5.175   9.246   5.329  0.6117  0.0400  0.3648
   10CHTO   H88 4105   5.252   9.206   5.262  1.1447  2.5634 -0.5700
   10CHTO   C53 4106   5.216   9.212   5.476  0.0664 -0.3108  0.3527
   10CHTO   O72 4107   5.343   9.266   5.512 -0.0700  0.5867 -0.2694
   10CHTO  H199 4108   5.385   9.195   5.556 -1.0768 -0.2205 -0.6053
   10CHTO   O22 4109   5.138   9.564   5.170  0.2492  0.0216 -0.7827
   10CHTO   C31 4110   5.253   9.644   5.129  0.1982  0.1621  0.7939
   10CHTO   H59 4111   5.230   9.747   5.164 -0.2498  0.3802 -0.1045
   10CHTO   C29 4112   5.384   9.605   5.204 -0.2702 -0.0038 -0.0040
   10CHTO   H57 4113   5.399   9.497   5.187  1.5353  0.3816 -1.0735
   10CHTO   O21 4114   5.365   9.612   5.346  0.3601 -0.0277 -0.3225
   10CHTO   H37 4115   5.435   9.577   5.398  1.5620  0.5264 -1.5567
   10CHTO   C27 4116   5.516   9.686   5.147 -0.0924 -0.1858 -0.3771
   10CHTO   H55 4117   5.505   9.791   5.180 -3.2272 -0.3458 -0.7404
   10CHTO    N5 4118   5.645   9.632   5.198  0.1685 -0.1857  0.2164
   10CHTO   H43 4119   5.668   9.541   5.144 -0.5092 -0.4762  0.4067
   10CHTO   H44 4120   5.634   9.604   5.301  0.6168  1.5359  0.7359
   10CHTO   C25 4121   5.522   9.692   4.996  0.2910  0.0922  0.2363
   10CHTO   H53 4122   5.544   9.592   4.956  1.2281  0.3870 -0.0015
   10CHTO   O17 4123   5.384   9.736   4.943 -0.0431  0.0045 -0.4766
   10CHTO   C32 4124   5.266   9.656   4.973  0.4726 -0.4478  0.4098
   10CHTO   H60 4125   5.280   9.554   4.935 -2.5283 -0.5976 -0.4566
   10CHTO   C36 4126   5.130   9.712   4.909 -0.6148 -0.0249  0.2090
   10CHTO   O25 4127   5.143   9.716   4.767 -0.2031  0.1442  0.4223
   10CHTO   H40 4128   5.145   9.806   4.738  0.7886 -0.2306 -0.6882
   10CHTO   O15 4129   5.629   9.795   4.945  0.0634 -0.0745  0.7674
   10CHTO   C19 4130   5.696   9.902   4.876  0.1958 -0.3782  1.2478
   10CHTO   H47 4131   5.706   9.875   4.770  0.1483 -0.3447  1.2349
   10CHTO   C20 4132   5.623  10.040   4.880  0.5587  0.2080  0.5755
   10CHTO   H48 4133   5.597  10.071   4.983  0.6889 -0.7162  0.8874
   10CHTO   O19 4134   5.500  10.035   4.808  0.3943  0.0980  0.0328
   10CHTO   H35 4135   5.509  10.046   4.715 -0.2677  0.4190  0.0043
   10CHTO   C21 4136   5.707  10.161   4.813  0.0812 -0.3095  0.0270
   10CHTO   H49 4137   5.734  10.134   4.711  3.5510 -2.0294  1.3036
   10CHTO    N4 4138   5.642  10.298   4.821 -0.3363  0.9736 -0.1236
   10CHTO   H41 4139   5.542  10.293   4.864 -0.5605  0.6883 -0.6769
   10CHTO   H42 4140   5.645  10.356   4.730  1.8101  0.5523 -0.3306
   10CHTO   C22 4141   5.849  10.155   4.877  0.2403 -0.3007  0.6945
   10CHTO   H50 4142   5.837  10.173   4.984 -0.3589  0.5917  0.4833
   10CHTO   O14 4143   5.911  10.027   4.872 -0.0684 -0.1712  0.4014
   10CHTO   C23 4144   5.838   9.920   4.931  0.1783  0.4560  0.3984
   10CHTO   H51 4145   5.839   9.952   5.036 -0.6576  1.8770 -0.0118
   10CHTO   C34 4146   5.921   9.790   4.923 -0.2769  0.0234  0.6684
   10CHTO   O23 4147   6.047   9.797   4.981 -0.2624 -0.9439  0.2235
   10CHTO   H38 4148   6.041   9.856   5.054 -0.4298 -0.7117  0.0226
   10CHTO   O16 4149   5.929  10.253   4.806  0.3863 -0.2402 -0.2613
   10CHTO   C24 4150   6.082  10.285   4.881  0.3925  0.2797  0.3532
   10CHTO   H52 4151   6.128  10.196   4.923 -0.6674 -0.0531  0.8123
   10CHTO   C26 4152   6.072  10.394   4.989 -0.5290  0.3169 -0.7144
   10CHTO   H54 4153   6.021  10.486   4.953  0.4089  0.5388 -1.4906
   10CHTO   O20 4154   5.985  10.351   5.096  0.1646  0.4077  0.4568
   10CHTO   H36 4155   5.970  10.421   5.157 -1.0569  1.3477 -0.8916
   10CHTO   C30 4156   6.213  10.452   5.036  0.3043  0.4780  0.3569
   10CHTO   H58 4157   6.277  10.379   5.088  0.9082  0.2084 -0.7519
   10CHTO    N6 4158   6.198  10.563   5.130 -0.0441 -0.5161 -0.1609
   10CHTO   H45 4159   6.131  10.546   5.214  0.1640  0.3119  0.1689
   10CHTO   H46 4160   6.291  10.605   5.164 -0.2746  0.3984 -0.6519
   10CHTO   C33 4161   6.301  10.490   4.911  0.1289  0.6164  0.1300
   10CHTO   H61 4162   6.270  10.581   4.857 -1.1782  1.1057  1.6974
   10CHTO   O18 4163   6.297  10.374   4.819 -0.2226  0.3750 -0.5581
   10CHTO   C28 4164   6.174  10.331   4.763  0.5439 -0.5107  0.1425
   10CHTO   H56 4165   6.125  10.413   4.710 -0.5665 -0.8512  0.6190
   10CHTO   C35 4166   6.204  10.222   4.656 -0.0435  1.0186 -0.4812
   10CHTO   O24 4167   6.299  10.261   4.556 -0.4041  0.3260  0.1629
   10CHTO   H39 4168   6.283  10.331   4.496 -0.4032 -1.1744 -1.6413
   10CHTO    O9 4169   6.440  10.519   4.958 -0.2295 -0.5625  0.2904
   10CHTO   C13 4170   6.526  10.607   4.861  0.2138  1.0835 -0.4276
   10CHTO   H26 4171   6.455  10.642   4.783  1.4084 -0.9841 -2.5007
   10CHTO   C11 4172   6.640  10.509   4.803 -0.4024 -0.2403 -0.3436
   10CHTO   H24 4173   6.583  10.430   4.752 -1.2043 -0.1241  0.3583
   10CHTO    O8 4174   6.725  10.448   4.900  0.1154  0.1688 -0.1210
   10CHTO    H3 4175   6.812  10.482   4.905  0.0725  0.7042 -2.4864
   10CHTO    C9 4176   6.713  10.596   4.694  0.3915  0.2587  0.2968
   10CHTO   H22 4177   6.634  10.645   4.637 -0.3516 -1.0563  0.1694
   10CHTO    N2 4178   6.785  10.515   4.587 -0.0421 -0.5959  0.4833
   10CHTO   H10 4179   6.840  10.557   4.504  1.0123 -1.9262  0.4838
   10CHTO   H11 4180   6.847  10.437   4.628 -0.2335 -2.3887 -2.4681
   10CHTO    C7 4181   6.792  10.705   4.774  0.4279 -0.0136 -0.0569
   10CHTO   H20 4182   6.780  10.795   4.710 -1.6255 -0.4049 -0.2789
   10CHTO    O4 4183   6.736  10.734   4.904 -0.1562 -0.7415  0.4676
   10CHTO   C14 4184   6.600  10.730   4.937 -0.7967 -0.6450  0.4013
   10CHTO   H27 4185   6.564  10.828   4.897  0.7039  0.1758  1.0441
   10CHTO   C18 4186   6.584  10.734   5.092  0.3659 -0.5453 -0.0109
   10CHTO   O13 4187   6.640  10.627   5.158  0.6420  0.1545 -0.0661
   10CHTO    H7 4188   6.734  10.623   5.162  0.5687 -1.9059 -0.0582
   10CHTO    O2 4189   6.961  10.659   4.786  0.0746 -0.8927  0.7398
   10CHTO    C1 4190   7.029  10.727   4.896 -0.2146  0.6970  0.3780
   10CHTO   H14 4191   6.965  10.731   4.987  0.0426  0.3803  0.5711
   10CHTO    C2 4192   7.071  10.879   4.856 -0.1734 -0.4352  0.4191
   10CHTO   H15 4193   7.100  10.876   4.750  0.0372 -0.3937  0.4757
   10CHTO    O6 4194   6.952  10.966   4.851  0.4754  0.3081 -0.4684
   10CHTO    H1 4195   6.888  10.930   4.793  0.8803 -2.2567  0.6416
   10CHTO    C3 4196   7.184  10.932   4.965 -0.3078  0.0557 -0.0583
   10CHTO   H16 4197   7.131  10.953   5.059  0.9134  2.1054  0.1982
   10CHTO    N1 4198   7.248  11.065   4.924  0.2659  0.4995 -0.2709
   10CHTO    H8 4199   7.213  11.144   4.988 -2.3246  0.2420 -1.3043
   10CHTO    H9 4200   7.353  11.053   4.945  0.3304  1.5728  0.0534
   10CHTO    C4 4201   7.291  10.825   5.011  0.4207  0.3449 -0.0303
   10CHTO   H17 4202   7.360  10.805   4.929 -0.8899  3.6946 -2.0671
   10CHTO    O1 4203   7.219  10.710   5.046 -0.3064 -0.2673 -0.1885
   10CHTO    C5 4204   7.158  10.642   4.937 -0.1487 -0.2727 -0.2365
   10CHTO   H18 4205   7.230  10.633   4.855  0.5876  1.1774  0.2378
   10CHTO   C16 4206   7.116  10.502   4.986 -0.2261  0.6161 -0.0220
   10CHTO   O11 4207   7.021  10.499   5.093  0.1392 -0.4053  0.0316
   10CHTO    H5 4208   6.987  10.585   5.104 -0.2862 -0.7247  1.3643
   10CHTO    O3 4209   7.352  10.861   5.135 -0.0155 -0.5545  0.0194
   10CHTO    C6 4210   7.498  10.822   5.132 -0.0408  0.2080  0.9477
   10CHTO   H19 4211   7.528  10.763   5.045 -1.0007 -0.8990  1.3417
   10CHTO    C8 4212   7.585  10.948   5.126  0.0753  0.4614  0.1345
   10CHTO   H21 4213   7.552  11.014   5.206 -0.6824 -0.9448  0.9917
   10CHTO    O7 4214   7.576  11.022   5.002  0.1049 -0.2703 -0.5861
   10CHTO    H2 4215   7.510  11.089   5.004  1.5021  1.1025  1.6640
   10CHTO   C12 4216   7.744  10.924   5.167 -0.3046  0.0821 -0.2765
   10CHTO   H25 4217   7.800  10.884   5.081  2.5010  0.2606  1.4036
   10CHTO    N3 4218   7.820  11.050   5.192  0.4605 -0.7801  0.1368
   10CHTO   H12 4219   7.826  11.069   5.298  0.4505  0.7700 -0.1285
   10CHTO   H13 4220   7.917  11.043   5.145 -0.5006 -2.0278 -1.7093
   10CHTO   C15 4221   7.754  10.828   5.287 -0.2276  0.0625  0.2863
   10CHTO   H28 4222   7.712  10.874   5.376 -1.7456  0.5757 -0.6765
   10CHTO   O10 4223   7.904  10.770   5.305  0.0649 -0.4191  0.3431
   10CHTO    H4 4224   7.918  10.722   5.384  0.5012  0.5672  0.8805
   10CHTO    O5 4225   7.680  10.704   5.269  0.4938  0.2196 -0.1647
   10CHTO   C10 4226   7.539  10.740   5.259 -0.2926 -0.8187  0.0057
   10CHTO   H23 4227   7.505  10.792   5.349  0.6791 -1.3497  0.6874
   10CHTO   C17 4228   7.466  10.603   5.256 -0.6587 -0.2084 -0.6646
   10CHTO   O12 4229   7.489  10.516   5.372  0.2628  0.2266  0.0666
   10CHTO    H6 4230   7.578  10.488   5.385  0.4316  1.5464  1.7652
   11CHTO  H203 4231   7.386   4.753   3.978 -0.1431  0.4929 -0.0174
   11CHTO   O82 4232   7.321   4.751   4.045  0.2768  0.2505  0.3794
   11CHTO  C123 4233   7.186   4.735   4.003 -0.3341 -0.8498  0.1578
   11CHTO  H227 4234   7.177   4.667   3.917 -1.1888  0.1520 -0.5549
   11CHTO   O77 4235   7.130   4.663   4.125 -0.0493  0.2919 -0.0501
   11CHTO  C118 4236   6.993   4.634   4.105 -0.0973  0.2708 -0.2411
   11CHTO  H222 4237   6.987   4.588   4.006  0.9368  0.1286 -0.2487
   11CHTO  C125 4238   6.945   4.530   4.215  0.3633 -0.0691  0.3036
   11CHTO   O84 4239   7.035   4.415   4.244  1.1799  0.1179 -0.1413
   11CHTO  H205 4240   7.007   4.385   4.329 -0.5458  2.6502  0.2400
   11CHTO  C114 4241   6.918   4.768   4.102 -0.6161  0.1223 -0.5732
   11CHTO  H218 4242   6.938   4.824   4.193 -0.8012 -0.6870 -0.0221
   11CHTO  C116 4243   6.957   4.850   3.981  0.0470  0.0619 -0.9202
   11CHTO  H220 4244   6.930   4.798   3.887 -0.0272  0.5053 -1.1481
   11CHTO   O79 4245   6.886   4.971   3.986  0.0651 -0.0746 -0.6303
   11CHTO  H201 4246   6.943   5.037   3.949 -0.5478 -0.0937 -1.6036
   11CHTO  C120 4247   7.115   4.873   3.978 -0.1790 -0.1224  0.1340
   11CHTO  H224 4248   7.144   4.951   4.052  1.8969 -0.2400 -0.5290
   11CHTO   N21 4249   7.159   4.932   3.852 -0.3276 -0.4515  0.4863
   11CHTO  H211 4250   7.262   4.904   3.833 -1.0458 -1.9377 -1.5207
   11CHTO  H212 4251   7.100   4.891   3.771 -0.0413 -1.0336  0.5641
   11CHTO   O75 4252   6.776   4.744   4.098 -0.2223 -0.2029 -0.4663
   11CHTO  C112 4253   6.690   4.760   4.252 -0.2826  0.0989  0.5660
   11CHTO  H216 4254   6.766   4.756   4.330  1.1552  1.7020 -0.7221
   11CHTO   O73 4255   6.595   4.657   4.263 -0.5203  0.2705  0.5983
   11CHTO  C113 4256   6.519   4.656   4.384 -0.3341  0.3363 -0.0756
   11CHTO  H217 4257   6.597   4.646   4.463 -1.2469  1.4676  0.9954
   11CHTO  C124 4258   6.428   4.533   4.387  0.4249  0.4337 -0.8180
   11CHTO   O83 4259   6.498   4.409   4.404  0.0708  0.7203  0.1554
   11CHTO  H204 4260   6.580   4.403   4.360  0.7037  1.6414  1.2050
   11CHTO  C109 4261   6.436   4.785   4.383 -0.6141  0.2213 -0.0457
   11CHTO  H213 4262   6.387   4.787   4.285 -3.1395 -0.4718  1.1711
   11CHTO  C110 4263   6.533   4.906   4.387 -0.5393  0.0703 -0.4565
   11CHTO  H214 4264   6.595   4.897   4.476  0.1970  0.5033 -0.9246
   11CHTO   O78 4265   6.455   5.027   4.393  0.5715  0.4582 -0.1802
   11CHTO  H200 4266   6.426   5.050   4.306 -1.9093 -2.2998 -0.1307
   11CHTO  C111 4267   6.612   4.894   4.254 -0.3966 -0.5834 -0.6094
   11CHTO  H215 4268   6.540   4.900   4.172 -2.2743  3.5009  1.1820
   11CHTO   N19 4269   6.704   5.013   4.235 -0.3347 -0.4425  0.8717
   11CHTO  H207 4270   6.783   4.985   4.167 -0.7208  0.1306  0.1886
   11CHTO  H208 4271   6.649   5.091   4.184 -0.7542 -1.9070 -0.9580
   11CHTO   O74 4272   6.346   4.796   4.498  0.4168 -0.2906 -0.1483
   11CHTO  C115 4273   6.189   4.847   4.462  0.5322 -0.3555 -0.3523
   11CHTO  H219 4274   6.173   4.865   4.356 -0.0079 -0.6242 -0.3197
   11CHTO   O76 4275   6.092   4.748   4.495  0.6008 -0.2693  0.0085
   11CHTO  C122 4276   6.107   4.701   4.632 -0.7369  0.5105  0.1280
   11CHTO  H226 4277   6.204   4.653   4.648 -1.8876 -1.4079  1.6375
   11CHTO  C126 4278   5.997   4.590   4.659  0.7773 -0.1673  0.2115
   11CHTO   O85 4279   6.016   4.463   4.597 -0.1851  0.2760 -0.2553
   11CHTO  H206 4280   6.089   4.421   4.639 -1.5553  0.0246  1.9451
   11CHTO  C121 4281   6.096   4.823   4.730 -0.6283  0.1516 -0.0984
   11CHTO  H225 4282   6.022   4.800   4.809 -1.4747  3.0764  0.0228
   11CHTO   O81 4283   6.219   4.832   4.805 -0.5631  0.2982  0.0674
   11CHTO  H202 4284   6.208   4.890   4.878 -0.5292  0.1790  0.1673
   11CHTO  C119 4285   6.063   4.956   4.668 -0.7019  0.2770  0.0103
   11CHTO  H223 4286   5.963   4.940   4.626  0.3703 -0.4412 -2.3340
   11CHTO  C117 4287   6.156   4.984   4.542  0.3705  0.8333  0.0828
   11CHTO  H221 4288   6.255   5.026   4.556  2.3052 -3.4326  0.1075
   11CHTO   N20 4289   6.082   5.087   4.448 -0.2928  0.4857  0.1451
   11CHTO  H209 4290   5.980   5.101   4.480 -0.2044 -0.5200  0.8926
   11CHTO  H210 4291   6.093   5.066   4.343  2.1842  1.3769  0.1836
   11CHTO   O80 4292   6.038   5.066   4.768 -0.5318 -0.5845 -0.4024
   11CHTO  C103 4293   6.164   5.113   4.887 -0.2385  0.0112 -0.1243
   11CHTO  H190 4294   6.201   5.025   4.939  1.8557  0.6252 -0.5406
   11CHTO  C101 4295   6.280   5.194   4.824 -0.2947 -1.1726  0.1669
   11CHTO  H188 4296   6.240   5.268   4.755 -0.1741 -1.4273 -0.1778
   11CHTO   O68 4297   6.387   5.112   4.738  0.7765 -0.8085  0.3581
   11CHTO  H168 4298   6.401   5.161   4.659  2.1482 -3.0675 -0.8546
   11CHTO   C99 4299   6.355   5.280   4.939  0.7592  0.8393 -0.5702
   11CHTO  H186 4300   6.407   5.214   5.012  1.9167  1.7006 -0.5991
   11CHTO   N17 4301   6.454   5.372   4.891 -0.3628  0.0644 -0.4831
   11CHTO  H174 4302   6.451   5.387   4.784 -2.6120 -1.4510 -0.6569
   11CHTO  H175 4303   6.452   5.464   4.946  0.2374 -0.8323  1.0806
   11CHTO   C97 4304   6.249   5.357   5.024  0.0432 -0.3751 -0.5499
   11CHTO  H184 4305   6.191   5.428   4.964  1.9159  0.0648 -1.8872
   11CHTO   O64 4306   6.166   5.252   5.083  0.5310 -0.1324 -0.2455
   11CHTO  C104 4307   6.076   5.194   4.994  0.2938  0.2474 -0.1805
   11CHTO  H191 4308   6.011   5.266   4.944 -1.7084 -0.4359  1.3867
   11CHTO  C108 4309   5.984   5.094   5.069  0.3678  0.1337  0.1039
   11CHTO   O71 4310   5.901   5.178   5.155 -0.0375  0.4061 -0.5312
   11CHTO  H171 4311   5.898   5.143   5.242 -1.2716 -1.5019 -1.3145
   11CHTO   O62 4312   6.295   5.411   5.147 -0.0416 -0.2766  0.5105
   11CHTO   C91 4313   6.242   5.535   5.193  0.0629 -0.2056  0.3750
   11CHTO  H178 4314   6.155   5.559   5.133  0.0394 -2.8511 -0.7377
   11CHTO   C92 4315   6.357   5.638   5.162 -1.0050 -0.0325 -0.2323
   11CHTO  H179 4316   6.452   5.586   5.180 -0.2838  2.0169  2.2926
   11CHTO   O66 4317   6.363   5.669   5.021 -0.1807  0.0112 -0.4363
   11CHTO  H166 4318   6.408   5.596   4.983 -1.7960 -0.5273 -1.3877
   11CHTO   C93 4319   6.355   5.777   5.239 -0.0094 -0.2114 -0.0840
   11CHTO  H180 4320   6.278   5.836   5.187 -0.4403  0.1836  0.9928
   11CHTO   N16 4321   6.485   5.860   5.226 -0.0708  0.5082 -0.1201
   11CHTO  H172 4322   6.492   5.905   5.128  1.2252 -1.0557 -0.7616
   11CHTO  H173 4323   6.566   5.800   5.263 -2.0385  0.0059  3.5537
   11CHTO   C94 4324   6.311   5.754   5.391 -1.1855  0.0288  0.3304
   11CHTO  H181 4325   6.381   5.692   5.447 -0.1039 -0.1528 -1.1813
   11CHTO   O61 4326   6.188   5.680   5.388  0.8757  0.0413  0.4546
   11CHTO   C95 4327   6.203   5.542   5.344 -0.6126  0.1343 -0.2438
   11CHTO  H182 4328   6.282   5.500   5.406 -1.3734 -1.3954 -0.2924
   11CHTO  C106 4329   6.069   5.461   5.363  0.3859  0.0312  0.3180
   11CHTO   O69 4330   6.041   5.426   5.500 -0.6001 -0.5492 -0.3947
   11CHTO  H169 4331   5.961   5.465   5.531  0.4905  0.9892  0.5556
   11CHTO   O63 4332   6.279   5.893   5.466  0.0071 -0.6879  0.4650
   11CHTO   C96 4333   6.283   5.873   5.622 -0.4575 -0.6237 -0.1891
   11CHTO  H183 4334   6.287   5.766   5.640  0.8126 -0.6350 -0.4748
   11CHTO   C98 4335   6.154   5.929   5.691  0.6975 -0.0743  0.2427
   11CHTO  H185 4336   6.132   6.021   5.635 -0.5391 -0.0558  0.7352
   11CHTO   O67 4337   6.046   5.839   5.663  0.0708  0.3307 -0.0204
   11CHTO  H167 4338   5.962   5.877   5.683  0.4672  1.4383 -0.3691
   11CHTO  C102 4339   6.157   5.954   5.850 -0.1990 -0.0597  0.9664
   11CHTO  H189 4340   6.155   5.851   5.890 -0.0301 -0.8379 -0.9408
   11CHTO   N18 4341   6.041   6.016   5.911  0.4452  0.0458 -0.1416
   11CHTO  H176 4342   5.981   6.079   5.847 -1.4738 -1.0443  0.5392
   11CHTO  H177 4343   6.060   6.052   6.011 -2.7405 -1.0381  0.8972
   11CHTO  C105 4344   6.291   6.024   5.872  0.3455 -0.6578 -0.1316
   11CHTO  H192 4345   6.290   6.110   5.806 -0.4677  0.2183  1.0104
   11CHTO   O65 4346   6.402   5.943   5.831 -0.0922 -0.8638 -0.4562
   11CHTO  C100 4347   6.415   5.939   5.688  0.3294 -0.3740  0.0798
   11CHTO  H187 4348   6.425   6.040   5.645 -1.4396 -0.7172 -1.2380
   11CHTO  C107 4349   6.545   5.861   5.659 -0.1117  0.8020 -0.0614
   11CHTO   O70 4350   6.664   5.913   5.729  0.4293  0.5063 -0.4463
   11CHTO  H170 4351   6.630   5.953   5.807 -0.9379 -3.8488  1.3871
   11CHTO   O57 4352   6.317   6.057   6.032 -0.3926 -0.0205 -0.0096
   11CHTO   C85 4353   6.394   6.163   6.091 -0.3807  0.1119 -0.1582
   11CHTO  H157 4354   6.387   6.140   6.200  1.9442 -3.7784 -0.7261
   11CHTO   C83 4355   6.319   6.299   6.083  0.4133  0.1080 -0.7123
   11CHTO  H155 4356   6.226   6.284   6.138  1.4237 -2.3952  0.3840
   11CHTO   O56 4357   6.297   6.321   5.941 -0.1661  0.4092 -0.5881
   11CHTO  H135 4358   6.292   6.413   5.924  0.6409  0.6227  0.2941
   11CHTO   C81 4359   6.411   6.402   6.149  0.6033  0.0027  0.0828
   11CHTO  H153 4360   6.431   6.371   6.251  1.5501  1.7570  0.4594
   11CHTO   N14 4361   6.354   6.539   6.153  0.5372 -0.5548 -0.2650
   11CHTO  H141 4362   6.343   6.577   6.054 -2.2449 -1.5204 -0.3756
   11CHTO  H142 4363   6.419   6.602   6.210 -0.7927  0.9470 -0.3972
   11CHTO   C79 4364   6.550   6.411   6.072  0.5045 -0.0785  0.7944
   11CHTO  H151 4365   6.608   6.494   6.111 -0.0795  0.6303  0.1715
   11CHTO   O52 4366   6.623   6.285   6.087  0.4004  0.2693 -0.7105
   11CHTO   C86 4367   6.538   6.172   6.040 -0.6150  0.9581  0.5363
   11CHTO  H158 4368   6.533   6.181   5.929  0.1544  2.9196  0.6402
   11CHTO   C90 4369   6.615   6.042   6.077 -0.0589 -0.8522 -0.1567
   11CHTO   O60 4370   6.748   6.039   6.031  0.2988  0.2000  0.5166
   11CHTO  H138 4371   6.794   6.117   6.056  1.6699 -0.3043 -0.3829
   11CHTO   O50 4372   6.546   6.434   5.924  0.7737  0.4478 -0.1522
   11CHTO   C73 4373   6.568   6.527   5.810  0.0183 -0.8205 -0.6677
   11CHTO  H145 4374   6.552   6.633   5.833 -1.2914 -1.2921  0.6787
   11CHTO   C74 4375   6.478   6.487   5.691  0.1096  0.3730  0.1300
   11CHTO  H146 4376   6.376   6.494   5.731  0.1860  1.6129  0.1198
   11CHTO   O54 4377   6.482   6.592   5.593  0.1381  0.1633  0.2097
   11CHTO  H133 4378   6.571   6.610   5.571 -0.1161  0.8873 -0.2279
   11CHTO   C75 4379   6.512   6.342   5.634 -0.0515 -0.9218  0.3406
   11CHTO  H147 4380   6.482   6.267   5.709 -1.2821 -1.1216 -0.3405
   11CHTO   N13 4381   6.436   6.310   5.508  0.3444 -0.4042  0.4209
   11CHTO  H139 4382   6.357   6.380   5.487  0.2010 -0.2053  1.5906
   11CHTO  H140 4383   6.496   6.284   5.422 -0.0298  2.5964 -0.8073
   11CHTO   C76 4384   6.668   6.324   5.600 -0.2384  0.0131 -0.7096
   11CHTO  H148 4385   6.689   6.381   5.509 -2.2534 -0.9487 -1.8028
   11CHTO   O49 4386   6.747   6.380   5.712  0.6013 -0.3617  0.1091
   11CHTO   C77 4387   6.716   6.512   5.766  0.4782  0.9207  0.4586
   11CHTO  H149 4388   6.740   6.588   5.692  0.9827  1.1833  0.8837
   11CHTO   C88 4389   6.827   6.539   5.876  0.2105  0.4376 -0.7185
   11CHTO   O58 4390   6.957   6.565   5.814  0.1739  0.0649  0.2691
   11CHTO  H136 4391   7.029   6.556   5.873  2.4230 -1.7078 -2.6098
   11CHTO   O51 4392   6.711   6.168   5.590 -0.3426  0.0253  0.3934
   11CHTO   C78 4393   6.866   6.114   5.542 -0.0590 -0.2185 -0.1218
   11CHTO  H150 4394   6.931   6.195   5.503  1.0973 -0.8176  0.5179
   11CHTO   C80 4395   6.851   6.008   5.435  0.3037  0.3803  0.1934
   11CHTO  H152 4396   6.781   5.931   5.472 -0.9790  1.5434  0.2628
   11CHTO   O55 4397   6.804   6.073   5.313 -0.0772 -0.6452  0.6386
   11CHTO  H134 4398   6.713   6.050   5.304 -0.4421  0.6695  0.8828
   11CHTO   C84 4399   6.987   5.928   5.399  0.2567 -0.5327 -0.1575
   11CHTO  H156 4400   7.051   6.004   5.353  1.0952 -1.5273 -0.6350
   11CHTO   N15 4401   6.970   5.814   5.299  0.0871 -0.2792  0.0841
   11CHTO  H143 4402   7.020   5.828   5.206  0.3093  1.7949  0.4812
   11CHTO  H144 4403   6.866   5.800   5.283 -0.2361  1.3986  0.6332
   11CHTO   C87 4404   7.055   5.890   5.535  0.3086  0.2731  0.8523
   11CHTO  H159 4405   6.993   5.824   5.595 -0.4439 -1.6886 -1.9593
   11CHTO   O53 4406   7.072   6.011   5.609  0.4191  0.2182  0.1597
   11CHTO   C82 4407   6.948   6.060   5.659 -0.0151 -0.1610 -0.1960
   11CHTO  H154 4408   6.894   5.980   5.709 -0.4549  0.0971 -0.2541
   11CHTO   C89 4409   6.974   6.169   5.767  0.0150  0.2007 -0.5941
   11CHTO   O59 4410   7.014   6.108   5.889 -0.1417 -0.0056 -0.4242
   11CHTO  H137 4411   7.087   6.051   5.877 -1.2270 -1.3075 -1.0126
   11CHTO   O45 4412   7.206   5.808   5.537 -0.5747 -0.3193  0.1466
   11CHTO   C67 4413   7.307   5.847   5.445  0.0845  0.5719  0.4744
   11CHTO  H124 4414   7.260   5.883   5.354 -0.3887 -0.1069  0.4422
   11CHTO   C65 4415   7.410   5.956   5.494 -0.2736 -0.8007  0.4664
   11CHTO  H122 4416   7.394   5.977   5.600 -1.1438 -1.2845  0.4345
   11CHTO   O44 4417   7.371   6.074   5.416  0.4953  0.6300 -0.5928
   11CHTO  H102 4418   7.442   6.135   5.418  0.9174  0.0973  0.9722
   11CHTO   C63 4419   7.565   5.913   5.487 -0.8691  0.1626 -0.1302
   11CHTO  H120 4420   7.580   5.838   5.565 -0.3919  0.6220  0.2192
   11CHTO   N11 4421   7.661   6.020   5.536  0.2108 -0.6376  0.0408
   11CHTO  H108 4422   7.760   6.018   5.496  0.5691  2.3040  0.6612
   11CHTO  H109 4423   7.633   6.123   5.530 -2.2459 -1.1998  1.2939
   11CHTO   C61 4424   7.592   5.849   5.342 -0.4514  0.4867  0.7577
   11CHTO  H118 4425   7.693   5.805   5.342 -0.3374  0.7553  0.1999
   11CHTO   O40 4426   7.496   5.744   5.304 -0.0788  0.2089 -0.3631
   11CHTO   C68 4427   7.392   5.710   5.398 -0.1189  0.7070  0.6852
   11CHTO  H125 4428   7.431   5.662   5.491 -1.6619  0.8621  1.4349
   11CHTO   C72 4429   7.304   5.597   5.337  0.1879  0.1985 -0.2582
   11CHTO   O48 4430   7.244   5.624   5.208  0.1648  0.3412 -0.1800
   11CHTO  H105 4431   7.211   5.544   5.172 -0.4740  0.8748 -0.7768
   11CHTO   O38 4432   7.583   5.949   5.239  0.6538  0.2606 -0.4244
   11CHTO   C55 4433   7.612   5.913   5.099  0.7349  0.0292  0.0050
   11CHTO  H112 4434   7.620   5.804   5.088  1.6408 -0.0234  1.1164
   11CHTO   C56 4435   7.741   5.985   5.057 -0.3143 -0.1001  0.9209
   11CHTO  H113 4436   7.730   6.087   5.097  1.7388  0.5230 -0.0150
   11CHTO   O42 4437   7.850   5.932   5.138 -0.6720  0.3646 -0.0878
   11CHTO  H100 4438   7.895   6.007   5.172 -1.7951  1.6937 -1.4369
   11CHTO   C57 4439   7.768   5.970   4.904  0.0609 -0.2054 -0.6939
   11CHTO  H114 4440   7.795   5.866   4.886 -0.5694 -0.8517  1.8070
   11CHTO   N10 4441   7.883   6.051   4.857 -0.1503 -0.0938  0.1353
   11CHTO  H106 4442   7.846   6.151   4.837  0.8146  0.7062  2.1712
   11CHTO  H107 4443   7.942   6.018   4.773 -0.2626  1.0572 -0.4051
   11CHTO   C58 4444   7.636   5.999   4.819 -0.6523 -0.0612 -0.1106
   11CHTO  H115 4445   7.619   6.109   4.816  0.4673  0.1736  1.2136
   11CHTO   O37 4446   7.535   5.922   4.877 -0.4453  0.0726 -0.4412
   11CHTO   C59 4447   7.498   5.958   5.006 -0.6643 -0.0403  0.3935
   11CHTO  H116 4448   7.483   6.067   5.007 -1.7198 -0.1468 -1.2059
   11CHTO   C70 4449   7.366   5.893   5.035  0.2655 -0.3010 -1.1171
   11CHTO   O46 4450   7.254   5.952   4.969  0.3007  0.2278 -1.1577
   11CHTO  H103 4451   7.187   5.890   4.947  0.2926  0.0938 -0.7621
   11CHTO   O39 4452   7.662   5.954   4.677  0.3296  0.3018  0.7889
   11CHTO   C60 4453   7.554   5.979   4.583  0.8051 -0.6583  0.1427
   11CHTO  H117 4454   7.460   5.973   4.637 -0.3543  0.6029 -1.6551
   11CHTO   C62 4455   7.559   6.123   4.519  0.2738  0.4938  0.1513
   11CHTO  H119 4456   7.568   6.193   4.605  2.2690 -1.0333  1.2176
   11CHTO   O43 4457   7.686   6.134   4.445 -0.8343 -0.2029  0.3828
   11CHTO  H101 4458   7.707   6.224   4.432 -2.5748 -0.0800 -1.7545
   11CHTO   C66 4459   7.427   6.156   4.432  0.1273  0.9739 -0.8316
   11CHTO  H123 4460   7.340   6.156   4.498 -0.9933 -2.6701 -2.2271
   11CHTO   N12 4461   7.436   6.294   4.378  0.4104  0.0169 -0.0981
   11CHTO  H110 4462   7.341   6.346   4.377  0.4644  0.2496  2.9378
   11CHTO  H111 4463   7.506   6.343   4.443  0.2821 -0.6982  0.5915
   11CHTO   C69 4464   7.407   6.049   4.325 -0.5061  0.0533 -0.0874
   11CHTO  H126 4465   7.493   6.052   4.254 -0.6309  2.1898 -0.1969
   11CHTO   O41 4466   7.414   5.907   4.381 -0.6121 -0.0990  0.2859
   11CHTO   C64 4467   7.549   5.880   4.467  0.5414 -0.2681 -0.5429
   11CHTO  H121 4468   7.643   5.884   4.407  0.5903  1.1289 -0.3893
   11CHTO   C71 4469   7.548   5.740   4.521 -0.0075 -0.0694  0.2476
   11CHTO   O47 4470   7.578   5.648   4.410  0.1788 -0.0435 -0.4742
   11CHTO  H104 4471   7.592   5.560   4.439  1.2076  0.4985  0.6908
   11CHTO   O34 4472   7.273   6.075   4.242  0.0705  0.1457  0.5580
   11CHTO   C49 4473   7.231   5.980   4.145  0.7774 -0.0857  0.2071
   11CHTO   H91 4474   7.312   5.959   4.075  0.3778  1.3135 -0.7028
   11CHTO   C47 4475   7.120   6.055   4.064  0.0524  0.5428  0.1219
   11CHTO   H89 4476   7.091   5.988   3.981  1.5096  1.9564 -1.5784
   11CHTO   O33 4477   7.179   6.167   3.999  0.2586 -0.7277  0.5372
   11CHTO   H70 4478   7.216   6.223   4.065  0.3378 -1.4552  1.1103
   11CHTO   C45 4479   6.989   6.086   4.168 -0.0971  0.1275  0.4940
   11CHTO   H87 4480   7.015   6.165   4.240  0.1505 -0.6088  1.2221
   11CHTO    N8 4481   6.884   6.137   4.081  0.7200  1.0099 -0.0885
   11CHTO   H75 4482   6.784   6.108   4.111  1.4024  0.1550  1.4207
   11CHTO   H76 4483   6.892   6.244   4.069  1.6799  0.7799 -1.6410
   11CHTO   C43 4484   6.966   5.966   4.272  0.3095  0.0112 -0.4877
   11CHTO   H85 4485   7.003   5.998   4.369 -0.8013 -0.0589 -0.0233
   11CHTO   O29 4486   7.023   5.844   4.231 -0.6320  0.0103  0.1165
   11CHTO   C50 4487   7.158   5.842   4.190  0.1192  0.4165  0.0139
   11CHTO   H92 4488   7.213   5.803   4.276 -0.8131 -2.9466 -0.8124
   11CHTO   C54 4489   7.171   5.727   4.094  0.1865  0.4214 -0.2809
   11CHTO   O36 4490   7.060   5.709   4.003  0.0342 -0.3950  0.3511
   11CHTO   H72 4491   6.988   5.672   4.051 -0.8619 -1.7795 -1.9929
   11CHTO   O27 4492   6.825   5.943   4.297 -0.5552 -0.2335 -0.0655
   11CHTO   C37 4493   6.759   5.860   4.396  1.1383  0.3439  0.1267
   11CHTO   H79 4494   6.829   5.789   4.442  0.6739  1.6553  2.9451
   11CHTO   C38 4495   6.703   5.943   4.507 -0.2741 -0.1095  0.1510
   11CHTO   H80 4496   6.633   6.016   4.465 -1.3842 -1.3827 -0.2448
   11CHTO   O31 4497   6.812   6.017   4.570  0.3058 -0.2296 -0.0788
   11CHTO   H68 4498   6.770   6.086   4.618  1.4716  1.1938 -1.0755
   11CHTO   C39 4499   6.618   5.858   4.614 -0.6535  0.3854  0.2288
   11CHTO   H81 4500   6.682   5.789   4.668  1.4040  1.3843 -0.8237
   11CHTO    N7 4501   6.564   5.946   4.720 -0.4282 -0.7530  0.8344
   11CHTO   H73 4502   6.463   5.931   4.755  0.1062 -2.7725  1.5782
   11CHTO   H74 4503   6.590   6.048   4.698  1.2100 -1.3830 -0.3030
   11CHTO   C40 4504   6.512   5.775   4.534  0.6909  0.4757  0.0471
   11CHTO   H82 4505   6.446   5.854   4.498  0.2251  0.2014  0.3065
   11CHTO   O26 4506   6.571   5.705   4.425  0.1228 -0.1903 -0.2521
   11CHTO   C41 4507   6.638   5.782   4.327  0.4604  0.4480 -0.3933
   11CHTO   H83 4508   6.565   5.843   4.270 -1.4515 -0.4771  1.0004
   11CHTO   C52 4509   6.678   5.682   4.219  0.1024 -0.2218  0.3455
   11CHTO   O35 4510   6.777   5.736   4.110 -0.1544  0.3830 -0.9697
   11CHTO   H71 4511   6.734   5.812   4.076 -2.8081 -0.2754  0.7181
   11CHTO   O28 4512   6.450   5.671   4.611  0.2007 -0.2039  0.1868
   11CHTO   C42 4513   6.312   5.640   4.576  0.3504 -0.5902 -0.3249
   11CHTO   H84 4514   6.283   5.712   4.499  1.5517 -0.4596 -0.6564
   11CHTO   C44 4515   6.226   5.680   4.697 -0.3520 -1.4321  0.0354
   11CHTO   H86 4516   6.252   5.624   4.788 -0.6940  0.2102  1.1693
   11CHTO   O32 4517   6.245   5.823   4.712  0.4746 -0.2253  0.6102
   11CHTO   H69 4518   6.211   5.874   4.641  3.2283  0.4563 -0.3173
   11CHTO   C48 4519   6.074   5.646   4.670  0.1337 -0.0287 -0.1345
   11CHTO   H90 4520   6.042   5.693   4.577  1.6152 -1.4539 -1.3837
   11CHTO    N9 4521   5.996   5.689   4.791 -1.1118 -0.1208 -0.3547
   11CHTO   H77 4522   6.034   5.778   4.840 -0.5245  0.1461 -1.2820
   11CHTO   H78 4523   5.992   5.616   4.870  2.2353  1.6949  1.6046
   11CHTO   C51 4524   6.057   5.493   4.644 -0.1671  0.3098  0.5841
   11CHTO   H93 4525   6.084   5.439   4.736 -0.8282 -0.3695  0.3821
   11CHTO   O30 4526   6.135   5.451   4.531 -0.4894  0.3809 -0.9428
   11CHTO   C46 4527   6.283   5.495   4.529  0.1663  0.6564  0.0383
   11CHTO   H88 4528   6.335   5.430   4.599 -1.1325  0.9322  1.2824
   11CHTO   C53 4529   6.327   5.468   4.389  0.0961  0.8312  0.5966
   11CHTO   O72 4530   6.352   5.332   4.374  0.2303 -0.3772  0.6979
   11CHTO  H199 4531   6.424   5.290   4.417  0.3423  1.1472  2.0320
   11CHTO   O22 4532   5.919   5.462   4.612  0.0187 -0.2211 -0.0466
   11CHTO   C31 4533   5.843   5.346   4.648 -0.0404  0.0362 -0.6307
   11CHTO   H59 4534   5.913   5.260   4.659 -0.7952 -0.6836 -1.3961
   11CHTO   C29 4535   5.767   5.362   4.783 -0.3015  0.3861  0.0835
   11CHTO   H57 4536   5.676   5.419   4.760  0.3752  1.4554  0.0271
   11CHTO   O21 4537   5.858   5.421   4.880 -0.1593 -0.6517 -0.1656
   11CHTO   H37 4538   5.873   5.513   4.875 -0.1814 -0.5500  1.6414
   11CHTO   C27 4539   5.726   5.218   4.828 -0.5571 -0.1495  0.5049
   11CHTO   H55 4540   5.818   5.163   4.849  1.0376  3.0535  2.2529
   11CHTO    N5 4541   5.640   5.218   4.948 -0.2117  0.3234 -0.6342
   11CHTO   H43 4542   5.625   5.119   4.988 -0.6730  0.1493 -1.2265
   11CHTO   H44 4543   5.542   5.253   4.920 -1.0253 -0.5662  0.9979
   11CHTO   C25 4544   5.639   5.145   4.719  0.7748 -0.0549  0.2025
   11CHTO   H53 4545   5.532   5.166   4.726  0.8448  1.3099 -2.3128
   11CHTO   O17 4546   5.678   5.173   4.578  0.0409 -0.7862 -0.1116
   11CHTO   C32 4547   5.738   5.304   4.539  0.4930  0.2854  0.5463
   11CHTO   H60 4548   5.667   5.386   4.532  0.5557  0.3309  0.4283
   11CHTO   C36 4549   5.780   5.300   4.389 -0.0545  0.5745 -0.7502
   11CHTO   O25 4550   5.671   5.267   4.306  0.1714 -0.3023 -0.0421
   11CHTO   H40 4551   5.636   5.183   4.328 -0.1671  0.0524  0.7988
   11CHTO   O15 4552   5.639   4.983   4.743 -0.6751 -0.3448  0.2888
   11CHTO   C19 4553   5.593   4.843   4.741 -0.9162 -0.1734  0.4350
   11CHTO   H47 4554   5.675   4.787   4.789 -1.1959  0.0721  1.2169
   11CHTO   C20 4555   5.469   4.811   4.837 -1.4171 -0.2687 -0.3282
   11CHTO   H48 4556   5.381   4.874   4.815 -2.2612 -1.4284 -0.2870
   11CHTO   O19 4557   5.518   4.844   4.965  0.3366  0.4148 -0.4258
   11CHTO   H35 4558   5.574   4.779   5.001  0.5015 -0.7392 -2.6823
   11CHTO   C21 4559   5.424   4.661   4.827 -0.1438 -0.0002  0.0154
   11CHTO   H49 4560   5.501   4.600   4.875 -1.6286 -1.8084  0.1793
   11CHTO    N4 4561   5.297   4.645   4.910 -0.0940  0.1530 -0.2390
   11CHTO   H41 4562   5.251   4.547   4.903 -1.1614  0.6424 -0.0465
   11CHTO   H42 4563   5.219   4.717   4.890  0.4263  0.5414 -0.8860
   11CHTO   C22 4564   5.406   4.627   4.673 -0.8324 -0.2517  0.1922
   11CHTO   H50 4565   5.337   4.696   4.627  2.4681  3.4720  0.5519
   11CHTO   O14 4566   5.536   4.647   4.613  0.6480 -0.1186  0.3309
   11CHTO   C23 4567   5.569   4.789   4.595  0.0112  0.5565  0.1704
   11CHTO   H51 4568   5.484   4.838   4.545 -0.3810 -1.7489 -1.5156
   11CHTO   C34 4569   5.690   4.803   4.507 -0.0492 -0.5681 -0.3614
   11CHTO   O23 4570   5.684   4.919   4.419  0.3852  0.6176 -0.1012
   11CHTO   H38 4571   5.763   4.970   4.421 -1.4595  3.6391 -0.2220
   11CHTO   O16 4572   5.381   4.488   4.656 -0.1856  0.2238  0.7143
   11CHTO   C24 4573   5.337   4.459   4.503 -0.5096  0.5583 -0.2677
   11CHTO   H52 4574   5.379   4.533   4.435 -0.5961  0.7610 -0.1015
   11CHTO   C26 4575   5.185   4.454   4.484  0.8642  0.8220 -0.3849
   11CHTO   H54 4576   5.144   4.390   4.565  1.3580 -0.0671 -0.8291
   11CHTO   O20 4577   5.144   4.585   4.511  0.1148 -0.2889  0.2650
   11CHTO   H36 4578   5.098   4.628   4.442 -1.2673 -1.6477  0.2995
   11CHTO   C30 4579   5.140   4.412   4.336  0.2064 -1.2013  0.0418
   11CHTO   H58 4580   5.173   4.493   4.270  0.5347 -0.1752  1.4437
   11CHTO    N6 4581   4.996   4.394   4.322  0.2793  0.5004 -0.3933
   11CHTO   H45 4582   4.944   4.478   4.365  0.0776 -1.3672  3.1743
   11CHTO   H46 4583   4.950   4.305   4.363 -0.8169  1.8177  1.3024
   11CHTO   C33 4584   5.225   4.292   4.287  0.4447  0.8409  0.3794
   11CHTO   H61 4585   5.187   4.198   4.330 -1.7201  1.9869  1.0493
   11CHTO   O18 4586   5.363   4.299   4.324 -0.7663  0.0419 -0.5026
   11CHTO   C28 4587   5.396   4.319   4.464 -0.5967  0.4459  0.6220
   11CHTO   H56 4588   5.357   4.239   4.526 -0.2231  0.5908  1.0486
   11CHTO   C35 4589   5.554   4.313   4.493 -0.0295 -0.2864 -0.0833
   11CHTO   O24 4590   5.619   4.438   4.451  0.0597 -0.0236  0.0486
   11CHTO   H39 4591   5.551   4.498   4.430  0.7121  1.1764  1.2588
   11CHTO    O9 4592   5.216   4.278   4.147 -0.0952 -0.2663 -0.1798
   11CHTO   C13 4593   5.297   4.391   4.055  0.2688  0.3319 -0.8249
   11CHTO   H26 4594   5.309   4.486   4.111 -0.3137 -0.4526  0.6559
   11CHTO   C11 4595   5.221   4.414   3.919 -0.7139 -0.1620  1.4074
   11CHTO   H24 4596   5.117   4.438   3.946 -1.5314 -0.5694 -1.3056
   11CHTO    O8 4597   5.210   4.288   3.853  0.1428  0.5969 -0.1663
   11CHTO    H3 4598   5.172   4.301   3.769 -0.6333 -0.2583  0.0469
   11CHTO    C9 4599   5.289   4.525   3.836  0.5950 -1.0668  0.7270
   11CHTO   H22 4600   5.257   4.616   3.888 -1.6592 -1.8211  0.7337
   11CHTO    N2 4601   5.235   4.542   3.697 -0.2795  0.4685  0.1916
   11CHTO   H10 4602   5.151   4.607   3.679  0.1530  0.1435 -3.3532
   11CHTO   H11 4603   5.235   4.447   3.645  0.5071  0.1188  0.8056
   11CHTO    C7 4604   5.449   4.525   3.845  0.3201 -0.0125  0.1783
   11CHTO   H20 4605   5.471   4.602   3.921 -2.0531 -0.0648  0.9585
   11CHTO    O4 4606   5.490   4.394   3.890 -0.5091 -0.3979  0.1987
   11CHTO   C14 4607   5.445   4.358   4.021  0.2268  0.6458 -0.2046
   11CHTO   H27 4608   5.498   4.415   4.100 -1.6273 -0.6637  2.0350
   11CHTO   C18 4609   5.472   4.207   4.059 -0.4240 -0.2506  0.6180
   11CHTO   O13 4610   5.387   4.112   3.993  0.1405 -0.1243  0.2746
   11CHTO    H7 4611   5.389   4.129   3.900 -1.5202 -0.9959  0.0789
   11CHTO    O2 4612   5.537   4.553   3.706  0.4128 -0.6342 -0.0726
   11CHTO    C1 4613   5.657   4.631   3.722 -0.0269 -0.4192 -0.0487
   11CHTO   H14 4614   5.705   4.611   3.820 -0.5131  0.3447  0.3494
   11CHTO    C2 4615   5.636   4.783   3.707  0.6927 -0.4007  0.1870
   11CHTO   H15 4616   5.586   4.798   3.610  0.5733 -1.3302  0.0983
   11CHTO    O6 4617   5.552   4.836   3.812  0.2185  0.1373  0.3858
   11CHTO    H1 4618   5.460   4.828   3.793  0.5061 -1.5224 -0.3664
   11CHTO    C3 4619   5.781   4.859   3.714 -0.5130  0.5571  0.1382
   11CHTO   H16 4620   5.825   4.852   3.814 -0.3611 -1.7051 -0.0705
   11CHTO    N1 4621   5.771   5.007   3.692 -0.1873 -0.0594  0.6757
   11CHTO    H8 4622   5.775   5.054   3.790 -0.3577 -1.5559  1.4224
   11CHTO    H9 4623   5.854   5.039   3.631 -2.0846  2.2664 -0.7546
   11CHTO    C4 4624   5.880   4.788   3.617 -0.1088  0.1139  0.0053
   11CHTO   H17 4625   5.855   4.812   3.514 -1.5405  0.0179  0.3145
   11CHTO    O1 4626   5.886   4.644   3.637  0.3323 -0.0504  0.1304
   11CHTO    C5 4627   5.759   4.574   3.626 -0.1757 -0.2505  0.5617
   11CHTO   H18 4628   5.719   4.595   3.527  0.5863 -0.8362  0.1227
   11CHTO   C16 4629   5.774   4.415   3.640 -0.4950  0.4777  0.5662
   11CHTO   O11 4630   5.839   4.379   3.764  0.0108  0.1079 -0.0725
   11CHTO    H5 4631   5.782   4.328   3.818  0.1350  0.7485  0.6794
   11CHTO    O3 4632   6.011   4.822   3.650  0.5722 -0.5063 -0.6426
   11CHTO    C6 4633   6.103   4.826   3.540  0.3170 -0.1658 -0.0934
   11CHTO   H19 4634   6.066   4.766   3.457 -0.0551  0.8225 -0.6531
   11CHTO    C8 4635   6.127   4.975   3.486  0.8366  0.3228 -0.7716
   11CHTO   H21 4636   6.164   5.034   3.570  0.0855  0.8464 -0.8040
   11CHTO    O7 4637   6.002   5.021   3.438  0.6248  0.5067 -0.9085
   11CHTO    H2 4638   5.925   5.003   3.489  1.4042 -3.0877 -0.8760
   11CHTO   C12 4639   6.235   4.986   3.380 -0.0588  0.5838  0.0796
   11CHTO   H25 4640   6.198   4.928   3.294  2.1913 -0.0090 -0.5231
   11CHTO    N3 4641   6.268   5.129   3.340  0.0303 -0.3010 -0.2908
   11CHTO   H12 4642   6.374   5.146   3.338 -0.0903  1.0098  2.5024
   11CHTO   H13 4643   6.213   5.143   3.248 -2.8061  1.8053  1.6495
   11CHTO   C15 4644   6.358   4.907   3.438  0.0411  0.4668  0.1761
   11CHTO   H28 4645   6.396   4.966   3.521 -0.5289 -0.5942  1.2216
   11CHTO   O10 4646   6.467   4.885   3.330  0.5982 -0.1275 -0.0818
   11CHTO    H4 4647   6.444   4.823   3.263  1.4956  0.0306 -0.5420
   11CHTO    O5 4648   6.339   4.771   3.479  0.2709  0.1979  0.2965
   11CHTO   C10 4649   6.235   4.760   3.579  0.1491  0.4019  0.3232
   11CHTO   H23 4650   6.282   4.806   3.666  1.5293 -1.4139  0.5680
   11CHTO   C17 4651   6.212   4.614   3.615  0.0155 -0.0341  0.1311
   11CHTO   O12 4652   6.339   4.554   3.654 -0.4135  0.2206 -0.7984
   11CHTO    H6 4653   6.382   4.523   3.576  0.8914 -1.0627  0.4053
   12CHTO  H203 4654   5.103   1.880   0.422  0.2466  1.1485 -0.7920
   12CHTO   O82 4655   5.176   1.859   0.367  0.0642 -0.0756 -0.5642
   12CHTO  C123 4656   5.143   1.745   0.288 -0.1431  0.2076 -0.0260
   12CHTO  H227 4657   5.033   1.737   0.280 -0.1072 -1.6530  1.1960
   12CHTO   O77 4658   5.193   1.761   0.157  0.0903 -0.5729  0.3170
   12CHTO  C118 4659   5.139   1.676   0.054  0.1962  0.5537 -0.0609
   12CHTO  H222 4660   5.032   1.699   0.062 -0.4110 -2.2037  0.3927
   12CHTO  C125 4661   5.197   1.721  -0.077 -0.0450  0.0689 -0.0573
   12CHTO   O84 4662   5.144   1.846  -0.118 -0.3244  0.0163  0.2289
   12CHTO  H205 4663   5.052   1.829  -0.127 -0.3963  0.4869  0.0289
   12CHTO  C114 4664   5.159   1.526   0.085 -0.3297  0.1052 -0.0802
   12CHTO  H218 4665   5.263   1.499   0.067  0.1544  0.9284  1.4013
   12CHTO  C116 4666   5.134   1.496   0.239  0.4357  0.0505  0.2413
   12CHTO  H220 4667   5.029   1.500   0.273  0.6916  0.3699  1.0092
   12CHTO   O79 4668   5.175   1.356   0.267  0.1223 -0.0998  0.3579
   12CHTO  H201 4669   5.252   1.334   0.220 -0.1551  0.8136 -0.5341
   12CHTO  C120 4670   5.202   1.606   0.334  0.0985 -0.7126  0.0149
   12CHTO  H224 4671   5.312   1.605   0.318 -0.2118 -0.9614 -2.2662
   12CHTO   N21 4672   5.187   1.580   0.477 -0.2993  0.0169  0.3336
   12CHTO  H211 4673   5.097   1.630   0.510  0.7823  2.9036 -0.9505
   12CHTO  H212 4674   5.267   1.625   0.533  1.3029 -1.2106 -0.9403
   12CHTO   O75 4675   5.069   1.454  -0.004 -0.5364  0.5095  0.5866
   12CHTO  C112 4676   5.104   1.325  -0.071  0.2607 -0.5771  0.5586
   12CHTO  H216 4677   5.032   1.318  -0.154 -0.7386  1.0587  1.2731
   12CHTO   O73 4678   5.091   1.221   0.024 -0.2360 -0.3426 -0.5943
   12CHTO  C113 4679   5.105   1.087  -0.036  0.2701  0.4683 -0.1254
   12CHTO  H217 4680   5.027   1.066  -0.112  1.0309  0.4852 -0.9277
   12CHTO  C124 4681   5.078   0.984   0.072  0.4115  0.1125 -0.2592
   12CHTO   O83 4682   5.160   0.996   0.189  1.3531 -0.1152  0.3139
   12CHTO  H204 4683   5.239   0.946   0.180  0.1085 -1.8705 -1.3772
   12CHTO  C109 4684   5.242   1.057  -0.096  0.0056  0.6660 -0.0482
   12CHTO  H213 4685   5.312   1.051  -0.011 -1.4257  0.4542  1.1565
   12CHTO  C110 4686   5.292   1.176  -0.194  0.3390  0.1403  0.3565
   12CHTO  H214 4687   5.243   1.164  -0.290 -0.8663  3.2456  0.5238
   12CHTO   O78 4688   5.432   1.169  -0.208  0.3994  0.1859  0.5480
   12CHTO  H200 4689   5.464   1.199  -0.291  0.1965 -1.0857 -0.0034
   12CHTO  C111 4690   5.254   1.318  -0.135 -0.6286 -0.0462  0.3984
   12CHTO  H215 4691   5.327   1.341  -0.057 -0.9499 -0.1153  0.7210
   12CHTO   N19 4692   5.270   1.423  -0.241  0.6667 -0.3202  0.0836
   12CHTO  H207 4693   5.176   1.461  -0.278  2.5336  1.2225 -3.2815
   12CHTO  H208 4694   5.338   1.501  -0.211  1.0662 -1.0748  1.1807
   12CHTO   O74 4695   5.237   0.932  -0.162  0.0998 -0.4355  0.1972
   12CHTO  C115 4696   5.395   0.850  -0.187 -1.3360  0.0896  0.4343
   12CHTO  H219 4697   5.471   0.919  -0.224 -1.4092  0.8503  1.6522
   12CHTO   O76 4698   5.457   0.794  -0.048 -0.4238 -0.0941 -0.5659
   12CHTO  C122 4699   5.370   0.702   0.019 -0.3833 -0.2647  0.0132
   12CHTO  H226 4700   5.299   0.768   0.069 -0.0216  1.7830 -2.0802
   12CHTO  C126 4701   5.465   0.639   0.137  0.4989 -0.8375 -0.2314
   12CHTO   O85 4702   5.409   0.537   0.209 -0.1135 -0.1720  0.1700
   12CHTO  H206 4703   5.325   0.570   0.236  0.0798 -0.2530  0.8715
   12CHTO  C121 4704   5.292   0.597  -0.075  0.1701 -0.1924  0.2692
   12CHTO  H225 4705   5.281   0.499  -0.023 -1.9286 -1.3273 -2.2005
   12CHTO   O81 4706   5.158   0.640  -0.095 -0.2199  0.4182  0.1401
   12CHTO  H202 4707   5.111   0.655  -0.015 -0.1827  3.1862 -0.3187
   12CHTO  C119 4708   5.360   0.578  -0.211 -0.2391  0.0843  0.1592
   12CHTO  H223 4709   5.461   0.556  -0.179 -0.6122 -0.0301  1.2721
   12CHTO  C117 4710   5.361   0.727  -0.282  0.6004 -0.0629  0.3954
   12CHTO  H221 4711   5.266   0.750  -0.331  0.6443  0.3191  0.4880
   12CHTO   N20 4712   5.469   0.729  -0.393 -0.0830  0.1678  0.1482
   12CHTO  H209 4713   5.572   0.722  -0.360 -0.4072 -1.6194  0.8663
   12CHTO  H210 4714   5.460   0.651  -0.468  3.2188  1.0060 -1.2136
   12CHTO   O80 4715   5.328   0.459  -0.292  0.1068  0.2105 -0.2017
   12CHTO  C103 4716   5.309   0.308  -0.216  0.0094  0.0351 -0.2770
   12CHTO  H190 4717   5.352   0.310  -0.116  2.2225 -3.0937 -1.0850
   12CHTO  C101 4718   5.162   0.272  -0.201  0.2590  0.6929 -0.3770
   12CHTO  H188 4719   5.108   0.293  -0.293  1.0848 -1.7895 -1.4707
   12CHTO   O68 4720   5.091   0.357  -0.077 -0.0441  0.4622  0.0380
   12CHTO  H168 4721   5.126   0.443  -0.091  0.4967 -0.0558 -2.0763
   12CHTO   C99 4722   5.148   0.114  -0.169 -0.5330  0.0240 -0.0597
   12CHTO  H186 4723   5.194   0.098  -0.069  0.2941  2.5484 -0.0071
   12CHTO   N17 4724   5.011   0.061  -0.172  0.2848 -0.4341  0.3636
   12CHTO  H174 4725   4.952   0.121  -0.104 -0.2588 -2.0492  1.3518
   12CHTO  H175 4726   5.006  -0.041  -0.136 -0.0577 -0.3580  0.5242
   12CHTO   C97 4727   5.243   0.031  -0.265 -0.5799 -0.1204  0.4196
   12CHTO  H184 4728   5.195   0.052  -0.361  0.1284 -0.7664 -0.0773
   12CHTO   O64 4729   5.381   0.073  -0.261  0.5022  0.0182  0.0316
   12CHTO  C104 4730   5.396   0.213  -0.295  0.0601 -0.5824  0.4137
   12CHTO  H191 4731   5.373   0.229  -0.400 -0.3272 -2.8827  0.1061
   12CHTO  C108 4732   5.545   0.249  -0.286 -0.9276  0.5639  0.5539
   12CHTO   O71 4733   5.630   0.154  -0.361 -0.5514  0.3370  1.1040
   12CHTO  H171 4734   5.720   0.172  -0.344  0.1051 -1.5948 -0.1691
   12CHTO   O62 4735   5.244  -0.111  -0.228 -0.3436  0.8059  0.1253
   12CHTO   C91 4736   5.265  -0.214  -0.318 -0.0820 -0.3235  0.2512
   12CHTO  H178 4737   5.316  -0.185  -0.410  0.9375 -0.0282  0.8941
   12CHTO   C92 4738   5.132  -0.270  -0.358  0.3516  0.2077  0.1653
   12CHTO  H179 4739   5.058  -0.294  -0.281  0.0791  1.0939  0.1804
   12CHTO   O66 4740   5.073  -0.167  -0.442  0.8188 -0.0859 -0.3710
   12CHTO  H166 4741   5.010  -0.123  -0.388  0.5809 -0.2940 -0.4780
   12CHTO   C93 4742   5.150  -0.406  -0.445  0.5211  0.3407 -0.1714
   12CHTO  H180 4743   5.178  -0.376  -0.547 -0.6994 -0.6346 -0.8088
   12CHTO   N16 4744   5.016  -0.476  -0.458 -0.5251 -0.6234  0.0707
   12CHTO  H172 4745   4.962  -0.479  -0.365 -0.1508  0.9454  0.3551
   12CHTO  H173 4746   5.016  -0.569  -0.512 -1.4602 -0.5735 -0.0322
   12CHTO   C94 4747   5.250  -0.515  -0.389  0.4514  0.7729 -0.2039
   12CHTO  H181 4748   5.205  -0.581  -0.314  0.5656 -0.7766 -1.4688
   12CHTO   O61 4749   5.372  -0.443  -0.352 -0.1120  0.2528  0.0984
   12CHTO   C95 4750   5.358  -0.336  -0.260  0.3065 -0.3196 -0.0794
   12CHTO  H182 4751   5.307  -0.374  -0.172  1.3365 -0.1033  0.6194
   12CHTO  C106 4752   5.498  -0.301  -0.214 -0.1899 -0.0003 -0.1176
   12CHTO   O69 4753   5.575  -0.410  -0.150  1.2060 -0.2308 -0.2864
   12CHTO  H169 4754   5.660  -0.376  -0.133  1.1721 -1.2338  2.0145
   12CHTO   O63 4755   5.296  -0.622  -0.509  0.1163  0.4189 -0.4023
   12CHTO   C96 4756   5.408  -0.737  -0.488 -0.6488  0.0217 -0.1412
   12CHTO  H183 4757   5.425  -0.760  -0.383 -2.1348  0.9124  0.3158
   12CHTO   C98 4758   5.534  -0.704  -0.559 -0.6805  0.1593  0.1277
   12CHTO  H185 4759   5.503  -0.683  -0.662  2.0812 -1.2619 -1.0621
   12CHTO   O67 4760   5.580  -0.576  -0.499  0.5066  0.5323 -0.0518
   12CHTO  H167 4761   5.672  -0.561  -0.513  0.9526 -1.0468  1.0900
   12CHTO  C102 4762   5.638  -0.817  -0.572 -0.0325  0.1469 -0.2257
   12CHTO  H189 4763   5.702  -0.807  -0.483 -0.2336  1.1680 -0.1859
   12CHTO   N18 4764   5.734  -0.796  -0.682 -0.2773 -0.3060  0.8240
   12CHTO  H176 4765   5.689  -0.818  -0.778 -2.6483 -1.3485  2.1512
   12CHTO  H177 4766   5.825  -0.853  -0.672  0.7661  1.1111 -0.2016
   12CHTO  C105 4767   5.564  -0.956  -0.588 -0.1194  0.2916 -0.0149
   12CHTO  H192 4768   5.618  -1.017  -0.660  1.8365  2.7971 -0.7563
   12CHTO   O65 4769   5.424  -0.953  -0.631  0.0408 -0.3668 -0.5065
   12CHTO  C100 4770   5.335  -0.865  -0.553 -0.4761 -0.0177  0.3395
   12CHTO  H187 4771   5.274  -0.826  -0.636 -0.7127  0.6617  0.8374
   12CHTO  C107 4772   5.248  -0.948  -0.460 -0.3834 -0.3675 -0.7168
   12CHTO   O70 4773   5.187  -0.862  -0.371 -0.3396 -0.6492  0.3888
   12CHTO  H170 4774   5.249  -0.821  -0.314  1.8134 -3.3152  0.0719
   12CHTO   O57 4775   5.582  -1.009  -0.427  0.5754 -0.3773 -0.3781
   12CHTO   C85 4776   5.562  -1.145  -0.393  0.2111  0.0684 -0.5870
   12CHTO  H157 4777   5.492  -1.182  -0.472  1.0467 -0.2971 -1.1657
   12CHTO   C83 4778   5.490  -1.152  -0.257  0.4283 -0.0104 -1.1138
   12CHTO  H155 4779   5.394  -1.102  -0.268 -0.2738 -1.1998 -0.4599
   12CHTO   O56 4780   5.552  -1.069  -0.156 -0.0089  0.1360  0.1713
   12CHTO  H135 4781   5.546  -0.976  -0.165  1.1867  0.1661 -0.4496
   12CHTO   C81 4782   5.460  -1.302  -0.226 -0.2115  0.4385 -0.1532
   12CHTO  H153 4783   5.406  -1.343  -0.312  0.6517  0.3586 -0.6701
   12CHTO   N14 4784   5.384  -1.316  -0.104  0.1981 -0.3289 -0.4420
   12CHTO  H141 4785   5.378  -1.220  -0.058 -0.7767 -0.5337 -0.1402
   12CHTO  H142 4786   5.290  -1.353  -0.139 -0.9701  0.5200  1.6979
   12CHTO   C79 4787   5.592  -1.386  -0.212  0.1671  0.1094  0.1339
   12CHTO  H151 4788   5.563  -1.490  -0.200 -0.6263  0.2247 -0.6587
   12CHTO   O52 4789   5.670  -1.374  -0.327 -0.4421  0.1504  0.2684
   12CHTO   C86 4790   5.693  -1.238  -0.376  0.2833  0.1015 -0.2455
   12CHTO  H158 4791   5.754  -1.189  -0.298 -1.0043 -0.4272  1.1283
   12CHTO   C90 4792   5.787  -1.249  -0.505 -0.3138  0.3652 -0.0442
   12CHTO   O60 4793   5.728  -1.322  -0.611 -0.2600 -0.2374 -0.7625
   12CHTO  H138 4794   5.677  -1.261  -0.660  1.3865 -0.2607 -2.5433
   12CHTO   O50 4795   5.681  -1.359  -0.102 -0.1623  0.1065 -0.7504
   12CHTO   C73 4796   5.721  -1.376   0.039 -0.2037 -0.6456 -0.3547
   12CHTO  H145 4797   5.653  -1.441   0.096  1.4804 -2.3266 -0.2509
   12CHTO   C74 4798   5.713  -1.235   0.115  0.4179  1.1259  0.5369
   12CHTO  H146 4799   5.617  -1.187   0.093  0.2717  0.0258 -1.3952
   12CHTO   O54 4800   5.713  -1.283   0.251 -0.6079  0.0987  0.0702
   12CHTO  H133 4801   5.700  -1.215   0.314  0.8123  0.8433 -0.4134
   12CHTO   C75 4802   5.830  -1.138   0.070 -0.1227  0.6796 -0.4408
   12CHTO  H147 4803   5.806  -1.103  -0.031 -0.8453 -0.2149 -0.5888
   12CHTO   N13 4804   5.843  -1.027   0.164  0.7209  0.2794  0.3460
   12CHTO  H139 4805   5.888  -0.951   0.101  2.1869 -0.6642  0.2387
   12CHTO  H140 4806   5.917  -1.050   0.239  2.1091  0.8663 -0.8046
   12CHTO   C76 4807   5.972  -1.226   0.061  0.8250 -0.4374 -0.3799
   12CHTO  H148 4808   6.005  -1.228   0.165 -0.0313  4.6807  0.1264
   12CHTO   O49 4809   5.949  -1.352  -0.004 -0.7336 -0.3393  0.1238
   12CHTO   C77 4810   5.861  -1.446   0.041  0.2843 -0.2898 -0.5883
   12CHTO  H149 4811   5.887  -1.473   0.144 -1.2888  0.3156 -0.0176
   12CHTO   C88 4812   5.874  -1.571  -0.046 -0.9684 -0.1323 -0.6592
   12CHTO   O58 4813   5.795  -1.699   0.007 -0.2891 -0.0986 -0.2199
   12CHTO  H136 4814   5.821  -1.709   0.096 -0.9975 -0.9778 -0.1070
   12CHTO   O51 4815   6.094  -1.158  -0.027  0.2324 -0.5558 -0.4654
   12CHTO   C78 4816   6.226  -1.262  -0.053  0.6514 -0.5179 -0.0180
   12CHTO  H150 4817   6.193  -1.359  -0.095 -2.0856  0.6222 -0.6331
   12CHTO   C80 4818   6.312  -1.280   0.070  0.1350 -0.1806 -0.2096
   12CHTO  H152 4819   6.350  -1.182   0.106 -0.1563  0.0758 -0.5835
   12CHTO   O55 4820   6.226  -1.331   0.170  0.7858  0.2327 -0.0469
   12CHTO  H134 4821   6.205  -1.421   0.153  0.8484  0.3050 -0.5285
   12CHTO   C84 4822   6.435  -1.372   0.044  0.2597  0.6255  0.0579
   12CHTO  H156 4823   6.407  -1.469   0.005 -0.1767  1.6496 -2.2675
   12CHTO   N15 4824   6.515  -1.399   0.175  0.3388 -0.1326 -0.2710
   12CHTO  H143 4825   6.612  -1.439   0.157  0.5245 -0.3460  1.1481
   12CHTO  H144 4826   6.459  -1.473   0.228 -0.4699 -0.2533 -1.2771
   12CHTO   C87 4827   6.519  -1.314  -0.074  0.0709 -0.2207 -0.2107
   12CHTO  H159 4828   6.567  -1.220  -0.047  0.2501 -0.7613  1.3664
   12CHTO   O53 4829   6.422  -1.284  -0.192 -0.0624  0.3620  0.0540
   12CHTO   C82 4830   6.310  -1.198  -0.163  0.3946 -0.0759 -0.7933
   12CHTO  H154 4831   6.346  -1.098  -0.139  0.9814 -0.5790  0.4509
   12CHTO   C89 4832   6.225  -1.188  -0.297 -0.1627 -0.7917 -0.1732
   12CHTO   O59 4833   6.305  -1.167  -0.418  0.2674  0.1877 -0.3176
   12CHTO  H137 4834   6.246  -1.163  -0.491  0.0750 -0.0159 -0.1717
   12CHTO   O45 4835   6.636  -1.428  -0.120  0.2035 -0.2518  0.6699
   12CHTO   C67 4836   6.645  -1.441  -0.264 -0.4832 -0.1521 -0.1443
   12CHTO  H124 4837   6.568  -1.386  -0.318  1.0635  1.7236 -0.5080
   12CHTO   C65 4838   6.782  -1.379  -0.305  0.4784  0.1366 -0.1165
   12CHTO  H122 4839   6.794  -1.281  -0.258 -0.2893  1.2555 -2.1929
   12CHTO   O44 4840   6.793  -1.365  -0.445 -0.3357 -0.3231 -0.8036
   12CHTO  H102 4841   6.882  -1.368  -0.473 -0.4973 -0.1727 -1.3257
   12CHTO   C63 4842   6.892  -1.473  -0.246  1.3041  0.1351 -0.8079
   12CHTO  H120 4843   6.874  -1.483  -0.139  0.5595  0.0884 -0.9343
   12CHTO   N11 4844   7.035  -1.413  -0.242 -0.0157 -0.1294  0.5164
   12CHTO  H108 4845   7.029  -1.311  -0.208 -0.3169 -0.7864  2.4787
   12CHTO  H109 4846   7.089  -1.477  -0.176 -0.5162 -0.7840  0.2958
   12CHTO   C61 4847   6.879  -1.618  -0.302 -0.3646 -0.2017 -0.1465
   12CHTO  H118 4848   6.949  -1.678  -0.241 -0.9787  1.4605  2.2493
   12CHTO   O40 4849   6.742  -1.674  -0.271  0.1912  0.0439 -0.0061
   12CHTO   C68 4850   6.625  -1.592  -0.301  0.4101 -0.2971  0.2316
   12CHTO  H125 4851   6.547  -1.622  -0.228  2.2453 -1.1038  1.9209
   12CHTO   C72 4852   6.573  -1.617  -0.448 -0.1820 -0.1502 -0.1719
   12CHTO   O48 4853   6.538  -1.754  -0.468  0.2085 -0.5764 -0.2895
   12CHTO  H105 4854   6.611  -1.799  -0.505  1.4070  0.2723  1.0066
   12CHTO   O38 4855   6.906  -1.625  -0.441  0.9747 -0.3572  0.3747
   12CHTO   C55 4856   7.037  -1.673  -0.487  0.2148  0.2939 -0.1480
   12CHTO  H112 4857   7.113  -1.686  -0.408 -0.1033 -2.4618 -0.2412
   12CHTO   C56 4858   7.089  -1.570  -0.607 -0.0698  0.2808  0.5313
   12CHTO  H113 4859   7.019  -1.568  -0.692 -0.5333  2.3613  0.9319
   12CHTO   O42 4860   7.096  -1.432  -0.555  0.0176  0.0891  0.5955
   12CHTO  H100 4861   7.178  -1.394  -0.579 -0.6318  1.8046  1.0571
   12CHTO   C57 4862   7.224  -1.635  -0.662 -0.0353 -0.7661  0.0701
   12CHTO  H114 4863   7.295  -1.636  -0.579  0.8344 -2.6275 -0.6568
   12CHTO   N10 4864   7.283  -1.565  -0.777  0.3528  0.0749 -0.8790
   12CHTO  H106 4865   7.317  -1.467  -0.747  0.3754  0.1641 -1.1870
   12CHTO  H107 4866   7.209  -1.557  -0.855 -0.8130  1.3716  0.3290
   12CHTO   C58 4867   7.210  -1.783  -0.692  0.2390 -0.3669  0.1961
   12CHTO  H115 4868   7.135  -1.803  -0.771  3.0839 -1.1771 -2.3800
   12CHTO   O37 4869   7.162  -1.857  -0.577  0.2419 -0.5225 -0.3802
   12CHTO   C59 4870   7.027  -1.823  -0.536  0.3309 -0.1779 -0.2910
   12CHTO  H116 4871   6.958  -1.820  -0.620  0.0550 -1.5651 -0.1181
   12CHTO   C70 4872   6.981  -1.923  -0.433  0.0627  0.4032  0.0924
   12CHTO   O46 4873   6.840  -1.921  -0.400  0.0433 -0.2876  0.0151
   12CHTO  H103 4874   6.819  -1.837  -0.363 -1.2884  0.1171 -1.6161
   12CHTO   O39 4875   7.345  -1.838  -0.722 -0.6842 -0.5696  0.3079
   12CHTO   C60 4876   7.345  -1.941  -0.824 -0.1533 -0.3093 -0.6884
   12CHTO  H117 4877   7.257  -2.001  -0.803  1.6323 -2.2814  1.3368
   12CHTO   C62 4878   7.345  -1.875  -0.963  0.3932  0.1417  0.6177
   12CHTO  H119 4879   7.249  -1.824  -0.985 -2.0781 -3.6557  2.2228
   12CHTO   O43 4880   7.465  -1.784  -0.964 -0.6657  0.0720  0.0502
   12CHTO  H101 4881   7.434  -1.696  -0.957  0.8474  0.5843  0.5360
   12CHTO   C66 4882   7.361  -1.996  -1.071 -0.5911  0.6494  0.0871
   12CHTO  H123 4883   7.271  -2.057  -1.069 -0.7111  0.7252 -1.6962
   12CHTO   N12 4884   7.359  -1.944  -1.210  0.3086 -0.9028 -0.0914
   12CHTO  H110 4885   7.272  -1.985  -1.259  0.2138 -2.9286  1.7132
   12CHTO  H111 4886   7.358  -1.836  -1.215 -3.5307 -0.8740 -0.1006
   12CHTO   C69 4887   7.484  -2.089  -1.041  0.1524 -0.1829  0.4251
   12CHTO  H126 4888   7.583  -2.042  -1.058  0.0195  0.0123  0.2017
   12CHTO   O41 4889   7.474  -2.143  -0.900 -0.5697  0.3007  0.6042
   12CHTO   C64 4890   7.461  -2.027  -0.799 -0.1034 -0.3030  0.2543
   12CHTO  H121 4891   7.553  -1.964  -0.797 -2.2036  2.8852  2.5078
   12CHTO   C71 4892   7.462  -2.092  -0.654 -0.2158  0.0128 -0.5740
   12CHTO   O47 4893   7.556  -2.193  -0.645  0.4170  0.2527 -0.0808
   12CHTO  H104 4894   7.640  -2.165  -0.675  0.7022 -1.4298 -0.9335
   12CHTO   O34 4895   7.485  -2.217  -1.125  0.5474 -0.2723  0.5752
   12CHTO   C49 4896   7.568  -2.362  -1.133  0.2411  0.0546  0.0242
   12CHTO   H91 4897   7.664  -2.334  -1.178  1.5884 -2.4827  1.1885
   12CHTO   C47 4898   7.486  -2.456  -1.227  0.0181  0.5881 -0.2686
   12CHTO   H89 4899   7.547  -2.548  -1.237  1.2021  1.1161  1.6633
   12CHTO   O33 4900   7.463  -2.396  -1.357  0.7398 -0.0610 -0.6362
   12CHTO   H70 4901   7.467  -2.303  -1.343 -1.8714 -0.1494  1.1147
   12CHTO   C45 4902   7.336  -2.482  -1.151  0.3657 -0.1901  1.3036
   12CHTO   H87 4903   7.271  -2.396  -1.173  1.7168  0.3702 -0.6476
   12CHTO    N8 4904   7.283  -2.608  -1.206  0.2318 -0.1791  0.2147
   12CHTO   H75 4905   7.190  -2.636  -1.158 -0.9887  1.8682 -0.8843
   12CHTO   H76 4906   7.265  -2.598  -1.312 -0.2034  1.2438  0.4157
   12CHTO   C43 4907   7.349  -2.481  -0.994  0.2603  0.1022  0.6451
   12CHTO   H85 4908   7.333  -2.380  -0.956  2.1895  0.9393 -0.7063
   12CHTO   O29 4909   7.477  -2.533  -0.958 -0.2603  0.3915 -0.4044
   12CHTO   C50 4910   7.580  -2.435  -0.992  0.5560 -0.1674  0.4706
   12CHTO   H92 4911   7.568  -2.361  -0.911 -1.1488  0.3017 -0.1734
   12CHTO   C54 4912   7.720  -2.494  -0.956 -0.1741 -0.1090 -0.1353
   12CHTO   O36 4913   7.811  -2.385  -0.971 -0.9134 -0.6084 -0.0345
   12CHTO   H72 4914   7.826  -2.352  -1.058  1.6753  1.7681  1.2115
   12CHTO   O27 4915   7.242  -2.545  -0.925  0.2710 -0.2895 -0.5264
   12CHTO   C37 4916   7.204  -2.571  -0.788 -0.7403  0.2216  0.7977
   12CHTO   H79 4917   7.246  -2.665  -0.750 -1.2845  0.0011  0.8549
   12CHTO   C38 4918   7.263  -2.460  -0.692  0.0171  0.0859  0.5268
   12CHTO   H80 4919   7.228  -2.362  -0.728 -1.0698 -0.1180  1.0027
   12CHTO   O31 4920   7.405  -2.462  -0.694  0.0636  0.3258 -0.2555
   12CHTO   H68 4921   7.429  -2.457  -0.784 -0.6842  3.4016 -0.3381
   12CHTO   C39 4922   7.210  -2.470  -0.545 -0.2330 -0.2441  0.0024
   12CHTO   H81 4923   7.263  -2.553  -0.498 -1.7394 -1.7276 -0.8500
   12CHTO    N7 4924   7.250  -2.359  -0.455 -0.1366  0.5029 -0.4194
   12CHTO   H73 4925   7.166  -2.310  -0.410  0.2775  0.1945  0.6968
   12CHTO   H74 4926   7.332  -2.398  -0.396  1.4589 -0.4189 -3.1472
   12CHTO   C40 4927   7.051  -2.482  -0.547  0.5091 -0.6842 -0.1220
   12CHTO   H82 4928   6.990  -2.394  -0.566  0.8059  0.1268  2.4602
   12CHTO   O26 4929   7.018  -2.599  -0.635  0.2761  0.5360  0.3848
   12CHTO   C41 4930   7.055  -2.577  -0.772 -0.3454 -0.0546 -1.2840
   12CHTO   H83 4931   7.003  -2.483  -0.797 -1.5609 -0.9140 -2.0505
   12CHTO   C52 4932   6.989  -2.690  -0.861 -0.5131 -0.1172 -0.5466
   12CHTO   O35 4933   6.842  -2.654  -0.864  1.0329 -0.1863 -0.5259
   12CHTO   H71 4934   6.812  -2.670  -0.776  1.6272 -1.9280 -0.6288
   12CHTO   O28 4935   6.999  -2.521  -0.423 -0.1468  0.6264 -0.1080
   12CHTO   C42 4936   6.861  -2.495  -0.396  0.4177 -0.3825  0.0081
   12CHTO   H84 4937   6.852  -2.552  -0.303 -0.6531 -1.6860 -0.8850
   12CHTO   C44 4938   6.757  -2.551  -0.500 -1.1091 -0.1630  0.2447
   12CHTO   H86 4939   6.768  -2.506  -0.599  3.0968 -2.0565 -0.2790
   12CHTO   O32 4940   6.788  -2.692  -0.510 -0.1841  0.6038  0.0308
   12CHTO   H69 4941   6.739  -2.742  -0.572  1.0483 -0.4136 -0.1539
   12CHTO   C48 4942   6.615  -2.527  -0.448  0.5341  0.1863  0.2384
   12CHTO   H90 4943   6.596  -2.574  -0.351  1.4480 -0.4291  0.1193
   12CHTO    N9 4944   6.514  -2.580  -0.538  0.0028 -0.1945 -0.1780
   12CHTO   H77 4945   6.410  -2.559  -0.516  0.3227 -0.6945  1.8552
   12CHTO   H78 4946   6.522  -2.687  -0.554 -0.6630  0.1608 -3.2066
   12CHTO   C51 4947   6.602  -2.375  -0.414  0.0482  0.3423 -0.2148
   12CHTO   H93 4948   6.604  -2.323  -0.510  0.8426  2.2189  0.8002
   12CHTO   O30 4949   6.707  -2.329  -0.326 -0.1162  0.3925 -0.4371
   12CHTO   C46 4950   6.830  -2.348  -0.369 -0.3285 -0.6147 -0.3690
   12CHTO   H88 4951   6.850  -2.286  -0.456 -0.3317  1.0237  0.7682
   12CHTO   C53 4952   6.918  -2.296  -0.253 -0.0607  0.4096  0.5105
   12CHTO   O72 4953   6.899  -2.159  -0.213 -0.0071  0.3000 -0.5120
   12CHTO  H199 4954   6.808  -2.138  -0.209  0.2521  1.7239 -1.7168
   12CHTO   O22 4955   6.469  -2.361  -0.352 -0.1897  0.1878  0.4310
   12CHTO   C31 4956   6.416  -2.234  -0.300 -0.0316  0.2100 -0.2502
   12CHTO   H59 4957   6.312  -2.263  -0.273  0.3269 -1.2867 -0.4669
   12CHTO   C29 4958   6.486  -2.167  -0.179 -0.2983 -0.5561 -0.5869
   12CHTO   H57 4959   6.586  -2.136  -0.212  0.6488 -1.7300  1.1005
   12CHTO   O21 4960   6.501  -2.262  -0.075  0.1290  0.4874 -0.4048
   12CHTO   H37 4961   6.429  -2.321  -0.068  0.0402  0.4578 -1.5634
   12CHTO   C27 4962   6.405  -2.038  -0.120  0.0002  0.3581  0.7879
   12CHTO   H55 4963   6.308  -2.070  -0.079 -1.0136  1.4149 -0.7672
   12CHTO    N5 4964   6.473  -1.965  -0.012 -0.2022 -0.5252 -0.1479
   12CHTO   H43 4965   6.516  -2.023   0.069 -2.3498  0.3656  1.6886
   12CHTO   H44 4966   6.406  -1.886   0.016 -0.1135 -0.4333 -0.1972
   12CHTO   C25 4967   6.384  -1.940  -0.242  0.6833 -0.6463 -0.0811
   12CHTO   H53 4968   6.483  -1.896  -0.262 -0.0585  1.4395  0.7105
   12CHTO   O17 4969   6.330  -2.005  -0.355 -0.6201  0.1870 -0.4150
   12CHTO   C32 4970   6.396  -2.122  -0.403  0.7295 -0.1931  0.0521
   12CHTO   H60 4971   6.493  -2.095  -0.444  0.0563 -0.3643 -1.6747
   12CHTO   C36 4972   6.320  -2.177  -0.525  0.0510 -0.1014 -0.4216
   12CHTO   O25 4973   6.365  -2.114  -0.649  0.2310  0.1544 -0.2431
   12CHTO   H40 4974   6.295  -2.087  -0.705 -0.3961 -0.3313  0.2949
   12CHTO   O15 4975   6.279  -1.837  -0.198 -0.1133 -0.2384 -0.1112
   12CHTO   C19 4976   6.166  -1.765  -0.255  0.6279 -0.1145 -0.4721
   12CHTO   H47 4977   6.117  -1.723  -0.166  0.3012  3.4218 -2.2639
   12CHTO   C20 4978   6.197  -1.637  -0.336  0.2855  0.3743 -0.2013
   12CHTO   H48 4979   6.274  -1.659  -0.412 -0.4984 -0.1268 -0.8583
   12CHTO   O19 4980   6.258  -1.548  -0.245 -0.6231  0.0013  0.3953
   12CHTO   H35 4981   6.350  -1.564  -0.254 -0.0796  2.6429  0.9129
   12CHTO   C21 4982   6.064  -1.574  -0.401  0.1561 -0.6602 -0.2315
   12CHTO   H49 4983   6.004  -1.529  -0.322  2.8369  0.6957  1.0858
   12CHTO    N4 4984   6.097  -1.460  -0.490 -0.0156  0.1715  0.7534
   12CHTO   H41 4985   6.010  -1.426  -0.544 -0.2682  0.0778  1.1046
   12CHTO   H42 4986   6.184  -1.472  -0.554 -0.6647  1.7214 -0.4627
   12CHTO   C22 4987   5.981  -1.679  -0.474  0.3744  0.1151 -0.1429
   12CHTO   H50 4988   6.036  -1.722  -0.558  1.0142 -0.1462  0.4010
   12CHTO   O14 4989   5.947  -1.777  -0.375  0.5985 -0.2905 -0.2663
   12CHTO   C23 4990   6.057  -1.857  -0.325 -0.0244  0.1270  0.1882
   12CHTO   H51 4991   6.098  -1.913  -0.410  2.4102 -2.2125  2.7670
   12CHTO   C34 4992   6.008  -1.969  -0.229  0.5548  0.0050  0.5314
   12CHTO   O23 4993   5.911  -1.944  -0.127 -0.0025 -0.4422 -0.4716
   12CHTO   H38 4994   5.826  -1.982  -0.140  0.1440  0.3221 -4.2908
   12CHTO   O16 4995   5.853  -1.629  -0.528  0.1356  0.9592 -0.2299
   12CHTO   C24 4996   5.788  -1.718  -0.646  0.1657 -0.3129  0.5875
   12CHTO   H52 4997   5.836  -1.816  -0.655 -1.0612 -0.9617  1.0734
   12CHTO   C26 4998   5.805  -1.644  -0.782 -0.9351  0.2515 -0.2101
   12CHTO   H54 4999   5.745  -1.551  -0.781  0.0518  0.8909  0.4064
   12CHTO   O20 5000   5.938  -1.603  -0.809 -0.4649  0.1485  0.0032
   12CHTO   H36 5001   5.955  -1.514  -0.784  2.9676 -0.0781 -1.2886
   12CHTO   C30 5002   5.751  -1.739  -0.895 -0.6031  0.5958 -0.1730
   12CHTO   H58 5003   5.807  -1.833  -0.904 -1.6356 -0.0601  0.0648
   12CHTO    N6 5004   5.755  -1.693  -1.031  0.5229 -0.4894  0.1891
   12CHTO   H45 5005   5.848  -1.653  -1.068  0.2289  1.0118  1.0484
   12CHTO   H46 5006   5.670  -1.633  -1.059 -1.0876 -2.3866  0.9260
   12CHTO   C33 5007   5.607  -1.788  -0.860 -0.5150 -0.4282 -0.3293
   12CHTO   H61 5008   5.539  -1.702  -0.859 -0.8132 -0.5836 -3.5081
   12CHTO   O18 5009   5.610  -1.838  -0.725  0.7677 -0.4462 -0.2611
   12CHTO   C28 5010   5.640  -1.744  -0.621  0.6157 -0.0717 -0.1419
   12CHTO   H56 5011   5.582  -1.653  -0.630 -0.3582 -0.4854  1.6698
   12CHTO   C35 5012   5.606  -1.793  -0.479  0.0184 -0.9041  0.4661
   12CHTO   O24 5013   5.629  -1.689  -0.380 -0.7072  0.0595  0.0576
   12CHTO   H39 5014   5.687  -1.729  -0.319 -1.9279 -0.1800  1.0710
   12CHTO    O9 5015   5.546  -1.884  -0.947  0.4909 -0.3122 -0.7126
   12CHTO   C13 5016   5.620  -2.036  -0.973  0.2964 -0.4625  0.4513
   12CHTO   H26 5017   5.720  -2.045  -0.925 -1.0093 -1.4077  3.1137
   12CHTO   C11 5018   5.628  -2.044  -1.137 -0.8094  0.0414 -0.2183
   12CHTO   H24 5019   5.687  -1.963  -1.183 -0.7413 -1.5521 -3.0401
   12CHTO    O8 5020   5.497  -2.033  -1.196  0.1750 -0.4285 -0.3587
   12CHTO    H3 5021   5.444  -2.103  -1.163 -1.7678  0.5259 -1.3789
   12CHTO    C9 5022   5.696  -2.175  -1.179 -0.9957  0.6890  0.1814
   12CHTO   H22 5023   5.798  -2.165  -1.139 -0.6909  0.3647 -0.5022
   12CHTO    N2 5024   5.727  -2.180  -1.326 -0.0301  0.8173 -0.3793
   12CHTO   H10 5025   5.772  -2.273  -1.358  0.1048  0.7881 -0.1043
   12CHTO   H11 5026   5.640  -2.153  -1.385 -0.2711  0.3956 -0.2215
   12CHTO    C7 5027   5.622  -2.303  -1.110 -0.4707 -0.9390  0.5489
   12CHTO   H20 5028   5.703  -2.365  -1.067  0.2424 -0.6488 -0.3727
   12CHTO    O4 5029   5.523  -2.268  -1.011 -0.0287  0.1222  0.2309
   12CHTO   C14 5030   5.538  -2.164  -0.916 -0.3442  0.6209 -0.2130
   12CHTO   H27 5031   5.592  -2.201  -0.826 -0.4635 -2.8722 -1.5010
   12CHTO   C18 5032   5.397  -2.130  -0.867  0.5277 -0.9406  0.0792
   12CHTO   O13 5033   5.331  -2.241  -0.811 -0.6791  0.4549 -0.2217
   12CHTO    H7 5034   5.332  -2.309  -0.875 -2.4320  0.7039 -0.5336
   12CHTO    O2 5035   5.543  -2.409  -1.211 -0.6844 -0.0107 -0.0691
   12CHTO    C1 5036   5.536  -2.543  -1.166 -0.3774  0.0778 -0.8133
   12CHTO   H14 5037   5.545  -2.538  -1.056  0.1402  1.2106 -0.9031
   12CHTO    C2 5038   5.657  -2.639  -1.221 -0.6679 -0.5264 -0.0295
   12CHTO   H15 5039   5.644  -2.636  -1.330 -0.8557  0.8547  0.0258
   12CHTO    O6 5040   5.776  -2.580  -1.180 -0.0766 -0.6211 -0.3030
   12CHTO    H1 5041   5.844  -2.592  -1.243 -2.4821  0.4479 -3.1801
   12CHTO    C3 5042   5.631  -2.794  -1.156  0.4531 -0.5941  0.1496
   12CHTO   H16 5043   5.626  -2.788  -1.046  1.5367  0.2827  0.1598
   12CHTO    N1 5044   5.741  -2.890  -1.200  0.1199  0.4950 -0.7357
   12CHTO    H8 5045   5.833  -2.848  -1.165  0.7479 -0.5244 -1.1443
   12CHTO    H9 5046   5.716  -2.982  -1.148 -1.3797  0.3626 -1.6216
   12CHTO    C4 5047   5.487  -2.827  -1.202 -0.7981 -0.5509 -0.5283
   12CHTO   H17 5048   5.494  -2.833  -1.311  0.0561 -0.9011 -0.4603
   12CHTO    O1 5049   5.390  -2.730  -1.155 -0.0922 -0.4562 -0.0217
   12CHTO    C5 5050   5.397  -2.602  -1.212  0.2657 -0.1584 -0.8050
   12CHTO   H18 5051   5.402  -2.615  -1.320  0.5378  1.3419 -0.9846
   12CHTO   C16 5052   5.281  -2.510  -1.169 -0.1298  0.3676 -0.1020
   12CHTO   O11 5053   5.271  -2.500  -1.027  1.1112  0.4350  0.0036
   12CHTO    H5 5054   5.351  -2.472  -0.987  1.4893  1.1375 -1.2096
   12CHTO    O3 5055   5.429  -2.952  -1.155  0.5088  0.4646  0.0427
   12CHTO    C6 5056   5.319  -3.004  -1.233 -0.9265  0.1969  0.8583
   12CHTO   H19 5057   5.282  -2.932  -1.305  1.0452 -0.3656 -0.7444
   12CHTO    C8 5058   5.349  -3.136  -1.310  0.0104  0.0983 -0.3977
   12CHTO   H21 5059   5.380  -3.207  -1.234 -1.4587  0.1560  0.2778
   12CHTO    O7 5060   5.459  -3.116  -1.399 -0.1627  0.4059  0.2923
   12CHTO    H2 5061   5.428  -3.086  -1.482 -0.4679  0.3659  0.3913
   12CHTO   C12 5062   5.221  -3.188  -1.389 -0.0068 -0.5544  0.0937
   12CHTO   H25 5063   5.203  -3.110  -1.465  1.0129  0.2234  0.6286
   12CHTO    N3 5064   5.246  -3.320  -1.457  0.2992 -0.0082 -0.2420
   12CHTO   H12 5065   5.349  -3.337  -1.485 -0.3107 -0.8146 -2.0662
   12CHTO   H13 5066   5.177  -3.322  -1.540 -0.8349 -1.7365  0.7163
   12CHTO   C15 5067   5.098  -3.194  -1.292 -0.5980 -0.6585 -0.0853
   12CHTO   H28 5068   5.106  -3.282  -1.228 -0.5538 -0.2181  0.5157
   12CHTO   O10 5069   4.985  -3.195  -1.361  0.2538  0.5559  0.0736
   12CHTO    H4 5070   5.000  -3.247  -1.437 -1.3890 -1.7737  1.2755
   12CHTO    O5 5071   5.092  -3.076  -1.214  0.2447 -0.3853  0.1304
   12CHTO   C10 5072   5.202  -3.034  -1.138  0.2873  0.0497 -0.0552
   12CHTO   H23 5073   5.225  -3.114  -1.067 -0.4745  1.0917  1.4011
   12CHTO   C17 5074   5.153  -2.915  -1.057 -0.3346  0.5231  0.1283
   12CHTO   O12 5075   5.114  -2.795  -1.133  0.3705  0.0517 -0.9574
   12CHTO    H6 5076   5.021  -2.784  -1.127  0.5388  1.6097 -1.0122
   13CHTO  H203 5077   7.710   3.835   1.594  1.0892 -1.0613 -0.9092
   13CHTO   O82 5078   7.654   3.839   1.518 -0.0511  0.7780  0.0060
   13CHTO  C123 5079   7.618   3.982   1.498  0.5421  0.4353 -0.2880
   13CHTO  H227 5080   7.702   4.025   1.441  0.8750 -0.2162 -0.3037
   13CHTO   O77 5081   7.514   3.977   1.399  0.7430 -0.0289 -0.0297
   13CHTO  C118 5082   7.482   4.113   1.358 -0.5113  0.2942  0.5328
   13CHTO  H222 5083   7.572   4.162   1.318  0.5498 -0.4936  1.8944
   13CHTO  C125 5084   7.382   4.116   1.234  0.8155  0.0829  0.2530
   13CHTO   O84 5085   7.436   4.034   1.127 -0.3185 -0.6809 -0.2880
   13CHTO  H205 5086   7.393   4.055   1.046 -0.7442 -1.2903 -0.2224
   13CHTO  C114 5087   7.432   4.204   1.473  0.3078  0.4477  0.3185
   13CHTO  H218 5088   7.345   4.156   1.517 -0.1401 -0.3967 -1.4289
   13CHTO  C116 5089   7.536   4.211   1.593  0.2427 -0.1992 -0.2093
   13CHTO  H220 5090   7.622   4.265   1.548 -0.2326  0.8954  0.2006
   13CHTO   O79 5091   7.484   4.293   1.699  0.5199  0.5031  0.8212
   13CHTO  H201 5092   7.557   4.316   1.752  2.1603 -0.8262 -0.8074
   13CHTO  C120 5093   7.578   4.065   1.626 -0.2836 -0.5925  0.3987
   13CHTO  H224 5094   7.487   4.019   1.670 -1.1005 -0.2537 -0.9081
   13CHTO   N21 5095   7.688   4.062   1.724  0.1298 -0.2450  0.2813
   13CHTO  H211 5096   7.786   4.076   1.680  0.0037  1.0954  0.4042
   13CHTO  H212 5097   7.670   3.978   1.789 -0.7553 -1.8963 -2.0417
   13CHTO   O75 5098   7.400   4.329   1.408  0.1988  0.2355 -0.1474
   13CHTO  C112 5099   7.301   4.418   1.474  0.1172 -0.7143  0.4111
   13CHTO  H216 5100   7.357   4.481   1.544  0.4156 -0.2550 -0.2422
   13CHTO   O73 5101   7.208   4.335   1.545  0.1785 -0.2579 -0.0274
   13CHTO  C113 5102   7.112   4.406   1.629  0.2058 -0.7853  0.7682
   13CHTO  H217 5103   7.162   4.457   1.714  1.6598 -1.1880  0.1771
   13CHTO  C124 5104   7.012   4.302   1.692  0.0975  0.2754  0.0821
   13CHTO   O83 5105   6.941   4.219   1.604 -0.1812  0.3707  0.1998
   13CHTO  H204 5106   6.990   4.189   1.530 -1.4840 -2.4523  0.4154
   13CHTO  C109 5107   7.025   4.507   1.541 -1.1289  0.5199  0.5873
   13CHTO  H213 5108   6.955   4.445   1.482  1.2575 -1.6814 -0.0226
   13CHTO  C110 5109   7.112   4.597   1.444  0.2375  0.3770  0.3531
   13CHTO  H214 5110   7.153   4.677   1.505 -1.9753  0.6485  1.5496
   13CHTO   O78 5111   7.026   4.654   1.339  0.7136  0.4974  0.8479
   13CHTO  H200 5112   7.072   4.705   1.275 -1.3572  0.4385 -0.7243
   13CHTO  C111 5113   7.223   4.518   1.368  0.3187  0.4144 -0.1513
   13CHTO  H215 5114   7.168   4.451   1.300 -0.6791  2.0408 -0.9933
   13CHTO   N19 5115   7.319   4.596   1.281  0.4428  0.1554 -0.1152
   13CHTO  H207 5116   7.280   4.696   1.267 -0.9228 -0.2709  0.5598
   13CHTO  H208 5117   7.339   4.545   1.188 -0.5842 -1.4104  0.5002
   13CHTO   O74 5118   6.951   4.593   1.620  0.6304 -0.3424  0.0338
   13CHTO  C115 5119   6.806   4.615   1.549  1.0641 -0.5126 -0.3069
   13CHTO  H219 5120   6.809   4.609   1.440 -0.0941 -2.5707 -0.2578
   13CHTO   O76 5121   6.700   4.503   1.596  0.0820 -0.1660 -0.0781
   13CHTO  C122 5122   6.632   4.530   1.720 -0.2566 -0.1243 -0.6428
   13CHTO  H226 5123   6.705   4.542   1.800 -2.2090  1.2369  0.9647
   13CHTO  C126 5124   6.552   4.406   1.761  0.3885 -0.3542 -0.2576
   13CHTO   O85 5125   6.625   4.288   1.768  0.2283  0.0930  0.0394
   13CHTO  H206 5126   6.687   4.299   1.838 -2.0692  0.8201  1.9877
   13CHTO  C121 5127   6.535   4.657   1.710 -0.6575  0.0122  0.8429
   13CHTO  H225 5128   6.437   4.618   1.675 -1.1428  0.1417  2.0576
   13CHTO   O81 5129   6.497   4.707   1.838 -0.7008  0.1550  0.6104
   13CHTO  H202 5130   6.522   4.646   1.904 -2.1528  0.9867  1.9698
   13CHTO  C119 5131   6.592   4.759   1.600 -0.1530 -0.2951  0.3406
   13CHTO  H223 5132   6.560   4.712   1.506 -0.5181  2.6001 -1.0388
   13CHTO  C117 5133   6.747   4.758   1.592  0.4211  0.6039 -0.0023
   13CHTO  H221 5134   6.790   4.781   1.689  1.0015 -0.1552 -0.0802
   13CHTO   N20 5135   6.801   4.862   1.501 -0.2880  0.3862  0.1224
   13CHTO  H209 5136   6.881   4.827   1.438  0.0467 -1.4371  1.5253
   13CHTO  H210 5137   6.840   4.943   1.561 -0.9745 -1.6307  3.4304
   13CHTO   O80 5138   6.518   4.892   1.603  0.1425 -0.0371  0.3075
   13CHTO  C103 5139   6.380   4.906   1.533 -0.0735 -0.7778 -0.2490
   13CHTO  H190 5140   6.385   5.010   1.501  0.9802 -0.3743  1.1525
   13CHTO  C101 5141   6.335   4.810   1.414 -0.2772  0.8287 -1.0399
   13CHTO  H188 5142   6.325   4.707   1.448 -0.6506  1.4195  0.6956
   13CHTO   O68 5143   6.428   4.819   1.292 -0.6066 -0.0146 -1.2119
   13CHTO  H168 5144   6.440   4.730   1.263  0.1494  0.4093 -2.2116
   13CHTO   C99 5145   6.182   4.854   1.382  0.4986  0.1850 -0.2885
   13CHTO  H186 5146   6.177   4.960   1.349  0.1157  1.0186  2.3432
   13CHTO   N17 5147   6.110   4.769   1.277  0.2837  0.4320  0.0009
   13CHTO  H174 5148   6.120   4.664   1.297  1.8701  1.0692  2.7409
   13CHTO  H175 5149   6.008   4.795   1.251  0.6578 -0.2206 -2.2211
   13CHTO   C97 5150   6.091   4.844   1.509 -0.9052 -0.7090 -0.2502
   13CHTO  H184 5151   6.071   4.742   1.546  0.5068 -0.1984  2.0141
   13CHTO   O64 5152   6.143   4.928   1.615 -0.1708  0.7062  0.4048
   13CHTO  C104 5153   6.276   4.899   1.656  0.5282  1.1458 -0.2476
   13CHTO  H191 5154   6.277   4.796   1.691  0.2389  0.8465 -1.0896
   13CHTO  C108 5155   6.312   4.990   1.771 -0.2331 -0.5831 -0.1964
   13CHTO   O71 5156   6.263   5.129   1.759 -0.3233 -0.2879  0.2306
   13CHTO  H171 5157   6.198   5.146   1.824  1.4642  0.3266  1.8970
   13CHTO   O62 5158   5.966   4.918   1.499  0.2431  0.5380  0.1413
   13CHTO   C91 5159   5.849   4.866   1.561 -0.1377 -0.3030 -0.4662
   13CHTO  H178 5160   5.867   4.781   1.627  0.5979 -0.3335 -0.7011
   13CHTO   C92 5161   5.750   4.810   1.454 -0.3519  0.7236  0.2142
   13CHTO  H179 5162   5.728   4.899   1.393 -1.1703  0.9917  0.8850
   13CHTO   O66 5163   5.811   4.714   1.362 -0.3073  0.0826  0.3335
   13CHTO  H166 5164   5.894   4.744   1.330 -0.5008 -1.2096 -1.4745
   13CHTO   C93 5165   5.624   4.748   1.528  0.5903 -0.2041  0.0227
   13CHTO  H180 5166   5.652   4.644   1.551 -1.8175 -1.1545 -1.1735
   13CHTO   N16 5167   5.509   4.744   1.433 -0.2576 -0.3667 -0.7829
   13CHTO  H172 5168   5.423   4.783   1.485  0.5439  1.2875 -0.6489
   13CHTO  H173 5169   5.528   4.794   1.339  2.5931 -1.1389 -0.6747
   13CHTO   C94 5170   5.575   4.814   1.660 -0.5143 -0.3446 -0.5554
   13CHTO  H181 5171   5.495   4.886   1.643  1.6543  1.9271 -1.5133
   13CHTO   O61 5172   5.676   4.896   1.720  0.3293  0.2275  0.1462
   13CHTO   C95 5173   5.764   4.972   1.645 -0.6025  0.1703 -0.3087
   13CHTO  H182 5174   5.708   5.035   1.575  0.6840  1.1059 -0.5255
   13CHTO  C106 5175   5.853   5.058   1.753  0.0216  0.0638 -0.0631
   13CHTO   O69 5176   5.933   4.967   1.827  0.6408  0.1989 -0.2694
   13CHTO  H169 5177   6.012   5.004   1.861 -0.3282  0.9815  1.2256
   13CHTO   O63 5178   5.540   4.702   1.779 -0.4491 -0.5633 -0.2792
   13CHTO   C96 5179   5.386   4.697   1.810 -0.2101 -0.4632 -1.0259
   13CHTO  H183 5180   5.346   4.727   1.713  1.3554  2.9692 -0.6471
   13CHTO   C98 5181   5.335   4.794   1.926 -0.1020 -0.6903  0.7549
   13CHTO  H185 5182   5.383   4.891   1.909 -0.7073 -0.8498 -2.0779
   13CHTO   O67 5183   5.195   4.820   1.909  0.2982  0.2927  0.2354
   13CHTO  H167 5184   5.188   4.907   1.875  1.8365  0.9730  1.6013
   13CHTO  C102 5185   5.353   4.739   2.078  0.2030 -0.0965  0.2875
   13CHTO  H189 5186   5.286   4.794   2.146  2.3441 -0.2888  2.6328
   13CHTO   N18 5187   5.491   4.762   2.139  0.3139  0.4677  0.2090
   13CHTO  H176 5188   5.556   4.802   2.063  1.0523 -0.5846  0.2883
   13CHTO  H177 5189   5.482   4.832   2.221  1.5291 -0.3264  1.0362
   13CHTO  C105 5190   5.318   4.589   2.074  0.0763 -0.2379 -0.3960
   13CHTO  H192 5191   5.404   4.526   2.095  0.2091  0.7249  2.0504
   13CHTO   O65 5192   5.257   4.534   1.960 -0.1544  0.1479  0.1463
   13CHTO  C100 5193   5.343   4.553   1.846 -0.8418 -0.2293 -0.6745
   13CHTO  H187 5194   5.438   4.498   1.851 -1.3006 -1.1811 -2.0637
   13CHTO  C107 5195   5.274   4.481   1.731 -0.5580 -0.4209 -0.0621
   13CHTO   O70 5196   5.360   4.487   1.617 -0.1456 -0.7106 -0.6678
   13CHTO  H170 5197   5.422   4.417   1.624 -0.5280 -1.1963 -1.8241
   13CHTO   O57 5198   5.213   4.560   2.201  0.3600 -1.0589 -0.0694
   13CHTO   C85 5199   5.068   4.583   2.185  0.8782  0.3694  0.0312
   13CHTO  H157 5200   5.051   4.600   2.077 -1.5331 -1.0630  0.1264
   13CHTO   C83 5201   5.031   4.715   2.253 -0.5087  0.1138  0.7769
   13CHTO  H155 5202   5.091   4.795   2.208  0.6131 -0.4630  1.2159
   13CHTO   O56 5203   5.066   4.703   2.390  0.1474 -0.0852  0.1664
   13CHTO  H135 5204   5.000   4.744   2.443  0.8559 -0.3472  1.2672
   13CHTO   C81 5205   4.883   4.742   2.227  0.0255 -0.5872 -1.0267
   13CHTO  H153 5206   4.863   4.750   2.120 -2.2639  0.1972 -0.5700
   13CHTO   N14 5207   4.858   4.878   2.272 -0.1362  0.1715 -0.6787
   13CHTO  H141 5208   4.930   4.953   2.245 -0.5483  0.1635 -1.7940
   13CHTO  H142 5209   4.760   4.900   2.237  0.0804 -1.2580 -2.2447
   13CHTO   C79 5210   4.792   4.628   2.285  0.5184  0.6512  0.0580
   13CHTO  H151 5211   4.690   4.646   2.252  0.1310  0.3916  1.0958
   13CHTO   O52 5212   4.831   4.493   2.236  0.5918  0.8025  0.0812
   13CHTO   C86 5213   4.974   4.465   2.239 -0.4154  0.8603  0.6710
   13CHTO  H158 5214   4.994   4.438   2.345  1.3358  1.6638  0.5591
   13CHTO   C90 5215   5.003   4.334   2.159 -0.2795  0.1413  0.0995
   13CHTO   O60 5216   5.145   4.299   2.163 -0.1264  0.5299  0.4038
   13CHTO  H138 5217   5.162   4.207   2.153 -0.0281  0.6466 -0.6446
   13CHTO   O50 5218   4.793   4.624   2.426  0.8390  0.1019 -0.1818
   13CHTO   C73 5219   4.685   4.597   2.520  0.6246 -0.4009  0.3244
   13CHTO  H145 5220   4.617   4.523   2.475 -0.1514  0.4165  0.1305
   13CHTO   C74 5221   4.594   4.723   2.553 -0.4581 -0.2976  0.4939
   13CHTO  H146 5222   4.554   4.747   2.454  1.9378 -1.5690 -0.8294
   13CHTO   O54 5223   4.484   4.687   2.641 -0.3409 -0.3852  0.2783
   13CHTO  H133 5224   4.415   4.649   2.590  0.1308  0.5231 -1.0464
   13CHTO   C75 5225   4.690   4.835   2.605 -1.0802 -0.0001  0.0130
   13CHTO  H147 5226   4.756   4.875   2.526  0.8624 -1.2158  0.9685
   13CHTO   N13 5227   4.616   4.960   2.634 -0.6267 -0.0679 -0.1167
   13CHTO  H139 5228   4.670   5.053   2.646 -0.8525  0.1185 -0.5351
   13CHTO  H140 5229   4.552   4.973   2.548  1.2722  0.5366 -1.4852
   13CHTO   C76 5230   4.780   4.783   2.728  0.2211 -0.1236  0.9690
   13CHTO  H148 5231   4.720   4.807   2.816 -0.4514  0.3394  0.3972
   13CHTO   O49 5232   4.826   4.641   2.723  0.3892  0.4223 -0.4399
   13CHTO   C77 5233   4.748   4.540   2.649 -0.1926  0.1919 -0.4662
   13CHTO  H149 5234   4.670   4.494   2.710  1.3663 -1.4216  0.3275
   13CHTO   C88 5235   4.841   4.418   2.622  0.2454 -0.0474 -0.0066
   13CHTO   O58 5236   4.977   4.448   2.586 -0.3661 -0.2873 -0.2049
   13CHTO  H136 5237   5.024   4.367   2.586  1.9401  0.9403  2.8132
   13CHTO   O51 5238   4.895   4.855   2.734  0.4417 -0.5437 -0.2632
   13CHTO   C78 5239   4.962   4.845   2.873  0.3983 -0.2378 -0.3392
   13CHTO  H150 5240   4.906   4.766   2.926  0.8176  0.8081  1.7216
   13CHTO   C80 5241   4.945   4.976   2.953 -0.2627 -0.0061  0.2411
   13CHTO  H152 5242   4.989   5.057   2.890  0.7000  0.8800  2.0099
   13CHTO   O55 5243   4.807   4.992   2.980  0.1147 -0.4868  0.4250
   13CHTO  H134 5244   4.763   5.067   2.944  0.8895 -0.6573 -0.9322
   13CHTO   C84 5245   5.027   4.978   3.089  0.2821 -0.4180 -0.1962
   13CHTO  H156 5246   4.969   4.906   3.147  0.0962 -0.1809 -0.0840
   13CHTO   N15 5247   5.025   5.112   3.147 -0.4303  0.4168  0.1625
   13CHTO  H143 5248   5.082   5.182   3.090  0.2567 -0.7130 -0.5418
   13CHTO  H144 5249   4.923   5.141   3.163 -1.0359 -0.7012 -1.5576
   13CHTO   C87 5250   5.172   4.923   3.061 -0.1879  0.6679 -0.2786
   13CHTO  H159 5251   5.234   4.989   3.000  1.6750  0.2983  1.1583
   13CHTO   O53 5252   5.161   4.792   2.986 -0.9301 -0.5033  0.1134
   13CHTO   C82 5253   5.110   4.793   2.858 -0.2327 -0.1104 -0.0098
   13CHTO  H154 5254   5.174   4.865   2.807 -1.1064  2.1562  1.9501
   13CHTO   C89 5255   5.143   4.649   2.807  0.0741  0.7590 -0.3226
   13CHTO   O59 5256   5.157   4.644   2.664 -0.0561  0.5566  0.0544
   13CHTO  H137 5257   5.245   4.619   2.646  0.6938  0.7607  3.1949
   13CHTO   O45 5258   5.246   4.900   3.206 -1.3934 -0.3581  0.4989
   13CHTO   C67 5259   5.387   4.864   3.193 -0.3707 -0.0138 -0.2321
   13CHTO  H124 5260   5.393   4.796   3.108 -0.4471  0.7796 -0.8722
   13CHTO   C65 5261   5.484   4.989   3.170  0.0145 -0.0647  0.0662
   13CHTO  H122 5262   5.424   5.073   3.205  0.8998  1.5061 -2.0462
   13CHTO   O44 5263   5.504   5.006   3.027  0.1050 -0.3016  0.4649
   13CHTO  H102 5264   5.561   4.951   2.977  1.5029 -0.0418  1.6993
   13CHTO   C63 5265   5.611   4.988   3.262  0.1243  0.3066 -0.2856
   13CHTO  H120 5266   5.583   5.007   3.366  0.9694  1.0852 -0.1892
   13CHTO   N11 5267   5.720   5.088   3.235 -0.3518  0.0836  0.0120
   13CHTO  H108 5268   5.811   5.034   3.219  0.3274  1.0287  0.7133
   13CHTO  H109 5269   5.693   5.142   3.147  0.2830 -2.4936 -1.8266
   13CHTO   C61 5270   5.662   4.836   3.267 -0.2824 -0.1737  0.4718
   13CHTO  H118 5271   5.746   4.832   3.338  0.4811  1.2051 -0.3236
   13CHTO   O40 5272   5.566   4.742   3.314 -0.0799 -0.3646  0.1816
   13CHTO   C68 5273   5.423   4.779   3.321 -0.0013 -0.2159  1.0689
   13CHTO  H125 5274   5.406   4.838   3.414 -2.3540 -1.5953  1.5487
   13CHTO   C72 5275   5.336   4.647   3.328 -0.0384 -0.5725  0.5786
   13CHTO   O48 5276   5.393   4.554   3.422  0.1156  0.0826  0.3794
   13CHTO  H105 5277   5.428   4.605   3.493 -1.1933 -2.2930  2.8171
   13CHTO   O38 5278   5.710   4.790   3.134 -0.4477  0.2119  0.0853
   13CHTO   C55 5279   5.830   4.710   3.121 -0.2884  0.5190 -0.0178
   13CHTO  H112 5280   5.826   4.659   3.024  0.5930 -0.4749  0.4493
   13CHTO   C56 5281   5.856   4.603   3.238  0.0629 -0.0383 -0.0609
   13CHTO  H113 5282   5.852   4.651   3.337 -0.5985 -2.5746  1.1935
   13CHTO   O42 5283   5.746   4.512   3.238  0.2337 -0.0874 -0.0432
   13CHTO  H100 5284   5.717   4.489   3.324 -1.4480  0.9820 -0.2942
   13CHTO   C57 5285   5.995   4.531   3.219  0.0945  0.3162  0.3861
   13CHTO  H114 5286   5.989   4.465   3.132  1.8129  1.1698 -0.4090
   13CHTO   N10 5287   6.029   4.437   3.330  0.0863  0.1224 -0.0855
   13CHTO  H106 5288   5.940   4.392   3.372  0.5124 -0.9983 -0.3551
   13CHTO  H107 5289   6.079   4.490   3.409 -1.9239  1.7445  0.1261
   13CHTO   C58 5290   6.103   4.635   3.193 -0.5638 -0.7552 -0.5602
   13CHTO  H115 5291   6.124   4.687   3.289 -0.7141 -1.2324 -0.2665
   13CHTO   O37 5292   6.076   4.728   3.095  0.1699 -0.3791 -0.0831
   13CHTO   C59 5293   5.956   4.810   3.120  0.3314  0.0029  0.2637
   13CHTO  H116 5294   5.964   4.867   3.213  0.0129 -0.8017  0.7946
   13CHTO   C70 5295   5.951   4.910   3.001 -0.2658  0.2806 -0.3267
   13CHTO   O46 5296   6.069   4.983   2.983 -0.5013  0.3342 -0.3150
   13CHTO  H103 5297   6.038   5.072   2.979  1.3341  1.0105 -0.0706
   13CHTO   O39 5298   6.236   4.558   3.126  0.4577  0.4931 -0.1928
   13CHTO   C60 5299   6.363   4.597   3.180 -0.1546  0.3425  0.2619
   13CHTO  H117 5300   6.347   4.684   3.245 -1.2363  0.3006  0.0653
   13CHTO   C62 5301   6.436   4.497   3.270  0.3557 -0.7789  0.6240
   13CHTO  H119 5302   6.369   4.490   3.358  0.6955  0.2124  0.9766
   13CHTO   O43 5303   6.465   4.373   3.208  0.0341 -0.0258  0.4104
   13CHTO  H101 5304   6.407   4.311   3.247  0.1540  0.5651  1.5384
   13CHTO   C66 5305   6.571   4.566   3.318 -0.4352 -0.3224  0.0759
   13CHTO  H123 5306   6.546   4.665   3.356 -2.5209 -1.0269  0.6008
   13CHTO   N12 5307   6.645   4.501   3.429  0.2339 -0.7200  0.3811
   13CHTO  H110 5308   6.580   4.488   3.515 -0.2447  2.2011  0.5302
   13CHTO  H111 5309   6.686   4.406   3.399 -0.8452 -1.7313  2.0714
   13CHTO   C69 5310   6.659   4.603   3.200 -0.5774 -0.5299  0.0008
   13CHTO  H126 5311   6.689   4.508   3.151  1.8442 -1.4439  3.0801
   13CHTO   O41 5312   6.581   4.702   3.103  0.1614 -0.4447 -0.0475
   13CHTO   C64 5313   6.451   4.645   3.062 -0.2001  0.4669 -0.6029
   13CHTO  H121 5314   6.463   4.560   2.992 -1.4509 -0.1296 -0.0936
   13CHTO   C71 5315   6.380   4.760   2.980 -0.5139 -0.2160  0.0935
   13CHTO   O47 5316   6.450   4.816   2.866  0.3560  0.3389 -0.3973
   13CHTO  H104 5317   6.413   4.900   2.848 -1.9833 -0.1946  1.5146
   13CHTO   O34 5318   6.788   4.685   3.252 -0.5200  0.7747 -0.2782
   13CHTO   C49 5319   6.890   4.774   3.143  0.2327  0.5141  0.1618
   13CHTO   H91 5320   6.937   4.699   3.079 -0.0880 -1.7833  2.5194
   13CHTO   C47 5321   6.993   4.836   3.244 -0.3890 -0.5153 -0.5021
   13CHTO   H89 5322   7.059   4.890   3.173 -1.5231 -0.2861 -1.3973
   13CHTO   O33 5323   7.060   4.726   3.304 -0.4445  0.0587  0.0667
   13CHTO   H70 5324   7.105   4.752   3.382  0.9257 -1.0708 -0.3234
   13CHTO   C45 5325   6.915   4.921   3.353  0.1555 -0.6008 -0.5504
   13CHTO   H87 5326   6.862   4.850   3.418  1.5022 -2.2437 -1.2089
   13CHTO    N8 5327   7.014   4.999   3.434  0.0758 -0.9318 -0.3437
   13CHTO   H75 5328   7.112   4.958   3.453 -0.0387 -0.5041  1.2184
   13CHTO   H76 5329   6.971   5.052   3.517 -2.8511  1.2162 -3.1318
   13CHTO   C43 5330   6.789   4.998   3.279 -0.1904 -0.0593 -0.4053
   13CHTO   H85 5331   6.700   4.943   3.310 -0.2031  0.4694  0.5380
   13CHTO   O29 5332   6.798   5.010   3.135  0.3331 -0.4078  0.2568
   13CHTO   C50 5333   6.825   4.890   3.059 -1.0192  0.4668 -0.5380
   13CHTO   H92 5334   6.738   4.847   3.007  0.6245 -3.4211 -0.2605
   13CHTO   C54 5335   6.915   4.924   2.935 -0.2649 -0.6816 -0.3063
   13CHTO   O36 5336   6.872   5.039   2.866  0.1899 -0.3021  0.0519
   13CHTO   H72 5337   6.862   5.119   2.913 -2.6883 -1.0188  0.7581
   13CHTO   O27 5338   6.772   5.131   3.333  0.1068  0.3542 -0.0894
   13CHTO   C37 5339   6.647   5.202   3.357 -0.1743  0.4861  0.5135
   13CHTO   H79 5340   6.564   5.131   3.369 -1.1998  1.6445  0.4124
   13CHTO   C38 5341   6.636   5.269   3.498 -0.7030 -1.0268 -0.0036
   13CHTO   H80 5342   6.725   5.329   3.522 -0.2018 -2.6220  2.2846
   13CHTO   O31 5343   6.636   5.171   3.598 -0.0067 -0.0561 -0.3670
   13CHTO   H68 5344   6.645   5.223   3.676 -0.2861  0.1582 -0.4781
   13CHTO   C39 5345   6.515   5.375   3.514 -0.4889 -0.1807  0.3333
   13CHTO   H81 5346   6.428   5.311   3.526  0.9201 -1.7846  2.3889
   13CHTO    N7 5347   6.532   5.460   3.635 -0.1358  0.1049 -0.0085
   13CHTO   H73 5348   6.457   5.538   3.628 -1.6812 -1.2208  1.2789
   13CHTO   H74 5349   6.630   5.502   3.650 -0.4238  1.6309 -2.0836
   13CHTO   C40 5350   6.497   5.463   3.386 -0.9150  0.4658 -0.8161
   13CHTO   H82 5351   6.582   5.532   3.391  0.2222 -0.7016 -2.9468
   13CHTO   O26 5352   6.499   5.387   3.263  0.2304 -0.2852  0.2877
   13CHTO   C41 5353   6.622   5.315   3.246 -0.6583  0.9697  0.0928
   13CHTO   H83 5354   6.701   5.392   3.242  0.3007 -0.0077  0.0513
   13CHTO   C52 5355   6.631   5.265   3.101  0.1861 -0.4389 -0.0998
   13CHTO   O35 5356   6.526   5.159   3.088  0.0760 -0.1284  1.0261
   13CHTO   H71 5357   6.512   5.133   2.999  1.9337  1.7971  0.1136
   13CHTO   O28 5358   6.370   5.533   3.396 -0.1993  0.5312  0.5233
   13CHTO   C42 5359   6.329   5.673   3.369  0.4661 -0.4761 -0.4035
   13CHTO   H84 5360   6.356   5.696   3.266 -0.5936  1.3348 -0.3069
   13CHTO   C44 5361   6.410   5.778   3.456 -0.2951 -0.4947  0.3082
   13CHTO   H86 5362   6.380   5.764   3.559 -2.6310 -3.5514 -0.7247
   13CHTO   O32 5363   6.555   5.757   3.433  0.6156 -0.5007  0.0042
   13CHTO   H69 5364   6.588   5.669   3.431  1.9758 -0.1160  2.2927
   13CHTO   C48 5365   6.366   5.919   3.412  0.0908  0.5267 -0.6055
   13CHTO   H90 5366   6.379   5.917   3.304 -0.5562 -0.5314 -0.6705
   13CHTO    N9 5367   6.448   6.032   3.478 -0.2419  0.2559 -0.6429
   13CHTO   H77 5368   6.552   6.004   3.477 -0.2960 -0.0691  1.0220
   13CHTO   H78 5369   6.433   6.127   3.429  1.4320 -0.4885 -2.6417
   13CHTO   C51 5370   6.211   5.937   3.428 -0.3178  0.0658  0.2213
   13CHTO   H93 5371   6.192   5.927   3.535  1.2764 -3.0532  0.2481
   13CHTO   O30 5372   6.143   5.837   3.351 -0.3275 -0.1262 -0.3489
   13CHTO   C46 5373   6.174   5.704   3.379 -0.1164 -0.1058 -0.1058
   13CHTO   H88 5374   6.132   5.673   3.475  0.3568 -1.2471 -0.2655
   13CHTO   C53 5375   6.112   5.617   3.272  0.1475  1.1099 -0.0492
   13CHTO   O72 5376   5.980   5.653   3.223 -0.6253 -0.7578  0.3364
   13CHTO  H199 5377   5.931   5.580   3.188 -2.3503  0.2989  0.5106
   13CHTO   O22 5378   6.164   6.056   3.361 -0.1277 -0.2952 -0.2063
   13CHTO   C31 5379   6.027   6.104   3.395  0.3150  0.0874 -0.5124
   13CHTO   H59 5380   5.975   6.016   3.438  0.2089  1.5009  2.4081
   13CHTO   C29 5381   6.023   6.217   3.499 -0.4606  0.2350 -0.0362
   13CHTO   H57 5382   6.060   6.308   3.450  1.5035  0.7788  2.3944
   13CHTO   O21 5383   6.113   6.201   3.611 -0.1107  0.3594  0.2292
   13CHTO   H37 5384   6.116   6.271   3.674 -1.2412  1.2174 -0.6590
   13CHTO   C27 5385   5.873   6.250   3.542 -0.0475  0.6107  0.4717
   13CHTO   H55 5386   5.832   6.161   3.591  0.6709  0.1412  0.2197
   13CHTO    N5 5387   5.867   6.366   3.633  0.4682  0.4093  0.6505
   13CHTO   H43 5388   5.966   6.389   3.670  0.5023  0.6993  0.3852
   13CHTO   H44 5389   5.792   6.358   3.710 -1.0788 -0.9212 -0.9601
   13CHTO   C25 5390   5.790   6.283   3.415 -0.8849 -0.2509  0.0559
   13CHTO   H53 5391   5.829   6.377   3.374 -2.5958  0.1376 -0.7361
   13CHTO   O17 5392   5.805   6.177   3.318 -0.6413 -0.5098  0.2095
   13CHTO   C32 5393   5.943   6.146   3.279 -0.0402  0.4123 -0.1222
   13CHTO   H60 5394   5.982   6.241   3.241  2.3595  0.1084  1.5061
   13CHTO   C36 5395   5.933   6.045   3.166  0.0065 -0.0210  0.2005
   13CHTO   O25 5396   5.871   5.929   3.208 -0.6349 -0.1655  0.3674
   13CHTO   H40 5397   5.787   5.926   3.166 -0.5542  0.3051  0.1658
   13CHTO   O15 5398   5.648   6.296   3.440 -0.1734 -0.0902  0.4120
   13CHTO   C19 5399   5.540   6.291   3.538 -0.0610 -0.6144  0.0248
   13CHTO   H47 5400   5.594   6.282   3.634 -0.1168  1.3922  0.2635
   13CHTO   C20 5401   5.467   6.435   3.553  0.3619 -0.3424  0.1481
   13CHTO   H48 5402   5.413   6.464   3.462 -0.4189 -0.3780  0.5959
   13CHTO   O19 5403   5.578   6.525   3.579 -0.0578 -0.5009  0.3092
   13CHTO   H35 5404   5.562   6.606   3.535 -0.2423  0.1754  1.6253
   13CHTO   C21 5405   5.368   6.427   3.672  0.1388 -0.0339 -0.3416
   13CHTO   H49 5406   5.428   6.400   3.760  3.4624  2.7217 -1.6422
   13CHTO    N4 5407   5.299   6.554   3.697  1.0819 -0.7548 -0.5150
   13CHTO   H41 5408   5.321   6.632   3.625  1.1943  0.5632  0.9331
   13CHTO   H42 5409   5.192   6.554   3.704  0.9895  0.7350 -1.6225
   13CHTO   C22 5410   5.280   6.301   3.656 -0.2129 -0.1655 -0.7570
   13CHTO   H50 5411   5.222   6.319   3.566 -1.5005 -0.6862 -0.0433
   13CHTO   O14 5412   5.352   6.176   3.648 -0.1863 -0.0661 -0.0788
   13CHTO   C23 5413   5.433   6.172   3.533  0.7179  0.3611 -0.7720
   13CHTO   H51 5414   5.365   6.184   3.447  0.9626  4.6145 -0.4776
   13CHTO   C34 5415   5.496   6.033   3.535  0.3741 -0.7675 -0.6146
   13CHTO   O23 5416   5.539   5.990   3.408  0.1192  0.3036  0.6679
   13CHTO   H38 5417   5.566   5.900   3.408  0.4394  0.2711 -3.7583
   13CHTO   O16 5418   5.191   6.284   3.768  0.3342 -0.3402 -0.2928
   13CHTO   C24 5419   5.033   6.215   3.743  0.3854  0.4119  0.1874
   13CHTO   H52 5420   5.025   6.157   3.651 -0.8407 -1.1154  1.2431
   13CHTO   C26 5421   4.931   6.329   3.739  0.0577 -0.2628  0.0593
   13CHTO   H54 5422   4.962   6.405   3.815  0.9815  0.0156 -0.5839
   13CHTO   O20 5423   4.944   6.404   3.618  0.0893 -0.2856  0.0783
   13CHTO   H36 5424   4.911   6.370   3.537 -0.9684  1.2113 -0.1482
   13CHTO   C30 5425   4.782   6.283   3.760  0.0436  0.3054 -0.5093
   13CHTO   H58 5426   4.748   6.224   3.674  0.3277  2.1440 -1.9254
   13CHTO    N6 5427   4.677   6.391   3.771 -0.4692  0.3662  0.1006
   13CHTO   H45 5428   4.689   6.456   3.857 -1.5796 -0.5694  0.9810
   13CHTO   H46 5429   4.579   6.346   3.777 -0.6743  0.8017 -0.0242
   13CHTO   C33 5430   4.771   6.172   3.866  0.8906 -0.5400  0.7892
   13CHTO   H61 5431   4.790   6.217   3.965 -1.7162  1.5993  0.3835
   13CHTO   O18 5432   4.872   6.075   3.842  0.2400  0.3639  0.8858
   13CHTO   C28 5433   5.009   6.120   3.859  0.4081 -0.1085 -0.3016
   13CHTO   H56 5434   5.030   6.180   3.947 -1.9757  0.1058  0.1546
   13CHTO   C35 5435   5.100   6.002   3.857  0.2039 -0.2883  0.5616
   13CHTO   O24 5436   5.102   5.932   3.980  0.1023  0.4125  0.0143
   13CHTO   H39 5437   5.175   5.874   3.965  0.3715 -0.2058  3.3703
   13CHTO    O9 5438   4.639   6.109   3.880  0.6157  0.0976 -0.1787
   13CHTO   C13 5439   4.584   6.071   4.028 -0.2074 -0.4826  0.0843
   13CHTO   H26 5440   4.605   6.149   4.104 -2.1888  0.1993 -0.0424
   13CHTO   C11 5441   4.649   5.927   4.065  0.0826 -0.1340 -0.2270
   13CHTO   H24 5442   4.751   5.950   4.100 -0.6569  0.3499  1.7082
   13CHTO    O8 5443   4.669   5.843   3.946 -0.3325 -0.2497  0.0696
   13CHTO    H3 5444   4.647   5.754   3.965 -1.4901 -0.0825 -0.4377
   13CHTO    C9 5445   4.565   5.857   4.179 -0.0091  0.0232  0.3008
   13CHTO   H22 5446   4.557   5.934   4.257  0.3413 -0.3570  0.7151
   13CHTO    N2 5447   4.636   5.744   4.246 -0.3203 -0.3576 -0.3971
   13CHTO   H10 5448   4.590   5.708   4.337 -1.9143  0.2972 -0.9272
   13CHTO   H11 5449   4.667   5.663   4.182 -3.0722 -1.1147 -0.8094
   13CHTO    C7 5450   4.420   5.830   4.124 -0.3497 -0.3189 -0.1647
   13CHTO   H20 5451   4.363   5.860   4.214 -0.1799  0.2846 -0.2563
   13CHTO    O4 5452   4.393   5.917   4.010 -0.0636  0.7606 -0.2415
   13CHTO   C14 5453   4.432   6.058   4.028  1.2844  0.0258  0.9007
   13CHTO   H27 5454   4.382   6.080   4.124 -2.9678  0.2671 -1.2131
   13CHTO   C18 5455   4.350   6.155   3.921  0.1926  0.3459  0.1495
   13CHTO   O13 5456   4.211   6.165   3.942 -0.4064 -0.2129 -0.0124
   13CHTO    H7 5457   4.167   6.203   3.868 -0.3099  1.7405  0.9198
   13CHTO    O2 5458   4.384   5.697   4.088 -0.8965  0.2288 -0.2104
   13CHTO    C1 5459   4.250   5.660   4.129  0.1016  0.2354 -0.8870
   13CHTO   H14 5460   4.178   5.745   4.120 -1.6841 -0.8617  2.2147
   13CHTO    C2 5461   4.226   5.599   4.278 -0.0017  0.1054 -0.7879
   13CHTO   H15 5462   4.273   5.500   4.283 -2.4747 -1.0954 -0.5785
   13CHTO    O6 5463   4.283   5.686   4.377 -0.1446  0.3271 -0.2978
   13CHTO    H1 5464   4.230   5.682   4.454  0.5303 -0.0487  0.1554
   13CHTO    C3 5465   4.066   5.564   4.302  0.4063  0.3140  0.9874
   13CHTO   H16 5466   4.013   5.656   4.274 -0.2416  0.2943  2.1115
   13CHTO    N1 5467   4.027   5.519   4.435  0.2790 -0.0842  0.5192
   13CHTO    H8 5468   4.092   5.442   4.475  0.8437 -1.4938 -2.9433
   13CHTO    H9 5469   3.927   5.480   4.424  1.6412 -3.2006 -1.6206
   13CHTO    C4 5470   4.039   5.463   4.185 -0.5434  0.0025 -0.0792
   13CHTO   H17 5471   4.102   5.375   4.197 -0.0720  0.1311 -1.4767
   13CHTO    O1 5472   4.061   5.521   4.053 -0.4656  0.3983  0.5609
   13CHTO    C5 5473   4.196   5.557   4.026  0.0730  0.1689 -0.5138
   13CHTO   H18 5474   4.267   5.475   4.039  2.2809  1.7504 -2.2044
   13CHTO   C16 5475   4.202   5.600   3.880  0.3113  0.0292  0.0665
   13CHTO   O11 5476   4.154   5.508   3.784  0.1622  0.2277  0.2013
   13CHTO    H5 5477   4.093   5.557   3.733  0.7564 -0.2547 -1.0047
   13CHTO    O3 5478   3.899   5.422   4.182 -0.3663 -0.2539 -0.0499
   13CHTO    C6 5479   3.873   5.308   4.092  0.5461 -0.5799  0.0601
   13CHTO   H19 5480   3.954   5.293   4.021  1.9658  2.9321  0.8272
   13CHTO    C8 5481   3.866   5.175   4.169  0.5154 -0.2231 -0.3145
   13CHTO   H21 5482   3.804   5.191   4.257 -2.7752 -1.3523 -2.3440
   13CHTO    O7 5483   4.000   5.151   4.219 -0.4587 -0.2055 -0.9918
   13CHTO    H2 5484   4.006   5.205   4.295  3.2488 -1.5920 -0.2183
   13CHTO   C12 5485   3.815   5.057   4.065  0.2545  0.1406  0.1557
   13CHTO   H25 5486   3.896   5.050   3.989 -2.0941  0.5793 -2.4848
   13CHTO    N3 5487   3.801   4.933   4.141 -0.2563  0.2423  0.0886
   13CHTO   H12 5488   3.744   4.951   4.232  1.5895  0.3560  1.2466
   13CHTO   H13 5489   3.782   4.838   4.093 -0.3980 -1.4889  3.3721
   13CHTO   C15 5490   3.690   5.109   3.991 -0.2292 -0.0475  0.0213
   13CHTO   H28 5491   3.614   5.129   4.067  0.8645  0.1940  1.0579
   13CHTO   O10 5492   3.629   5.019   3.903  0.4054 -0.3275  0.6306
   13CHTO    H4 5493   3.551   5.049   3.859  1.1018 -0.0272 -0.4198
   13CHTO    O5 5494   3.711   5.229   3.916  0.0107 -0.3210 -0.2211
   13CHTO   C10 5495   3.741   5.336   4.005  0.1651 -0.4858  0.2199
   13CHTO   H23 5496   3.664   5.356   4.079 -0.1906 -0.5609 -0.1282
   13CHTO   C17 5497   3.756   5.462   3.918 -0.3943 -0.0921  0.6905
   13CHTO   O12 5498   3.627   5.486   3.857  0.1270  0.4948  0.0763
   13CHTO    H6 5499   3.599   5.573   3.875  0.2816  0.0789  2.5164
   14CHTO  H203 5500   5.437   4.859   2.777  0.5038  2.7064  2.0182
   14CHTO   O82 5501   5.530   4.848   2.771  0.1181 -0.2340  0.0200
   14CHTO  C123 5502   5.578   4.715   2.784 -0.3329  0.3410  0.1053
   14CHTO  H227 5503   5.684   4.714   2.814 -0.1412  1.3841 -0.5140
   14CHTO   O77 5504   5.497   4.658   2.889  0.0526  0.3598 -0.3232
   14CHTO  C118 5505   5.554   4.529   2.929  0.1736 -0.5651  0.1363
   14CHTO  H222 5506   5.657   4.536   2.967  1.3537 -2.7539 -2.5479
   14CHTO  C125 5507   5.474   4.475   3.052  0.3405  0.3686 -0.4741
   14CHTO   O84 5508   5.333   4.461   3.042 -0.1305  0.0657 -0.2501
   14CHTO  H205 5509   5.280   4.481   3.117 -1.4113 -1.4758 -0.7440
   14CHTO  C114 5510   5.547   4.424   2.812  1.0901 -0.0119 -0.0362
   14CHTO  H218 5511   5.442   4.400   2.798  0.6614  1.2431  0.9262
   14CHTO  C116 5512   5.595   4.474   2.674 -0.4144 -0.1050 -0.1768
   14CHTO  H220 5513   5.706   4.475   2.685 -0.2775 -1.3854 -1.3742
   14CHTO   O79 5514   5.555   4.395   2.560 -0.9143  0.1401 -0.3212
   14CHTO  H201 5515   5.472   4.352   2.563 -0.7074 -0.3886 -1.9602
   14CHTO  C120 5516   5.557   4.629   2.651  0.1951 -0.8359 -0.6581
   14CHTO  H224 5517   5.450   4.625   2.623 -0.4590  0.8317  1.4180
   14CHTO   N21 5518   5.638   4.681   2.537 -0.3390 -0.2729  0.5741
   14CHTO  H211 5519   5.664   4.785   2.547 -2.8163  0.4694 -0.2676
   14CHTO  H212 5520   5.583   4.657   2.447  0.7754  0.2606 -0.2598
   14CHTO   O75 5521   5.622   4.315   2.875  0.0482  0.0138  0.2688
   14CHTO  C112 5522   5.575   4.154   2.812 -0.9101 -0.0831  0.2003
   14CHTO  H216 5523   5.661   4.087   2.824 -0.0587  0.8493 -0.6029
   14CHTO   O73 5524   5.540   4.168   2.675  0.1669  0.6099  0.1320
   14CHTO  C113 5525   5.498   4.046   2.606 -0.1694  0.0235  0.1644
   14CHTO  H217 5526   5.583   3.976   2.615 -0.5229 -0.8305 -2.6976
   14CHTO  C124 5527   5.474   4.078   2.457  0.2610  0.9064 -0.3503
   14CHTO   O83 5528   5.594   4.110   2.380 -0.1845  0.0253  0.1170
   14CHTO  H204 5529   5.618   4.200   2.384  0.2963 -0.0461 -0.8775
   14CHTO  C109 5530   5.375   3.979   2.679  0.4036  0.8865  0.0256
   14CHTO  H213 5531   5.289   4.045   2.661 -0.1877  0.1766  0.2050
   14CHTO  C110 5532   5.397   3.971   2.834 -0.3950  0.7634  0.0724
   14CHTO  H214 5533   5.455   3.882   2.861  0.9761  1.7719  0.5261
   14CHTO   O78 5534   5.271   3.942   2.892  0.6658 -0.6391  0.4776
   14CHTO  H200 5535   5.223   3.877   2.845  0.4158 -1.3629  1.7183
   14CHTO  C111 5536   5.452   4.101   2.892 -0.6390  0.5683 -0.3477
   14CHTO  H215 5537   5.375   4.180   2.888 -2.1594 -0.7939  1.0322
   14CHTO   N19 5538   5.490   4.091   3.039 -0.2853 -0.0072  0.1038
   14CHTO  H207 5539   5.402   4.082   3.101 -0.0898 -3.5573 -0.0260
   14CHTO  H208 5540   5.536   3.995   3.059  3.3633  2.2184  2.7975
   14CHTO   O74 5541   5.345   3.846   2.620  0.1873 -0.2808  0.3965
   14CHTO  C115 5542   5.228   3.863   2.483 -0.5292 -0.1566 -0.6892
   14CHTO  H219 5543   5.234   3.961   2.434 -1.3275 -0.2379 -0.9532
   14CHTO   O76 5544   5.259   3.754   2.372 -0.0990  0.2167 -0.1074
   14CHTO  C122 5545   5.173   3.745   2.257 -0.9880  0.4083  0.0274
   14CHTO  H226 5546   5.204   3.652   2.210 -1.6246  0.0428  0.3266
   14CHTO  C126 5547   5.187   3.863   2.150  0.3572  0.3611 -0.7058
   14CHTO   O85 5548   5.320   3.893   2.120  0.2504  0.1570 -0.0461
   14CHTO  H206 5549   5.338   3.860   2.034 -0.3878  0.0997 -0.1577
   14CHTO  C121 5550   5.028   3.741   2.308 -0.2679  0.3649  0.7616
   14CHTO  H225 5551   4.961   3.752   2.221  0.5303 -0.5950  0.0190
   14CHTO   O81 5552   4.995   3.621   2.373 -0.4005 -0.3488 -0.3970
   14CHTO  H202 5553   4.920   3.583   2.331 -0.0857 -0.9565 -0.4204
   14CHTO  C119 5554   4.996   3.863   2.402  0.0634  0.1007 -0.1928
   14CHTO  H223 5555   5.029   3.952   2.349  2.8985 -0.7569 -0.0057
   14CHTO  C117 5556   5.077   3.852   2.535  0.4410  0.2109 -0.0120
   14CHTO  H221 5557   5.074   3.758   2.590  2.6515  0.5268  0.7151
   14CHTO   N20 5558   5.043   3.959   2.639  0.1535  0.0233 -0.4027
   14CHTO  H209 5559   5.114   3.960   2.720 -0.3861 -1.9602  0.1241
   14CHTO  H210 5560   5.054   4.057   2.596 -0.3190 -0.2692 -1.2084
   14CHTO   O80 5561   4.845   3.895   2.412  0.3593 -0.7735 -0.6476
   14CHTO  C103 5562   4.783   4.037   2.338  0.1516 -0.6829  0.1556
   14CHTO  H190 5563   4.834   4.129   2.366 -2.4219  0.6686  0.5201
   14CHTO  C101 5564   4.767   4.045   2.181  0.4671 -0.1272 -0.0973
   14CHTO  H188 5565   4.721   3.949   2.156  0.4221 -0.2107  0.3039
   14CHTO   O68 5566   4.903   4.047   2.108 -0.0560 -0.2777  0.2208
   14CHTO  H168 5567   4.957   3.975   2.135  0.3996 -0.2032 -0.4824
   14CHTO   C99 5568   4.668   4.166   2.128 -0.4210 -0.6827 -1.1928
   14CHTO  H186 5569   4.735   4.254   2.126 -1.0714 -0.1175  0.8967
   14CHTO   N17 5570   4.630   4.148   1.983  0.0144 -0.8532  0.4905
   14CHTO  H174 5571   4.526   4.117   1.981 -0.5810  0.9576  1.8427
   14CHTO  H175 5572   4.702   4.083   1.936 -1.4871 -0.9183 -1.7700
   14CHTO   C97 5573   4.551   4.204   2.219 -0.1265  0.3722 -0.8612
   14CHTO  H184 5574   4.458   4.152   2.191 -0.8840  0.7842  0.8070
   14CHTO   O64 5575   4.586   4.182   2.363 -0.5443 -0.1220  0.2335
   14CHTO  C104 5576   4.639   4.049   2.398 -0.7877 -0.3748  0.4643
   14CHTO  H191 5577   4.578   3.968   2.358 -0.6191 -1.1792  1.8097
   14CHTO  C108 5578   4.630   4.029   2.549 -0.6896  0.7687 -0.1962
   14CHTO   O71 5579   4.667   4.144   2.629 -0.0483  0.0778  0.5263
   14CHTO  H171 5580   4.621   4.219   2.597 -0.6139 -1.0679 -1.4254
   14CHTO   O62 5581   4.534   4.345   2.216 -1.0819  0.4426 -0.0268
   14CHTO   C91 5582   4.392   4.391   2.209 -0.1348 -0.1935  0.0666
   14CHTO  H178 5583   4.328   4.315   2.255  0.6868 -1.5773 -1.0251
   14CHTO   C92 5584   4.349   4.405   2.069  0.2247  0.4106  0.4347
   14CHTO  H179 5585   4.376   4.318   2.006 -0.1164  1.8290 -1.7376
   14CHTO   O66 5586   4.205   4.414   2.065  0.2293 -0.4118  0.0624
   14CHTO  H166 5587   4.158   4.336   2.084  0.2490 -0.5265 -0.3634
   14CHTO   C93 5588   4.416   4.534   2.006  0.0294  0.1841 -0.1460
   14CHTO  H180 5589   4.364   4.549   1.910  0.0201  2.2273  0.1568
   14CHTO   N16 5590   4.554   4.508   1.953 -0.2133 -0.7643 -0.7355
   14CHTO  H172 5591   4.622   4.492   2.035  1.5971  1.3364 -1.7722
   14CHTO  H173 5592   4.590   4.595   1.901 -2.0403  1.4028  1.5412
   14CHTO   C94 5593   4.402   4.663   2.101 -0.2983 -0.4168  0.0864
   14CHTO  H181 5594   4.496   4.692   2.148 -0.2318 -1.7857  0.8111
   14CHTO   O61 5595   4.319   4.632   2.213 -0.3608  0.5936 -0.3509
   14CHTO   C95 5596   4.366   4.523   2.295  0.5875 -0.7829  0.8852
   14CHTO  H182 5597   4.458   4.553   2.345  0.8320  1.7518 -1.0135
   14CHTO  C106 5598   4.263   4.483   2.408  0.2274 -0.4135  0.4621
   14CHTO   O69 5599   4.317   4.379   2.492 -0.7382  0.4137 -0.6515
   14CHTO  H169 5600   4.365   4.424   2.558 -0.9731 -0.6234  0.2288
   14CHTO   O63 5601   4.337   4.787   2.034  0.0982  0.3290 -0.0977
   14CHTO   C96 5602   4.453   4.917   1.979  0.4279  0.4369  0.1448
   14CHTO  H183 5603   4.397   4.984   1.914 -1.1114 -0.4618  0.5237
   14CHTO   C98 5604   4.569   4.874   1.884 -0.2549 -0.3685 -0.2500
   14CHTO  H185 5605   4.628   4.795   1.932 -1.2793 -0.0554  1.5728
   14CHTO   O67 5606   4.521   4.822   1.760  0.2633  0.0752  0.2490
   14CHTO  H167 5607   4.496   4.731   1.763  0.6968 -0.0576 -0.0979
   14CHTO  C102 5608   4.664   5.001   1.855  0.1344  0.4687 -0.4952
   14CHTO  H189 5609   4.617   5.055   1.772  2.8810  0.8368 -1.8445
   14CHTO   N18 5610   4.795   4.960   1.800 -0.0321 -0.2246  0.2331
   14CHTO  H176 5611   4.788   4.862   1.756  0.1054  0.2004 -0.7399
   14CHTO  H177 5612   4.850   5.033   1.743  0.5302 -0.8866 -0.0739
   14CHTO  C105 5613   4.694   5.088   1.981  0.1426  0.4643 -0.5489
   14CHTO  H192 5614   4.768   5.042   2.047 -3.1208 -2.5977  1.0901
   14CHTO   O65 5615   4.572   5.107   2.051 -0.3800  0.0554 -0.9585
   14CHTO  C100 5616   4.509   4.993   2.104  0.3998 -1.1181  0.1479
   14CHTO  H187 5617   4.583   4.931   2.158  0.3499 -0.5679  0.8459
   14CHTO  C107 5618   4.393   5.025   2.194 -0.5236  0.2528  0.4868
   14CHTO   O70 5619   4.430   5.084   2.322  0.1128 -0.2296 -0.1812
   14CHTO  H170 5620   4.380   5.044   2.391 -0.3234  1.3887  0.4521
   14CHTO   O57 5621   4.750   5.230   1.931  0.0844  0.0808 -0.4057
   14CHTO   C85 5622   4.807   5.315   2.033 -0.2075  0.5777  0.1085
   14CHTO  H157 5623   4.779   5.258   2.124 -0.6591 -0.1365 -0.4641
   14CHTO   C83 5624   4.748   5.454   2.039  0.6929  0.3284  0.4489
   14CHTO  H155 5625   4.640   5.462   2.052  0.8798  3.3797  0.4368
   14CHTO   O56 5626   4.763   5.512   1.909 -0.2278 -0.7201 -0.2938
   14CHTO  H135 5627   4.749   5.452   1.838  1.0970  0.4963 -1.6413
   14CHTO   C81 5628   4.825   5.535   2.149  0.0134  0.2732 -0.5520
   14CHTO  H153 5629   4.820   5.481   2.244  1.9333  0.9601 -0.0225
   14CHTO   N14 5630   4.756   5.670   2.179 -0.0877  0.1504 -1.0301
   14CHTO  H141 5631   4.673   5.691   2.115 -0.1658 -0.5610 -1.1645
   14CHTO  H142 5632   4.724   5.673   2.281  0.5071 -1.4828 -0.7716
   14CHTO   C79 5633   4.973   5.549   2.116 -0.8403 -0.1673 -0.0362
   14CHTO  H151 5634   5.018   5.599   2.202 -0.0945  1.6966 -1.4887
   14CHTO   O52 5635   5.040   5.420   2.104 -0.3477 -0.1548  0.0929
   14CHTO   C86 5636   4.963   5.327   2.021  0.4832  0.6277 -0.1621
   14CHTO  H158 5637   4.985   5.364   1.919 -0.4922  0.2659 -0.5095
   14CHTO   C90 5638   5.022   5.180   2.013 -0.0429  0.8586  0.1010
   14CHTO   O60 5639   5.155   5.187   1.957  0.3041 -0.2671  0.4648
   14CHTO  H138 5640   5.157   5.198   1.863 -2.6586  0.1394  0.3970
   14CHTO   O50 5641   4.996   5.621   1.994  0.4791  0.2579 -0.3935
   14CHTO   C73 5642   5.086   5.718   1.933 -0.5435  0.1073 -0.0536
   14CHTO  H145 5643   5.079   5.806   1.999 -1.4688 -0.9050  1.2274
   14CHTO   C74 5644   5.030   5.744   1.795 -0.1244  0.1651  0.6299
   14CHTO  H146 5645   4.922   5.766   1.803 -0.3070 -1.0993  1.8568
   14CHTO   O54 5646   5.094   5.867   1.750  0.3001 -0.0244  0.3436
   14CHTO  H133 5647   5.043   5.942   1.773  0.0247 -0.5690  1.4901
   14CHTO   C75 5648   5.058   5.618   1.701  0.0237 -0.0021  0.3681
   14CHTO  H147 5649   4.998   5.533   1.737  0.6480  0.4434  2.5442
   14CHTO   N13 5650   5.022   5.637   1.557  0.6062 -0.2060  0.7271
   14CHTO  H139 5651   5.017   5.739   1.522 -0.6480 -0.1420  1.0660
   14CHTO  H140 5652   4.926   5.597   1.526  0.5516  1.2653 -1.0973
   14CHTO   C76 5653   5.216   5.569   1.711 -0.1106 -0.3960  0.2589
   14CHTO  H148 5654   5.283   5.651   1.683 -1.8005  1.2142  0.8719
   14CHTO   O49 5655   5.245   5.550   1.850 -0.2052 -0.4482 -0.3749
   14CHTO   C77 5656   5.237   5.672   1.919  0.3645 -0.5869  0.0932
   14CHTO  H149 5657   5.291   5.758   1.878  1.0097 -0.7325  0.6165
   14CHTO   C88 5658   5.293   5.660   2.063  0.0017  0.4322  0.0350
   14CHTO   O58 5659   5.437   5.608   2.063 -0.2495 -0.0624 -0.0672
   14CHTO  H136 5660   5.443   5.523   2.102  0.8849  0.5544  1.1416
   14CHTO   O51 5661   5.263   5.437   1.649  0.2767 -0.4970 -0.2695
   14CHTO   C78 5662   5.403   5.455   1.595  0.5197  0.8997 -0.3626
   14CHTO  H150 5663   5.460   5.538   1.641  0.5194  0.6362  0.1072
   14CHTO   C80 5664   5.389   5.488   1.444  0.3278  0.0789  0.1198
   14CHTO  H152 5665   5.317   5.414   1.403  1.6277 -1.1484  0.0118
   14CHTO   O55 5666   5.333   5.617   1.441  0.0550 -0.1089 -0.3601
   14CHTO  H134 5667   5.375   5.682   1.494  1.4770 -0.8392 -0.5906
   14CHTO   C84 5668   5.527   5.477   1.369  0.4331 -0.0867 -0.0878
   14CHTO  H156 5669   5.590   5.566   1.382 -1.8563  1.4154  1.0062
   14CHTO   N15 5670   5.503   5.479   1.221  0.0742 -0.0747  0.1365
   14CHTO  H143 5671   5.492   5.382   1.177  0.0223 -0.6417  1.3873
   14CHTO  H144 5672   5.415   5.537   1.203 -0.5709 -0.6370  1.4241
   14CHTO   C87 5673   5.615   5.351   1.403 -0.8667  0.6572  0.1522
   14CHTO  H159 5674   5.579   5.261   1.353 -1.7165  0.3464  1.3027
   14CHTO   O53 5675   5.609   5.314   1.563  0.1402  0.2358 -0.7514
   14CHTO   C82 5676   5.477   5.327   1.627 -0.3011 -0.2233 -0.0036
   14CHTO  H154 5677   5.413   5.249   1.585 -0.3144 -0.4897  0.5077
   14CHTO   C89 5678   5.486   5.303   1.782 -0.1469  0.1614 -1.0502
   14CHTO   O59 5679   5.566   5.401   1.844  0.1586  0.0382  0.7716
   14CHTO  H137 5680   5.575   5.361   1.928  0.2409  1.2777  1.3723
   14CHTO   O45 5681   5.748   5.364   1.370 -0.4600  0.4032 -0.6873
   14CHTO   C67 5682   5.828   5.251   1.341  0.5897  0.3341 -0.0277
   14CHTO  H124 5683   5.834   5.187   1.429  0.9215 -0.4370 -0.6031
   14CHTO   C65 5684   5.795   5.167   1.208 -0.1372 -0.4465 -0.3887
   14CHTO  H122 5685   5.689   5.154   1.189 -0.5274  1.0052  0.7209
   14CHTO   O44 5686   5.844   5.040   1.217  0.0166  0.2266 -0.5337
   14CHTO  H102 5687   5.769   4.986   1.230 -0.6745  0.6531 -2.5039
   14CHTO   C63 5688   5.848   5.245   1.080 -0.1207  0.5729  0.0527
   14CHTO  H120 5689   5.826   5.352   1.089  3.2927  1.3945 -0.5017
   14CHTO   N11 5690   5.785   5.215   0.945  0.2323  0.4771 -0.0041
   14CHTO  H108 5691   5.851   5.162   0.881  0.0982  2.6064 -1.9564
   14CHTO  H109 5692   5.771   5.306   0.891  1.4873  0.6713 -0.0085
   14CHTO   C61 5693   5.998   5.250   1.089  0.0660 -0.6140  0.0461
   14CHTO  H118 5694   6.029   5.333   1.024  1.0370 -0.3555  0.8269
   14CHTO   O40 5695   6.056   5.280   1.225  0.5555 -0.7361  0.3292
   14CHTO   C68 5696   5.967   5.326   1.331  0.0506  0.5214 -0.1204
   14CHTO  H125 5697   5.959   5.437   1.330  0.3689  0.5961  2.1221
   14CHTO   C72 5698   6.047   5.290   1.457 -0.0362 -0.1935 -0.4996
   14CHTO   O48 5699   6.030   5.373   1.573  0.2293 -0.5780  0.1395
   14CHTO  H105 5700   5.992   5.326   1.645 -2.1446  1.1527  0.0900
   14CHTO   O38 5701   6.070   5.131   1.048  0.0555 -0.0930  0.1103
   14CHTO   C55 5702   6.180   5.148   0.955  0.0570  0.0180  0.7714
   14CHTO  H112 5703   6.198   5.254   0.937 -1.9461  0.2861  0.2011
   14CHTO   C56 5704   6.134   5.070   0.821 -0.8967  0.9874  0.6110
   14CHTO  H113 5705   6.103   4.969   0.850  1.9288 -0.7145 -2.0435
   14CHTO   O42 5706   6.025   5.128   0.767 -0.4290  0.0405  0.4675
   14CHTO  H100 5707   6.044   5.213   0.733  0.8438  0.2644  1.6728
   14CHTO   C57 5708   6.252   5.068   0.722  0.5559  0.0344  0.0715
   14CHTO  H114 5709   6.269   5.173   0.696 -0.0037  0.0405 -0.2677
   14CHTO   N10 5710   6.225   4.999   0.591  0.2697  0.5658 -0.9245
   14CHTO  H106 5711   6.312   4.948   0.551 -0.2111  0.1818 -1.5041
   14CHTO  H107 5712   6.189   5.069   0.517  0.3324  0.6073 -0.9152
   14CHTO   C58 5713   6.385   5.015   0.778 -0.6779 -0.4604 -0.4232
   14CHTO  H115 5714   6.377   4.905   0.795  0.1356 -0.2333  1.5856
   14CHTO   O37 5715   6.411   5.071   0.905  0.1317  0.0523  0.5220
   14CHTO   C59 5716   6.307   5.073   1.006  0.3287  0.1586  0.0830
   14CHTO  H116 5717   6.293   4.967   1.027 -1.3054  0.1966 -0.7569
   14CHTO   C70 5718   6.370   5.131   1.132  0.1248 -0.7432  0.4052
   14CHTO   O46 5719   6.488   5.070   1.178  0.5144  0.3790 -0.3408
   14CHTO  H103 5720   6.538   5.117   1.242 -0.0874 -1.1599  1.3119
   14CHTO   O39 5721   6.515   5.029   0.676 -0.4176  0.1399 -0.0030
   14CHTO   C60 5722   6.642   4.964   0.716 -0.1257 -0.5960 -0.2927
   14CHTO  H117 5723   6.714   5.030   0.667  1.0222 -0.6704  1.2728
   14CHTO   C62 5724   6.700   4.945   0.861 -0.4656 -0.1989  0.0170
   14CHTO  H119 5725   6.717   5.044   0.909  1.4811 -1.4943  2.0894
   14CHTO   O43 5726   6.617   4.867   0.941  0.4238 -0.0905  0.5109
   14CHTO  H101 5727   6.645   4.853   1.030 -1.4833  1.2617  1.3764
   14CHTO   C66 5728   6.845   4.882   0.852  0.1075 -0.4110  0.6250
   14CHTO  H123 5729   6.910   4.949   0.797 -1.2847  1.6271  1.4142
   14CHTO   N12 5730   6.915   4.870   0.981  0.5532  0.0263  0.7643
   14CHTO  H110 5731   7.012   4.827   0.962 -0.3431 -0.8746 -2.0725
   14CHTO  H111 5732   6.851   4.815   1.048 -1.2444  1.8050  0.5673
   14CHTO   C69 5733   6.838   4.739   0.784 -0.0358  0.1334  0.5569
   14CHTO  H126 5734   6.768   4.679   0.845 -0.3572  0.6257  0.6770
   14CHTO   O41 5735   6.781   4.757   0.664 -0.3001 -0.6383  0.2668
   14CHTO   C64 5736   6.651   4.834   0.635 -0.2995  0.5831  0.0614
   14CHTO  H121 5737   6.558   4.776   0.654 -0.3556  0.2780 -1.0479
   14CHTO   C71 5738   6.640   4.864   0.483 -0.1922 -0.7006  0.8601
   14CHTO   O47 5739   6.759   4.908   0.415 -0.6510 -0.2285  0.0728
   14CHTO  H104 5740   6.818   4.960   0.466  0.0861 -2.9694  2.1178
   14CHTO   O34 5741   6.986   4.666   0.757 -0.1530  0.4676 -0.8845
   14CHTO   C49 5742   7.128   4.624   0.722 -0.4560 -0.0373 -0.0200
   14CHTO   H91 5743   7.139   4.516   0.722  0.2949  0.0234 -1.5111
   14CHTO   C47 5744   7.230   4.691   0.814 -0.4353  0.0562  0.9822
   14CHTO   H89 5745   7.323   4.632   0.800 -0.4489 -0.1467  1.7407
   14CHTO   O33 5746   7.198   4.668   0.948  0.0590 -0.0174 -0.1437
   14CHTO   H70 5747   7.184   4.748   0.995  1.0768 -0.4705  0.9616
   14CHTO   C45 5748   7.245   4.849   0.785  0.3243  0.4865 -0.6284
   14CHTO   H87 5749   7.194   4.907   0.864 -1.3418 -0.6961 -0.8068
   14CHTO    N8 5750   7.391   4.889   0.787 -0.6708 -0.1597 -0.2159
   14CHTO   H75 5751   7.406   4.995   0.802  0.1475 -0.7449  3.6221
   14CHTO   H76 5752   7.439   4.824   0.859 -0.7762  0.1425  0.1244
   14CHTO   C43 5753   7.168   4.890   0.649 -0.1689 -0.5536 -0.3343
   14CHTO   H85 5754   7.060   4.892   0.668  0.2314 -0.7190  2.0915
   14CHTO   O29 5755   7.207   4.797   0.544 -0.0501 -0.2690  0.0268
   14CHTO   C50 5756   7.161   4.666   0.574  0.3347  0.1408 -0.0691
   14CHTO   H92 5757   7.067   4.655   0.519  0.0266 -0.8489  0.6453
   14CHTO   C54 5758   7.261   4.567   0.501  0.9956 -0.2454  0.3378
   14CHTO   O36 5759   7.394   4.571   0.554  1.0235  0.1992  0.3710
   14CHTO   H72 5760   7.426   4.651   0.516  0.2750  0.9724  1.3621
   14CHTO   O27 5761   7.196   5.031   0.622  0.8012  0.3287 -0.5804
   14CHTO   C37 5762   7.124   5.151   0.600 -0.1212  0.5593  0.2599
   14CHTO   H79 5763   7.181   5.230   0.550 -0.4821  0.4882 -0.2584
   14CHTO   C38 5764   7.001   5.136   0.514  0.1151 -0.1688 -0.7286
   14CHTO   H80 5765   6.940   5.056   0.558  0.7760  1.1223  2.6182
   14CHTO   O31 5766   7.052   5.099   0.385 -0.2649 -0.3884  0.1068
   14CHTO   H68 5767   7.026   5.011   0.366  0.6897 -0.4954 -0.7797
   14CHTO   C39 5768   6.911   5.266   0.513 -1.0921  0.3398  0.3046
   14CHTO   H81 5769   6.970   5.344   0.465 -0.1179  0.0457  1.0269
   14CHTO    N7 5770   6.784   5.244   0.433 -0.4815 -0.0347 -0.3216
   14CHTO   H73 5771   6.721   5.173   0.484 -1.0972 -0.9219 -2.2638
   14CHTO   H74 5772   6.820   5.180   0.354  0.1395 -1.6948  1.2994
   14CHTO   C40 5773   6.886   5.312   0.661  0.0063  0.4144 -0.6058
   14CHTO   H82 5774   6.828   5.241   0.719 -1.2560  0.4957 -1.7353
   14CHTO   O26 5775   7.015   5.337   0.718 -0.3485  0.2257  0.0266
   14CHTO   C41 5776   7.086   5.212   0.734 -0.5897 -0.1569 -0.8747
   14CHTO   H83 5777   7.029   5.143   0.798  3.0235 -1.7046  0.7746
   14CHTO   C52 5778   7.207   5.247   0.821  0.4872 -0.1070  0.7579
   14CHTO   O35 5779   7.180   5.316   0.925 -0.2871  0.2240 -0.0311
   14CHTO   H71 5780   7.250   5.321   0.987  0.1558  0.4212 -0.5411
   14CHTO   O28 5781   6.817   5.438   0.671 -0.2853  0.1977 -0.2675
   14CHTO   C42 5782   6.773   5.500   0.801  0.2360 -0.3918 -0.2739
   14CHTO   H84 5783   6.749   5.603   0.772 -2.3074 -1.0621 -0.6673
   14CHTO   C44 5784   6.870   5.513   0.927 -0.2700  0.4877  0.2244
   14CHTO   H86 5785   6.900   5.413   0.958  0.9633  0.6468 -0.4140
   14CHTO   O32 5786   6.993   5.574   0.875 -0.6409 -0.0468 -0.2072
   14CHTO   H69 5787   6.997   5.666   0.890  1.5920  0.1214 -1.7553
   14CHTO   C48 5788   6.800   5.591   1.043 -0.7979 -0.3217 -0.4819
   14CHTO   H90 5789   6.791   5.695   1.009 -0.2345  0.0670  0.5344
   14CHTO    N9 5790   6.882   5.602   1.169  0.2448  0.3816 -0.4745
   14CHTO   H77 5791   6.822   5.653   1.242  1.5991  2.5338 -0.8339
   14CHTO   H78 5792   6.907   5.507   1.215 -0.2009  1.0275  1.1475
   14CHTO   C51 5793   6.652   5.539   1.077  0.8660 -0.0748  0.3118
   14CHTO   H93 5794   6.652   5.443   1.130 -2.6973  0.6629  1.7592
   14CHTO   O30 5795   6.579   5.534   0.956 -0.3686 -0.4314  0.0804
   14CHTO   C46 5796   6.642   5.436   0.856  0.6289 -0.2166  0.3177
   14CHTO   H88 5797   6.675   5.346   0.907 -0.9491  0.3707  2.4297
   14CHTO   C53 5798   6.540   5.403   0.738 -0.8124  0.0343  0.1614
   14CHTO   O72 5799   6.425   5.347   0.798 -0.2663 -0.1354 -0.5141
   14CHTO  H199 5800   6.409   5.382   0.883  1.0003 -1.0645  0.1143
   14CHTO   O22 5801   6.579   5.639   1.155  0.2670 -0.0689  0.4144
   14CHTO   C31 5802   6.475   5.608   1.253  0.1463 -0.3340 -0.0618
   14CHTO   H59 5803   6.492   5.503   1.286 -1.6119 -1.2753 -1.9879
   14CHTO   C29 5804   6.492   5.703   1.374  0.9032 -1.1416 -1.1406
   14CHTO   H57 5805   6.489   5.804   1.331 -0.4106 -1.5202 -1.9571
   14CHTO   O21 5806   6.620   5.683   1.433  0.5812 -0.2528  0.3117
   14CHTO   H37 5807   6.621   5.604   1.484  3.0296  0.3483  1.2903
   14CHTO   C27 5808   6.377   5.690   1.487  0.4277  0.4485 -0.1873
   14CHTO   H55 5809   6.396   5.599   1.546  0.2504  1.0429  0.8068
   14CHTO    N5 5810   6.390   5.806   1.580 -0.7846 -0.1914  0.1160
   14CHTO   H43 5811   6.367   5.905   1.542 -3.3223 -1.3059 -1.3531
   14CHTO   H44 5812   6.490   5.785   1.617 -1.3542 -0.2071  1.6692
   14CHTO   C25 5813   6.240   5.687   1.415  0.7117  0.5243 -0.0969
   14CHTO   H53 5814   6.230   5.787   1.370  0.9907  0.3274 -0.5996
   14CHTO   O17 5815   6.236   5.593   1.306 -0.5131  0.1098  0.1200
   14CHTO   C32 5816   6.326   5.619   1.199  0.4246  0.6441 -0.3300
   14CHTO   H60 5817   6.313   5.722   1.168  0.8364  0.9085  0.3579
   14CHTO   C36 5818   6.297   5.518   1.084 -0.2969 -0.0537  0.1306
   14CHTO   O25 5819   6.168   5.531   1.022 -0.0299  0.1421 -0.5702
   14CHTO   H40 5820   6.139   5.448   0.988 -0.2882  0.5218 -1.2932
   14CHTO   O15 5821   6.096   5.663   1.533  0.2404  0.0683 -0.6840
   14CHTO   C19 5822   6.008   5.682   1.650  0.5735 -0.2185  0.1850
   14CHTO   H47 5823   5.967   5.582   1.670 -0.1648 -0.3031 -1.6580
   14CHTO   C20 5824   6.079   5.743   1.773 -0.0511 -0.2273 -0.2385
   14CHTO   H48 5825   6.134   5.834   1.746  0.4954 -0.4206  0.2208
   14CHTO   O19 5826   6.177   5.648   1.814  0.2943 -0.1221 -0.1025
   14CHTO   H35 5827   6.249   5.690   1.857  1.2527 -1.4904 -0.3464
   14CHTO   C21 5828   5.981   5.771   1.901  0.1263 -0.3415 -0.2044
   14CHTO   H49 5829   5.943   5.674   1.935  1.0660 -0.2278  1.1649
   14CHTO    N4 5830   6.028   5.832   2.024  0.0664  0.1365 -0.2982
   14CHTO   H41 5831   6.097   5.764   2.071  0.8049  1.3932  0.4511
   14CHTO   H42 5832   5.956   5.860   2.099 -0.3267 -0.4163 -0.4628
   14CHTO   C22 5833   5.848   5.836   1.847 -0.9996 -0.0334 -0.1805
   14CHTO   H50 5834   5.866   5.942   1.831 -1.4449 -0.3282 -2.9039
   14CHTO   O14 5835   5.799   5.780   1.725 -0.0802  0.4093 -0.4590
   14CHTO   C23 5836   5.886   5.775   1.609  0.5770  0.0700 -0.1765
   14CHTO   H51 5837   5.917   5.875   1.576 -0.3781  0.2848 -0.4279
   14CHTO   C34 5838   5.797   5.729   1.499  0.3847  0.0168  0.1439
   14CHTO   O23 5839   5.856   5.722   1.373  0.2126 -0.1049 -0.5562
   14CHTO   H38 5840   5.791   5.710   1.307  1.7773  2.5558 -2.7206
   14CHTO   O16 5841   5.741   5.814   1.936 -0.5007  0.9049 -0.3130
   14CHTO   C24 5842   5.660   5.962   1.975  0.2389  0.3193  0.4424
   14CHTO   H52 5843   5.699   6.047   1.919  0.3602  0.8860  1.3712
   14CHTO   C26 5844   5.668   5.995   2.125 -0.1329  0.1954 -0.0927
   14CHTO   H54 5845   5.648   5.904   2.186 -0.6760  1.3340  1.4587
   14CHTO   O20 5846   5.804   6.024   2.155 -0.0978  0.1331  0.4524
   14CHTO   H36 5847   5.810   6.003   2.246  1.0271 -1.4470  0.0450
   14CHTO   C30 5848   5.571   6.104   2.186 -0.3190 -0.0605 -0.2958
   14CHTO   H58 5849   5.603   6.199   2.143  2.1057 -1.0566 -0.7751
   14CHTO    N6 5850   5.579   6.116   2.334 -0.2151  0.0709  0.3647
   14CHTO   H45 5851   5.603   6.219   2.357 -2.3531  0.6017  0.3821
   14CHTO   H46 5852   5.647   6.047   2.381  0.4379 -0.3551 -1.1656
   14CHTO   C33 5853   5.434   6.075   2.131  0.0502  0.4433  0.4848
   14CHTO   H61 5854   5.395   5.979   2.168 -1.3633  0.5013 -0.7765
   14CHTO   O18 5855   5.443   6.073   1.985  0.8066 -0.4292 -0.2570
   14CHTO   C28 5856   5.508   5.954   1.938  0.0737 -0.5598 -0.1205
   14CHTO   H56 5857   5.467   5.859   1.972 -0.3986 -0.0359  0.7786
   14CHTO   C35 5858   5.495   5.954   1.789 -0.1950  0.2154 -0.3157
   14CHTO   O24 5859   5.526   5.827   1.727  0.0487 -0.7217 -0.4080
   14CHTO   H39 5860   5.450   5.822   1.672 -1.4422  0.1342  1.5366
   14CHTO    O9 5861   5.332   6.171   2.171  0.0408  0.1137  0.6632
   14CHTO   C13 5862   5.171   6.089   2.161 -0.7852 -0.1955  0.2581
   14CHTO   H26 5863   5.159   6.052   2.057  0.6620 -0.5920  0.2206
   14CHTO   C11 5864   5.062   6.206   2.194 -0.0867 -0.1765 -0.2874
   14CHTO   H24 5865   5.064   6.277   2.110  0.3499 -0.3117 -0.3911
   14CHTO    O8 5866   5.070   6.274   2.323 -0.3261  0.5571 -0.4953
   14CHTO    H3 5867   5.151   6.314   2.347 -1.4271  1.6816  1.4638
   14CHTO    C9 5868   4.926   6.132   2.182 -0.1006  0.2222 -0.3817
   14CHTO   H22 5869   4.934   6.075   2.088  2.2885 -1.3002  0.7058
   14CHTO    N2 5870   4.803   6.216   2.181 -0.4656 -0.5094 -0.1678
   14CHTO   H10 5871   4.826   6.313   2.139 -0.1645 -0.3367  0.3983
   14CHTO   H11 5872   4.771   6.225   2.283 -0.1443 -0.5327 -0.0647
   14CHTO    C7 5873   4.916   6.016   2.288 -0.4106  0.6864  0.2215
   14CHTO   H20 5874   4.825   5.958   2.263 -0.6661  1.7831 -1.4696
   14CHTO    O4 5875   5.022   5.922   2.269 -0.1265  0.1689  0.6472
   14CHTO   C14 5876   5.158   5.967   2.261 -0.7478  1.0228 -0.0552
   14CHTO   H27 5877   5.214   5.881   2.218 -1.3936 -0.0115  1.1113
   14CHTO   C18 5878   5.220   5.992   2.405  0.0146  1.0316 -0.5868
   14CHTO   O13 5879   5.247   5.866   2.459  0.3177 -0.3196  0.2016
   14CHTO    H7 5880   5.213   5.846   2.544 -1.9524 -1.0877 -0.8393
   14CHTO    O2 5881   4.903   6.066   2.456 -0.2213 -0.5900 -0.1627
   14CHTO    C1 5882   4.809   5.986   2.540  0.3036  0.5919  0.2356
   14CHTO   H14 5883   4.829   5.877   2.528  0.3625  0.6984 -0.6748
   14CHTO    C2 5884   4.659   6.021   2.502  0.3828 -0.2015  0.2771
   14CHTO   H15 5885   4.660   6.125   2.466 -1.2023 -0.0398  0.6675
   14CHTO    O6 5886   4.626   5.943   2.385  0.9758  0.0288  0.1236
   14CHTO    H1 5887   4.615   5.853   2.408  1.7973 -0.3553 -0.9290
   14CHTO    C3 5888   4.554   6.010   2.621  0.4575  0.4356  0.0557
   14CHTO   H16 5889   4.511   5.909   2.623 -1.0218  1.0133 -1.4314
   14CHTO    N1 5890   4.440   6.099   2.599 -0.5050  0.1261  0.4626
   14CHTO    H8 5891   4.353   6.046   2.636 -1.4619  0.4543 -1.2507
   14CHTO    H9 5892   4.430   6.105   2.492  2.7913 -0.9522  0.0649
   14CHTO    C4 5893   4.615   6.043   2.763  0.3466  1.0336  0.4604
   14CHTO   H17 5894   4.633   6.151   2.773  0.7970  1.0041 -0.0282
   14CHTO    O1 5895   4.736   5.973   2.781  0.0301  0.4594 -0.4192
   14CHTO    C5 5896   4.834   6.032   2.697 -0.4213  0.0785  0.6237
   14CHTO   H18 5897   4.842   6.140   2.696 -0.1247  0.0591 -0.3575
   14CHTO   C16 5898   4.962   5.976   2.752  0.7671 -0.1791  0.1254
   14CHTO   O11 5899   4.985   5.838   2.726  0.3256  0.4883  0.1155
   14CHTO    H5 5900   5.048   5.806   2.788  0.7710 -0.9956 -1.0744
   14CHTO    O3 5901   4.524   5.993   2.872  0.3572 -0.3677  0.2655
   14CHTO    C6 5902   4.550   6.032   3.008 -0.0699 -0.3319 -1.1698
   14CHTO   H19 5903   4.644   6.087   3.012 -1.7434  2.4955  1.7090
   14CHTO    C8 5904   4.448   6.134   3.073 -0.0791  0.6115  0.0809
   14CHTO   H21 5905   4.350   6.088   3.057 -0.0685  1.0645 -1.3937
   14CHTO    O7 5906   4.458   6.250   2.982 -0.1657 -0.0208  0.2403
   14CHTO    H2 5907   4.428   6.232   2.895  1.6877  3.8146 -1.3213
   14CHTO   C12 5908   4.481   6.174   3.221  0.5644 -0.2640 -0.3180
   14CHTO   H25 5909   4.578   6.225   3.201  1.5671 -2.5073 -1.2309
   14CHTO    N3 5910   4.376   6.263   3.279  0.7116  0.1879 -0.8770
   14CHTO   H12 5911   4.382   6.355   3.223 -0.2992 -0.6706 -2.4167
   14CHTO   H13 5912   4.287   6.205   3.260 -0.4294  1.0031  1.7406
   14CHTO   C15 5913   4.508   6.047   3.310 -0.6768 -0.7525  0.1867
   14CHTO   H28 5914   4.420   5.990   3.342 -0.3236 -0.2092  2.1786
   14CHTO   O10 5915   4.593   6.081   3.429 -0.9637 -0.0387 -0.3156
   14CHTO    H4 5916   4.579   6.008   3.486 -1.4804  0.5200  0.2744
   14CHTO    O5 5917   4.596   5.955   3.245 -0.3058  0.4410  0.2890
   14CHTO   C10 5918   4.564   5.916   3.109 -0.1988 -0.0028  0.1288
   14CHTO   H23 5919   4.465   5.871   3.122 -0.7909  1.7443  1.8328
   14CHTO   C17 5920   4.669   5.809   3.067  0.5465  0.5399  0.3379
   14CHTO   O12 5921   4.798   5.866   3.065 -0.1111 -0.4997  0.1976
   14CHTO    H6 5922   4.835   5.863   3.151 -2.3500  1.2014  1.2974
   15CHTO  H203 5923   5.805   4.709   2.016  0.3772 -1.8971  1.0557
   15CHTO   O82 5924   5.752   4.665   1.953 -0.5865  0.3034  0.2758
   15CHTO  C123 5925   5.827   4.549   1.910  0.5670 -0.0727  0.7337
   15CHTO  H227 5926   5.821   4.467   1.983  2.5692 -1.6191 -0.7820
   15CHTO   O77 5927   5.747   4.512   1.790  0.2637 -0.2424  0.0157
   15CHTO  C118 5928   5.796   4.408   1.703 -0.0714 -0.0443  0.0784
   15CHTO  H222 5929   5.807   4.325   1.775  2.0569 -0.1053 -0.3113
   15CHTO  C125 5930   5.692   4.374   1.591  0.3002  0.2088  0.4819
   15CHTO   O84 5931   5.573   4.326   1.653 -0.4249 -0.5896  0.6992
   15CHTO  H205 5932   5.491   4.366   1.630 -1.0485 -0.6645  2.6909
   15CHTO  C114 5933   5.933   4.446   1.642 -0.4678  0.9160  0.0368
   15CHTO  H218 5934   5.920   4.543   1.593 -2.9849  0.1199 -0.9306
   15CHTO  C116 5935   6.034   4.473   1.766 -0.6484  0.3417  0.7105
   15CHTO  H220 5936   6.061   4.379   1.817  1.6084 -0.1714 -1.3144
   15CHTO   O79 5937   6.160   4.510   1.715 -0.4995 -0.3205  0.0486
   15CHTO  H201 5938   6.218   4.542   1.782  0.0903  0.6855 -0.9230
   15CHTO  C120 5939   5.977   4.577   1.867 -0.0646 -0.3172  0.8637
   15CHTO  H224 5940   5.976   4.677   1.818 -0.8989 -0.9160 -0.3614
   15CHTO   N21 5941   6.070   4.592   1.982 -0.2430  0.0176  0.0016
   15CHTO  H211 5942   6.083   4.696   2.007  4.6196 -0.3681 -0.4939
   15CHTO  H212 5943   6.028   4.546   2.071  0.1327  0.1582  0.2498
   15CHTO   O75 5944   5.976   4.348   1.547  0.1581 -0.0423 -0.2188
   15CHTO  C112 5945   6.084   4.221   1.597  0.0376 -0.1455 -0.2778
   15CHTO  H216 5946   6.120   4.239   1.700 -0.1139 -0.8751 -0.0919
   15CHTO   O73 5947   6.190   4.216   1.504  1.4106 -0.2140  0.1464
   15CHTO  C113 5948   6.294   4.136   1.551 -0.0551  0.5084  0.3949
   15CHTO  H217 5949   6.319   4.160   1.657  0.4763 -0.4838  0.4964
   15CHTO  C124 5950   6.413   4.169   1.453  0.0228  0.2767 -0.2329
   15CHTO   O83 5951   6.537   4.104   1.495 -0.4859 -0.2319 -0.4509
   15CHTO  H204 5952   6.604   4.146   1.444 -0.5663  0.5067  0.0474
   15CHTO  C109 5953   6.248   3.995   1.548  1.0785 -0.1026  0.1877
   15CHTO  H213 5954   6.234   3.970   1.442  2.6681  3.0745 -0.8165
   15CHTO  C110 5955   6.118   3.972   1.626 -0.9911 -0.4619 -0.5284
   15CHTO  H214 5956   6.140   3.973   1.733  0.3445  0.1300 -0.8025
   15CHTO   O78 5957   6.067   3.846   1.594  0.5842 -0.3802 -0.3790
   15CHTO  H200 5958   6.050   3.798   1.673  1.8009 -0.9231 -0.4446
   15CHTO  C111 5959   6.013   4.087   1.597 -0.1134  0.3046  0.0375
   15CHTO  H215 5960   5.981   4.067   1.494 -0.2783 -0.1532  0.1741
   15CHTO   N19 5961   5.897   4.068   1.688  0.6091 -0.6085 -0.3092
   15CHTO  H207 5962   5.803   4.111   1.656  2.0226  3.4598  0.6495
   15CHTO  H208 5963   5.921   4.091   1.791 -1.0001  0.6932 -0.1869
   15CHTO   O74 5964   6.359   3.910   1.596  0.4095  0.0894  0.0158
   15CHTO  C115 5965   6.393   3.780   1.504 -0.4828 -0.3900 -0.0206
   15CHTO  H219 5966   6.312   3.751   1.438 -1.4352 -1.0440  1.4204
   15CHTO   O76 5967   6.515   3.799   1.419 -0.3609 -0.3151  0.6646
   15CHTO  C122 5968   6.528   3.697   1.320 -0.6148 -0.1285 -0.2420
   15CHTO  H226 5969   6.625   3.727   1.281 -0.3507  1.5210  1.5787
   15CHTO  C126 5970   6.431   3.699   1.197  0.0756 -0.8016 -0.6109
   15CHTO   O85 5971   6.467   3.608   1.089  0.8423 -0.5036 -0.4428
   15CHTO  H206 5972   6.395   3.601   1.029  0.5429  0.3247 -0.1823
   15CHTO  C121 5973   6.527   3.551   1.378 -0.5539 -0.0070 -0.0732
   15CHTO  H225 5974   6.509   3.478   1.297 -1.0953 -0.9248  0.8605
   15CHTO   O81 5975   6.659   3.527   1.423  0.3151  0.1664  0.4954
   15CHTO  H202 5976   6.691   3.442   1.398  1.1813  1.0751 -1.5930
   15CHTO  C119 5977   6.419   3.531   1.496 -0.6672 -0.3205 -0.8769
   15CHTO  H223 5978   6.321   3.528   1.450 -0.6257  1.2472 -1.0710
   15CHTO  C117 5979   6.413   3.656   1.591  0.0375  0.3852 -0.5091
   15CHTO  H221 5980   6.503   3.661   1.652 -0.0764 -0.6192 -0.2543
   15CHTO   N20 5981   6.307   3.637   1.696  0.4119  0.0039  0.5676
   15CHTO  H209 5982   6.300   3.727   1.756  0.6046  1.6807 -1.8275
   15CHTO  H210 5983   6.316   3.544   1.749  0.9784 -0.7083 -0.7400
   15CHTO   O80 5984   6.429   3.387   1.563  0.2870  0.0283 -0.1846
   15CHTO  C103 5985   6.331   3.281   1.542  0.8324 -0.3411 -0.3465
   15CHTO  H190 5986   6.358   3.200   1.610  3.1090 -1.5719 -2.6231
   15CHTO  C101 5987   6.180   3.305   1.567 -0.3165  0.2300  0.2531
   15CHTO  H188 5988   6.147   3.387   1.502 -0.7184  0.2286  0.4561
   15CHTO   O68 5989   6.156   3.340   1.709 -0.3016  0.1567 -0.3371
   15CHTO  H168 5990   6.179   3.268   1.764 -0.3824  0.4355  0.0665
   15CHTO   C99 5991   6.090   3.169   1.528  0.1128  0.3732  0.0569
   15CHTO  H186 5992   6.108   3.079   1.591  0.6930 -0.7263 -1.6680
   15CHTO   N17 5993   5.937   3.192   1.544 -0.2893  0.6164 -0.3583
   15CHTO  H174 5994   5.861   3.149   1.480  0.5250  0.7294 -1.4112
   15CHTO  H175 5995   5.897   3.211   1.643  0.1148  2.2490 -0.4927
   15CHTO   C97 5996   6.128   3.128   1.385 -0.0947  0.3993  0.0481
   15CHTO  H184 5997   6.098   3.217   1.327  1.8510  1.2986  0.3784
   15CHTO   O64 5998   6.266   3.110   1.377 -0.4321 -0.2882  0.1273
   15CHTO  C104 5999   6.352   3.222   1.397 -0.9172 -0.1417 -0.3164
   15CHTO  H191 6000   6.326   3.300   1.325 -1.6098  1.6063  1.7719
   15CHTO  C108 6001   6.501   3.183   1.373 -0.7776  0.2866  0.0061
   15CHTO   O71 6002   6.553   3.094   1.467 -0.3783 -0.2248 -0.3937
   15CHTO  H171 6003   6.646   3.106   1.475 -0.3893  1.1115 -2.0163
   15CHTO   O62 6004   6.069   3.014   1.336  0.3683 -0.0951  0.0074
   15CHTO   C91 6005   5.972   3.032   1.227 -0.2820  0.0153 -0.1261
   15CHTO  H178 6006   5.934   3.133   1.243  3.2690  1.4216 -0.2087
   15CHTO   C92 6007   5.840   2.938   1.240  0.4068  0.1078 -0.1363
   15CHTO  H179 6008   5.802   2.940   1.343  2.2259  1.4871  0.5262
   15CHTO   O66 6009   5.740   2.973   1.145  0.0987 -0.2219  0.0669
   15CHTO  H166 6010   5.683   3.040   1.177  0.8448 -0.2075  1.4236
   15CHTO   C93 6011   5.887   2.788   1.210 -0.2083 -0.6254  0.1944
   15CHTO  H180 6012   5.797   2.726   1.198 -0.4693 -0.4350  1.1517
   15CHTO   N16 6013   5.952   2.713   1.324  0.1919 -0.2398 -0.3391
   15CHTO  H172 6014   5.901   2.620   1.343 -0.5267  0.0762 -0.6794
   15CHTO  H173 6015   5.939   2.765   1.419  0.5817  0.1182 -0.4825
   15CHTO   C94 6016   5.975   2.775   1.084 -0.7005 -0.1614 -0.2782
   15CHTO  H181 6017   6.079   2.758   1.109 -0.2243  0.8012 -1.5165
   15CHTO   O61 6018   5.975   2.896   1.002  0.9012  0.6379  0.5333
   15CHTO   C95 6019   6.036   3.004   1.076  0.1518 -0.3517 -0.2473
   15CHTO  H182 6020   6.144   2.991   1.068  0.4717  1.4275  0.9421
   15CHTO  C106 6021   6.015   3.130   0.990  0.0052  0.2893 -0.0222
   15CHTO   O69 6022   6.074   3.113   0.858 -0.5358  0.4333  0.5000
   15CHTO  H169 6023   6.069   3.193   0.809  1.0789  0.9247  1.0766
   15CHTO   O63 6024   5.906   2.671   1.005  0.0059 -0.4045  0.4197
   15CHTO   C96 6025   5.970   2.509   1.009  0.8369  0.1177  0.1571
   15CHTO  H183 6026   6.010   2.502   1.111  0.1041  2.1145  0.6010
   15CHTO   C98 6027   6.084   2.485   0.914  0.6219 -0.1917 -0.1374
   15CHTO  H185 6028   6.058   2.524   0.814  1.6410 -0.4996 -0.5322
   15CHTO   O67 6029   6.203   2.551   0.945  0.2678 -0.0886 -0.5568
   15CHTO  H167 6030   6.186   2.634   0.986 -1.1424 -0.4957 -0.2543
   15CHTO  C102 6031   6.119   2.324   0.904  0.2265  0.0241 -0.3566
   15CHTO  H189 6032   6.169   2.296   0.998  0.6943  1.1456 -0.2591
   15CHTO   N18 6033   6.212   2.284   0.803 -0.2505 -0.4072 -0.3240
   15CHTO  H176 6034   6.205   2.345   0.714 -2.0849 -0.5093 -0.2697
   15CHTO  H177 6035   6.314   2.283   0.837 -0.0188 -0.3089 -1.0070
   15CHTO  C105 6036   5.996   2.236   0.897 -0.1207  0.1328  0.3747
   15CHTO  H192 6037   5.953   2.246   0.798  1.4003  1.1992 -0.2033
   15CHTO   O65 6038   5.900   2.276   0.997 -0.4612  0.0511  0.0633
   15CHTO  C100 6039   5.848   2.412   0.985  0.2768  0.0606  0.2118
   15CHTO  H187 6040   5.805   2.435   0.886 -3.3888 -1.8531  1.2727
   15CHTO  C107 6041   5.742   2.438   1.096 -0.4007 -0.1101 -0.0045
   15CHTO   O70 6042   5.624   2.353   1.081  0.2586 -0.5970 -0.2878
   15CHTO  H170 6043   5.575   2.369   1.002  0.6301 -2.0828 -0.8367
   15CHTO   O57 6044   6.045   2.071   0.932  0.7268 -0.0990 -0.6859
   15CHTO   C85 6045   6.023   2.020   1.067 -0.4814  0.7067  0.0198
   15CHTO  H157 6046   5.971   2.099   1.125  0.0324  0.0083  1.4495
   15CHTO   C83 6047   6.156   2.014   1.143  0.5376 -0.0871  0.6749
   15CHTO  H155 6048   6.187   2.116   1.164  2.2322 -0.5050  0.2789
   15CHTO   O56 6049   6.258   1.930   1.080 -0.1201  0.2563 -0.3032
   15CHTO  H135 6050   6.337   1.937   1.130  0.4351 -4.3939 -0.2357
   15CHTO   C81 6051   6.114   1.960   1.281 -0.8457  0.1824  0.7683
   15CHTO  H153 6052   6.036   2.028   1.314 -2.8529 -0.7018 -2.0368
   15CHTO   N14 6053   6.226   1.959   1.384  0.4103  0.2497  0.3164
   15CHTO  H141 6054   6.199   2.029   1.460 -2.7271 -0.4271 -0.0686
   15CHTO  H142 6055   6.242   1.862   1.425  3.3520 -0.8934 -3.2777
   15CHTO   C79 6056   6.050   1.820   1.275 -0.8127 -0.1659 -0.5843
   15CHTO  H151 6057   6.027   1.794   1.379  0.3732 -0.3863 -0.3640
   15CHTO   O52 6058   5.926   1.842   1.201  0.0252  0.0156 -0.4001
   15CHTO   C86 6059   5.938   1.892   1.064 -0.2244  0.1088 -0.2633
   15CHTO  H158 6060   5.989   1.816   1.001 -0.9038 -0.4770 -0.1060
   15CHTO   C90 6061   5.797   1.915   0.998 -0.7315  0.1812 -0.1407
   15CHTO   O60 6062   5.720   2.021   1.054  0.4729  0.2983 -0.4709
   15CHTO  H138 6063   5.738   2.107   1.021 -3.2920  1.0038 -0.9730
   15CHTO   O50 6064   6.136   1.721   1.217 -0.7981  0.1856 -0.2678
   15CHTO   C73 6065   6.133   1.578   1.234  0.9966  0.8398 -0.4770
   15CHTO  H145 6066   6.027   1.549   1.234  1.7965 -2.3446  1.1640
   15CHTO   C74 6067   6.205   1.541   1.369  0.2811 -0.3196  0.2597
   15CHTO  H146 6068   6.153   1.605   1.442 -1.4542  1.1515 -2.1832
   15CHTO   O54 6069   6.181   1.410   1.416 -0.1293  0.4736 -0.5133
   15CHTO  H133 6070   6.249   1.347   1.399 -0.2568 -0.4131  2.0243
   15CHTO   C75 6071   6.363   1.575   1.355  0.7044 -0.2959  0.1389
   15CHTO  H147 6072   6.375   1.682   1.330 -1.4480 -0.2301 -0.6241
   15CHTO   N13 6073   6.439   1.561   1.478  0.3376 -0.2236 -0.0044
   15CHTO  H139 6074   6.394   1.620   1.557  0.0637  0.4034 -0.6294
   15CHTO  H140 6075   6.545   1.574   1.464  0.3121 -1.7287 -1.6359
   15CHTO   C76 6076   6.428   1.495   1.231  0.2361  0.5049 -0.3981
   15CHTO  H148 6077   6.426   1.388   1.249 -0.7346  0.1300 -2.7077
   15CHTO   O49 6078   6.347   1.528   1.116  0.1087  0.1175  0.0687
   15CHTO   C77 6079   6.202   1.499   1.115  0.2273 -1.1520 -0.1081
   15CHTO  H149 6080   6.186   1.392   1.130  0.6353 -1.3111 -0.8240
   15CHTO   C88 6081   6.149   1.553   0.979 -0.1008  0.4846  0.2786
   15CHTO   O58 6082   6.041   1.484   0.904  0.0397 -0.4340  0.2725
   15CHTO  H136 6083   6.019   1.537   0.831  0.7938  1.1446  1.1627
   15CHTO   O51 6084   6.588   1.554   1.199  0.1697  0.5783  0.1894
   15CHTO   C78 6085   6.654   1.533   1.050 -0.4923  0.4470  0.4178
   15CHTO  H150 6086   6.570   1.516   0.979 -0.0489  0.3793 -0.1010
   15CHTO   C80 6087   6.757   1.418   1.034  0.3349  0.4496 -0.3189
   15CHTO  H152 6088   6.837   1.424   1.111 -1.4561 -2.1383  1.7792
   15CHTO   O55 6089   6.698   1.286   1.056 -0.4629  0.4799 -0.0815
   15CHTO  H134 6090   6.634   1.288   1.125 -1.4926  1.1465 -1.0239
   15CHTO   C84 6091   6.840   1.408   0.898  0.4214  0.6910 -0.1473
   15CHTO  H156 6092   6.761   1.399   0.824 -0.6653  0.3028  1.0535
   15CHTO   N15 6093   6.937   1.295   0.879 -0.8218  0.3154 -0.5882
   15CHTO  H143 6094   6.922   1.229   0.962 -2.9220  1.2834 -0.1742
   15CHTO  H144 6095   6.906   1.246   0.790 -1.1688  0.8820 -0.7805
   15CHTO   C87 6096   6.912   1.540   0.885  0.6329  0.0012 -0.0798
   15CHTO  H159 6097   6.994   1.566   0.952 -0.3372 -0.1302  1.1741
   15CHTO   O53 6098   6.782   1.658   0.880  0.3349  0.3748 -0.1593
   15CHTO   C82 6099   6.722   1.667   1.007  0.0045  0.3545  0.0958
   15CHTO  H154 6100   6.804   1.700   1.072  1.9593 -2.8250 -0.6611
   15CHTO   C89 6101   6.615   1.787   1.002  0.6247  0.3727  0.6553
   15CHTO   O59 6102   6.578   1.845   1.129  0.0732  0.2544  0.1018
   15CHTO  H137 6103   6.562   1.773   1.187  1.4881 -0.4878 -0.4260
   15CHTO   O45 6104   6.976   1.541   0.737 -0.3269 -0.4615 -0.4952
   15CHTO   C67 6105   7.038   1.668   0.699 -0.3931 -0.9862  0.5000
   15CHTO  H124 6106   6.999   1.744   0.767  1.1118  0.2087  0.0567
   15CHTO   C65 6107   7.197   1.670   0.707 -0.3210 -0.7103 -0.0203
   15CHTO  H122 6108   7.224   1.565   0.705 -0.0155 -0.6479  0.6081
   15CHTO   O44 6109   7.223   1.722   0.838 -0.8793  0.4000  0.5041
   15CHTO  H102 6110   7.235   1.650   0.897  0.6325  1.6977  1.8241
   15CHTO   C63 6111   7.261   1.750   0.587  0.2619 -0.3231  0.8109
   15CHTO  H120 6112   7.254   1.690   0.496  0.5965  1.0308 -0.1183
   15CHTO   N11 6113   7.408   1.776   0.598 -0.4886  0.6688 -0.1599
   15CHTO  H108 6114   7.434   1.848   0.672  2.6467  0.2332 -0.7599
   15CHTO  H109 6115   7.448   1.812   0.506 -1.3807  1.3150 -0.2928
   15CHTO   C61 6116   7.172   1.881   0.562 -0.1604 -0.1045  0.2388
   15CHTO  H118 6117   7.222   1.938   0.482 -1.3294  0.3772 -0.1743
   15CHTO   O40 6118   7.037   1.851   0.516  0.8906 -0.5218  0.3254
   15CHTO   C68 6119   6.992   1.716   0.552  0.2325  0.4111 -0.5662
   15CHTO  H125 6120   7.038   1.651   0.476 -0.2972  0.8058 -1.2330
   15CHTO   C72 6121   6.843   1.703   0.536  0.0655  0.3028  0.4036
   15CHTO   O48 6122   6.798   1.565   0.534 -0.3567 -0.1827 -0.2459
   15CHTO  H105 6123   6.708   1.573   0.508 -1.2644 -1.9626  2.1407
   15CHTO   O38 6124   7.162   1.969   0.674 -0.0105 -0.1501 -0.0932
   15CHTO   C55 6125   7.137   2.112   0.650 -0.1832 -0.0365  0.1753
   15CHTO  H112 6126   7.103   2.122   0.545  1.8457 -0.1140 -0.5112
   15CHTO   C56 6127   7.282   2.175   0.667  0.8840 -0.4159 -0.3405
   15CHTO  H113 6128   7.330   2.138   0.759  2.9774 -0.3029 -1.3591
   15CHTO   O42 6129   7.373   2.125   0.563  0.2715 -0.3652 -0.4817
   15CHTO  H100 6130   7.460   2.156   0.579 -0.3615 -0.0583  2.9390
   15CHTO   C57 6131   7.271   2.334   0.657  0.0615  0.1292 -0.0798
   15CHTO  H114 6132   7.232   2.348   0.556  2.5218  2.4375 -0.7829
   15CHTO   N10 6133   7.401   2.406   0.664 -0.3489  0.2663 -0.4765
   15CHTO  H106 6134   7.444   2.426   0.761  0.5341  0.2474 -0.8546
   15CHTO  H107 6135   7.417   2.493   0.601  1.6411 -0.0364 -0.4342
   15CHTO   C58 6136   7.167   2.386   0.764  0.4031 -0.6144 -0.6504
   15CHTO  H115 6137   7.202   2.351   0.864  0.9435 -1.0052 -0.9713
   15CHTO   O37 6138   7.041   2.322   0.737  0.5010  0.5438 -0.2356
   15CHTO   C59 6139   7.035   2.177   0.744 -0.4680 -0.2655  0.6908
   15CHTO  H116 6140   7.052   2.137   0.844  0.9381 -0.0859  0.5391
   15CHTO   C70 6141   6.892   2.140   0.706  0.2556  1.1842 -0.0455
   15CHTO   O46 6142   6.879   2.001   0.689 -0.3392  0.0065  0.4467
   15CHTO  H103 6143   6.862   1.964   0.773  1.0200 -0.7370  0.4128
   15CHTO   O39 6144   7.153   2.556   0.745  0.5419 -0.1045 -0.0587
   15CHTO   C60 6145   7.044   2.617   0.818  0.3061 -0.7208 -0.6258
   15CHTO  H117 6146   6.956   2.561   0.786 -0.0181  0.6464 -2.2002
   15CHTO   C62 6147   7.059   2.615   0.974  0.4922 -0.2806  0.6849
   15CHTO  H119 6148   7.075   2.505   0.983  1.4483 -0.3152 -1.1535
   15CHTO   O43 6149   7.175   2.683   1.022 -0.5124 -0.4288  0.1833
   15CHTO  H101 6150   7.223   2.642   1.091 -0.3197  2.1133  1.6293
   15CHTO   C66 6151   6.917   2.674   1.031  0.6792 -0.1753 -0.0907
   15CHTO  H123 6152   6.836   2.617   0.987  1.7055  0.1604 -2.4915
   15CHTO   N12 6153   6.893   2.651   1.177  0.5697 -0.1836  0.1617
   15CHTO  H110 6154   6.971   2.705   1.230  2.4638 -4.2012  1.6464
   15CHTO  H111 6155   6.794   2.682   1.207  0.0161 -1.5305 -0.2635
   15CHTO   C69 6156   6.892   2.823   0.993 -0.3001  0.1657  0.8923
   15CHTO  H126 6157   6.982   2.869   1.039 -0.0687  0.2748  0.3228
   15CHTO   O41 6158   6.894   2.844   0.856 -0.0162  0.2811  0.1615
   15CHTO   C64 6159   7.019   2.759   0.773  0.1685 -0.6742 -0.6575
   15CHTO  H121 6160   7.109   2.824   0.780 -0.2540 -0.2222  0.6739
   15CHTO   C71 6161   6.977   2.766   0.619  0.6795  0.1283  0.0750
   15CHTO   O47 6162   6.844   2.739   0.591  0.1898 -0.3452 -0.4986
   15CHTO  H104 6163   6.806   2.813   0.547 -0.4331  0.3072  1.0871
   15CHTO   O34 6164   6.775   2.887   1.047 -0.2855  0.0863 -0.4616
   15CHTO   C49 6165   6.661   2.964   1.079 -0.6928  0.9370  0.5070
   15CHTO   H91 6166   6.700   3.045   1.140 -1.1471  0.4459  1.4541
   15CHTO   C47 6167   6.570   2.877   1.171 -0.4221 -0.8325  0.1766
   15CHTO   H89 6168   6.487   2.944   1.203  0.4669  1.4770 -2.2448
   15CHTO   O33 6169   6.639   2.830   1.286  0.2295  0.4145 -0.3067
   15CHTO   H70 6170   6.729   2.857   1.286  0.2860  0.2216 -0.9537
   15CHTO   C45 6171   6.494   2.752   1.084 -0.1779  0.5522  0.6105
   15CHTO   H87 6172   6.550   2.658   1.094 -1.5690 -0.2309  1.2685
   15CHTO    N8 6173   6.359   2.736   1.150  0.2244 -0.1479  0.6901
   15CHTO   H75 6174   6.289   2.806   1.108  0.4791 -1.7449 -2.5818
   15CHTO   H76 6175   6.370   2.725   1.257 -3.6522  1.8148  1.3900
   15CHTO   C43 6176   6.500   2.781   0.929 -0.0386  0.6762  0.3199
   15CHTO   H85 6177   6.603   2.750   0.914 -0.2747  1.3270 -2.8341
   15CHTO   O29 6178   6.483   2.919   0.896 -0.1835  0.2147 -0.4276
   15CHTO   C50 6179   6.565   3.012   0.960 -0.4391 -0.2898 -0.0884
   15CHTO   H92 6180   6.627   3.060   0.883  0.1571 -1.1277 -0.1297
   15CHTO   C54 6181   6.480   3.126   1.011 -0.4569 -0.5189  0.2516
   15CHTO   O36 6182   6.554   3.240   1.065  0.6705  0.0177  0.7254
   15CHTO   H72 6183   6.488   3.300   1.093 -1.2979 -1.7726  0.0933
   15CHTO   O27 6184   6.418   2.695   0.856  0.0537 -0.1114  0.2559
   15CHTO   C37 6185   6.454   2.671   0.715 -0.0958 -0.5041 -0.2248
   15CHTO   H79 6186   6.534   2.739   0.683  0.1784 -0.9487 -0.4864
   15CHTO   C38 6187   6.511   2.529   0.700  0.4277 -0.1979  0.5875
   15CHTO   H80 6188   6.433   2.458   0.730 -0.3263 -0.5928 -2.1982
   15CHTO   O31 6189   6.624   2.515   0.782  0.1612 -0.4114 -0.0012
   15CHTO   H68 6190   6.685   2.579   0.750 -0.1069 -0.4602 -0.6045
   15CHTO   C39 6191   6.547   2.503   0.546  0.5202 -0.2384  0.7993
   15CHTO   H81 6192   6.626   2.576   0.531 -0.8047  1.4923  1.9359
   15CHTO    N7 6193   6.602   2.370   0.523  0.1248  0.0557  0.4716
   15CHTO   H73 6194   6.666   2.325   0.597 -0.7524 -0.1584  1.1075
   15CHTO   H74 6195   6.523   2.297   0.508 -1.4791  1.6379  1.1332
   15CHTO   C40 6196   6.426   2.552   0.447  0.5830  0.1581 -0.3108
   15CHTO   H82 6197   6.354   2.471   0.459  1.1515 -0.3135 -0.0351
   15CHTO   O26 6198   6.366   2.677   0.490 -0.0069 -0.6495  0.7381
   15CHTO   C41 6199   6.331   2.682   0.628  0.6833 -0.5955 -0.1070
   15CHTO   H83 6200   6.263   2.597   0.647  0.5234 -0.1876  1.1849
   15CHTO   C52 6201   6.261   2.815   0.642  0.1575  0.6116 -0.2661
   15CHTO   O35 6202   6.189   2.841   0.754 -0.1134 -0.2846 -0.3727
   15CHTO   H71 6203   6.115   2.785   0.765 -2.0208  2.1573 -0.2772
   15CHTO   O28 6204   6.466   2.554   0.309  0.1041  0.0305  0.5763
   15CHTO   C42 6205   6.530   2.649   0.228 -0.4823  0.5244  0.1277
   15CHTO   H84 6206   6.539   2.595   0.133 -1.7189 -0.1920  0.3977
   15CHTO   C44 6207   6.677   2.687   0.266 -0.4975 -0.6057 -0.1044
   15CHTO   H86 6208   6.676   2.746   0.358  0.0009 -2.1084  0.8914
   15CHTO   O32 6209   6.743   2.567   0.293 -0.4224  0.8104  0.1053
   15CHTO   H69 6210   6.689   2.516   0.350  0.9511 -1.3826 -0.4685
   15CHTO   C48 6211   6.755   2.774   0.159  0.5023 -0.6818 -0.8910
   15CHTO   H90 6212   6.757   2.720   0.065  1.2796 -1.2459 -0.5639
   15CHTO    N9 6213   6.898   2.825   0.192  0.3800 -0.5235 -0.0412
   15CHTO   H77 6214   6.920   2.798   0.294 -1.0157 -2.9614 -0.3576
   15CHTO   H78 6215   6.906   2.932   0.180  0.5609 -0.7186 -1.8375
   15CHTO   C51 6216   6.661   2.904   0.134  0.0467 -0.3822 -0.7762
   15CHTO   H93 6217   6.645   2.946   0.233 -1.0096 -3.1475  0.2871
   15CHTO   O30 6218   6.535   2.859   0.079 -0.4058  0.0861  0.3896
   15CHTO   C46 6219   6.456   2.781   0.200  0.0192 -0.2619  0.5196
   15CHTO   H88 6220   6.452   2.854   0.281  1.4750  1.1921 -0.7121
   15CHTO   C53 6221   6.313   2.758   0.151 -0.3595  0.3685  0.0392
   15CHTO   O72 6222   6.256   2.877   0.099  0.8239  0.3678 -0.6516
   15CHTO  H199 6223   6.280   2.946   0.157  0.9664 -1.0405  1.0158
   15CHTO   O22 6224   6.717   2.990   0.031  0.2932  0.3193 -0.0293
   15CHTO   C31 6225   6.662   3.121   0.002 -0.2446  0.0292 -0.1846
   15CHTO   H59 6226   6.716   3.158  -0.088  0.9580 -0.3618  0.3645
   15CHTO   C29 6227   6.510   3.125  -0.036 -0.7269  0.8523 -0.2634
   15CHTO   H57 6228   6.443   3.092   0.044 -1.3749  1.3577 -0.5997
   15CHTO   O21 6229   6.495   3.040  -0.150 -0.0484 -0.0167 -0.4964
   15CHTO   H37 6230   6.525   2.953  -0.132 -0.1670 -0.0654 -0.5350
   15CHTO   C27 6231   6.466   3.270  -0.082  0.1572 -0.5787 -0.1238
   15CHTO   H55 6232   6.518   3.299  -0.174 -0.4036 -0.6706 -0.4667
   15CHTO    N5 6233   6.323   3.288  -0.098  0.2701  0.6068  0.1902
   15CHTO   H43 6234   6.310   3.343  -0.191  2.7820  3.1727  1.2851
   15CHTO   H44 6235   6.282   3.190  -0.119 -0.2594  0.4731  1.8354
   15CHTO   C25 6236   6.518   3.369   0.026  0.0310 -0.3017  0.5380
   15CHTO   H53 6237   6.465   3.350   0.120  0.0057 -0.3441  0.5148
   15CHTO   O17 6238   6.658   3.360   0.052 -0.3803  0.6657 -0.4378
   15CHTO   C32 6239   6.688   3.231   0.111 -0.0335 -0.6442  0.1748
   15CHTO   H60 6240   6.617   3.215   0.192 -0.6369 -0.9258 -0.4064
   15CHTO   C36 6241   6.840   3.231   0.157  0.7494  0.4522  0.5811
   15CHTO   O25 6242   6.862   3.318   0.269 -0.0851 -0.1555  0.1579
   15CHTO   H40 6243   6.816   3.399   0.257 -3.2313 -1.8935 -0.0035
   15CHTO   O15 6244   6.487   3.537  -0.022 -0.1330  0.2675  0.1594
   15CHTO   C19 6245   6.471   3.651   0.072 -1.0925 -0.3408  0.5381
   15CHTO   H47 6246   6.457   3.737   0.004  2.1003 -0.7709 -0.7437
   15CHTO   C20 6247   6.339   3.638   0.161  0.2766  0.1652 -0.0259
   15CHTO   H48 6248   6.342   3.550   0.227  1.5390  1.1259  1.2350
   15CHTO   O19 6249   6.231   3.641   0.071 -0.5784 -0.2186 -0.2790
   15CHTO   H35 6250   6.192   3.559   0.048  0.1234 -0.6834  0.1599
   15CHTO   C21 6251   6.335   3.766   0.264 -0.1451  0.8013  0.5360
   15CHTO   H49 6252   6.343   3.859   0.209 -1.1335  1.2546  1.1417
   15CHTO    N4 6253   6.213   3.750   0.343 -0.3337 -0.3474  0.3035
   15CHTO   H41 6254   6.124   3.756   0.283 -0.4835 -0.0461  0.5519
   15CHTO   H42 6255   6.215   3.832   0.414  1.5403  0.1477 -0.2949
   15CHTO   C22 6256   6.464   3.761   0.351 -0.0603 -0.2116  0.6225
   15CHTO   H50 6257   6.475   3.659   0.387 -1.2632 -0.4644  0.3041
   15CHTO   O14 6258   6.569   3.788   0.254 -0.6990  0.3426  0.2809
   15CHTO   C23 6259   6.600   3.681   0.160 -0.3115  0.1983 -0.2264
   15CHTO   H51 6260   6.638   3.594   0.216 -0.3804  0.4793  0.2592
   15CHTO   C34 6261   6.708   3.729   0.065 -0.1545 -0.2734 -0.6479
   15CHTO   O23 6262   6.824   3.784   0.133  0.3276 -0.3998  0.3393
   15CHTO   H38 6263   6.879   3.708   0.132  0.5294 -0.2486 -0.1714
   15CHTO   O16 6264   6.484   3.867   0.444 -0.6398  0.1378  0.3978
   15CHTO   C24 6265   6.525   3.806   0.606 -0.3683  0.1306 -0.7247
   15CHTO   H52 6266   6.503   3.700   0.617  1.1891 -0.2214 -0.9072
   15CHTO   C26 6267   6.433   3.887   0.705  0.0155 -0.1954 -0.3806
   15CHTO   H54 6268   6.414   3.990   0.668  0.5699 -0.3513 -1.1004
   15CHTO   O20 6269   6.296   3.833   0.700  0.6222 -0.0818  0.1706
   15CHTO   H36 6270   6.268   3.833   0.611 -1.0653 -0.3709  0.6981
   15CHTO   C30 6271   6.493   3.893   0.853 -0.4895 -0.2050  0.2035
   15CHTO   H58 6272   6.476   3.797   0.905  2.6548 -0.4740  0.8220
   15CHTO    N6 6273   6.415   3.993   0.933 -0.0366  0.0356 -0.2230
   15CHTO   H45 6274   6.367   4.061   0.865 -0.9764  1.4648  1.8133
   15CHTO   H46 6275   6.340   3.943   0.994  0.1488 -1.0457 -0.8789
   15CHTO   C33 6276   6.647   3.901   0.855 -0.4346 -0.2719 -0.2434
   15CHTO   H61 6277   6.685   4.001   0.828 -0.7905  0.7064  2.7633
   15CHTO   O18 6278   6.699   3.802   0.761  0.5876  0.0670  0.3583
   15CHTO   C28 6279   6.671   3.831   0.628 -0.5542  0.3410  0.0874
   15CHTO   H56 6280   6.693   3.937   0.610 -1.4539  0.9449  2.3426
   15CHTO   C35 6281   6.744   3.734   0.531  0.2394 -0.2760 -0.5846
   15CHTO   O24 6282   6.885   3.731   0.546 -0.1844 -0.4276  0.4026
   15CHTO   H39 6283   6.924   3.662   0.497 -2.6344 -0.6533 -1.3279
   15CHTO    O9 6284   6.694   3.877   0.988  1.0133 -0.3030 -0.1521
   15CHTO   C13 6285   6.868   3.878   1.004 -0.0576 -0.2082  0.6593
   15CHTO   H26 6286   6.902   3.943   0.920  2.9721 -2.5170  0.0319
   15CHTO   C11 6287   6.918   3.725   0.979 -0.1778  0.0862 -0.3469
   15CHTO   H24 6288   6.879   3.698   0.880 -0.5480  0.9025 -0.4208
   15CHTO    O8 6289   6.854   3.638   1.078 -0.2027  0.1087  0.5296
   15CHTO    H3 6290   6.765   3.621   1.054 -0.6729  1.2027  1.4299
   15CHTO    C9 6291   7.076   3.722   0.990  0.0794  0.3153  0.5111
   15CHTO   H22 6292   7.119   3.798   0.923 -0.9018 -0.8579 -1.5044
   15CHTO    N2 6293   7.127   3.586   0.947 -0.3336 -0.6539  0.3567
   15CHTO   H10 6294   7.229   3.593   0.913 -0.8002  0.1868 -0.9138
   15CHTO   H11 6295   7.129   3.527   1.038  0.8409  2.1266  2.1894
   15CHTO    C7 6296   7.106   3.769   1.141 -0.6751 -0.1606 -0.0489
   15CHTO   H20 6297   7.192   3.835   1.120 -0.5049  0.0911  1.4330
   15CHTO    O4 6298   7.008   3.854   1.204 -0.5049 -0.0916 -0.3823
   15CHTO   C14 6299   6.929   3.940   1.130 -0.8375  0.0130  0.1178
   15CHTO   H27 6300   6.996   4.022   1.098  1.8316 -1.5328  1.4940
   15CHTO   C18 6301   6.815   4.002   1.216 -0.1331  0.8759 -0.4086
   15CHTO   O13 6302   6.871   4.091   1.310 -0.2437 -0.4950  0.4957
   15CHTO    H7 6303   6.928   4.053   1.373  0.6029  2.0366  1.3403
   15CHTO    O2 6304   7.143   3.648   1.237 -0.3613  0.0832 -0.2045
   15CHTO    C1 6305   7.265   3.660   1.311  0.7397 -0.8170 -0.3002
   15CHTO   H14 6306   7.299   3.765   1.306 -0.5036 -0.4892 -2.7338
   15CHTO    C2 6307   7.385   3.568   1.255 -0.1389  0.5573 -0.3512
   15CHTO   H15 6308   7.343   3.469   1.233  3.7235 -0.6360 -3.0357
   15CHTO    O6 6309   7.429   3.633   1.134 -0.4152  0.1176  0.1894
   15CHTO    H1 6310   7.400   3.590   1.057  2.6213  0.0277 -0.9795
   15CHTO    C3 6311   7.507   3.553   1.355  0.1696  0.4600 -0.6914
   15CHTO   H16 6312   7.546   3.652   1.384 -0.9446  0.1933  1.8627
   15CHTO    N1 6313   7.615   3.470   1.295  0.2191 -0.0259 -0.1189
   15CHTO    H8 6314   7.589   3.379   1.243 -3.2520 -0.1732  1.7377
   15CHTO    H9 6315   7.694   3.458   1.367  0.3339  0.8123 -0.1030
   15CHTO    C4 6316   7.443   3.505   1.491  0.3703 -0.3555 -0.3507
   15CHTO   H17 6317   7.403   3.404   1.481  0.6835 -0.7562  2.2545
   15CHTO    O1 6318   7.350   3.601   1.546  0.1364 -0.2156 -0.2019
   15CHTO    C5 6319   7.236   3.621   1.456  0.3394 -0.4540  0.0881
   15CHTO   H18 6320   7.197   3.521   1.468 -1.0032 -0.1763 -1.8597
   15CHTO   C16 6321   7.136   3.719   1.526  0.2850 -0.5819  0.6339
   15CHTO   O11 6322   7.160   3.859   1.541 -0.2271 -0.0229  0.0366
   15CHTO    H5 6323   7.194   3.888   1.458  0.0078 -2.3113 -0.7005
   15CHTO    O3 6324   7.551   3.503   1.585  0.2317 -0.4745  0.2871
   15CHTO    C6 6325   7.539   3.421   1.702  0.0256 -0.5070 -0.1826
   15CHTO   H19 6326   7.435   3.421   1.734  0.2304 -2.0380  0.5177
   15CHTO    C8 6327   7.579   3.274   1.680 -0.8043  0.1252  0.4988
   15CHTO   H21 6328   7.672   3.276   1.624 -1.4045 -1.7349 -0.6099
   15CHTO    O7 6329   7.475   3.221   1.606 -0.4389  0.1149 -0.0084
   15CHTO    H2 6330   7.464   3.268   1.526 -0.6035  1.5562  0.8598
   15CHTO   C12 6331   7.594   3.193   1.814 -0.0695 -0.1763 -0.4112
   15CHTO   H25 6332   7.488   3.180   1.845 -0.6278 -0.5413 -2.4132
   15CHTO    N3 6333   7.652   3.060   1.779 -0.0771 -0.6053 -0.0545
   15CHTO   H12 6334   7.748   3.070   1.731  1.1555 -1.3441  2.1496
   15CHTO   H13 6335   7.592   3.003   1.709 -3.3953 -0.9809  2.9494
   15CHTO   C15 6336   7.667   3.275   1.922 -0.2254 -0.9720  0.3132
   15CHTO   H28 6337   7.775   3.284   1.909 -0.3210  0.4661  0.3678
   15CHTO   O10 6338   7.636   3.214   2.062 -0.1706  0.3602  0.0571
   15CHTO    H4 6339   7.663   3.125   2.077 -0.4757 -0.0783 -1.8788
   15CHTO    O5 6340   7.609   3.405   1.933 -0.3720 -0.1414  0.7047
   15CHTO   C10 6341   7.624   3.485   1.818 -0.1326  0.0832  0.9597
   15CHTO   H23 6342   7.729   3.492   1.791 -0.2133 -0.1417  0.5910
   15CHTO   C17 6343   7.572   3.626   1.858 -0.1680  0.3125 -0.0527
   15CHTO   O12 6344   7.661   3.676   1.957 -0.3498 -0.1812  0.2116
   15CHTO    H6 6345   7.613   3.747   1.994  1.8508  0.6204  1.5929
   16CHTO  H203 6346   5.604   3.393   0.095  0.8109 -1.4535 -1.8047
   16CHTO   O82 6347   5.620   3.326   0.158  0.2708 -0.0607 -0.1613
   16CHTO  C123 6348   5.746   3.334   0.226  0.3475 -0.1110 -0.3027
   16CHTO  H227 6349   5.817   3.382   0.157  0.4552  1.0445  0.5854
   16CHTO   O77 6350   5.713   3.438   0.333 -0.2406 -0.6983 -0.0042
   16CHTO  C118 6351   5.815   3.470   0.430  0.5841 -1.1462  0.5560
   16CHTO  H222 6352   5.898   3.513   0.373  0.5003 -2.8736 -0.8938
   16CHTO  C125 6353   5.748   3.577   0.532 -0.1220 -0.2476  0.4356
   16CHTO   O84 6354   5.769   3.711   0.482 -0.3674  0.0169 -0.3845
   16CHTO  H205 6355   5.857   3.734   0.460  0.0065  1.3914  2.2275
   16CHTO  C114 6356   5.852   3.338   0.503  0.1303 -0.6642 -0.9186
   16CHTO  H218 6357   5.759   3.302   0.547 -0.2938 -0.2152 -1.4397
   16CHTO  C116 6358   5.919   3.236   0.398 -0.5511  0.3239 -0.0152
   16CHTO  H220 6359   5.994   3.293   0.340 -0.1222 -1.0402 -0.8067
   16CHTO   O79 6360   5.969   3.127   0.471 -0.0122 -0.3479 -0.3980
   16CHTO  H201 6361   6.025   3.075   0.418  1.2327 -0.9750  1.4846
   16CHTO  C120 6362   5.804   3.203   0.289 -0.1336  0.0828 -0.4561
   16CHTO  H224 6363   5.730   3.141   0.345  0.2705 -1.5667 -1.7084
   16CHTO   N21 6364   5.857   3.119   0.178  0.4790 -0.1001  0.1666
   16CHTO  H211 6365   5.937   3.052   0.204  1.4299  0.4962 -1.1620
   16CHTO  H212 6366   5.774   3.054   0.151  2.0510 -1.9344 -0.3865
   16CHTO   O75 6367   5.940   3.368   0.616 -0.2208 -0.2711  0.3572
   16CHTO  C112 6368   6.107   3.425   0.581  0.2793 -0.3126 -0.5133
   16CHTO  H216 6369   6.106   3.516   0.519 -2.6575 -0.5115 -0.8258
   16CHTO   O73 6370   6.177   3.314   0.515 -0.1616  0.4094  0.1935
   16CHTO  C113 6371   6.312   3.359   0.489  0.0972 -0.2874 -0.7242
   16CHTO  H217 6372   6.311   3.451   0.427 -0.3210 -1.3978 -2.3723
   16CHTO  C124 6373   6.384   3.263   0.396  0.1927 -0.1257  0.3099
   16CHTO   O83 6374   6.319   3.235   0.274 -0.3974 -0.3389 -0.4632
   16CHTO  H204 6375   6.312   3.146   0.248  1.1021  0.4645 -3.9125
   16CHTO  C109 6376   6.392   3.395   0.623  0.4185  0.0007  0.3876
   16CHTO  H213 6377   6.398   3.301   0.681  1.1869 -0.6630 -0.7376
   16CHTO  C110 6378   6.326   3.500   0.704  0.0458 -0.7663 -0.6688
   16CHTO  H214 6379   6.322   3.592   0.645 -1.0368 -1.3300 -1.4865
   16CHTO   O78 6380   6.395   3.530   0.830  0.1553 -0.0940  0.4243
   16CHTO  H200 6381   6.377   3.467   0.897 -2.5171 -0.6019 -0.6746
   16CHTO  C111 6382   6.177   3.457   0.721 -0.6467  0.7895  0.4534
   16CHTO  H215 6383   6.173   3.361   0.776  0.3008  2.0382  2.8008
   16CHTO   N19 6384   6.101   3.554   0.802 -0.1998  0.6594  0.0350
   16CHTO  H207 6385   6.154   3.571   0.895 -2.3521 -0.0752  1.4304
   16CHTO  H208 6386   5.998   3.523   0.808 -0.4393  1.3603 -0.3873
   16CHTO   O74 6387   6.525   3.440   0.595 -0.2031  0.0448 -0.1129
   16CHTO  C115 6388   6.634   3.325   0.623  0.0837 -0.2679 -0.4005
   16CHTO  H219 6389   6.593   3.243   0.682  1.6535  0.8781  2.3921
   16CHTO   O76 6390   6.699   3.273   0.486  0.3035  0.2514  0.2780
   16CHTO  C122 6391   6.776   3.152   0.511  0.8194  0.7547 -0.4289
   16CHTO  H226 6392   6.820   3.120   0.417  0.7740 -0.5990 -0.0088
   16CHTO  C126 6393   6.676   3.035   0.548  0.4160  0.8095 -0.1364
   16CHTO   O85 6394   6.599   2.984   0.440  0.4379 -0.6695 -0.2715
   16CHTO  H206 6395   6.666   2.947   0.387  1.5608  0.9357 -0.0205
   16CHTO  C121 6396   6.893   3.170   0.618  0.4058 -0.6851 -0.1561
   16CHTO  H225 6397   6.924   3.073   0.661 -1.0462 -2.1187 -2.2792
   16CHTO   O81 6398   7.001   3.236   0.548 -0.0212  0.6553 -0.2128
   16CHTO  H202 6399   7.061   3.175   0.510 -0.1651  0.2752  0.1617
   16CHTO  C119 6400   6.856   3.261   0.740  0.2235  0.5418 -0.2318
   16CHTO  H223 6401   6.795   3.195   0.801  2.1272 -0.5243  0.5885
   16CHTO  C117 6402   6.758   3.382   0.705  0.4033  0.5465  1.0250
   16CHTO  H221 6403   6.798   3.458   0.638  0.6650 -1.5426 -1.2519
   16CHTO   N20 6404   6.717   3.452   0.828  0.2767 -0.5177  0.0787
   16CHTO  H209 6405   6.632   3.410   0.879  1.5854 -0.9926  1.9430
   16CHTO  H210 6406   6.706   3.559   0.823 -1.9599 -0.5868  2.4260
   16CHTO   O80 6407   6.980   3.289   0.844  0.0877 -0.2352  0.6817
   16CHTO  C103 6408   7.056   3.178   0.909 -0.0332  0.2369 -0.3725
   16CHTO  H190 6409   7.006   3.084   0.884  0.0296 -0.0935  0.7329
   16CHTO  C101 6410   7.205   3.162   0.886 -0.1151  0.0846  0.0921
   16CHTO  H188 6411   7.254   3.255   0.913 -0.5796 -0.1766  1.9143
   16CHTO   O68 6412   7.222   3.151   0.741  0.1779  0.3427  0.0795
   16CHTO  H168 6413   7.261   3.067   0.723 -0.7059 -0.5138  2.1386
   16CHTO   C99 6414   7.254   3.038   0.968 -0.2141 -0.8623 -0.3945
   16CHTO  H186 6415   7.196   2.951   0.932  1.1179 -0.9521 -2.4516
   16CHTO   N17 6416   7.405   3.012   0.955 -0.1366 -0.0763  0.1530
   16CHTO  H174 6417   7.416   2.959   0.861  0.1098 -0.1640  0.2315
   16CHTO  H175 6418   7.459   3.105   0.963  0.7160 -0.3276 -2.2459
   16CHTO   C97 6419   7.225   3.063   1.118 -0.3690  0.5044 -0.2751
   16CHTO  H184 6420   7.281   3.151   1.151 -0.3343  0.0501  0.9098
   16CHTO   O64 6421   7.081   3.083   1.130  0.3191  0.1860 -0.1940
   16CHTO  C104 6422   7.036   3.203   1.062 -0.2856  0.0633 -0.3163
   16CHTO  H191 6423   7.098   3.287   1.093 -1.8731  1.1559 -0.0474
   16CHTO  C108 6424   6.893   3.238   1.107  0.7094  0.1591  0.0808
   16CHTO   O71 6425   6.893   3.291   1.239  0.2398 -0.6001 -0.5283
   16CHTO  H171 6426   6.811   3.278   1.283 -0.2226 -0.2059 -1.2512
   16CHTO   O62 6427   7.260   2.950   1.201 -0.3940  0.4858  0.6873
   16CHTO   C91 6428   7.278   2.972   1.342  0.3112  0.1197  0.6573
   16CHTO  H178 6429   7.351   3.050   1.359 -1.7276  2.5224 -1.1563
   16CHTO   C92 6430   7.339   2.837   1.409 -0.1238  0.2496 -0.4786
   16CHTO  H179 6431   7.423   2.810   1.343 -1.4515 -0.9686 -1.6980
   16CHTO   O66 6432   7.406   2.881   1.527  0.2189 -0.4098 -0.1127
   16CHTO  H166 6433   7.486   2.928   1.515  0.0777  0.6577  2.8278
   16CHTO   C93 6434   7.244   2.721   1.447  0.0137 -0.7955 -0.1197
   16CHTO  H180 6435   7.296   2.664   1.525  0.8832  0.1194 -0.0307
   16CHTO   N16 6436   7.223   2.626   1.336  0.1270  0.4874  0.2330
   16CHTO  H172 6437   7.164   2.538   1.354  0.7714  0.2836  1.3874
   16CHTO  H173 6438   7.319   2.600   1.295  0.8451  1.7301  1.0897
   16CHTO   C94 6439   7.107   2.776   1.501  0.5361  0.2126 -0.8091
   16CHTO  H181 6440   7.029   2.767   1.425 -2.2218  2.0102  1.6852
   16CHTO   O61 6441   7.123   2.915   1.531  1.2497  0.3453  0.2655
   16CHTO   C95 6442   7.143   3.004   1.422  0.4425  0.7912 -0.4725
   16CHTO  H182 6443   7.053   3.001   1.360 -1.4248  2.7570  1.9753
   16CHTO  C106 6444   7.127   3.143   1.491 -0.5343  0.6811 -0.3140
   16CHTO   O69 6445   7.164   3.240   1.390 -0.8962 -0.5878 -0.9726
   16CHTO  H169 6446   7.093   3.301   1.379  1.6076  2.1378 -2.5411
   16CHTO   O63 6447   7.053   2.717   1.628  0.1423  0.1372 -0.1165
   16CHTO   C96 6448   6.901   2.640   1.617 -0.2003  0.1082 -0.0536
   16CHTO  H183 6449   6.920   2.543   1.569 -0.8014 -0.4937  0.9157
   16CHTO   C98 6450   6.798   2.720   1.531  0.6199 -0.9709 -0.2425
   16CHTO  H185 6451   6.840   2.771   1.444 -1.8331  0.0163 -0.9013
   16CHTO   O67 6452   6.702   2.627   1.476 -0.0849  0.4440 -0.0091
   16CHTO  H167 6453   6.739   2.550   1.436  0.3691 -1.0311  3.1596
   16CHTO  C102 6454   6.728   2.830   1.621 -0.6551 -0.0435  0.3530
   16CHTO  H189 6455   6.642   2.864   1.561  0.5612 -0.0777 -1.4386
   16CHTO   N18 6456   6.802   2.954   1.640 -0.3600  0.1254  0.0925
   16CHTO  H176 6457   6.897   2.934   1.687  0.4343  0.6379 -1.2782
   16CHTO  H177 6458   6.810   3.011   1.549  2.4917  0.5746  0.5935
   16CHTO  C105 6459   6.678   2.772   1.755 -0.1676 -0.3331 -0.7452
   16CHTO  H192 6460   6.702   2.837   1.840  2.1111 -2.0930  0.0087
   16CHTO   O65 6461   6.713   2.637   1.791 -0.0725 -0.7978  0.0284
   16CHTO  C100 6462   6.851   2.604   1.769 -0.7343  0.0483 -0.6754
   16CHTO  H187 6463   6.911   2.662   1.840  0.8445 -2.1047 -0.2039
   16CHTO  C107 6464   6.860   2.449   1.816  0.0597 -0.3335 -0.3863
   16CHTO   O70 6465   6.805   2.424   1.945  0.0597  0.5804  0.8126
   16CHTO  H170 6466   6.715   2.452   1.949 -0.5777 -1.1849 -0.6059
   16CHTO   O57 6467   6.523   2.772   1.738  0.4119  0.3622 -0.4792
   16CHTO   C85 6468   6.446   2.878   1.802 -0.2933  0.0330  0.9128
   16CHTO  H157 6469   6.499   2.967   1.761  0.8711 -0.9944  0.1585
   16CHTO   C83 6470   6.458   2.888   1.954  0.6873  0.0435  0.0280
   16CHTO  H155 6471   6.562   2.899   1.982  0.6040  0.4896  0.1614
   16CHTO   O56 6472   6.410   2.762   2.009 -0.0666  0.7571 -0.0281
   16CHTO  H135 6473   6.476   2.697   2.023 -0.4723  0.3002 -0.2608
   16CHTO   C81 6474   6.375   3.013   2.009 -0.9804 -0.5078 -0.0700
   16CHTO  H153 6475   6.410   3.104   1.959  0.5421 -1.2485 -0.3824
   16CHTO   N14 6476   6.396   3.049   2.153  0.5405 -0.1525 -0.4635
   16CHTO  H141 6477   6.472   3.125   2.152  1.7488 -1.2904  1.7624
   16CHTO  H142 6478   6.437   2.965   2.204 -0.8828 -1.8520 -2.0765
   16CHTO   C79 6479   6.225   2.998   1.975 -0.3051 -0.9615 -0.2221
   16CHTO  H151 6480   6.173   3.086   2.013 -0.4784 -1.7659  1.4742
   16CHTO   O52 6481   6.221   2.992   1.826 -0.1662 -0.7369  0.3308
   16CHTO   C86 6482   6.295   2.879   1.766 -0.1106 -0.6084  0.1256
   16CHTO  H158 6483   6.245   2.790   1.810 -0.5002  0.0662  1.0574
   16CHTO   C90 6484   6.272   2.868   1.609  0.4208 -0.1657 -0.8303
   16CHTO   O60 6485   6.135   2.821   1.595 -0.3484  0.7802  0.0606
   16CHTO  H138 6486   6.112   2.765   1.666  1.1157  1.7792  1.3567
   16CHTO   O50 6487   6.153   2.880   2.034  0.2828 -0.0834 -0.4893
   16CHTO   C73 6488   6.036   2.832   2.098  0.4250 -0.1062 -0.8749
   16CHTO  H145 6489   6.078   2.771   2.179  2.5697  0.6370 -1.3955
   16CHTO   C74 6490   5.949   2.761   1.987 -0.2161  0.4487  0.6570
   16CHTO  H146 6491   6.011   2.683   1.940 -0.8675  1.0179 -1.1628
   16CHTO   O54 6492   5.831   2.699   2.047  0.3240  0.2416 -0.5303
   16CHTO  H133 6493   5.776   2.762   2.090 -0.2377  0.0468 -0.9513
   16CHTO   C75 6494   5.912   2.881   1.886  0.2843 -0.0952  0.3322
   16CHTO  H147 6495   6.006   2.915   1.840  1.0829  0.9165  2.6373
   16CHTO   N13 6496   5.834   2.837   1.770  0.5170  0.5242 -1.1520
   16CHTO  H139 6497   5.869   2.748   1.720  0.4957  0.2895 -0.7549
   16CHTO  H140 6498   5.729   2.826   1.797  1.1120  1.0646  1.5477
   16CHTO   C76 6499   5.850   3.014   1.961  0.2705 -0.6584 -0.6744
   16CHTO  H148 6500   5.751   2.985   1.998  0.1239 -1.0865 -1.3815
   16CHTO   O49 6501   5.936   3.055   2.071  0.3320  0.7862  0.2853
   16CHTO   C77 6502   5.955   2.954   2.160 -0.7007  0.5162 -1.5630
   16CHTO  H149 6503   5.862   2.920   2.205 -0.8434  1.5396 -1.0628
   16CHTO   C88 6504   6.034   3.006   2.280  0.1837 -0.4795  0.3402
   16CHTO   O58 6505   5.980   3.113   2.353  0.0841  0.3037 -0.1742
   16CHTO  H136 6506   5.889   3.096   2.368  0.4881 -0.8180  1.0489
   16CHTO   O51 6507   5.840   3.136   1.869 -0.7082  0.1284  0.4786
   16CHTO   C78 6508   5.765   3.253   1.935 -0.1676  0.5907 -0.3166
   16CHTO  H150 6509   5.753   3.231   2.044 -1.8824  2.3703 -0.1373
   16CHTO   C80 6510   5.620   3.262   1.868  0.5103  0.0779  0.3259
   16CHTO  H152 6511   5.623   3.255   1.757 -1.0518  1.8534  0.1447
   16CHTO   O55 6512   5.553   3.141   1.905  0.0558  0.4035 -0.2628
   16CHTO  H134 6513   5.598   3.072   1.860  0.7464  2.4138 -2.7796
   16CHTO   C84 6514   5.548   3.390   1.921 -1.1444  0.7501  0.0200
   16CHTO  H156 6515   5.529   3.380   2.028 -0.1106 -5.4252 -0.1528
   16CHTO   N15 6516   5.414   3.417   1.853 -0.1159 -0.0104 -0.6042
   16CHTO  H143 6517   5.430   3.409   1.747  1.3280  0.0828 -0.4045
   16CHTO  H144 6518   5.346   3.341   1.886 -0.6482  0.6331 -0.2023
   16CHTO   C87 6519   5.639   3.513   1.901 -0.2868  0.3074 -0.3446
   16CHTO  H159 6520   5.638   3.547   1.798 -0.0617 -0.2893 -0.5474
   16CHTO   O53 6521   5.785   3.490   1.962  0.6000 -0.1549  0.1556
   16CHTO   C82 6522   5.844   3.374   1.915 -1.1441 -0.2968 -0.1943
   16CHTO  H154 6523   5.873   3.388   1.810  2.2553 -1.4216  0.5326
   16CHTO   C89 6524   5.979   3.367   1.995  0.4339 -0.7574 -0.3094
   16CHTO   O59 6525   5.983   3.425   2.127  0.1276  0.3812 -0.2819
   16CHTO  H137 6526   6.050   3.376   2.170 -0.2586 -0.4634 -0.6290
   16CHTO   O45 6527   5.566   3.632   2.004  0.7736 -0.3845  0.4287
   16CHTO   C67 6528   5.650   3.744   2.034  0.4069  0.2530  0.0418
   16CHTO  H124 6529   5.755   3.725   2.012  0.0807 -0.1462 -1.2127
   16CHTO   C65 6530   5.606   3.868   1.951  0.3046  0.8775 -0.0416
   16CHTO  H122 6531   5.499   3.857   1.937  0.7283 -3.0264 -0.9458
   16CHTO   O44 6532   5.660   3.844   1.819 -0.0226 -0.7663 -0.4562
   16CHTO  H102 6533   5.749   3.818   1.833  0.4218 -0.3041 -2.3407
   16CHTO   C63 6534   5.634   4.004   2.032  0.0236  0.3075  0.3220
   16CHTO  H120 6535   5.562   4.017   2.113  1.1165  0.7913  1.2293
   16CHTO   N11 6536   5.622   4.126   1.950  0.6500  0.7725  0.1565
   16CHTO  H108 6537   5.535   4.183   1.977 -1.0879 -1.5366 -0.4769
   16CHTO  H109 6538   5.600   4.095   1.850  0.1450  4.1084 -0.8340
   16CHTO   C61 6539   5.763   3.987   2.122 -0.0035  0.7724 -0.2483
   16CHTO  H118 6540   5.782   4.078   2.180  0.4869 -0.0304  0.8639
   16CHTO   O40 6541   5.746   3.883   2.219 -0.4682 -0.0078 -0.0067
   16CHTO   C68 6542   5.652   3.774   2.191  0.5035 -0.0568 -0.9372
   16CHTO  H125 6543   5.554   3.804   2.234  2.2174  2.1044  1.6272
   16CHTO   C72 6544   5.701   3.654   2.278 -0.3751 -0.0431  0.5893
   16CHTO   O48 6545   5.652   3.520   2.248 -0.0992 -0.3101 -0.4580
   16CHTO  H105 6546   5.702   3.449   2.284 -0.5184 -0.6943 -0.6201
   16CHTO   O38 6547   5.875   3.975   2.030  0.5135  0.0840 -0.3318
   16CHTO   C55 6548   6.009   3.997   2.088 -0.2119  0.5641 -0.6196
   16CHTO  H112 6549   6.007   4.009   2.197  2.0250  1.8436 -0.6776
   16CHTO   C56 6550   6.082   4.117   2.017  0.9219  0.8420 -0.8339
   16CHTO  H113 6551   6.066   4.106   1.909 -1.9665 -1.9496 -0.1939
   16CHTO   O42 6552   6.021   4.238   2.058 -0.4721 -0.2881 -0.2119
   16CHTO  H100 6553   6.013   4.239   2.152 -0.7104 -1.1568 -0.2249
   16CHTO   C57 6554   6.239   4.116   2.050 -0.0913  1.2708 -0.8939
   16CHTO  H114 6555   6.260   4.126   2.156  0.0258 -1.0398 -0.6764
   16CHTO   N10 6556   6.318   4.221   1.986  0.1587 -0.5373 -0.1165
   16CHTO  H106 6557   6.334   4.308   2.047 -1.4793 -1.1193  1.1966
   16CHTO  H107 6558   6.406   4.197   1.929 -0.6152  0.7709 -1.9171
   16CHTO   C58 6559   6.294   3.979   2.008  0.7551  0.4727  0.1649
   16CHTO  H115 6560   6.269   3.964   1.901 -1.1137 -1.8616  0.8710
   16CHTO   O37 6561   6.227   3.880   2.086 -0.0733  0.1888  0.3965
   16CHTO   C59 6562   6.089   3.869   2.059  0.5513 -0.8100 -0.2046
   16CHTO  H116 6563   6.075   3.840   1.955  0.0986 -0.3365 -0.2757
   16CHTO   C70 6564   6.039   3.740   2.122 -0.3416 -0.3314  0.3195
   16CHTO   O46 6565   6.040   3.723   2.260 -0.2440  0.1271 -0.3617
   16CHTO  H103 6566   5.968   3.769   2.298  0.0766  0.1545  0.2156
   16CHTO   O39 6567   6.472   3.959   2.030  0.0958 -0.1164 -0.0106
   16CHTO   C60 6568   6.535   3.879   1.929  0.3369 -0.1471  0.1897
   16CHTO  H117 6569   6.462   3.856   1.852 -0.7371 -2.0954  1.7498
   16CHTO   C62 6570   6.660   3.945   1.867 -0.0770 -0.2456  0.0429
   16CHTO  H119 6571   6.625   4.033   1.809 -2.7301 -0.1440  1.7320
   16CHTO   O43 6572   6.759   3.989   1.968 -0.4686 -0.0533 -0.1791
   16CHTO  H101 6573   6.783   3.926   2.033 -0.4557 -0.4338 -0.5524
   16CHTO   C66 6574   6.718   3.845   1.753 -0.0016  0.4608  0.0731
   16CHTO  H123 6575   6.641   3.822   1.681  1.3965  2.5876 -2.1938
   16CHTO   N12 6576   6.821   3.904   1.674 -0.1272  0.1059 -0.3747
   16CHTO  H110 6577   6.794   3.951   1.581 -0.2721 -2.3087 -1.6062
   16CHTO  H111 6578   6.899   3.954   1.730  2.2258 -0.7635 -2.7816
   16CHTO   C69 6579   6.762   3.703   1.808  0.5722  0.2994 -0.0966
   16CHTO  H126 6580   6.848   3.704   1.878  2.6047  0.3784 -2.5265
   16CHTO   O41 6581   6.621   3.648   1.880  0.7348  0.0417 -0.2554
   16CHTO   C64 6582   6.581   3.744   1.994 -0.1852  0.2069 -0.5681
   16CHTO  H121 6583   6.669   3.760   2.060 -0.4968 -1.4854  0.2599
   16CHTO   C71 6584   6.463   3.668   2.065 -0.1588  0.1057  0.3853
   16CHTO   O47 6585   6.507   3.541   2.120  0.2174 -0.3383 -0.7275
   16CHTO  H104 6586   6.529   3.548   2.211  0.0878 -1.1315 -0.6306
   16CHTO   O34 6587   6.834   3.592   1.678 -0.1289  0.2301 -0.3995
   16CHTO   C49 6588   6.927   3.475   1.698  0.3997 -0.6165 -0.0374
   16CHTO   H91 6589   6.990   3.462   1.609  0.3877 -1.3225  0.0523
   16CHTO   C47 6590   6.843   3.346   1.707  0.1044  0.5800  0.8857
   16CHTO   H89 6591   6.912   3.260   1.700 -0.3500  0.3478 -1.1828
   16CHTO   O33 6592   6.758   3.344   1.589 -0.2160 -0.5814 -0.2939
   16CHTO   H70 6593   6.691   3.278   1.593 -1.4379  0.7239  1.2548
   16CHTO   C45 6594   6.753   3.352   1.843 -0.1936 -0.1796 -0.0331
   16CHTO   H87 6595   6.715   3.454   1.852 -1.7708 -0.9254  2.2826
   16CHTO    N8 6596   6.644   3.251   1.856  0.1517 -0.5649 -0.2943
   16CHTO   H75 6597   6.682   3.150   1.843  0.5562 -0.3976 -0.4259
   16CHTO   H76 6598   6.575   3.276   1.936  1.8945 -2.0523  1.7628
   16CHTO   C43 6599   6.869   3.339   1.955  0.0258 -0.7246  0.0601
   16CHTO   H85 6600   6.812   3.345   2.047 -0.6167  0.0607 -0.3844
   16CHTO   O29 6601   6.961   3.454   1.945 -0.5227  0.3648  0.3636
   16CHTO   C50 6602   7.021   3.493   1.821 -0.5307  0.0565 -0.3844
   16CHTO   H92 6603   7.055   3.597   1.833  0.9312 -0.0962 -2.8601
   16CHTO   C54 6604   7.160   3.424   1.799 -0.1320 -0.0899 -0.1176
   16CHTO   O36 6605   7.260   3.470   1.889  0.2186 -0.1205  0.4136
   16CHTO   H72 6606   7.315   3.534   1.847  0.1195  0.2192  0.8034
   16CHTO   O27 6607   6.938   3.210   1.954 -0.0845  0.2031  0.1924
   16CHTO   C37 6608   6.980   3.107   2.045 -0.7702  0.8061 -0.0753
   16CHTO   H79 6609   7.039   3.149   2.129  0.1632 -0.4933 -0.0750
   16CHTO   C38 6610   6.860   3.027   2.106  0.1580  0.1017  0.5517
   16CHTO   H80 6611   6.796   2.991   2.024  0.7468  0.4340 -0.0598
   16CHTO   O31 6612   6.780   3.119   2.187 -0.1091  0.6480  0.5668
   16CHTO   H68 6613   6.830   3.158   2.256  0.0385 -0.5196  1.1250
   16CHTO   C39 6614   6.912   2.905   2.199  0.5716  0.1705 -0.1944
   16CHTO   H81 6615   6.961   2.947   2.287  0.9988 -0.0607 -0.3245
   16CHTO    N7 6616   6.793   2.825   2.238 -0.4777  0.1421 -0.5139
   16CHTO   H73 6617   6.833   2.753   2.308 -1.3691  0.8443  0.7555
   16CHTO   H74 6618   6.756   2.779   2.148  0.1826 -1.1785 -0.1222
   16CHTO   C40 6619   7.014   2.827   2.115 -0.2744  0.4614  0.2196
   16CHTO   H82 6620   6.967   2.759   2.044 -1.6947  0.2242  1.3633
   16CHTO   O26 6621   7.116   2.910   2.048 -0.0507  0.1099 -0.4979
   16CHTO   C41 6622   7.071   3.009   1.966 -0.1843  0.2309 -0.0384
   16CHTO   H83 6623   7.015   2.961   1.885 -0.5671 -0.8427  0.8392
   16CHTO   C52 6624   7.205   3.076   1.910  0.0323  0.4591  0.4236
   16CHTO   O35 6625   7.266   3.000   1.799  0.2519  0.3997  0.0891
   16CHTO   H71 6626   7.286   2.919   1.841 -1.4812  0.1117  0.3876
   16CHTO   O28 6627   7.101   2.757   2.202  0.1898  0.3522  0.1427
   16CHTO   C42 6628   7.140   2.613   2.200  0.1961 -0.1972  0.6628
   16CHTO   H84 6629   7.229   2.611   2.263  0.4462  3.6804  0.5196
   16CHTO   C44 6630   7.182   2.544   2.064  0.0604  0.4976  0.8645
   16CHTO   H86 6631   7.099   2.553   1.993  1.2365 -1.4415 -0.7989
   16CHTO   O32 6632   7.292   2.611   2.014  0.0528 -0.3568  1.0535
   16CHTO   H69 6633   7.367   2.596   2.069  0.0275  1.9907  1.7816
   16CHTO   C48 6634   7.217   2.386   2.072  0.5611 -0.1553 -0.4022
   16CHTO   H90 6635   7.309   2.378   2.130  1.1743 -0.8800 -1.4514
   16CHTO    N9 6636   7.238   2.314   1.942 -0.0006 -0.7490 -0.3103
   16CHTO   H77 6637   7.328   2.343   1.890 -0.8659  0.8900 -0.9427
   16CHTO   H78 6638   7.225   2.208   1.959  0.5237 -0.6461  0.7271
   16CHTO   C51 6639   7.096   2.328   2.153  0.4862 -0.3624  0.0448
   16CHTO   H93 6640   7.005   2.348   2.096 -0.5880 -3.5967  0.5399
   16CHTO   O30 6641   7.087   2.391   2.279 -0.1061  0.4612  0.7442
   16CHTO   C46 6642   7.031   2.530   2.267 -0.0033  0.0216 -0.5153
   16CHTO   H88 6643   6.938   2.529   2.211  0.3220  2.6394 -1.1446
   16CHTO   C53 6644   6.993   2.576   2.407  0.0624  0.3882  0.0660
   16CHTO   O72 6645   7.103   2.584   2.500 -0.0255 -0.4060 -0.0144
   16CHTO  H199 6646   7.061   2.600   2.582  0.9400  1.5388  0.1315
   16CHTO   O22 6647   7.090   2.186   2.182 -0.7604 -0.5201  0.1071
   16CHTO   C31 6648   6.961   2.125   2.221 -0.0091 -0.2669 -0.9116
   16CHTO   H59 6649   6.986   2.019   2.242 -0.0018 -0.1420 -0.2922
   16CHTO   C29 6650   6.896   2.185   2.349  0.1962  0.2751  0.3957
   16CHTO   H57 6651   6.864   2.288   2.327 -1.0502 -0.1510  0.2205
   16CHTO   O21 6652   7.001   2.186   2.446  0.1101  0.5731 -0.0886
   16CHTO   H37 6653   6.983   2.127   2.517  0.9995  1.5699  0.9797
   16CHTO   C27 6654   6.774   2.101   2.399 -0.0200  0.4225 -0.3828
   16CHTO   H55 6655   6.809   2.000   2.427 -3.3225 -0.0748  2.2729
   16CHTO    N5 6656   6.719   2.156   2.521 -0.0005 -0.1074 -0.4105
   16CHTO   H43 6657   6.792   2.148   2.600  0.4668  0.3623 -0.7962
   16CHTO   H44 6658   6.625   2.111   2.549  0.7850  0.5065  3.4683
   16CHTO   C25 6659   6.672   2.077   2.278  0.2638 -0.6804 -0.0722
   16CHTO   H53 6660   6.616   2.171   2.266  0.7034 -0.4010  0.0578
   16CHTO   O17 6661   6.748   2.036   2.158  0.4155 -0.8588  0.2761
   16CHTO   C32 6662   6.854   2.119   2.108 -0.4129 -0.4475 -0.2325
   16CHTO   H60 6663   6.823   2.222   2.092 -0.4925 -0.4202  0.0973
   16CHTO   C36 6664   6.905   2.063   1.970  0.4128 -0.4138 -0.7626
   16CHTO   O25 6665   6.800   2.055   1.871 -0.6630  0.1259  0.4467
   16CHTO   H40 6666   6.714   2.041   1.905 -1.2138  0.0791 -0.9305
   16CHTO   O15 6667   6.562   1.985   2.304  0.1829  0.0409 -0.2387
   16CHTO   C19 6668   6.419   2.005   2.348 -0.1012  0.4184  0.5429
   16CHTO   H47 6669   6.418   2.103   2.398  0.0500  0.2505  0.8779
   16CHTO   C20 6670   6.310   1.989   2.234 -0.4276 -0.0218 -0.0755
   16CHTO   H48 6671   6.317   1.890   2.186  0.7472 -0.1144  0.2619
   16CHTO   O19 6672   6.344   2.082   2.135 -0.3569 -0.2270 -0.2828
   16CHTO   H35 6673   6.309   2.073   2.048 -1.0752 -1.4510  0.1112
   16CHTO   C21 6674   6.167   2.007   2.279  0.1609 -0.4401  0.1320
   16CHTO   H49 6675   6.152   2.107   2.320  1.2579 -0.2637  0.1196
   16CHTO    N4 6676   6.066   1.994   2.167 -0.4217  0.2845  0.3650
   16CHTO   H41 6677   6.015   2.089   2.159 -1.3467 -0.1714  0.7567
   16CHTO   H42 6678   5.996   1.921   2.205  0.4801 -0.8169 -0.0481
   16CHTO   C22 6679   6.142   1.911   2.397  0.0053  0.5247  0.6535
   16CHTO   H50 6680   6.126   1.812   2.354 -1.0991  0.4230  1.2910
   16CHTO   O14 6681   6.243   1.913   2.500  0.3012  0.2679  0.0169
   16CHTO   C23 6682   6.384   1.898   2.456  0.0582 -1.0847 -0.0150
   16CHTO   H51 6683   6.398   1.795   2.419  1.2155 -0.8031 -0.3924
   16CHTO   C34 6684   6.472   1.914   2.583  0.4433  0.6881 -0.1104
   16CHTO   O23 6685   6.453   1.798   2.661  0.4289  0.0447 -0.1327
   16CHTO   H38 6686   6.536   1.768   2.692  0.5414  0.0472 -0.4323
   16CHTO   O16 6687   6.018   1.939   2.458  0.3282 -0.0709 -0.2378
   16CHTO   C24 6688   5.965   1.813   2.559 -0.7499  0.5014 -0.1061
   16CHTO   H52 6689   6.045   1.739   2.566 -1.1526 -0.0756 -1.4295
   16CHTO   C26 6690   5.838   1.749   2.501  0.4675 -0.6164  0.1743
   16CHTO   H54 6691   5.779   1.831   2.455 -0.3773  0.9660  3.8969
   16CHTO   O20 6692   5.885   1.662   2.393  0.0832  0.4822 -0.7675
   16CHTO   H36 6693   5.812   1.658   2.334  0.9706  1.6212 -1.9552
   16CHTO   C30 6694   5.761   1.662   2.604  0.0870  0.0120 -0.1379
   16CHTO   H58 6695   5.824   1.574   2.625 -0.1531 -0.4787 -1.4338
   16CHTO    N6 6696   5.633   1.611   2.541 -0.2907 -0.3004 -0.3001
   16CHTO   H45 6697   5.561   1.587   2.618 -0.4726 -0.2591 -0.4574
   16CHTO   H46 6698   5.656   1.524   2.482 -0.0863 -0.8188  0.5260
   16CHTO   C33 6699   5.740   1.731   2.735 -0.0586 -0.1924  0.7139
   16CHTO   H61 6700   5.678   1.821   2.721  2.2680  1.1417 -1.3150
   16CHTO   O18 6701   5.867   1.769   2.773 -0.2941 -0.1623 -0.5958
   16CHTO   C28 6702   5.934   1.870   2.695 -0.0196 -0.1012 -0.4126
   16CHTO   H56 6703   5.871   1.958   2.684 -0.0303  0.0435  0.7372
   16CHTO   C35 6704   6.066   1.913   2.769 -0.0293 -0.1436  0.3902
   16CHTO   O24 6705   6.042   1.987   2.887 -0.2902 -0.2725 -0.1941
   16CHTO   H39 6706   6.123   1.997   2.933  1.3096 -4.6072 -1.7466
   16CHTO    O9 6707   5.676   1.651   2.835  0.5259  0.4160  0.0834
   16CHTO   C13 6708   5.632   1.730   2.981  0.1313  0.8491  0.4075
   16CHTO   H26 6709   5.601   1.835   2.963 -1.1811  0.4264  0.1308
   16CHTO   C11 6710   5.753   1.721   3.085  0.9703 -0.2880 -0.1169
   16CHTO   H24 6711   5.837   1.779   3.042  1.0970 -0.5461 -0.2201
   16CHTO    O8 6712   5.815   1.585   3.097 -0.0861  0.3176 -0.3302
   16CHTO    H3 6713   5.897   1.596   3.142 -0.3312 -1.2426  0.5677
   16CHTO    C9 6714   5.706   1.783   3.217 -0.2904  0.0319  0.4442
   16CHTO   H22 6715   5.665   1.881   3.190  0.7020 -0.0536 -1.4771
   16CHTO    N2 6716   5.809   1.806   3.320  0.1438  0.0011  0.5230
   16CHTO   H10 6717   5.831   1.908   3.351  3.3207 -0.5297  0.1477
   16CHTO   H11 6718   5.899   1.751   3.299  0.8970  1.9766 -1.6753
   16CHTO    C7 6719   5.577   1.702   3.273 -0.2132 -0.2873 -0.2567
   16CHTO   H20 6720   5.547   1.772   3.354 -0.1753 -1.4887  0.8109
   16CHTO    O4 6721   5.475   1.706   3.177  0.2034 -0.4431 -0.1579
   16CHTO   C14 6722   5.501   1.662   3.044 -0.2389 -1.1488  0.3088
   16CHTO   H27 6723   5.413   1.694   2.984 -0.5801  1.2474  1.9969
   16CHTO   C18 6724   5.511   1.508   3.037 -0.1792 -0.1093 -0.5307
   16CHTO   O13 6725   5.380   1.454   3.061 -0.3621 -0.4574  0.6769
   16CHTO    H7 6726   5.367   1.374   3.014 -2.2358 -0.1166  0.6061
   16CHTO    O2 6727   5.602   1.533   3.320 -0.4079  0.0315 -0.5637
   16CHTO    C1 6728   5.546   1.511   3.451 -0.0232 -0.0843  0.0645
   16CHTO   H14 6729   5.493   1.604   3.480 -0.3108  0.2187 -1.3833
   16CHTO    C2 6730   5.663   1.488   3.556 -0.1361  0.0190  0.2034
   16CHTO   H15 6731   5.717   1.403   3.511  0.1883  0.1255  0.3888
   16CHTO    O6 6732   5.749   1.609   3.569  0.1573  0.0238  0.4836
   16CHTO    H1 6733   5.778   1.638   3.485  0.5781  0.9036  0.9274
   16CHTO    C3 6734   5.612   1.439   3.695  0.2394  0.3371 -0.5073
   16CHTO   H16 6735   5.558   1.520   3.746  0.6315  0.1578  0.2035
   16CHTO    N1 6736   5.723   1.400   3.788 -0.4771 -0.2809  0.0562
   16CHTO    H8 6737   5.773   1.485   3.833 -1.1040  0.1707 -0.0821
   16CHTO    H9 6738   5.687   1.337   3.869 -0.6887 -2.4099 -1.6595
   16CHTO    C4 6739   5.510   1.332   3.668 -0.1323  0.3000  0.7342
   16CHTO   H17 6740   5.567   1.251   3.622  0.6919  2.0604 -1.4035
   16CHTO    O1 6741   5.395   1.359   3.586  0.5275  0.1825  0.5542
   16CHTO    C5 6742   5.443   1.394   3.454  0.2965 -0.5543 -0.2201
   16CHTO   H18 6743   5.489   1.308   3.406  0.5281  0.9363 -2.7590
   16CHTO   C16 6744   5.309   1.436   3.377  0.2651 -0.3092 -0.3790
   16CHTO   O11 6745   5.223   1.326   3.347  0.6479 -0.0650  0.6863
   16CHTO    H5 6746   5.272   1.246   3.354 -0.7008 -0.8180  1.7667
   16CHTO    O3 6747   5.455   1.282   3.787  0.0849 -0.2264  0.6317
   16CHTO    C6 6748   5.396   1.148   3.789 -0.3756 -0.8447  0.4066
   16CHTO   H19 6749   5.375   1.111   3.689  0.9371  0.7399 -0.4841
   16CHTO    C8 6750   5.491   1.041   3.869  0.0527 -0.3953 -0.6749
   16CHTO   H21 6751   5.510   1.073   3.971  1.7001 -2.6944 -0.2187
   16CHTO    O7 6752   5.619   1.026   3.806 -0.0123 -0.1146 -0.0236
   16CHTO    H2 6753   5.636   1.112   3.773  0.1548  0.9049  2.5768
   16CHTO   C12 6754   5.407   0.903   3.873 -0.1375 -0.4812  0.4157
   16CHTO   H25 6755   5.390   0.854   3.775 -0.2254 -1.5576  0.9648
   16CHTO    N3 6756   5.483   0.792   3.946 -0.1434  0.8150  0.8063
   16CHTO   H12 6757   5.418   0.708   3.965  0.3551  0.4541  0.9326
   16CHTO   H13 6758   5.572   0.760   3.894 -0.0719  1.2235  0.6788
   16CHTO   C15 6759   5.263   0.929   3.946 -0.5646  0.4743  0.0498
   16CHTO   H28 6760   5.280   0.959   4.049  1.0698  0.2419 -0.1427
   16CHTO   O10 6761   5.168   0.822   3.913  0.3293  0.5208 -0.1091
   16CHTO    H4 6762   5.149   0.817   3.821  1.5448  1.3929 -0.4148
   16CHTO    O5 6763   5.195   1.038   3.884 -0.2196  0.6381 -0.1971
   16CHTO   C10 6764   5.258   1.162   3.858  0.4031 -0.6759 -0.6685
   16CHTO   H23 6765   5.267   1.216   3.953 -1.6102 -0.9243 -0.3184
   16CHTO   C17 6766   5.141   1.239   3.779 -0.1580 -0.3187 -0.1712
   16CHTO   O12 6767   5.042   1.280   3.875  0.1453  0.0703  0.2774
   16CHTO    H6 6768   4.978   1.314   3.815  0.2261 -0.8454 -0.3481
   17CHTO  H203 6769   5.897   3.765   4.256  1.8671  1.7512 -1.4400
   17CHTO   O82 6770   5.934   3.801   4.335  0.7097 -0.3195  0.1151
   17CHTO  C123 6771   5.909   3.944   4.328 -0.2761  0.5551 -0.2343
   17CHTO  H227 6772   5.841   3.968   4.411 -1.7999 -1.6956 -0.7891
   17CHTO   O77 6773   6.041   4.005   4.343 -0.4370 -0.3626 -0.0825
   17CHTO  C118 6774   6.026   4.150   4.364 -0.1536  0.0641  0.3076
   17CHTO  H222 6775   5.960   4.157   4.452  0.5346 -0.1733  0.8423
   17CHTO  C125 6776   6.161   4.217   4.405  1.1872  0.3388 -0.1836
   17CHTO   O84 6777   6.224   4.140   4.520 -0.2270 -0.6789 -0.3019
   17CHTO  H205 6778   6.224   4.180   4.605  1.3075 -1.8642  0.2773
   17CHTO  C114 6779   5.970   4.215   4.234  0.1787 -0.0005  0.0440
   17CHTO  H218 6780   6.045   4.200   4.156  0.6032 -0.9599  0.6392
   17CHTO  C116 6781   5.842   4.148   4.176 -0.3146 -0.0671 -0.6335
   17CHTO  H220 6782   5.752   4.186   4.229  0.4000  0.8509 -0.0510
   17CHTO   O79 6783   5.826   4.182   4.039  0.4083 -0.3269 -0.0000
   17CHTO  H201 6784   5.882   4.137   3.979 -0.9479 -0.7739 -0.9378
   17CHTO  C120 6785   5.849   3.990   4.187 -0.2048 -0.3511  0.0916
   17CHTO  H224 6786   5.919   3.955   4.108  0.6199 -1.3863  1.2654
   17CHTO   N21 6787   5.712   3.927   4.169  0.5529 -0.1483  0.0964
   17CHTO  H211 6788   5.641   3.995   4.215 -0.4124 -1.4699  0.5783
   17CHTO  H212 6789   5.695   3.932   4.063 -0.7727  3.8352  0.3935
   17CHTO   O75 6790   5.958   4.353   4.271  0.6567 -0.3881  0.2046
   17CHTO  C112 6791   5.980   4.467   4.138 -0.7166  0.3594 -0.1776
   17CHTO  H216 6792   5.937   4.431   4.043 -0.2010 -0.4357 -0.1177
   17CHTO   O73 6793   6.121   4.493   4.127  0.0474 -0.4092 -0.1314
   17CHTO  C113 6794   6.158   4.586   4.019 -0.2909  0.4891  0.0306
   17CHTO  H217 6795   6.118   4.547   3.923 -1.0391  1.5114 -0.0911
   17CHTO  C124 6796   6.310   4.594   4.010 -0.2521 -0.3218 -0.6515
   17CHTO   O83 6797   6.383   4.471   4.008  0.1464  0.6499  0.1350
   17CHTO  H204 6798   6.472   4.496   3.995  0.8872 -0.7268  2.2641
   17CHTO  C109 6799   6.098   4.728   4.053 -0.3733 -1.3209 -0.4398
   17CHTO  H213 6800   6.146   4.763   4.146  0.9340  1.5158 -2.0993
   17CHTO  C110 6801   5.943   4.713   4.077 -0.7537  0.0944  0.1418
   17CHTO  H214 6802   5.895   4.690   3.982 -0.3125 -0.5621  0.0713
   17CHTO   O78 6803   5.902   4.842   4.124  0.1373 -0.0711 -0.8253
   17CHTO  H200 6804   5.810   4.853   4.138 -0.4749 -2.9088 -2.3378
   17CHTO  C111 6805   5.910   4.599   4.175 -0.1881 -0.1319  0.5426
   17CHTO  H215 6806   5.945   4.637   4.273 -1.1420  2.4675 -0.0833
   17CHTO   N19 6807   5.764   4.582   4.191 -0.1184 -0.5924  0.3238
   17CHTO  H207 6808   5.718   4.490   4.160 -3.0598  1.6394 -2.3259
   17CHTO  H208 6809   5.729   4.621   4.286  0.8606 -0.9801  0.8515
   17CHTO   O74 6810   6.135   4.826   3.947 -0.0612  0.2397  0.1340
   17CHTO  C115 6811   6.204   4.967   4.006  0.8045  0.1320  0.5908
   17CHTO  H219 6812   6.184   4.979   4.113 -0.2992 -1.0140  0.5248
   17CHTO   O76 6813   6.348   4.955   3.997  0.1103  0.6162 -0.0564
   17CHTO  C122 6814   6.409   5.005   3.878  0.2410  0.3376  0.9005
   17CHTO  H226 6815   6.372   4.938   3.800 -0.2768 -0.1745  1.5862
   17CHTO  C126 6816   6.571   4.989   3.880 -0.0392 -0.4091 -0.3632
   17CHTO   O85 6817   6.630   4.862   3.888  0.2021  0.4821 -0.1658
   17CHTO  H206 6818   6.644   4.837   3.799 -0.4065 -0.5376  0.0204
   17CHTO  C121 6819   6.371   5.153   3.851  0.9110  0.0552  0.0181
   17CHTO  H225 6820   6.454   5.223   3.873  1.5861  0.0171 -2.2519
   17CHTO   O81 6821   6.340   5.155   3.706  0.0303  0.2512  0.6302
   17CHTO  H202 6822   6.420   5.157   3.657 -0.1214 -0.3163  0.3616
   17CHTO  C119 6823   6.243   5.201   3.934  0.1786  0.1577  0.1858
   17CHTO  H223 6824   6.270   5.205   4.040 -0.5945 -1.2382  0.4532
   17CHTO  C117 6825   6.140   5.087   3.928 -0.1233 -0.0904  0.5069
   17CHTO  H221 6826   6.122   5.058   3.824  1.2300  0.4854  0.0913
   17CHTO   N20 6827   6.004   5.127   3.978 -0.5588 -0.1056 -0.0303
   17CHTO  H209 6828   5.925   5.062   3.943  0.2863 -0.1447 -1.9302
   17CHTO  H210 6829   6.018   5.147   4.083  1.2942 -0.5778 -0.1547
   17CHTO   O80 6830   6.208   5.356   3.908  0.0736  0.0901 -0.2734
   17CHTO  C103 6831   6.264   5.483   4.004  0.2313 -0.2407 -0.0532
   17CHTO  H190 6832   6.315   5.450   4.094 -1.2381 -2.7148 -0.0917
   17CHTO  C101 6833   6.354   5.582   3.930 -0.4585 -0.1205  0.1417
   17CHTO  H188 6834   6.319   5.587   3.827  0.5055 -2.3795 -0.3350
   17CHTO   O68 6835   6.494   5.519   3.930 -0.4643  0.3827 -0.2437
   17CHTO  H168 6836   6.485   5.433   3.894  0.3124  0.2392 -0.0962
   17CHTO   C99 6837   6.363   5.735   3.994  0.1968  0.6800 -0.4324
   17CHTO  H186 6838   6.446   5.730   4.068  0.5572  0.6302 -0.8327
   17CHTO   N17 6839   6.408   5.833   3.890  0.4157  0.1908  0.1055
   17CHTO  H174 6840   6.496   5.790   3.844  1.5827  1.6077  0.9685
   17CHTO  H175 6841   6.331   5.833   3.814 -0.0374  0.9177  0.5680
   17CHTO   C97 6842   6.240   5.777   4.073 -0.0747 -0.3782 -0.4995
   17CHTO  H184 6843   6.167   5.823   4.005  1.0393 -0.0948 -1.5412
   17CHTO   O64 6844   6.184   5.665   4.141 -0.2474 -0.3911 -0.5149
   17CHTO  C104 6845   6.137   5.564   4.052  0.4681  0.3133 -0.3950
   17CHTO  H191 6846   6.080   5.602   3.968 -0.1019 -0.5859 -0.4229
   17CHTO  C108 6847   6.041   5.478   4.138  0.5975  0.7912  0.2945
   17CHTO   O71 6848   5.917   5.550   4.156  0.8643  0.5041 -0.1995
   17CHTO  H171 6849   5.906   5.620   4.217 -2.9410  0.3057 -0.5441
   17CHTO   O62 6850   6.279   5.874   4.178 -0.0719  0.5595 -0.2657
   17CHTO   C91 6851   6.181   5.975   4.199  0.5873  0.1745 -0.5476
   17CHTO  H178 6852   6.101   5.949   4.129  1.3863 -0.8841 -1.0799
   17CHTO   C92 6853   6.242   6.110   4.151  0.1409 -0.0271 -0.1183
   17CHTO  H179 6854   6.294   6.088   4.056  1.3413 -0.3232  0.5996
   17CHTO   O66 6855   6.141   6.206   4.132 -0.3352 -0.3836  0.2225
   17CHTO  H166 6856   6.101   6.233   4.212 -1.8186 -0.4946 -0.4584
   17CHTO   C93 6857   6.346   6.173   4.254 -0.0113 -0.6286  0.1526
   17CHTO  H180 6858   6.371   6.276   4.226 -2.5819 -0.2191 -0.7207
   17CHTO   N16 6859   6.476   6.111   4.237 -0.2246  0.0192  0.2961
   17CHTO  H172 6860   6.551   6.138   4.309  0.7177 -1.5945 -0.0568
   17CHTO  H173 6861   6.454   6.005   4.233  0.4808 -0.1151 -0.1854
   17CHTO   C94 6862   6.298   6.167   4.401 -0.6550 -0.1447  0.0804
   17CHTO  H181 6863   6.356   6.095   4.458  1.0902 -0.2901 -1.8099
   17CHTO   O61 6864   6.163   6.122   4.406  0.5565  0.1554  0.3366
   17CHTO   C95 6865   6.133   5.986   4.356  0.0666 -0.0314  0.4331
   17CHTO  H182 6866   6.191   5.914   4.413  0.8907 -0.3290 -0.7483
   17CHTO  C106 6867   5.980   5.936   4.371  0.9798  0.3489 -0.1423
   17CHTO   O69 6868   5.956   5.809   4.313  0.2464 -0.6474  0.0126
   17CHTO  H169 6869   5.865   5.788   4.325 -0.2940  1.1790 -0.5657
   17CHTO   O63 6870   6.316   6.307   4.451  0.1199 -0.0360  0.3258
   17CHTO   C96 6871   6.200   6.356   4.558  0.2882 -0.0275  0.1888
   17CHTO  H183 6872   6.132   6.275   4.586  0.2323  0.6178  1.9647
   17CHTO   C98 6873   6.115   6.471   4.506  0.1158  0.3278 -0.2966
   17CHTO  H185 6874   6.181   6.551   4.468 -0.9045  0.9137 -0.8604
   17CHTO   O67 6875   6.025   6.434   4.397  0.2223 -0.0890  1.1164
   17CHTO  H167 6876   5.972   6.507   4.373 -1.5283 -1.9702 -1.0094
   17CHTO  C102 6877   6.025   6.537   4.632 -0.1155 -0.4103  0.3857
   17CHTO  H189 6878   5.942   6.470   4.659 -2.4879  1.9176 -0.7727
   17CHTO   N18 6879   5.963   6.667   4.606 -0.7979  0.6545 -0.1433
   17CHTO  H176 6880   5.857   6.652   4.620 -0.4716 -0.3109  1.4075
   17CHTO  H177 6881   5.998   6.740   4.678  0.9557  2.1448 -2.4611
   17CHTO  C105 6882   6.106   6.556   4.761 -0.0296 -0.3964 -0.5604
   17CHTO  H192 6883   6.177   6.639   4.753 -0.4463 -0.2043 -2.5567
   17CHTO   O65 6884   6.182   6.436   4.794  0.2938 -0.0327 -0.8474
   17CHTO  C100 6885   6.272   6.397   4.691  0.2493 -0.4764 -0.1790
   17CHTO  H187 6886   6.343   6.479   4.671  0.8581 -1.1617 -0.8498
   17CHTO  C107 6887   6.362   6.282   4.747 -0.2715  0.0428 -0.4922
   17CHTO   O70 6888   6.290   6.167   4.807  0.0803  0.4606  0.1570
   17CHTO  H170 6889   6.235   6.191   4.879 -0.6225 -1.5993  0.3301
   17CHTO   O57 6890   6.006   6.560   4.881  0.0475 -0.3506 -0.3240
   17CHTO   C85 6891   6.032   6.646   4.991  0.1652  0.1979 -0.2614
   17CHTO  H157 6892   6.083   6.731   4.940 -1.5637  1.4650  0.0600
   17CHTO   C83 6893   6.132   6.572   5.091 -0.0263  0.3395  0.5725
   17CHTO  H155 6894   6.221   6.555   5.031 -1.0741  0.3988 -1.0010
   17CHTO   O56 6895   6.087   6.439   5.125  0.1368 -0.3985  0.2686
   17CHTO  H135 6896   6.153   6.381   5.159 -0.7238 -1.3589  0.3415
   17CHTO   C81 6897   6.166   6.673   5.208 -0.3014 -0.3420  0.1239
   17CHTO  H153 6898   6.221   6.755   5.160 -0.2272 -0.5299 -0.1131
   17CHTO   N14 6899   6.273   6.620   5.298 -0.0412  0.0944 -0.2122
   17CHTO  H141 6900   6.258   6.667   5.393  0.1815  0.1872 -0.2209
   17CHTO  H142 6901   6.367   6.654   5.258 -2.3202  4.8183 -1.9233
   17CHTO   C79 6902   6.028   6.731   5.280  0.2235  0.0370 -0.0686
   17CHTO  H151 6903   6.057   6.812   5.347  0.6646 -0.5635  0.4766
   17CHTO   O52 6904   5.944   6.787   5.175 -0.6559  0.5096 -0.1237
   17CHTO   C86 6905   5.907   6.692   5.071 -0.0475  0.2691 -0.0389
   17CHTO  H158 6906   5.855   6.605   5.117  2.1512 -1.3263 -0.5019
   17CHTO   C90 6907   5.810   6.753   4.972 -0.2521 -0.0549  0.5779
   17CHTO   O60 6908   5.692   6.806   5.032  0.5627 -0.6345  0.7005
   17CHTO  H138 6909   5.707   6.896   5.054 -0.7761  0.0356 -1.0291
   17CHTO   O50 6910   5.954   6.635   5.364  0.5471 -0.1053 -0.1380
   17CHTO   C73 6911   5.864   6.661   5.474  0.0098  0.2267  0.2586
   17CHTO  H145 6912   5.832   6.765   5.459  0.7947  0.4800  0.3409
   17CHTO   C74 6913   5.930   6.654   5.617 -0.1865  0.3771 -0.4851
   17CHTO  H146 6914   6.015   6.722   5.600  1.2656 -0.8552  1.4933
   17CHTO   O54 6915   5.835   6.705   5.709 -0.1494  0.3941 -0.1400
   17CHTO  H133 6916   5.825   6.660   5.791  3.0222  0.5367  0.3937
   17CHTO   C75 6917   5.984   6.505   5.645 -0.6233  0.2104  0.1636
   17CHTO  H147 6918   6.059   6.480   5.568 -3.6708 -0.9716 -2.5214
   17CHTO   N13 6919   6.050   6.495   5.777 -0.4214 -0.7890 -0.0100
   17CHTO  H139 6920   6.003   6.562   5.847 -1.0677 -2.7483  1.4789
   17CHTO  H140 6921   6.155   6.520   5.774 -0.5472 -0.1143  0.9485
   17CHTO   C76 6922   5.863   6.410   5.626  0.1083 -1.0136 -0.3088
   17CHTO  H148 6923   5.800   6.417   5.715 -0.0059 -3.2163 -0.1979
   17CHTO   O49 6924   5.781   6.436   5.509 -0.5478 -0.5539  0.4674
   17CHTO   C77 6925   5.739   6.567   5.471  0.4111 -0.5137 -0.3825
   17CHTO  H149 6926   5.656   6.604   5.531  0.4409 -0.8136 -0.1561
   17CHTO   C88 6927   5.688   6.554   5.333 -0.5599  0.0005 -0.4278
   17CHTO   O58 6928   5.632   6.691   5.281 -0.2779 -0.5483  0.3494
   17CHTO  H136 6929   5.698   6.745   5.244 -2.0310 -0.0786 -2.2400
   17CHTO   O51 6930   5.907   6.264   5.596  0.2872  0.4111  0.3384
   17CHTO   C78 6931   5.786   6.156   5.571 -0.2035 -0.2478  0.2935
   17CHTO  H150 6932   5.693   6.198   5.526  0.5456  2.3172  1.0679
   17CHTO   C80 6933   5.746   6.081   5.705  0.5754 -0.0252  0.1566
   17CHTO  H152 6934   5.832   6.021   5.740 -1.0691 -0.9015  2.9240
   17CHTO   O55 6935   5.703   6.186   5.796 -0.1688 -0.0622 -0.1759
   17CHTO  H134 6936   5.643   6.243   5.753  1.3226  1.9496  0.3035
   17CHTO   C84 6937   5.629   5.981   5.672 -0.3927  0.0982  0.7467
   17CHTO  H156 6938   5.541   6.030   5.631  1.3176  2.0075 -0.8051
   17CHTO   N15 6939   5.587   5.914   5.801 -0.0772  0.0884  0.1732
   17CHTO  H143 6940   5.519   5.833   5.781 -0.6268  0.7042 -0.4946
   17CHTO  H144 6941   5.534   5.991   5.854  1.3219 -0.0531  1.7887
   17CHTO   C87 6942   5.677   5.880   5.557  0.1655 -0.3370  0.1979
   17CHTO  H159 6943   5.757   5.816   5.596  0.6651 -1.2718 -2.2736
   17CHTO   O53 6944   5.729   5.965   5.430  0.0814 -0.2125  0.5531
   17CHTO   C82 6945   5.832   6.053   5.466  0.3113 -0.5257  0.5059
   17CHTO  H154 6946   5.914   5.996   5.509 -0.0148 -1.6463 -0.3476
   17CHTO   C89 6947   5.880   6.120   5.335  0.1223  0.3443  0.1589
   17CHTO   O59 6948   6.012   6.169   5.345 -0.4405 -0.3304 -0.1379
   17CHTO  H137 6949   6.016   6.262   5.335 -0.3082 -0.4140 -0.9589
   17CHTO   O45 6950   5.538   5.789   5.521  0.4686 -0.0542 -0.5660
   17CHTO   C67 6951   5.569   5.657   5.480 -0.1600 -0.3807  0.1929
   17CHTO  H124 6952   5.660   5.618   5.525 -0.6874  1.2181  2.7353
   17CHTO   C65 6953   5.452   5.567   5.526 -0.1890  0.4015 -0.5153
   17CHTO  H122 6954   5.444   5.587   5.633  0.9092  0.9647 -0.5329
   17CHTO   O44 6955   5.486   5.430   5.513 -0.0041  0.5130 -0.0621
   17CHTO  H102 6956   5.411   5.380   5.487 -0.7737  1.5013  0.2290
   17CHTO   C63 6957   5.324   5.618   5.442  0.7014  0.3318 -0.4454
   17CHTO  H120 6958   5.303   5.722   5.466  0.1596 -0.3884  2.3848
   17CHTO   N11 6959   5.197   5.567   5.505  0.1366 -0.1943  0.2916
   17CHTO  H108 6960   5.203   5.547   5.610  1.2474 -1.4792  0.0093
   17CHTO  H109 6961   5.101   5.610   5.486  0.4118 -0.0675 -0.8593
   17CHTO   C61 6962   5.344   5.600   5.288 -0.1551  0.2460 -0.2349
   17CHTO  H118 6963   5.256   5.650   5.243 -1.6503  0.8084  3.2157
   17CHTO   O40 6964   5.464   5.669   5.242 -0.1052 -0.5640 -0.3804
   17CHTO   C68 6965   5.591   5.662   5.319 -0.4170 -0.2039 -0.3959
   17CHTO  H125 6966   5.647   5.757   5.306 -0.1024 -0.6740 -2.6384
   17CHTO   C72 6967   5.677   5.547   5.256  0.0325  0.4180 -0.2048
   17CHTO   O48 6968   5.695   5.573   5.117  0.0886 -0.5847 -0.5800
   17CHTO  H105 6969   5.632   5.526   5.065 -3.0197  1.7094  0.8956
   17CHTO   O38 6970   5.355   5.463   5.241 -0.2089 -0.1534 -0.4126
   17CHTO   C55 6971   5.288   5.418   5.122  0.3334  0.1133 -0.3174
   17CHTO  H112 6972   5.339   5.322   5.108  0.6978  0.4312 -1.1903
   17CHTO   C56 6973   5.303   5.519   4.988 -0.2980 -0.1150 -0.2332
   17CHTO  H113 6974   5.282   5.617   5.033  1.5950 -0.5885  1.7391
   17CHTO   O42 6975   5.441   5.520   4.941 -0.2580  0.3688  0.0733
   17CHTO  H100 6976   5.476   5.436   4.922  1.5455  1.2248 -0.5329
   17CHTO   C57 6977   5.189   5.483   4.880 -0.2833  0.2424 -0.2574
   17CHTO  H114 6978   5.228   5.398   4.824 -1.4071  0.8199 -1.9487
   17CHTO   N10 6979   5.181   5.599   4.780  0.2933  0.1747 -0.0932
   17CHTO  H106 6980   5.219   5.696   4.811 -2.4508  2.0145 -2.3302
   17CHTO  H107 6981   5.090   5.617   4.727  0.9587  1.5491 -0.7878
   17CHTO   C58 6982   5.049   5.447   4.939 -0.8028 -0.2621 -0.1914
   17CHTO  H115 6983   5.012   5.541   4.986  0.7113  0.7959 -1.0471
   17CHTO   O37 6984   5.070   5.343   5.027 -0.9435  0.1558 -0.4068
   17CHTO   C59 6985   5.136   5.379   5.155 -0.4715  0.2534  0.0108
   17CHTO  H116 6986   5.085   5.459   5.209 -0.9139  1.6547 -2.4200
   17CHTO   C70 6987   5.124   5.257   5.251 -0.0759  0.7066 -0.7421
   17CHTO   O46 6988   5.200   5.266   5.373 -0.3606  0.3291 -0.7957
   17CHTO  H103 6989   5.173   5.347   5.412 -1.4190 -0.3997  0.0394
   17CHTO   O39 6990   4.939   5.389   4.822  0.2069  0.0778  0.0303
   17CHTO   C60 6991   4.802   5.441   4.843  0.5048 -0.4647 -0.1671
   17CHTO  H117 6992   4.799   5.493   4.939  0.0665 -4.2750  1.9842
   17CHTO   C62 6993   4.750   5.530   4.724 -0.1306 -0.6482 -0.4080
   17CHTO  H119 6994   4.811   5.622   4.718 -2.1123  0.6153 -1.4409
   17CHTO   O43 6995   4.761   5.462   4.598  0.5036  0.3607 -0.1723
   17CHTO  H101 6996   4.698   5.492   4.535  1.0983  0.8161 -0.5656
   17CHTO   C66 6997   4.596   5.570   4.758  0.1840 -0.4244  0.4203
   17CHTO  H123 6998   4.593   5.615   4.858 -0.0248 -0.8302  0.5972
   17CHTO   N12 6999   4.546   5.676   4.668  0.5242 -0.1457  0.3045
   17CHTO  H110 7000   4.613   5.760   4.660  1.4600 -0.8829  0.2876
   17CHTO  H111 7001   4.514   5.633   4.574 -0.8381 -1.0660  1.1812
   17CHTO   C69 7002   4.504   5.450   4.762  0.5496 -0.2833  0.0081
   17CHTO  H126 7003   4.505   5.393   4.666  0.2662 -0.1140 -0.0965
   17CHTO   O41 7004   4.564   5.347   4.872 -0.1567 -0.4614 -0.8725
   17CHTO   C64 7005   4.709   5.318   4.862 -0.3365  0.1115  0.2816
   17CHTO  H121 7006   4.726   5.250   4.775  0.8205 -0.0588  0.6315
   17CHTO   C71 7007   4.757   5.241   4.987 -0.2347  0.3308  0.4668
   17CHTO   O47 7008   4.727   5.303   5.110 -0.0757  0.4832 -0.4790
   17CHTO  H104 7009   4.807   5.318   5.157 -0.0938  0.5259 -0.4620
   17CHTO   O34 7010   4.363   5.483   4.805  0.0486  0.4229  0.0449
   17CHTO   C49 7011   4.256   5.567   4.889  0.0283  0.4798  0.1130
   17CHTO   H91 7012   4.229   5.650   4.823  0.9909 -0.0843 -1.0263
   17CHTO   C47 7013   4.320   5.617   5.014  0.0998 -0.6239 -0.0970
   17CHTO   H89 7014   4.242   5.680   5.063  2.2924  1.9292  0.2558
   17CHTO   O33 7015   4.433   5.705   4.986  0.6244  0.2022 -0.5260
   17CHTO   H70 7016   4.438   5.760   5.062 -2.5044 -1.2251  0.8237
   17CHTO   C45 7017   4.358   5.496   5.121  0.2179 -0.0809  0.4635
   17CHTO   H87 7018   4.461   5.460   5.103 -0.8229 -3.5576  1.0811
   17CHTO    N8 7019   4.351   5.545   5.257 -0.0929  0.4583 -0.9054
   17CHTO   H75 7020   4.441   5.592   5.294  1.3778 -3.0800  0.2790
   17CHTO   H76 7021   4.322   5.470   5.329 -1.3499  1.2585 -0.5770
   17CHTO   C43 7022   4.275   5.372   5.090  0.5167 -0.0276 -0.0862
   17CHTO   H85 7023   4.323   5.326   5.003  0.9941  0.4898 -0.0988
   17CHTO   O29 7024   4.137   5.422   5.060 -0.3484  0.1173  0.4669
   17CHTO   C50 7025   4.125   5.485   4.931 -0.5949  0.5654 -0.4295
   17CHTO   H92 7026   4.102   5.415   4.849 -1.1278 -0.4535  0.5607
   17CHTO   C54 7027   4.000   5.576   4.933  0.2995  0.3841  0.5696
   17CHTO   O36 7028   3.925   5.568   4.811 -0.5800 -0.2961 -0.4548
   17CHTO   H72 7029   3.885   5.484   4.801  1.4506 -1.3627  0.1600
   17CHTO   O27 7030   4.274   5.268   5.196  0.3453 -0.4677  0.1753
   17CHTO   C37 7031   4.360   5.154   5.186 -0.5196 -0.7189  0.4159
   17CHTO   H79 7032   4.439   5.170   5.111 -0.6650  0.8254  0.5805
   17CHTO   C38 7033   4.434   5.139   5.322 -0.3344  0.6810 -0.4597
   17CHTO   H80 7034   4.359   5.153   5.401  0.2659 -0.4918  0.3415
   17CHTO   O31 7035   4.532   5.241   5.347  0.5321  0.4977  0.1954
   17CHTO   H68 7036   4.573   5.222   5.429 -1.6475 -0.9390  1.0062
   17CHTO   C39 7037   4.505   5.002   5.333 -0.4372  0.3994  0.4045
   17CHTO   H81 7038   4.595   5.020   5.274  1.3966 -0.3712  2.8664
   17CHTO    N7 7039   4.560   4.970   5.470 -0.7049  0.5468 -0.0629
   17CHTO   H73 7040   4.545   4.867   5.498  2.7034 -0.0711 -0.2860
   17CHTO   H74 7041   4.666   4.991   5.462 -0.4246 -1.1457 -1.1069
   17CHTO   C40 7042   4.433   4.876   5.271 -0.3301 -0.6062 -0.5894
   17CHTO   H82 7043   4.365   4.854   5.353  1.7090  0.4569  1.4511
   17CHTO   O26 7044   4.368   4.911   5.149 -0.0765  0.7378  0.3241
   17CHTO   C41 7045   4.282   5.030   5.155 -0.2824  0.8883  0.3395
   17CHTO   H83 7046   4.207   5.015   5.234  0.1108  1.0837  0.7535
   17CHTO   C52 7047   4.202   5.044   5.031  0.2423  0.4493 -0.1354
   17CHTO   O35 7048   4.258   4.991   4.927  1.2840  0.0766  0.4341
   17CHTO   H71 7049   4.220   4.910   4.899  0.9793 -0.2885  1.8699
   17CHTO   O28 7050   4.519   4.757   5.247  0.0528 -0.5534 -0.3033
   17CHTO   C42 7051   4.643   4.747   5.169  0.1496  0.3037  0.1052
   17CHTO   H84 7052   4.655   4.639   5.161 -2.1621 -0.1701  2.3398
   17CHTO   C44 7053   4.768   4.798   5.246 -0.3910  0.1765  0.2441
   17CHTO   H86 7054   4.751   4.901   5.279  0.0509  0.6088 -0.8134
   17CHTO   O32 7055   4.798   4.719   5.367 -0.2498  0.1284 -0.4664
   17CHTO   H69 7056   4.881   4.739   5.404  1.2902  0.5538 -3.9435
   17CHTO   C48 7057   4.897   4.799   5.151 -0.1327  0.0644  0.3329
   17CHTO   H90 7058   4.929   4.696   5.136  0.2801  0.0854  1.0251
   17CHTO    N9 7059   5.009   4.876   5.210 -0.2056 -0.0174  0.4040
   17CHTO   H77 7060   5.069   4.824   5.283  2.4585  1.2513 -0.8012
   17CHTO   H78 7061   4.979   4.964   5.266 -2.1291  0.7256 -1.7507
   17CHTO   C51 7062   4.865   4.862   5.010  0.5095 -0.0332 -0.0318
   17CHTO   H93 7063   4.838   4.967   5.015 -0.9176 -0.2485 -2.2050
   17CHTO   O30 7064   4.758   4.783   4.965  0.1326 -0.5951  0.4767
   17CHTO   C46 7065   4.633   4.800   5.023 -0.3743  0.0339  0.1491
   17CHTO   H88 7066   4.603   4.905   5.026 -1.9878 -0.3641 -1.4599
   17CHTO   C53 7067   4.524   4.712   4.946 -0.5587  0.1192 -0.3818
   17CHTO   O72 7068   4.485   4.782   4.833 -0.0589 -0.2890 -0.8355
   17CHTO  H199 7069   4.452   4.869   4.843  2.0517  0.2877  1.5382
   17CHTO   O22 7070   4.974   4.850   4.920 -0.4142 -0.3709 -0.2170
   17CHTO   C31 7071   4.991   4.917   4.789  0.0195 -0.1885  0.9218
   17CHTO   H59 7072   5.065   4.858   4.730  0.2441 -0.4696  1.4801
   17CHTO   C29 7073   4.870   4.926   4.694  1.0269 -0.1584 -0.3139
   17CHTO   H57 7074   4.794   4.983   4.749 -1.4275 -1.9103 -1.8078
   17CHTO   O21 7075   4.811   4.799   4.677 -0.2259 -0.0798  0.7161
   17CHTO   H37 7076   4.717   4.799   4.671 -0.4107 -1.1964  3.0800
   17CHTO   C27 7077   4.905   4.995   4.551 -0.4496 -0.2163 -0.2312
   17CHTO   H55 7078   4.960   4.925   4.486  1.6263  1.8930 -0.8126
   17CHTO    N5 7079   4.781   5.045   4.485 -0.3448  0.0176  0.0160
   17CHTO   H43 7080   4.699   5.077   4.548 -0.5208 -1.3808  0.5040
   17CHTO   H44 7081   4.743   4.965   4.422 -0.6683 -0.4396  0.7910
   17CHTO   C25 7082   4.996   5.120   4.574  0.1303  0.3351 -0.2330
   17CHTO   H53 7083   4.942   5.206   4.616  0.0728  0.6638 -0.9723
   17CHTO   O17 7084   5.102   5.101   4.674 -0.0041 -0.3033  0.0286
   17CHTO   C32 7085   5.063   5.051   4.803 -0.2820 -0.4378 -0.2013
   17CHTO   H60 7086   4.998   5.113   4.866  0.3994  0.3881 -0.3069
   17CHTO   C36 7087   5.189   5.040   4.885 -0.0745 -0.2903  0.7815
   17CHTO   O25 7088   5.256   5.170   4.890  0.0771  0.0371  0.3757
   17CHTO   H40 7089   5.322   5.165   4.956 -0.8665  0.1243  1.3387
   17CHTO   O15 7090   5.075   5.163   4.442  0.5598  0.2994  0.0072
   17CHTO   C19 7091   5.133   5.281   4.397 -0.1155 -0.2568  0.1024
   17CHTO   H47 7092   5.170   5.245   4.300 -2.0752  0.8108 -1.0761
   17CHTO   C20 7093   5.027   5.399   4.384 -0.1168  0.4753  0.0409
   17CHTO   H48 7094   4.987   5.424   4.483 -0.7947 -0.9806  0.1522
   17CHTO   O19 7095   4.915   5.342   4.307 -0.0415 -0.0212 -0.0162
   17CHTO   H35 7096   4.882   5.408   4.249 -0.8801 -0.0234  0.4522
   17CHTO   C21 7097   5.093   5.523   4.319 -0.1682 -0.2692  0.1547
   17CHTO   H49 7098   5.125   5.497   4.218 -1.3013 -2.6556  0.3791
   17CHTO    N4 7099   5.002   5.646   4.311 -0.7476  1.0947 -0.1227
   17CHTO   H41 7100   5.056   5.734   4.281 -0.4297  0.7760 -0.4841
   17CHTO   H42 7101   4.968   5.662   4.412  0.4778  0.6669  0.3566
   17CHTO   C22 7102   5.221   5.557   4.405 -0.2466  0.0998  0.3814
   17CHTO   H50 7103   5.183   5.573   4.506  2.2456 -1.1266  1.5555
   17CHTO   O14 7104   5.311   5.445   4.408  0.4238  0.8752  0.6693
   17CHTO   C23 7105   5.261   5.328   4.476  0.0786  0.2086 -0.0227
   17CHTO   H51 7106   5.236   5.354   4.581  1.5429  0.6493  0.2275
   17CHTO   C34 7107   5.381   5.226   4.473 -0.1712  0.4295  0.0694
   17CHTO   O23 7108   5.374   5.097   4.525 -0.2644 -0.3321  0.4167
   17CHTO   H38 7109   5.450   5.043   4.512  1.5759  1.6984  2.3864
   17CHTO   O16 7110   5.295   5.662   4.360 -0.0245  0.1306 -0.2765
   17CHTO   C24 7111   5.356   5.761   4.474  0.3763  0.4920 -0.1546
   17CHTO   H52 7112   5.320   5.734   4.574  2.1155  1.0805  0.6571
   17CHTO   C26 7113   5.303   5.896   4.434  0.1896  0.1922 -0.1643
   17CHTO   H54 7114   5.339   5.918   4.331 -0.2233 -1.1053 -0.5995
   17CHTO   O20 7115   5.159   5.888   4.441 -0.3494 -0.3242  0.1549
   17CHTO   H36 7116   5.134   5.805   4.405  0.9612 -1.0334  0.8618
   17CHTO   C30 7117   5.351   6.012   4.532  0.0822  0.4921 -0.2787
   17CHTO   H58 7118   5.306   5.997   4.632  1.3136  1.0890  0.3825
   17CHTO    N6 7119   5.306   6.139   4.477 -0.0204  1.0446 -0.1369
   17CHTO   H45 7120   5.317   6.218   4.550 -3.8091  1.2294  0.3587
   17CHTO   H46 7121   5.205   6.143   4.438  0.1693  2.4368 -0.5108
   17CHTO   C33 7122   5.506   6.005   4.544 -0.0252 -0.0157  0.1511
   17CHTO   H61 7123   5.549   6.026   4.445 -0.6054  1.4757  0.2100
   17CHTO   O18 7124   5.546   5.873   4.585 -0.2215 -0.1575  0.4628
   17CHTO   C28 7125   5.510   5.774   4.481 -0.0994 -0.4281 -0.9263
   17CHTO   H56 7126   5.549   5.808   4.385  0.7900  0.7822 -0.1611
   17CHTO   C35 7127   5.581   5.639   4.517 -0.5390  0.2294  0.6881
   17CHTO   O24 7128   5.515   5.559   4.614  0.5935  0.9613  0.6149
   17CHTO   H39 7129   5.431   5.535   4.580  1.7621 -2.6299  0.0756
   17CHTO    O9 7130   5.555   6.107   4.633 -0.3143  0.1317  0.1811
   17CHTO   C13 7131   5.721   6.115   4.618  0.1494  0.2216  0.4540
   17CHTO   H26 7132   5.745   6.083   4.514 -2.3664 -0.4575  0.0517
   17CHTO   C11 7133   5.810   6.038   4.735  0.9815  0.7579  0.7544
   17CHTO   H24 7134   5.892   5.992   4.679  0.4417  0.5872  0.0987
   17CHTO    O8 7135   5.728   5.931   4.793  0.0002 -0.0593  0.2981
   17CHTO    H3 7136   5.772   5.850   4.778 -0.5781 -0.3845  0.3583
   17CHTO    C9 7137   5.868   6.138   4.833  0.0232  0.0921 -0.7013
   17CHTO   H22 7138   5.948   6.186   4.775  0.1618  1.0924  0.2974
   17CHTO    N2 7139   5.940   6.084   4.947 -0.0123  0.2228  0.0534
   17CHTO   H10 7140   5.867   6.067   5.025 -0.5904  0.5457 -0.4150
   17CHTO   H11 7141   5.970   5.982   4.928  0.6431  0.4917 -0.3244
   17CHTO    C7 7142   5.763   6.250   4.864  0.5098 -0.0158 -0.0010
   17CHTO   H20 7143   5.799   6.307   4.952 -1.6042 -0.4262  1.1665
   17CHTO    O4 7144   5.750   6.336   4.751  0.7095 -0.5374  0.6750
   17CHTO   C14 7145   5.761   6.276   4.619 -0.1166  0.6505  0.1730
   17CHTO   H27 7146   5.866   6.265   4.584  0.8602  2.0025  2.6220
   17CHTO   C18 7147   5.685   6.363   4.511 -0.5352  0.4215 -0.1226
   17CHTO   O13 7148   5.549   6.395   4.534 -0.0883  0.1794  0.3023
   17CHTO    H7 7149   5.501   6.316   4.548  1.1283 -0.3024  1.8115
   17CHTO    O2 7150   5.620   6.190   4.900  0.5631 -0.2969 -0.1746
   17CHTO    C1 7151   5.563   6.216   5.033  0.1293 -0.5591  0.4753
   17CHTO   H14 7152   5.642   6.258   5.098 -0.9862 -0.3661  1.7276
   17CHTO    C2 7153   5.510   6.083   5.093 -0.1031 -0.5710  0.1621
   17CHTO   H15 7154   5.437   6.043   5.021  0.2486 -1.2809  0.1914
   17CHTO    O6 7155   5.628   5.994   5.087 -0.0488 -0.1601 -0.4600
   17CHTO    H1 7156   5.611   5.922   5.144 -0.0779 -1.1932 -1.7575
   17CHTO    C3 7157   5.448   6.108   5.235  0.3277  0.0572 -0.4268
   17CHTO   H16 7158   5.527   6.136   5.307  0.4475  1.6947 -1.1795
   17CHTO    N1 7159   5.382   5.995   5.302 -0.1797 -0.4748  0.2394
   17CHTO    H8 7160   5.406   5.990   5.407  1.5077 -0.6193 -0.1262
   17CHTO    H9 7161   5.400   5.905   5.245 -1.2185  0.0650 -0.9785
   17CHTO    C4 7162   5.354   6.234   5.231  0.2928 -0.3885  0.0399
   17CHTO   H17 7163   5.264   6.214   5.173  0.0023  0.5998  0.1522
   17CHTO    O1 7164   5.414   6.341   5.163 -0.6692 -0.1078  0.3106
   17CHTO    C5 7165   5.445   6.315   5.027 -0.0249 -0.5662 -0.0163
   17CHTO   H18 7166   5.369   6.269   4.963  0.5078 -3.1641  1.1725
   17CHTO   C16 7167   5.477   6.452   4.968 -0.2266  0.3031 -0.9197
   17CHTO   O11 7168   5.509   6.460   4.828 -0.0651  0.2617 -0.3310
   17CHTO    H5 7169   5.591   6.505   4.817  1.4398 -2.2807 -0.0242
   17CHTO    O3 7170   5.312   6.273   5.364 -0.7054 -1.0645 -1.1430
   17CHTO    C6 7171   5.251   6.401   5.382 -0.1682 -0.5210 -0.1202
   17CHTO   H19 7172   5.298   6.478   5.321  1.0046 -1.4847 -0.4664
   17CHTO    C8 7173   5.093   6.399   5.352 -0.0088 -0.6167 -0.6298
   17CHTO   H21 7174   5.052   6.313   5.404  0.2230  0.7365  1.8541
   17CHTO    O7 7175   5.086   6.387   5.210  0.1261  0.4122  0.1768
   17CHTO    H2 7176   5.001   6.352   5.191  0.2286  1.3891 -2.3079
   17CHTO   C12 7177   5.019   6.526   5.401 -0.0150 -0.3841 -0.0664
   17CHTO   H25 7178   5.046   6.594   5.318 -0.9289  0.8680  0.6379
   17CHTO    N3 7179   4.868   6.514   5.405 -0.1979 -0.1838 -0.0556
   17CHTO   H12 7180   4.832   6.616   5.410 -1.9346 -0.8263  1.1377
   17CHTO   H13 7181   4.831   6.476   5.311 -1.1975  2.0786 -0.6134
   17CHTO   C15 7182   5.076   6.577   5.540  0.9661  0.3212  1.2330
   17CHTO   H28 7183   5.028   6.520   5.619  0.8652  0.2559  1.1263
   17CHTO   O10 7184   5.048   6.726   5.552 -0.4372  0.1662 -0.1797
   17CHTO    H4 7185   5.127   6.770   5.528 -0.3089  0.9346  1.5599
   17CHTO    O5 7186   5.221   6.569   5.551 -0.2095  0.1835 -0.1730
   17CHTO   C10 7187   5.280   6.435   5.525  0.1907 -0.2117 -0.5110
   17CHTO   H23 7188   5.229   6.353   5.576  1.0399 -0.4060  0.0430
   17CHTO   C17 7189   5.428   6.439   5.559 -0.0589 -0.0394 -0.0601
   17CHTO   O12 7190   5.434   6.416   5.704  0.3078 -0.0192 -0.2609
   17CHTO    H6 7191   5.424   6.326   5.729 -0.2684 -0.7639 -3.0233
   18CHTO  H203 7192   6.726   7.095   1.253  0.4648 -3.4450  0.6633
   18CHTO   O82 7193   6.657   7.090   1.190  0.5016  0.1730  0.2495
   18CHTO  C123 7194   6.696   6.986   1.104 -0.4002 -0.3668 -0.0920
   18CHTO  H227 7195   6.670   6.891   1.151 -1.6330  0.6117  1.2528
   18CHTO   O77 7196   6.623   7.015   0.980  0.8032  0.2171  0.2470
   18CHTO  C118 7197   6.629   6.908   0.880 -0.2164 -0.3210 -0.5383
   18CHTO  H222 7198   6.601   6.808   0.917  0.7342 -0.3638  0.0839
   18CHTO  C125 7199   6.525   6.947   0.770  0.1765 -0.3423 -0.9639
   18CHTO   O84 7200   6.536   6.861   0.657 -0.0799 -0.0323 -0.0849
   18CHTO  H205 7201   6.487   6.781   0.664 -2.6120  1.4223 -0.5950
   18CHTO  C114 7202   6.780   6.907   0.824  0.9168  0.4900 -0.2371
   18CHTO  H218 7203   6.801   7.004   0.777  1.5945  0.0229 -0.9037
   18CHTO  C116 7204   6.875   6.885   0.956 -0.1505 -0.4142 -0.9283
   18CHTO  H220 7205   6.849   6.787   1.001 -1.6296  0.2933 -0.2073
   18CHTO   O79 7206   7.006   6.880   0.900 -0.3327  0.2692  0.8137
   18CHTO  H201 7207   7.058   6.821   0.952 -0.1460 -1.6950 -1.5186
   18CHTO  C120 7208   6.851   6.999   1.059 -0.1080  0.3365 -0.5331
   18CHTO  H224 7209   6.864   7.094   1.004  0.5183  0.1847 -0.6495
   18CHTO   N21 7210   6.945   7.020   1.169  0.4208  1.1625 -0.0649
   18CHTO  H211 7211   6.924   7.112   1.222  0.1844  0.7386  0.5856
   18CHTO  H212 7212   6.950   6.938   1.239 -1.5702  0.1771 -1.0296
   18CHTO   O75 7213   6.775   6.790   0.743 -0.1601  0.2087 -0.2490
   18CHTO  C112 7214   6.860   6.814   0.605  0.0920  0.4933 -0.2575
   18CHTO  H216 7215   6.965   6.838   0.626 -0.2681  0.9894  1.0550
   18CHTO   O73 7216   6.795   6.920   0.532 -0.1038 -0.4852  0.2125
   18CHTO  C113 7217   6.868   6.969   0.419 -0.2886 -0.0584 -0.2087
   18CHTO  H217 7218   6.969   6.996   0.457 -0.8422  0.9302  0.6130
   18CHTO  C124 7219   6.796   7.101   0.383  0.3341  0.1489 -0.6866
   18CHTO   O83 7220   6.829   7.141   0.251 -0.1026  0.5771  0.5847
   18CHTO  H204 7221   6.787   7.089   0.184  0.6043  0.5977  0.1155
   18CHTO  C109 7222   6.892   6.861   0.311 -0.8285 -0.0132 -0.0815
   18CHTO  H213 7223   6.797   6.845   0.258 -0.3371  0.9425 -1.2889
   18CHTO  C110 7224   6.934   6.720   0.375 -0.4990  0.1059 -0.9115
   18CHTO  H214 7225   7.038   6.735   0.402 -0.1665  1.5190 -2.8478
   18CHTO   O78 7226   6.934   6.616   0.275 -0.1905 -0.2431 -0.2519
   18CHTO  H200 7227   6.950   6.532   0.314  1.1959 -0.5816 -1.4959
   18CHTO  C111 7228   6.848   6.691   0.500 -0.0781  0.5076 -0.1829
   18CHTO  H215 7229   6.745   6.668   0.468 -0.0760  0.1226  0.0837
   18CHTO   N19 7230   6.888   6.570   0.580  1.0045 -0.0913  0.0061
   18CHTO  H207 7231   6.805   6.521   0.629 -0.3239  2.4699  0.3732
   18CHTO  H208 7232   6.940   6.506   0.510  1.9064 -1.9437  2.2882
   18CHTO   O74 7233   6.997   6.905   0.213 -0.2817  1.1873  0.4680
   18CHTO  C115 7234   6.973   6.870   0.070 -0.5588  0.2452  0.0668
   18CHTO  H219 7235   6.925   6.772   0.063 -0.3530  0.1342  0.2164
   18CHTO   O76 7236   6.882   6.966   0.010  0.2972 -0.4291  0.3619
   18CHTO  C122 7237   6.946   7.085  -0.047  0.3945  0.2015  0.5025
   18CHTO  H226 7238   7.020   7.128   0.019  0.7008 -0.7563  0.7897
   18CHTO  C126 7239   6.844   7.196  -0.080  0.1733 -0.0432 -0.4542
   18CHTO   O85 7240   6.739   7.156  -0.168 -0.3787  0.1328  0.0645
   18CHTO  H206 7241   6.775   7.158  -0.254  0.5988  1.1300  0.4769
   18CHTO  C121 7242   7.029   7.041  -0.174 -0.5099  0.1404  0.1338
   18CHTO  H225 7243   6.954   7.038  -0.256  1.2489  1.0483 -1.5429
   18CHTO   O81 7244   7.144   7.130  -0.187 -0.7233  0.4673 -0.3887
   18CHTO  H202 7245   7.178   7.144  -0.101 -2.4027  0.5959  0.2729
   18CHTO  C119 7246   7.095   6.897  -0.163 -0.0467 -0.0646 -0.1471
   18CHTO  H223 7247   7.022   6.824  -0.198 -0.1183  0.2752 -0.7006
   18CHTO  C117 7248   7.112   6.860  -0.011  0.0079 -0.3962  0.1253
   18CHTO  H221 7249   7.183   6.921   0.045  0.4388 -2.7944  2.3071
   18CHTO   N20 7250   7.165   6.716   0.007  0.2872 -0.2804 -0.3799
   18CHTO  H209 7251   7.249   6.676  -0.049  2.2984  0.4322  2.0217
   18CHTO  H210 7252   7.186   6.704   0.112 -0.0569 -1.0294 -0.3991
   18CHTO   O80 7253   7.242   6.861  -0.271 -0.1967  0.2307 -0.8069
   18CHTO  C103 7254   7.214   6.795  -0.417  0.3155 -0.1681  0.1394
   18CHTO  H190 7255   7.306   6.795  -0.476  0.5679  0.8965  0.5094
   18CHTO  C101 7256   7.176   6.649  -0.411  0.4546  0.1998  0.5695
   18CHTO  H188 7257   7.087   6.630  -0.352 -0.0443 -4.1257 -1.3871
   18CHTO   O68 7258   7.288   6.578  -0.327  0.0723 -0.1063 -0.1972
   18CHTO  H168 7259   7.295   6.489  -0.357 -2.3263  0.2146 -1.9027
   18CHTO   C99 7260   7.142   6.609  -0.559  0.2774  0.3789  0.4578
   18CHTO  H186 7261   7.232   6.617  -0.623  2.7502  0.3987  3.7987
   18CHTO   N17 7262   7.096   6.469  -0.577  0.8370 -0.1270  0.5476
   18CHTO  H174 7263   7.143   6.430  -0.667 -1.2996 -2.4282  0.3655
   18CHTO  H175 7264   7.136   6.411  -0.495 -1.2923 -0.8574  1.0981
   18CHTO   C97 7265   7.031   6.697  -0.619 -0.5005 -0.0325  0.3891
   18CHTO  H184 7266   6.945   6.703  -0.551  0.2132  0.6249  1.2466
   18CHTO   O64 7267   7.095   6.825  -0.631  0.3430  0.0990  0.1099
   18CHTO  C104 7268   7.113   6.885  -0.500 -0.0197 -0.2524  0.0299
   18CHTO  H191 7269   7.016   6.890  -0.449  1.2731 -1.7513  2.7954
   18CHTO  C108 7270   7.164   7.031  -0.513  0.2108  0.7962 -0.0150
   18CHTO   O71 7271   7.281   7.048  -0.597 -0.0110 -0.3995 -0.4037
   18CHTO  H171 7272   7.278   7.130  -0.641 -1.6015 -0.6467 -0.7850
   18CHTO   O62 7273   6.996   6.680  -0.754 -0.2727  0.4035 -0.0576
   18CHTO   C91 7274   6.867   6.707  -0.805 -0.0834  0.3930 -0.1815
   18CHTO  H178 7275   6.802   6.665  -0.728 -1.3585  0.4019 -1.2276
   18CHTO   C92 7276   6.851   6.615  -0.931 -0.5436  0.7380  0.4425
   18CHTO  H179 7277   6.945   6.625  -0.987 -1.6163  0.7555 -1.4009
   18CHTO   O66 7278   6.822   6.480  -0.898 -0.1898  0.4662 -0.5641
   18CHTO  H166 7279   6.807   6.422  -0.969 -1.0850 -0.4581  0.3643
   18CHTO   C93 7280   6.734   6.659  -1.030 -0.1721  0.0731 -0.2750
   18CHTO  H180 7281   6.643   6.621  -0.982  0.8207 -2.4659 -0.3285
   18CHTO   N16 7282   6.743   6.596  -1.163  0.0017 -0.1485  0.6458
   18CHTO  H172 7283   6.767   6.492  -1.148 -0.7863 -0.5718 -0.9890
   18CHTO  H173 7284   6.819   6.641  -1.225 -2.6806  1.9350 -1.2322
   18CHTO   C94 7285   6.728   6.814  -1.043  0.5137 -0.5349  0.0116
   18CHTO  H181 7286   6.820   6.854  -1.084  0.9680 -0.0660  1.4741
   18CHTO   O61 7287   6.724   6.879  -0.921 -0.6705 -0.1099  0.1124
   18CHTO   C95 7288   6.831   6.857  -0.833 -0.1251  0.7777  0.3091
   18CHTO  H182 7289   6.920   6.894  -0.884  0.3346 -0.5939  0.1001
   18CHTO  C106 7290   6.794   6.930  -0.698  0.0220  0.4602 -0.2267
   18CHTO   O69 7291   6.656   6.931  -0.666 -0.0483 -0.6744 -0.7873
   18CHTO  H169 7292   6.624   6.843  -0.660 -1.0997 -0.2482  0.1361
   18CHTO   O63 7293   6.610   6.859  -1.124 -0.2281  0.2049  0.2594
   18CHTO   C96 7294   6.581   7.019  -1.178  0.1251  0.8714  0.8210
   18CHTO  H183 7295   6.478   7.018  -1.212  0.2361  1.6227  0.4515
   18CHTO   C98 7296   6.672   7.064  -1.291 -0.2451 -0.2813  0.3409
   18CHTO  H185 7297   6.776   7.073  -1.257 -0.4731 -1.6401  1.4464
   18CHTO   O67 7298   6.666   6.962  -1.390 -0.4787  1.1986 -0.4352
   18CHTO  H167 7299   6.744   6.909  -1.385  0.0056  1.8640 -0.8051
   18CHTO  C102 7300   6.608   7.200  -1.351 -0.0882  0.2108  0.2353
   18CHTO  H189 7301   6.507   7.175  -1.386 -0.3240  0.6396  0.5939
   18CHTO   N18 7302   6.676   7.255  -1.472  0.2001  0.2248 -0.2002
   18CHTO  H176 7303   6.617   7.325  -1.530 -0.8784  1.2028  1.9829
   18CHTO  H177 7304   6.710   7.173  -1.532 -1.2794 -0.1532 -0.5468
   18CHTO  C105 7305   6.600   7.305  -1.234 -0.0171 -0.3192  0.5663
   18CHTO  H192 7306   6.703   7.335  -1.213 -0.3506  2.8668 -1.9477
   18CHTO   O65 7307   6.543   7.254  -1.115  0.1586  0.0688  0.0877
   18CHTO  C100 7308   6.595   7.133  -1.068  0.1930  0.1000 -0.5520
   18CHTO  H187 7309   6.701   7.147  -1.042 -0.4938  0.2218  2.2908
   18CHTO  C107 7310   6.522   7.099  -0.935  0.0484  0.0737 -0.5477
   18CHTO   O70 7311   6.397   7.036  -0.958 -0.1715  0.2508 -0.0304
   18CHTO  H170 7312   6.360   7.039  -0.872  1.4010 -0.3057  0.6744
   18CHTO   O57 7313   6.509   7.435  -1.271  0.4059 -0.0038 -0.0707
   18CHTO   C85 7314   6.541   7.564  -1.218 -0.1328 -0.0316  0.6285
   18CHTO  H157 7315   6.648   7.556  -1.245  0.2637 -0.8775  2.3739
   18CHTO   C83 7316   6.535   7.573  -1.071  0.3865 -0.2683  0.1912
   18CHTO  H155 7317   6.608   7.503  -1.030  1.0572 -0.0892 -0.6939
   18CHTO   O56 7318   6.411   7.519  -1.032 -0.5254  0.2340 -0.5136
   18CHTO  H135 7319   6.391   7.555  -0.948 -2.4701  0.9973 -1.2751
   18CHTO   C81 7320   6.560   7.718  -1.017 -0.3765 -0.2910  0.1311
   18CHTO  H153 7321   6.663   7.746  -1.040 -0.6683 -0.0478 -0.9055
   18CHTO   N14 7322   6.553   7.733  -0.868 -0.1051  0.1393  0.0797
   18CHTO  H141 7323   6.451   7.715  -0.839 -1.0841  3.9239 -0.8076
   18CHTO  H142 7324   6.615   7.655  -0.827 -1.3901 -0.9099  0.0698
   18CHTO   C79 7325   6.461   7.820  -1.090 -0.0272  0.3200 -0.0966
   18CHTO  H151 7326   6.486   7.921  -1.056  1.1442 -0.0658  0.2239
   18CHTO   O52 7327   6.488   7.814  -1.242  0.2909 -0.3001 -0.0779
   18CHTO   C86 7328   6.471   7.683  -1.295 -0.6530  0.4933  0.0945
   18CHTO  H158 7329   6.363   7.658  -1.295 -0.2877 -1.1924 -0.6071
   18CHTO   C90 7330   6.518   7.684  -1.442 -0.3256  0.1786  0.0043
   18CHTO   O60 7331   6.469   7.563  -1.510 -0.0579 -0.7814 -0.0604
   18CHTO  H138 7332   6.501   7.570  -1.598  0.6052  0.5984  0.2782
   18CHTO   O50 7333   6.319   7.793  -1.062 -0.1588  0.7092  0.1879
   18CHTO   C73 7334   6.193   7.825  -1.124  0.0531  0.3541  0.5380
   18CHTO  H145 7335   6.203   7.811  -1.233  0.5764 -0.9605  0.7470
   18CHTO   C74 7336   6.142   7.966  -1.082  0.6567 -0.0355 -1.0313
   18CHTO  H146 7337   6.213   8.044  -1.115 -0.3877  0.8307 -1.2359
   18CHTO   O54 7338   6.018   8.005  -1.142  0.2769 -0.4998 -0.5935
   18CHTO  H133 7339   6.031   8.028  -1.233  2.4074 -0.6715 -0.3682
   18CHTO   C75 7340   6.123   7.961  -0.925  0.3788 -0.2874 -0.7880
   18CHTO  H147 7341   6.220   7.944  -0.876  0.7194  1.0575 -0.9700
   18CHTO   N13 7342   6.076   8.092  -0.871  0.1298 -0.2183  0.7767
   18CHTO  H139 7343   6.150   8.135  -0.806  0.3300  0.3183  0.1909
   18CHTO  H140 7344   6.040   8.169  -0.937  0.9535 -0.0086  0.5634
   18CHTO   C76 7345   6.022   7.841  -0.879  0.1339 -0.5597  0.3598
   18CHTO  H148 7346   5.920   7.866  -0.908 -0.7662 -3.5124  0.8134
   18CHTO   O49 7347   6.072   7.715  -0.932  0.0475 -0.2677 -0.0487
   18CHTO   C77 7348   6.080   7.720  -1.076 -0.0734  0.1976  0.0943
   18CHTO  H149 7349   5.986   7.738  -1.129  0.7839  2.3938 -0.7387
   18CHTO   C88 7350   6.116   7.581  -1.118  0.0914  0.0989  0.1800
   18CHTO   O58 7351   6.039   7.465  -1.066 -0.3168 -0.2843  0.1377
   18CHTO  H136 7352   5.990   7.434  -1.140 -3.0778 -1.3293  2.2914
   18CHTO   O51 7353   6.043   7.816  -0.720  0.1862  0.6716  0.3970
   18CHTO   C78 7354   5.921   7.732  -0.656  0.2649 -0.8097  0.5828
   18CHTO  H150 7355   5.872   7.671  -0.735  3.3004 -1.1740 -1.0745
   18CHTO   C80 7356   5.821   7.831  -0.601 -0.1736 -0.4953 -0.0368
   18CHTO  H152 7357   5.870   7.898  -0.527  0.7827 -1.2976  0.0617
   18CHTO   O55 7358   5.768   7.913  -0.707 -0.1274 -0.3325 -0.5144
   18CHTO  H134 7359   5.828   7.982  -0.729  1.5725 -2.1253 -1.7519
   18CHTO   C84 7360   5.708   7.745  -0.524  0.2664 -0.2143 -0.1330
   18CHTO  H156 7361   5.662   7.668  -0.587  1.0444  0.0203 -1.0013
   18CHTO   N15 7362   5.599   7.826  -0.460  0.4117 -0.7518 -0.0229
   18CHTO  H143 7363   5.559   7.778  -0.373 -0.2975 -0.2301 -0.0556
   18CHTO  H144 7364   5.522   7.835  -0.534 -0.5364  0.5890  1.0937
   18CHTO   C87 7365   5.785   7.666  -0.414 -0.1507 -0.2620 -0.5459
   18CHTO  H159 7366   5.842   7.734  -0.351  1.6479 -0.2312 -2.1517
   18CHTO   O53 7367   5.878   7.572  -0.484 -0.5753 -0.3240 -0.2639
   18CHTO   C82 7368   5.984   7.643  -0.546 -1.0769  0.5730  0.3723
   18CHTO  H154 7369   6.034   7.695  -0.465  0.0849  0.7701 -0.4534
   18CHTO   C89 7370   6.077   7.519  -0.590 -0.1145  0.3144 -0.4907
   18CHTO   O59 7371   6.154   7.470  -0.478  0.1927  0.0881 -0.0035
   18CHTO  H137 7372   6.223   7.418  -0.515  0.6771  0.1262  0.8398
   18CHTO   O45 7373   5.680   7.563  -0.315 -0.7817 -0.4706 -0.5541
   18CHTO   C67 7374   5.721   7.561  -0.180 -0.4187 -0.0063  0.3117
   18CHTO  H124 7375   5.820   7.607  -0.170 -0.1808 -0.5290  0.3764
   18CHTO   C65 7376   5.623   7.663  -0.101  0.3385 -0.5246 -0.3905
   18CHTO  H122 7377   5.546   7.682  -0.176  1.0786  1.3941 -0.7034
   18CHTO   O44 7378   5.695   7.786  -0.083 -0.1481  0.4022 -0.1622
   18CHTO  H102 7379   5.690   7.829  -0.167 -1.5422 -0.3657 -0.4903
   18CHTO   C63 7380   5.564   7.585   0.030 -0.3248 -0.8259  0.5085
   18CHTO  H120 7381   5.504   7.503  -0.008 -1.4011  0.4347 -0.5936
   18CHTO   N11 7382   5.465   7.663   0.105 -0.2901  0.3552  0.1186
   18CHTO  H108 7383   5.454   7.766   0.078  0.5719  0.1608 -1.0301
   18CHTO  H109 7384   5.370   7.613   0.111  0.0015 -0.3091 -0.5992
   18CHTO   C61 7385   5.692   7.520   0.109  0.2452 -0.7196  0.1964
   18CHTO  H118 7386   5.648   7.462   0.192  1.2962  0.0325  1.2960
   18CHTO   O40 7387   5.762   7.435   0.026 -0.0995  0.0487 -0.5522
   18CHTO   C68 7388   5.728   7.421  -0.114  0.0466  0.2323 -0.1205
   18CHTO  H125 7389   5.637   7.361  -0.130  0.7547 -0.1653 -2.9341
   18CHTO   C72 7390   5.842   7.335  -0.180 -0.0932  0.0324 -0.2497
   18CHTO   O48 7391   5.844   7.198  -0.142  0.4832 -0.0611  0.2120
   18CHTO  H105 7392   5.808   7.139  -0.205 -1.8717  0.4298  1.0424
   18CHTO   O38 7393   5.781   7.621   0.164  0.8952  0.2346 -0.0917
   18CHTO   C55 7394   5.909   7.578   0.214 -0.3691 -0.2598 -0.1556
   18CHTO  H112 7395   5.940   7.480   0.174 -0.8680 -0.1971 -0.7014
   18CHTO   C56 7396   5.910   7.576   0.374 -0.6611 -0.1462 -0.0431
   18CHTO  H113 7397   5.868   7.673   0.404 -0.3950 -0.7201  2.2801
   18CHTO   O42 7398   5.822   7.474   0.426 -0.3226 -0.5642  0.2947
   18CHTO  H100 7399   5.855   7.444   0.509 -2.3468 -1.6478  0.7396
   18CHTO   C57 7400   6.056   7.557   0.430  0.9589  1.0313 -0.8501
   18CHTO  H114 7401   6.080   7.455   0.402  0.5947  0.0550  2.2602
   18CHTO   N10 7402   6.075   7.582   0.578 -0.2152  0.3185  0.0456
   18CHTO  H106 7403   5.979   7.590   0.625  0.1091  2.5507  0.3724
   18CHTO  H107 7404   6.126   7.492   0.610  0.4639 -0.1708 -2.2816
   18CHTO   C58 7405   6.150   7.652   0.353 -0.0437  0.0217  0.0899
   18CHTO  H115 7406   6.118   7.756   0.376 -1.5332 -0.7770  1.7419
   18CHTO   O37 7407   6.138   7.629   0.210  0.0009 -0.0833  0.1833
   18CHTO   C59 7408   6.014   7.678   0.167 -0.1892  0.8055  0.1881
   18CHTO  H116 7409   5.998   7.778   0.205  1.6589  1.0230  0.4386
   18CHTO   C70 7410   6.012   7.693   0.015  0.0734 -0.5277 -0.4337
   18CHTO   O46 7411   6.092   7.794  -0.040 -0.2923 -0.1483  0.1143
   18CHTO  H103 7412   6.108   7.861   0.024  1.1276  1.8901 -2.3214
   18CHTO   O39 7413   6.324   7.628   0.393  0.9712  0.0519  0.1908
   18CHTO   C60 7414   6.383   7.515   0.328  0.4263  0.4511  0.2546
   18CHTO  H117 7415   6.303   7.442   0.315  1.0643  0.4121 -4.4777
   18CHTO   C62 7416   6.437   7.548   0.183 -0.4194 -0.0441 -0.3610
   18CHTO  H119 7417   6.367   7.612   0.124  1.4553  0.3238 -2.2471
   18CHTO   O43 7418   6.556   7.636   0.200 -0.1591  0.1114  0.3055
   18CHTO  H101 7419   6.631   7.579   0.204 -0.5826 -0.2707  3.7997
   18CHTO   C66 7420   6.466   7.409   0.111  0.2094  0.2372  0.1628
   18CHTO  H123 7421   6.374   7.352   0.109 -0.3630  1.1905 -1.8209
   18CHTO   N12 7422   6.504   7.430  -0.028 -0.1032  0.4729  0.1686
   18CHTO  H110 7423   6.521   7.330  -0.066  1.5655  1.0234 -0.5807
   18CHTO  H111 7424   6.599   7.482  -0.031 -0.0083  0.2525 -2.4048
   18CHTO   C69 7425   6.566   7.327   0.194  0.4356  0.3432 -0.0144
   18CHTO  H126 7426   6.669   7.363   0.174 -0.7695  2.5802 -2.5151
   18CHTO   O41 7427   6.541   7.317   0.339 -0.4628 -0.1971 -0.3358
   18CHTO   C64 7428   6.495   7.442   0.412 -0.6658 -0.0340  0.3178
   18CHTO  H121 7429   6.577   7.513   0.433  0.1039 -0.6584 -0.5374
   18CHTO   C71 7430   6.446   7.410   0.560 -0.8392  0.0396 -0.4067
   18CHTO   O47 7431   6.556   7.372   0.630  0.2035  0.5935 -0.0993
   18CHTO  H104 7432   6.540   7.386   0.721  0.4854 -1.3846  0.2876
   18CHTO   O34 7433   6.565   7.175   0.125  0.9613  0.5051  0.4520
   18CHTO   C49 7434   6.508   7.045   0.105  0.3324  0.2564 -0.0399
   18CHTO   H91 7435   6.581   6.986   0.048 -0.1070 -0.7870  0.4694
   18CHTO   C47 7436   6.385   7.050   0.022  0.3885 -0.3736  0.5612
   18CHTO   H89 7437   6.367   6.945  -0.012 -2.8456  0.5591 -0.7901
   18CHTO   O33 7438   6.403   7.129  -0.102  0.3301  0.1380 -0.4683
   18CHTO   H70 7439   6.377   7.218  -0.087 -0.6336 -0.0171 -1.1921
   18CHTO   C45 7440   6.257   7.101   0.110  0.2135 -0.5971  0.4825
   18CHTO   H87 7441   6.239   7.201   0.068  0.3141 -0.6803  0.2368
   18CHTO    N8 7442   6.138   7.012   0.073  0.1373  0.5664  0.2463
   18CHTO   H75 7443   6.159   6.918   0.122 -0.6484  0.1812 -0.1447
   18CHTO   H76 7444   6.117   6.989  -0.030 -2.7051  1.0980  0.6543
   18CHTO   C43 7445   6.285   7.113   0.267 -0.0953  0.5781  0.2787
   18CHTO   H85 7446   6.345   7.204   0.277 -0.6201  0.8284  1.1711
   18CHTO   O29 7447   6.358   6.996   0.304 -0.5074  0.2146 -0.1612
   18CHTO   C50 7448   6.475   6.965   0.234 -0.0469  0.2701 -0.5336
   18CHTO   H92 7449   6.560   6.978   0.303 -0.2398 -2.9017  0.3630
   18CHTO   C54 7450   6.478   6.813   0.217  0.1363  0.0660 -0.3626
   18CHTO   O36 7451   6.371   6.744   0.152  0.2318  0.4895  0.1180
   18CHTO   H72 7452   6.325   6.795   0.089 -0.4645  0.0084  0.2297
   18CHTO   O27 7453   6.162   7.150   0.335 -0.7297  0.1906  1.1586
   18CHTO   C37 7454   6.103   7.107   0.458  0.7846 -0.2094  0.0464
   18CHTO   H79 7455   6.105   6.998   0.471 -1.1571 -0.0117  2.5320
   18CHTO   C38 7456   6.185   7.168   0.577  1.3900  0.2515 -0.4356
   18CHTO   H80 7457   6.183   7.277   0.561 -0.6392  0.5261  1.4925
   18CHTO   O31 7458   6.322   7.119   0.577  0.2698 -0.1839  0.0463
   18CHTO   H68 7459   6.357   7.167   0.503 -1.5431 -0.4679 -1.0158
   18CHTO   C39 7460   6.107   7.152   0.714 -0.1587 -0.2933 -0.0150
   18CHTO   H81 7461   6.105   7.044   0.731  0.8801 -0.4283 -0.6933
   18CHTO    N7 7462   6.183   7.224   0.822 -0.3892  0.0767 -0.0440
   18CHTO   H73 7463   6.170   7.192   0.925 -0.3697 -3.5715 -1.0814
   18CHTO   H74 7464   6.188   7.327   0.791 -0.7466 -0.6403 -2.5757
   18CHTO   C40 7465   5.961   7.189   0.702  0.0484  0.1150  0.5119
   18CHTO   H82 7466   5.961   7.297   0.683  1.1463 -0.2269 -1.6748
   18CHTO   O26 7467   5.903   7.113   0.589  0.8207  0.0633  0.0966
   18CHTO   C41 7468   5.957   7.160   0.466  0.2521 -0.6139  0.6383
   18CHTO   H83 7469   5.961   7.269   0.457 -2.5626 -0.6241 -1.5861
   18CHTO   C52 7470   5.864   7.111   0.356  0.2347 -0.7161 -1.1605
   18CHTO   O35 7471   5.725   7.192   0.344  0.2426 -0.6746 -0.1690
   18CHTO   H71 7472   5.655   7.134   0.369  0.4441  0.0174  2.1607
   18CHTO   O28 7473   5.885   7.178   0.822 -0.0188  0.3527  0.2787
   18CHTO   C42 7474   5.738   7.165   0.832 -0.1397  0.7522 -0.2826
   18CHTO   H84 7475   5.718   7.214   0.928  1.1085  1.4312 -0.3495
   18CHTO   C44 7476   5.692   7.013   0.844  0.3030  0.0138  0.9093
   18CHTO   H86 7477   5.733   6.956   0.761 -2.5168  0.0648 -0.5702
   18CHTO   O32 7478   5.737   6.963   0.974 -0.1206 -0.3415 -0.6318
   18CHTO   H69 7479   5.818   7.004   0.998 -0.6561  0.3113  0.0679
   18CHTO   C48 7480   5.540   6.987   0.826 -0.2706 -0.1883 -0.4266
   18CHTO   H90 7481   5.495   7.029   0.916  3.9534 -1.3812  2.3639
   18CHTO    N9 7482   5.501   6.845   0.816 -0.1059  0.0649 -0.4831
   18CHTO   H77 7483   5.398   6.853   0.785 -0.3279  4.5354  1.0044
   18CHTO   H78 7484   5.512   6.802   0.915 -2.0380  0.4344 -0.0886
   18CHTO   C51 7485   5.494   7.076   0.702 -0.1727  0.0141  0.4297
   18CHTO   H93 7486   5.546   7.043   0.612  0.9302  3.0237 -0.0974
   18CHTO   O30 7487   5.525   7.217   0.730 -0.4958  0.0003  0.9987
   18CHTO   C46 7488   5.663   7.245   0.727  0.0825 -0.3903 -0.3378
   18CHTO   H88 7489   5.699   7.219   0.627 -0.6166 -0.4998 -0.5610
   18CHTO   C53 7490   5.698   7.397   0.759 -0.2779  0.1542  0.1025
   18CHTO   O72 7491   5.639   7.496   0.676 -0.0598  0.0083 -0.1064
   18CHTO  H199 7492   5.698   7.568   0.660 -0.3688  0.5531  1.1402
   18CHTO   O22 7493   5.349   7.078   0.682  1.0115  0.5216  0.4547
   18CHTO   C31 7494   5.296   7.089   0.546 -0.1706 -0.6648 -0.4258
   18CHTO   H59 7495   5.185   7.081   0.551 -0.3361  0.4441 -1.8677
   18CHTO   C29 7496   5.329   7.227   0.485  0.1586 -0.2784 -0.1807
   18CHTO   H57 7497   5.438   7.239   0.491  0.3100  0.5331 -3.5720
   18CHTO   O21 7498   5.281   7.332   0.564 -0.0591  0.3894  0.1757
   18CHTO   H37 7499   5.197   7.313   0.601  0.3493  0.8914  1.3992
   18CHTO   C27 7500   5.281   7.249   0.337 -0.6142 -0.4232  0.0697
   18CHTO   H55 7501   5.171   7.247   0.336 -0.6249 -0.7180  0.9606
   18CHTO    N5 7502   5.331   7.373   0.276 -0.5991  0.4148  0.1782
   18CHTO   H43 7503   5.311   7.451   0.348 -2.4751  1.2380 -1.1979
   18CHTO   H44 7504   5.438   7.361   0.268 -0.7816 -0.4307 -1.1963
   18CHTO   C25 7505   5.324   7.122   0.257 -0.2712 -0.2371 -0.2790
   18CHTO   H53 7506   5.433   7.127   0.239 -0.0392  1.9599  1.4735
   18CHTO   O17 7507   5.282   6.998   0.325  0.3661  0.5554  0.9569
   18CHTO   C32 7508   5.342   6.973   0.447 -0.2523  0.0802 -0.0610
   18CHTO   H60 7509   5.449   6.984   0.432 -0.1832  1.4905  1.2819
   18CHTO   C36 7510   5.303   6.827   0.486  0.3379 -0.6235  0.0310
   18CHTO   O25 7511   5.353   6.722   0.399 -0.1300  0.4054 -0.7288
   18CHTO   H40 7512   5.347   6.646   0.454  1.2900 -0.3313 -1.5740
   18CHTO   O15 7513   5.275   7.119   0.116  0.1295  0.2715  0.0916
   18CHTO   C19 7514   5.286   7.130  -0.031  0.0393  0.1491 -0.4200
   18CHTO   H47 7515   5.230   7.040  -0.061  1.7373 -0.8676 -0.5635
   18CHTO   C20 7516   5.222   7.254  -0.101 -0.0858  0.0696 -0.4314
   18CHTO   H48 7517   5.239   7.346  -0.042 -1.1115  0.6418 -1.0053
   18CHTO   O19 7518   5.080   7.252  -0.087 -0.6535 -0.3630 -0.2755
   18CHTO   H35 7519   5.048   7.170  -0.119  2.8537 -2.0611  0.3055
   18CHTO   C21 7520   5.270   7.274  -0.255 -0.6579 -0.0437 -0.4057
   18CHTO   H49 7521   5.212   7.207  -0.318 -2.6173  1.8362 -0.6487
   18CHTO    N4 7522   5.248   7.406  -0.312  0.2638  0.1075 -0.1030
   18CHTO   H41 7523   5.151   7.419  -0.358 -0.3321 -0.0186  1.0977
   18CHTO   H42 7524   5.325   7.441  -0.380 -0.4726  1.2028 -0.3935
   18CHTO   C22 7525   5.416   7.235  -0.282 -0.4789  0.1869  0.3943
   18CHTO   H50 7526   5.484   7.314  -0.251  0.8025 -0.9004  0.4067
   18CHTO   O14 7527   5.448   7.111  -0.218  0.1371  0.1060 -0.5267
   18CHTO   C23 7528   5.433   7.111  -0.076 -0.1019  0.3931 -0.2583
   18CHTO   H51 7529   5.499   7.186  -0.029 -1.1164  1.1361 -0.0165
   18CHTO   C34 7530   5.499   6.982  -0.028 -0.1773  0.0397  0.0521
   18CHTO   O23 7531   5.642   6.989  -0.015  0.5978 -0.2789  0.2077
   18CHTO   H38 7532   5.679   6.949  -0.092 -1.8083 -3.3718  0.5934
   18CHTO   O16 7533   5.441   7.196  -0.418 -0.9579 -0.6206 -0.4330
   18CHTO   C24 7534   5.592   7.244  -0.474  0.5499 -0.5519  0.4292
   18CHTO   H52 7535   5.647   7.305  -0.401 -1.0834  0.9316  0.4494
   18CHTO   C26 7536   5.559   7.335  -0.598 -0.3333 -0.2151  0.5388
   18CHTO   H54 7537   5.488   7.277  -0.661  1.3142 -1.2785 -0.3551
   18CHTO   O20 7538   5.489   7.450  -0.547  0.2683  0.3455  0.7255
   18CHTO   H36 7539   5.548   7.515  -0.515  0.9735  0.0699 -0.0078
   18CHTO   C30 7540   5.691   7.366  -0.669  0.3113 -0.6198 -0.2457
   18CHTO   H58 7541   5.753   7.429  -0.603  0.1576 -0.7931  0.0651
   18CHTO    N6 7542   5.652   7.443  -0.789  0.3754 -0.0803 -0.3534
   18CHTO   H45 7543   5.742   7.484  -0.832  0.3063 -1.0681 -1.5078
   18CHTO   H46 7544   5.607   7.378  -0.863  1.1335  1.7474 -2.4817
   18CHTO   C33 7545   5.764   7.236  -0.700  0.3448 -0.0512 -0.4294
   18CHTO   H61 7546   5.702   7.173  -0.765  0.5074 -1.8110  1.0853
   18CHTO   O18 7547   5.785   7.162  -0.580 -0.6245  0.3333 -0.0852
   18CHTO   C28 7548   5.670   7.112  -0.511  0.4370 -0.1102  0.2597
   18CHTO   H56 7549   5.604   7.057  -0.578 -1.1289  2.0918 -0.0398
   18CHTO   C35 7550   5.718   7.050  -0.378  0.6899  0.6857 -0.0411
   18CHTO   O24 7551   5.809   6.950  -0.400  0.1183 -0.4732 -0.5021
   18CHTO   H39 7552   5.824   6.910  -0.316 -1.4430 -2.2829 -1.0491
   18CHTO    O9 7553   5.894   7.259  -0.769  0.5396  0.0452  0.9474
   18CHTO   C13 7554   5.950   7.132  -0.874  0.1964 -0.4514 -0.4782
   18CHTO   H26 7555   5.936   7.173  -0.976 -0.5368 -0.9481 -0.5790
   18CHTO   C11 7556   5.876   6.989  -0.855 -0.5759  0.3386 -0.7037
   18CHTO   H24 7557   5.771   6.989  -0.888 -0.7570 -0.2716 -0.1459
   18CHTO    O8 7558   5.884   6.937  -0.719  0.2067  0.5028 -0.0683
   18CHTO    H3 7559   5.871   6.844  -0.721 -0.8911  0.6677 -0.6964
   18CHTO    C9 7560   5.946   6.894  -0.953 -0.1062  0.2991  0.1781
   18CHTO   H22 7561   5.944   6.941  -1.052 -0.8650 -0.2896 -0.0880
   18CHTO    N2 7562   5.878   6.764  -0.976  1.1060 -0.1667  0.2538
   18CHTO   H10 7563   5.915   6.679  -0.919 -0.0389 -0.1338  1.0562
   18CHTO   H11 7564   5.857   6.737  -1.079 -0.8280 -1.4670  0.9648
   18CHTO    C7 7565   6.097   6.880  -0.905 -0.8416  0.2764  0.2276
   18CHTO   H20 7566   6.158   6.871  -0.997  0.0990  2.2402  0.6192
   18CHTO    O4 7567   6.146   6.991  -0.827 -0.2143  0.0755 -0.3346
   18CHTO   C14 7568   6.114   7.124  -0.857 -0.3445 -0.3861  0.2496
   18CHTO   H27 7569   6.173   7.155  -0.946 -0.1112  0.9807  0.8614
   18CHTO   C18 7570   6.165   7.206  -0.740  0.0443 -0.7757 -0.4649
   18CHTO   O13 7571   6.127   7.160  -0.611  0.0953 -0.6607 -0.5009
   18CHTO    H7 7572   6.125   7.066  -0.610  0.1852 -0.6552  1.1322
   18CHTO    O2 7573   6.119   6.742  -0.812 -0.3014  0.0272 -0.0859
   18CHTO    C1 7574   6.246   6.735  -0.749 -0.3342 -0.3343  0.0142
   18CHTO   H14 7575   6.298   6.831  -0.767  2.0469 -1.6080 -0.1528
   18CHTO    C2 7576   6.335   6.626  -0.808  0.6759  0.1518  0.0532
   18CHTO   H15 7577   6.280   6.531  -0.810 -1.0884  1.1619 -1.6004
   18CHTO    O6 7578   6.363   6.672  -0.944  0.4630  0.6491 -0.3238
   18CHTO    H1 7579   6.347   6.595  -0.994 -2.5626  0.8095  0.3451
   18CHTO    C3 7580   6.475   6.610  -0.727 -0.1069  0.0944  0.3078
   18CHTO   H16 7581   6.548   6.687  -0.757  0.5207 -1.1056 -1.3531
   18CHTO    N1 7582   6.543   6.479  -0.760  0.2824 -0.4103 -0.1620
   18CHTO    H8 7583   6.492   6.406  -0.698 -0.2298  1.2294  1.4047
   18CHTO    H9 7584   6.542   6.465  -0.867 -0.5501  0.6989 -0.3050
   18CHTO    C4 7585   6.456   6.623  -0.573  0.6302 -0.6331  0.4338
   18CHTO   H17 7586   6.417   6.528  -0.537  2.6474 -1.4252  0.5881
   18CHTO    O1 7587   6.371   6.737  -0.538 -0.1571 -0.2666  0.0329
   18CHTO    C5 7588   6.237   6.717  -0.592  0.0436  0.1612  0.7110
   18CHTO   H18 7589   6.208   6.616  -0.565 -1.7744  0.6526  0.6145
   18CHTO   C16 7590   6.138   6.818  -0.527 -0.0491 -0.1809  0.5645
   18CHTO   O11 7591   6.010   6.757  -0.527  0.0330  0.1180  0.1154
   18CHTO    H5 7592   6.008   6.684  -0.469  0.2198 -0.4531 -0.5959
   18CHTO    O3 7593   6.587   6.650  -0.522 -0.2799  0.3531  0.2066
   18CHTO    C6 7594   6.614   6.596  -0.381 -0.3704 -0.0839 -0.6149
   18CHTO   H19 7595   6.519   6.563  -0.340 -1.1950  1.9001 -0.8296
   18CHTO    C8 7596   6.722   6.482  -0.383 -0.1592 -0.2508  0.1607
   18CHTO   H21 7597   6.802   6.507  -0.452 -1.0670 -0.4626 -0.9828
   18CHTO    O7 7598   6.658   6.367  -0.436  0.0060  0.0816  0.6283
   18CHTO    H2 7599   6.717   6.315  -0.488  2.1236  1.9442  1.0764
   18CHTO   C12 7600   6.778   6.452  -0.239 -0.3172 -0.7618  0.0848
   18CHTO   H25 7601   6.693   6.401  -0.189  0.0146 -0.5701  0.8381
   18CHTO    N3 7602   6.897   6.359  -0.250 -0.1116  0.2688  0.6450
   18CHTO   H12 7603   6.957   6.375  -0.339 -0.4673  2.3109  0.7630
   18CHTO   H13 7604   6.958   6.355  -0.162 -0.0061  2.4537  0.6813
   18CHTO   C15 7605   6.809   6.579  -0.164  0.7946 -0.1558 -0.3439
   18CHTO   H28 7606   6.891   6.639  -0.203  1.0831  0.1629  0.7416
   18CHTO   O10 7607   6.820   6.552  -0.001  0.4565  0.1475  0.8277
   18CHTO    H4 7608   6.807   6.634   0.043  0.0800  0.8048 -0.4967
   18CHTO    O5 7609   6.695   6.666  -0.163  0.5496 -0.0844 -0.0535
   18CHTO   C10 7610   6.661   6.713  -0.291 -0.2021 -0.2528  0.2042
   18CHTO   H23 7611   6.747   6.764  -0.335 -2.0961 -0.0466 -3.4491
   18CHTO   C17 7612   6.554   6.820  -0.270  0.3988 -0.3624  0.1995
   18CHTO   O12 7613   6.589   6.924  -0.173 -0.1728 -0.2851 -0.5032
   18CHTO    H6 7614   6.606   6.893  -0.086 -1.9353  0.8561  0.2871
   19CHTO  H203 7615   6.929   7.718   0.976  2.1283  0.6495  0.6955
   19CHTO   O82 7616   6.870   7.778   1.017  0.2939 -0.7039  0.1209
   19CHTO  C123 7617   6.742   7.778   0.955  1.0834  0.0265  0.8274
   19CHTO  H227 7618   6.754   7.803   0.848 -0.0558 -1.0363  0.4453
   19CHTO   O77 7619   6.714   7.634   0.966  0.2048 -0.5154  0.3340
   19CHTO  C118 7620   6.577   7.592   0.930 -0.4446 -0.4860  0.0283
   19CHTO  H222 7621   6.556   7.612   0.824 -0.4848  3.1332  0.6405
   19CHTO  C125 7622   6.581   7.438   0.953  0.2590  0.1214  0.0354
   19CHTO   O84 7623   6.624   7.392   1.081  1.0426  1.0679 -0.0314
   19CHTO  H205 7624   6.553   7.398   1.143  2.2651  2.4717  1.2756
   19CHTO  C114 7625   6.477   7.666   1.021 -0.6245  0.1741 -0.4731
   19CHTO  H218 7626   6.495   7.629   1.122  0.9702  0.4226 -0.6648
   19CHTO  C116 7627   6.490   7.821   1.006  0.0217  0.1338  0.1523
   19CHTO  H220 7628   6.453   7.838   0.903 -0.5591 -2.2126 -0.0709
   19CHTO   O79 7629   6.399   7.885   1.096  0.3619 -0.0707 -0.7957
   19CHTO  H201 7630   6.404   7.978   1.102 -0.7689  0.0664 -1.8328
   19CHTO  C120 7631   6.635   7.870   1.027 -0.1100 -0.4229 -0.3772
   19CHTO  H224 7632   6.656   7.855   1.135  0.3525  0.2243 -0.3707
   19CHTO   N21 7633   6.662   8.010   1.002 -0.4505  0.0023 -0.0889
   19CHTO  H211 7634   6.572   8.066   1.023 -0.0783  0.8097 -0.6144
   19CHTO  H212 7635   6.744   8.061   1.051 -3.2163  2.0040  2.6149
   19CHTO   O75 7636   6.346   7.620   0.967  0.3495 -0.3027 -0.6297
   19CHTO  C112 7637   6.238   7.551   1.099 -0.6029 -0.1594  0.2842
   19CHTO  H216 7638   6.240   7.617   1.187 -1.3059  2.1070 -1.3820
   19CHTO   O73 7639   6.296   7.424   1.132  0.7741  0.1358 -0.3399
   19CHTO  C113 7640   6.230   7.354   1.238  0.0125 -0.2943 -0.2307
   19CHTO  H217 7641   6.239   7.424   1.323  1.5535 -0.3061 -0.3624
   19CHTO  C124 7642   6.309   7.228   1.270  0.2661 -0.0620  0.3195
   19CHTO   O83 7643   6.250   7.137   1.365 -0.2047  0.2375  0.3807
   19CHTO  H204 7644   6.239   7.178   1.449  2.4112  0.8733  0.4464
   19CHTO  C109 7645   6.089   7.311   1.182  0.1744  0.1677 -0.3595
   19CHTO  H213 7646   6.108   7.251   1.092 -1.6837 -3.4687  1.5307
   19CHTO  C110 7647   6.009   7.440   1.146  0.6356 -0.7546  0.1829
   19CHTO  H214 7648   5.985   7.489   1.241  0.1445 -0.0238 -0.3075
   19CHTO   O78 7649   5.877   7.404   1.096 -0.1262  0.5865 -0.9431
   19CHTO  H200 7650   5.892   7.353   1.019  1.7942 -0.7664  0.2695
   19CHTO  C111 7651   6.092   7.531   1.042 -0.6591 -0.6542  0.1627
   19CHTO  H215 7652   6.105   7.466   0.954 -0.8864  0.1086 -0.4462
   19CHTO   N19 7653   6.036   7.658   0.993 -0.6383 -0.3929  0.2345
   19CHTO  H207 7654   6.077   7.681   0.897  2.8214  0.8063  1.9200
   19CHTO  H208 7655   6.060   7.745   1.053 -0.8465  0.1729 -0.5030
   19CHTO   O74 7656   6.027   7.230   1.273 -0.1608 -0.8472 -0.3555
   19CHTO  C115 7657   5.933   7.117   1.197  0.2857 -0.1093  0.8462
   19CHTO  H219 7658   5.854   7.166   1.140  0.9849 -0.0050 -0.0404
   19CHTO   O76 7659   6.027   7.029   1.080 -0.1578 -0.2864  0.0362
   19CHTO  C122 7660   6.111   6.938   1.137 -0.0941  0.4996 -1.0532
   19CHTO  H226 7661   6.175   7.000   1.200 -1.8504  1.7003 -0.4000
   19CHTO  C126 7662   6.210   6.867   1.040  0.1756  0.8074  0.2090
   19CHTO   O85 7663   6.271   6.750   1.078 -0.1696  0.2911  0.3564
   19CHTO  H206 7664   6.358   6.763   1.112 -0.0261  0.3960 -0.0519
   19CHTO  C121 7665   6.036   6.839   1.227 -0.3545  0.1883  0.0384
   19CHTO  H225 7666   6.031   6.746   1.166 -1.5794 -0.2385  0.7725
   19CHTO   O81 7667   6.124   6.805   1.337 -0.8983  0.0596  0.3387
   19CHTO  H202 7668   6.071   6.756   1.395 -0.7400  1.4654  1.6986
   19CHTO  C119 7669   5.896   6.874   1.279 -0.1765  0.5900 -0.0922
   19CHTO  H223 7670   5.832   6.858   1.191 -1.3786 -2.1190  1.2284
   19CHTO  C117 7671   5.882   7.026   1.318 -0.1187  0.6696  0.0434
   19CHTO  H221 7672   5.947   7.058   1.400  1.1808 -0.1383 -0.6576
   19CHTO   N20 7673   5.741   7.070   1.351  0.0208 -0.0825  0.1906
   19CHTO  H209 7674   5.752   7.157   1.415  1.2341 -0.3101  0.3073
   19CHTO  H210 7675   5.694   6.984   1.396 -1.4372 -0.4722 -2.0247
   19CHTO   O80 7676   5.833   6.759   1.375  0.8662  0.3756  0.0814
   19CHTO  C103 7677   5.784   6.612   1.326  0.2074  0.6045  0.3153
   19CHTO  H190 7678   5.801   6.583   1.223 -0.6902 -1.1540  0.6352
   19CHTO  C101 7679   5.854   6.492   1.412  0.6223  0.0323  0.5230
   19CHTO  H188 7680   5.852   6.533   1.513 -0.2045 -1.0853  0.9766
   19CHTO   O68 7681   6.010   6.470   1.358  0.4952  0.2706 -0.0548
   19CHTO  H168 7682   6.052   6.551   1.378 -1.8607  1.1586  1.3548
   19CHTO   C99 7683   5.764   6.355   1.408  0.8587  0.0190 -0.0006
   19CHTO  H186 7684   5.771   6.317   1.305  1.3117  1.0983 -0.3821
   19CHTO   N17 7685   5.809   6.239   1.496 -0.4709 -0.3417 -0.2285
   19CHTO  H174 7686   5.910   6.254   1.532 -0.3749  2.7409 -1.6290
   19CHTO  H175 7687   5.742   6.158   1.519 -0.5388 -0.0012  0.7888
   19CHTO   C97 7688   5.613   6.394   1.422  1.2684  0.5293 -0.3588
   19CHTO  H184 7689   5.612   6.438   1.523 -1.1966  1.1180 -0.5994
   19CHTO   O64 7690   5.573   6.486   1.324 -0.0365 -0.2396  0.1185
   19CHTO  C104 7691   5.629   6.617   1.347  0.5960 -0.1090 -0.7704
   19CHTO  H191 7692   5.608   6.652   1.448 -0.0190  0.5880 -1.1346
   19CHTO  C108 7693   5.566   6.721   1.250 -0.6628 -0.8229 -0.1425
   19CHTO   O71 7694   5.426   6.722   1.267 -0.0013  0.3097  0.1447
   19CHTO  H171 7695   5.393   6.803   1.232 -1.8308 -0.1698  0.6898
   19CHTO   O62 7696   5.515   6.288   1.401 -0.5821  0.0916  0.3295
   19CHTO   C91 7697   5.377   6.310   1.444 -0.7153 -0.4759  0.4555
   19CHTO  H178 7698   5.375   6.378   1.530 -1.6407  0.9074 -0.6310
   19CHTO   C92 7699   5.325   6.171   1.506 -0.3169  0.0765  0.2576
   19CHTO  H179 7700   5.398   6.139   1.582 -0.5750  0.9284  0.8674
   19CHTO   O66 7701   5.197   6.205   1.566 -0.2258  0.6268 -0.2440
   19CHTO  H166 7702   5.176   6.147   1.637 -0.7687  0.0088 -0.9069
   19CHTO   C93 7703   5.288   6.062   1.398 -0.5993  0.0762  0.0002
   19CHTO  H180 7704   5.205   6.007   1.444 -0.2418  1.7210  2.7267
   19CHTO   N16 7705   5.396   5.963   1.383  0.4250 -0.0637  0.5485
   19CHTO  H172 7706   5.475   6.001   1.321  0.4522 -0.0385  0.5986
   19CHTO  H173 7707   5.432   5.937   1.482  1.7484  0.7320  0.2895
   19CHTO   C94 7708   5.238   6.130   1.271  0.2725  0.5689 -0.3725
   19CHTO  H181 7709   5.317   6.147   1.198  0.6593  2.8799  0.5486
   19CHTO   O61 7710   5.184   6.258   1.293  0.0201 -0.0800 -0.8095
   19CHTO   C95 7711   5.286   6.353   1.324  0.2685  0.1212  0.0620
   19CHTO  H182 7712   5.345   6.376   1.235  1.1739  0.3933  0.7218
   19CHTO  C106 7713   5.211   6.482   1.352  0.9550  0.3557 -0.5091
   19CHTO   O69 7714   5.144   6.531   1.237 -0.3951 -0.6670  0.6808
   19CHTO  H169 7715   5.120   6.620   1.253 -0.9575 -0.3699 -1.7255
   19CHTO   O63 7716   5.141   6.052   1.209 -0.9577  0.0136 -0.2587
   19CHTO   C96 7717   5.175   5.969   1.084 -0.3928  0.0180 -0.0790
   19CHTO  H183 7718   5.271   5.918   1.093 -0.4103 -0.2702 -1.4170
   19CHTO   C98 7719   5.201   6.053   0.960 -0.0641 -0.0305 -0.0344
   19CHTO  H185 7720   5.255   6.143   0.991 -0.8030  0.1900  0.6275
   19CHTO   O67 7721   5.282   5.975   0.869  0.2041  0.3372 -0.0489
   19CHTO  H167 7722   5.274   5.881   0.871  2.2074  0.1241 -0.1693
   19CHTO  C102 7723   5.057   6.101   0.903 -0.4807  0.0860 -0.0806
   19CHTO  H189 7724   5.065   6.144   0.802 -3.7673 -0.1127 -0.4826
   19CHTO   N18 7725   4.998   6.206   0.988 -0.4358  0.3514  0.2443
   19CHTO  H176 7726   4.990   6.167   1.088  2.6213 -0.3826  0.2414
   19CHTO  H177 7727   5.058   6.295   0.979 -1.9001  1.3788  0.6019
   19CHTO  C105 7728   4.966   5.982   0.869  0.5260  0.6138 -0.1134
   19CHTO  H192 7729   4.864   6.005   0.899  0.8509  0.2657  1.3036
   19CHTO   O65 7730   5.019   5.862   0.924 -0.0923 -0.1923  0.0197
   19CHTO  C100 7731   5.065   5.861   1.057 -0.3470 -0.0777 -0.6849
   19CHTO  H187 7732   4.976   5.870   1.121  0.6744  0.2897  0.7052
   19CHTO  C107 7733   5.131   5.726   1.078  0.2364  0.6782 -0.4758
   19CHTO   O70 7734   5.144   5.702   1.217 -0.2814 -0.0413  0.7628
   19CHTO  H170 7735   5.198   5.771   1.249  0.4794  1.2264 -3.0103
   19CHTO   O57 7736   4.975   5.974   0.722  0.5984 -0.4930  0.4231
   19CHTO   C85 7737   4.857   5.943   0.646  0.4574  0.7078 -0.5098
   19CHTO  H157 7738   4.774   5.920   0.716  0.6261 -0.8677 -0.8116
   19CHTO   C83 7739   4.873   5.797   0.591  0.1628  0.6503  0.3769
   19CHTO  H155 7740   4.893   5.723   0.668  0.4021 -1.9245 -2.0683
   19CHTO   O56 7741   4.991   5.800   0.503 -0.5328 -0.0562  0.3614
   19CHTO  H135 7742   4.993   5.724   0.448 -1.2256  0.1993 -0.0309
   19CHTO   C81 7743   4.743   5.754   0.518  0.1631  0.3060  0.0547
   19CHTO  H153 7744   4.661   5.761   0.590 -0.5817  0.0851 -0.7661
   19CHTO   N14 7745   4.743   5.613   0.474 -0.1737 -0.2570  0.1765
   19CHTO  H141 7746   4.794   5.601   0.381 -0.9590  1.0089 -0.4184
   19CHTO  H142 7747   4.799   5.556   0.546 -0.6585  1.0959  1.6352
   19CHTO   C79 7748   4.704   5.853   0.403  0.4347  0.0995 -0.1012
   19CHTO  H151 7749   4.605   5.822   0.370  0.0731  1.4393 -0.3096
   19CHTO   O52 7750   4.686   5.994   0.453  0.1799 -0.2614 -0.0677
   19CHTO   C86 7751   4.805   6.045   0.529  0.0072 -0.4634 -0.6294
   19CHTO  H158 7752   4.889   6.069   0.460  2.3310 -1.4174  1.7809
   19CHTO   C90 7753   4.754   6.177   0.591 -0.2918 -0.0060  0.0747
   19CHTO   O60 7754   4.713   6.259   0.479  0.2501 -0.0929 -0.8980
   19CHTO  H138 7755   4.782   6.321   0.465 -1.8243  2.0601 -1.8517
   19CHTO   O50 7756   4.790   5.852   0.291  0.2168 -0.2828 -0.0601
   19CHTO   C73 7757   4.803   5.882   0.152 -0.2061  0.2391  0.1336
   19CHTO  H145 7758   4.768   5.796   0.092  1.1111  0.4768 -0.9915
   19CHTO   C74 7759   4.958   5.896   0.122  0.1393 -0.2428 -0.1318
   19CHTO  H146 7760   5.007   5.807   0.164  1.7333  0.3490 -0.6983
   19CHTO   O54 7761   4.973   5.887  -0.025 -0.2929  0.1189 -0.3682
   19CHTO  H133 7762   5.011   5.968  -0.054 -0.4174  0.8628  1.4278
   19CHTO   C75 7763   5.007   6.035   0.188 -0.2598 -0.1263 -0.3641
   19CHTO  H147 7764   4.997   6.030   0.298 -2.1053 -1.5819 -0.5654
   19CHTO   N13 7765   5.154   6.055   0.159  0.9769 -0.0652 -0.2996
   19CHTO  H139 7766   5.216   5.992   0.222 -0.3368 -0.5524  0.5174
   19CHTO  H140 7767   5.187   6.157   0.175  0.4545  0.4507 -2.3567
   19CHTO   C76 7768   4.913   6.156   0.143 -0.7847 -0.0385 -0.4978
   19CHTO  H148 7769   4.925   6.163   0.035 -1.8489  0.5998 -0.5698
   19CHTO   O49 7770   4.773   6.129   0.168  0.1095  0.0496 -0.6032
   19CHTO   C77 7771   4.733   6.008   0.099  0.2471  0.6683 -0.6952
   19CHTO  H149 7772   4.763   6.028  -0.003  1.1254 -1.4440 -0.8726
   19CHTO   C88 7773   4.584   5.995   0.102 -0.0549 -0.5385  0.5562
   19CHTO   O58 7774   4.520   6.136   0.071 -0.6274 -0.2103 -0.1738
   19CHTO  H136 7775   4.428   6.121   0.062 -0.5530 -1.4570  1.0862
   19CHTO   O51 7776   4.952   6.292   0.220 -0.3066 -0.0317 -0.3280
   19CHTO   C78 7777   4.941   6.430   0.123  0.4079 -0.5740  0.3423
   19CHTO  H150 7778   4.897   6.409   0.023  0.5934  0.0248  0.1363
   19CHTO   C80 7779   5.074   6.500   0.102 -0.1025 -0.3934 -0.8082
   19CHTO  H152 7780   5.133   6.499   0.197 -0.3228  2.1698 -0.5960
   19CHTO   O55 7781   5.139   6.411   0.008 -0.6818 -0.1558  0.1060
   19CHTO  H134 7782   5.150   6.322   0.035 -1.3521  0.3548  2.1946
   19CHTO   C84 7783   5.071   6.644   0.039  0.7939 -0.2016  0.0616
   19CHTO  H156 7784   5.019   6.628  -0.056  0.1716 -0.6787  0.4776
   19CHTO   N15 7785   5.206   6.710   0.017  0.2803 -0.0888 -0.4465
   19CHTO  H143 7786   5.265   6.710   0.106 -0.7185  0.6772  0.2333
   19CHTO  H144 7787   5.208   6.813  -0.014  0.7371  0.4750  1.4048
   19CHTO   C87 7788   4.967   6.724   0.121  0.0005 -0.7790  0.3083
   19CHTO  H159 7789   5.007   6.734   0.222  1.1040 -0.6218 -0.1378
   19CHTO   O53 7790   4.835   6.657   0.126  0.0471 -0.0255  0.2887
   19CHTO   C82 7791   4.836   6.525   0.187  0.2242  0.2473 -0.4880
   19CHTO  H154 7792   4.859   6.539   0.293  3.2923  0.9283 -1.1881
   19CHTO   C89 7793   4.699   6.456   0.176 -0.0438 -0.5432  0.2806
   19CHTO   O59 7794   4.641   6.456   0.043 -0.8684 -0.0303  0.7000
   19CHTO  H137 7795   4.560   6.408   0.041 -0.1424 -1.3179  1.0579
   19CHTO   O45 7796   4.948   6.870   0.044 -0.6178 -0.3612  0.8345
   19CHTO   C67 7797   4.863   6.960   0.112  0.4501 -0.0318 -0.1713
   19CHTO  H124 7798   4.796   6.908   0.180 -0.7222  1.2101 -0.3309
   19CHTO   C65 7799   4.939   7.071   0.193 -0.4825  0.7149  0.6471
   19CHTO  H122 7800   5.028   7.103   0.138 -1.8745  2.3195 -0.7317
   19CHTO   O44 7801   4.990   7.014   0.314  0.2763 -0.2883  0.4371
   19CHTO  H102 7802   4.973   7.059   0.394  0.4468 -3.5826  2.4193
   19CHTO   C63 7803   4.858   7.212   0.205  0.4620  0.2250  0.3224
   19CHTO  H120 7804   4.878   7.267   0.113 -0.6203  0.2316  0.0917
   19CHTO   N11 7805   4.898   7.310   0.303  0.1263 -0.4999  0.2410
   19CHTO  H108 7806   4.857   7.407   0.280  1.5106 -0.4512 -2.2304
   19CHTO  H109 7807   5.005   7.317   0.314 -0.0376  1.2647  0.9159
   19CHTO   C61 7808   4.707   7.179   0.203  0.6091  0.0386  0.5777
   19CHTO  H118 7809   4.654   7.276   0.204 -0.8630 -0.7179 -1.0993
   19CHTO   O40 7810   4.663   7.107   0.079 -0.5345 -0.4498 -0.2199
   19CHTO   C68 7811   4.763   7.034   0.012  0.9531 -0.5544  0.0646
   19CHTO  H125 7812   4.823   7.096  -0.058 -0.1154  0.7407  0.2871
   19CHTO   C72 7813   4.676   6.936  -0.075  0.2884  0.2908  0.3129
   19CHTO   O48 7814   4.599   6.840   0.005  0.3543  0.2626 -0.4540
   19CHTO  H105 7815   4.514   6.825  -0.032 -0.6267 -2.2165  2.6015
   19CHTO   O38 7816   4.671   7.104   0.324  0.0969  0.1393  0.5917
   19CHTO   C55 7817   4.541   7.045   0.320 -0.3393 -0.2635 -0.1131
   19CHTO  H112 7818   4.536   6.983   0.229  1.2295 -0.6170  0.0351
   19CHTO   C56 7819   4.420   7.150   0.328  0.9451 -0.6171 -0.0058
   19CHTO  H113 7820   4.424   7.209   0.421  0.2717  0.3394 -0.5714
   19CHTO   O42 7821   4.432   7.252   0.227 -0.2314  0.2597 -0.9166
   19CHTO  H100 7822   4.438   7.337   0.264 -0.7101  0.9709 -2.4159
   19CHTO   C57 7823   4.284   7.075   0.323  0.3068 -0.4187  0.4287
   19CHTO  H114 7824   4.266   7.029   0.225 -1.0378  2.5844 -0.7986
   19CHTO   N10 7825   4.171   7.162   0.343 -0.7289  0.1745  0.1504
   19CHTO  H106 7826   4.209   7.260   0.316  0.6194 -0.3241  0.1950
   19CHTO  H107 7827   4.097   7.130   0.271 -1.2721 -0.8020  1.1358
   19CHTO   C58 7828   4.285   6.967   0.434 -0.2757  0.8047 -0.5211
   19CHTO  H115 7829   4.278   7.021   0.530  2.4921  0.0081  0.1881
   19CHTO   O37 7830   4.396   6.880   0.432 -0.0794  0.6534 -0.7002
   19CHTO   C59 7831   4.524   6.948   0.438  0.0011 -0.6011 -0.0068
   19CHTO  H116 7832   4.524   7.006   0.530  2.4665 -3.1914  1.6830
   19CHTO   C70 7833   4.638   6.840   0.438  0.5753  0.9296 -0.2482
   19CHTO   O46 7834   4.626   6.748   0.545  0.1656 -0.6369  0.1739
   19CHTO  H103 7835   4.663   6.779   0.625  1.6781 -2.4049  0.1849
   19CHTO   O39 7836   4.148   6.853   0.405 -0.2736 -0.6152 -0.2580
   19CHTO   C60 7837   4.164   6.747   0.309 -0.0615 -0.2336  0.9876
   19CHTO  H117 7838   4.239   6.761   0.231 -1.8605  1.3369 -0.5116
   19CHTO   C62 7839   4.221   6.604   0.367 -0.0865  0.2231  0.0053
   19CHTO  H119 7840   4.327   6.627   0.391  0.0910 -1.4503  0.8909
   19CHTO   O43 7841   4.152   6.554   0.485  0.2230  0.3857  0.0769
   19CHTO  H101 7842   4.202   6.490   0.534 -0.0978 -0.1964 -0.3461
   19CHTO   C66 7843   4.237   6.504   0.243  0.4480 -0.1312 -0.5175
   19CHTO  H123 7844   4.283   6.561   0.163  3.3186 -1.0389  0.4512
   19CHTO   N12 7845   4.322   6.387   0.270  0.5323  0.6642 -0.5533
   19CHTO  H110 7846   4.268   6.313   0.327  0.6613  0.1564 -1.0785
   19CHTO  H111 7847   4.410   6.419   0.323  0.6561 -0.2074 -0.2176
   19CHTO   C69 7848   4.096   6.461   0.192  0.6766  0.2308  0.2759
   19CHTO  H126 7849   4.029   6.418   0.269  2.5462 -1.0894  1.1997
   19CHTO   O41 7850   4.044   6.589   0.132 -0.2495 -0.0292 -0.7373
   19CHTO   C64 7851   4.035   6.717   0.233  0.3252  0.0363 -0.4368
   19CHTO  H121 7852   3.956   6.701   0.309  1.0732  0.7323  0.4818
   19CHTO   C71 7853   3.979   6.837   0.151  0.0272 -0.7704  0.0311
   19CHTO   O47 7854   4.073   6.897   0.060  0.1901  0.1287 -0.0576
   19CHTO  H104 7855   4.062   6.868  -0.028  0.2282 -2.4210  0.7222
   19CHTO   O34 7856   4.100   6.364   0.073 -0.1724  0.0199 -0.0535
   19CHTO   C49 7857   3.996   6.335  -0.021  0.0068 -0.7722  0.0415
   19CHTO   H91 7858   3.904   6.354   0.034  0.4714 -1.4833  1.0739
   19CHTO   C47 7859   3.998   6.191  -0.065 -0.6988  0.5047 -0.6260
   19CHTO   H89 7860   3.907   6.177  -0.126 -2.1075  0.6378  1.3926
   19CHTO   O33 7861   3.987   6.104   0.049  0.2673 -0.9560  0.2674
   19CHTO   H70 7862   4.029   6.141   0.125 -0.8248  2.2165 -0.6097
   19CHTO   C45 7863   4.128   6.156  -0.163 -0.5749  1.0580  0.2569
   19CHTO   H87 7864   4.202   6.116  -0.092 -0.3158 -0.2863 -0.7532
   19CHTO    N8 7865   4.097   6.047  -0.258  0.0015 -0.3939 -0.5685
   19CHTO   H75 7866   4.033   6.078  -0.339 -0.6763 -0.9699 -0.2538
   19CHTO   H76 7867   4.192   6.013  -0.299  0.9665  0.9556  0.4982
   19CHTO   C43 7868   4.195   6.292  -0.220  0.3142 -0.2656 -0.6285
   19CHTO   H85 7869   4.258   6.331  -0.140 -0.2966  1.8077 -1.1216
   19CHTO   O29 7870   4.090   6.389  -0.254 -0.0619  0.0348 -0.3807
   19CHTO   C50 7871   4.004   6.429  -0.143 -0.8611  0.3546  0.0264
   19CHTO   H92 7872   4.035   6.528  -0.107  1.2879  0.1768 -1.2463
   19CHTO   C54 7873   3.861   6.465  -0.195  0.1470 -0.5974  0.5764
   19CHTO   O36 7874   3.762   6.508  -0.104  1.0124  0.1703 -0.3736
   19CHTO   H72 7875   3.704   6.556  -0.160  0.9466  1.2584  0.6107
   19CHTO   O27 7876   4.287   6.269  -0.328 -0.0257  0.1389 -0.0793
   19CHTO   C37 7877   4.381   6.311  -0.422 -0.3081 -0.4098 -0.2348
   19CHTO   H79 7878   4.397   6.245  -0.509  1.0804  1.1166 -1.1559
   19CHTO   C38 7879   4.326   6.442  -0.490  0.6264 -0.0893 -0.2024
   19CHTO   H80 7880   4.288   6.509  -0.411 -0.5091  0.2122 -0.9919
   19CHTO   O31 7881   4.217   6.401  -0.576 -0.2659  0.1008  0.7609
   19CHTO   H68 7882   4.140   6.387  -0.526 -1.0720  2.8331  0.3686
   19CHTO   C39 7883   4.439   6.513  -0.577  0.5818  0.1939 -0.0570
   19CHTO   H81 7884   4.468   6.445  -0.657  0.8574  0.4956 -0.2110
   19CHTO    N7 7885   4.405   6.641  -0.646  0.0550 -0.0980 -0.2053
   19CHTO   H73 7886   4.312   6.630  -0.699 -0.7676 -2.4163  1.6068
   19CHTO   H74 7887   4.421   6.717  -0.571  0.5044  0.9209 -1.3256
   19CHTO   C40 7888   4.574   6.525  -0.485  0.7458  0.2458 -0.4146
   19CHTO   H82 7889   4.556   6.590  -0.399  3.7286  1.1694 -0.4247
   19CHTO   O26 7890   4.611   6.390  -0.447 -0.3015 -0.8175 -0.7549
   19CHTO   C41 7891   4.513   6.332  -0.349  0.4022 -0.2315  0.5242
   19CHTO   H83 7892   4.489   6.398  -0.265 -0.7909 -0.3318  0.2743
   19CHTO   C52 7893   4.562   6.208  -0.293 -0.5381 -0.2074  0.5811
   19CHTO   O35 7894   4.694   6.222  -0.220 -0.1456  0.4521  0.1587
   19CHTO   H71 7895   4.695   6.203  -0.128  3.3125  0.3858  0.1673
   19CHTO   O28 7896   4.693   6.568  -0.551 -0.2530  1.0981  0.2016
   19CHTO   C42 7897   4.817   6.621  -0.487  0.3777 -0.0466 -0.6506
   19CHTO   H84 7898   4.829   6.566  -0.393  3.6534  0.0565 -0.9308
   19CHTO   C44 7899   4.802   6.773  -0.457  0.1879  0.5733  0.5854
   19CHTO   H86 7900   4.764   6.815  -0.550 -1.7443 -0.4526  0.8929
   19CHTO   O32 7901   4.680   6.782  -0.379  0.1344 -0.1246 -0.5395
   19CHTO   H69 7902   4.664   6.869  -0.347  0.6526 -0.0084 -0.5901
   19CHTO   C48 7903   4.936   6.834  -0.396 -0.0521 -0.0850  0.6123
   19CHTO   H90 7904   4.950   6.793  -0.296  0.5716  0.0070  0.5608
   19CHTO    N9 7905   4.931   6.982  -0.381 -0.4289  0.4176 -0.1967
   19CHTO   H77 7906   4.996   7.032  -0.310 -0.0765 -3.2066  2.1754
   19CHTO   H78 7907   4.901   7.045  -0.464  0.7514  0.1121 -0.8692
   19CHTO   C51 7908   5.054   6.782  -0.491 -0.2845  0.0299  0.0218
   19CHTO   H93 7909   5.042   6.832  -0.588  2.1651  0.6243 -0.0139
   19CHTO   O30 7910   5.055   6.637  -0.504  0.1652  0.5150 -0.4285
   19CHTO   C46 7911   4.941   6.583  -0.572 -0.5933  0.2549  0.1111
   19CHTO   H88 7912   4.927   6.623  -0.673  2.4565  0.2557 -0.3419
   19CHTO   C53 7913   4.951   6.425  -0.584 -0.3700 -0.1800 -0.2809
   19CHTO   O72 7914   4.955   6.349  -0.467 -0.6880 -0.0493  0.2985
   19CHTO  H199 7915   4.988   6.403  -0.397 -0.4980  1.8386 -1.2065
   19CHTO   O22 7916   5.183   6.818  -0.433 -0.6063  0.2097  0.0390
   19CHTO   C31 7917   5.315   6.793  -0.504 -0.0029 -0.4634 -0.0555
   19CHTO   H59 7918   5.302   6.694  -0.554  3.3633 -0.2457 -1.4974
   19CHTO   C29 7919   5.352   6.886  -0.620  0.6966 -0.6407  0.0657
   19CHTO   H57 7920   5.395   6.982  -0.588 -1.8358  0.5201  0.1814
   19CHTO   O21 7921   5.230   6.931  -0.693 -0.1513  0.0065  0.1879
   19CHTO   H37 7922   5.252   6.968  -0.776  0.7511  1.4292  1.0334
   19CHTO   C27 7923   5.461   6.807  -0.708 -0.4697 -0.0062 -0.5889
   19CHTO   H55 7924   5.412   6.721  -0.756  1.6784 -0.8325 -1.3529
   19CHTO    N5 7925   5.502   6.898  -0.818  0.6513  0.1934 -0.4768
   19CHTO   H43 7926   5.411   6.913  -0.873 -0.4446  1.2359  1.5712
   19CHTO   H44 7927   5.540   6.985  -0.767  0.4553 -0.9376  1.6321
   19CHTO   C25 7928   5.589   6.760  -0.622  0.1664 -0.3673  0.0478
   19CHTO   H53 7929   5.671   6.830  -0.603 -0.6721  0.8145 -0.5612
   19CHTO   O17 7930   5.547   6.713  -0.493 -0.2022  0.4558  0.4873
   19CHTO   C32 7931   5.441   6.782  -0.414 -0.5250 -0.2400  0.6589
   19CHTO   H60 7932   5.480   6.881  -0.392 -0.5561  0.2485 -1.3793
   19CHTO   C36 7933   5.420   6.705  -0.287  0.2862 -0.2770 -0.2495
   19CHTO   O25 7934   5.545   6.705  -0.212 -0.5366 -0.2298 -0.1693
   19CHTO   H40 7935   5.578   6.790  -0.190  0.6632 -0.8583  0.5129
   19CHTO   O15 7936   5.654   6.637  -0.698 -0.5515 -0.5703  0.1284
   19CHTO   C19 7937   5.656   6.492  -0.662  0.1203 -0.3570 -0.3007
   19CHTO   H47 7938   5.674   6.492  -0.553 -0.8681 -1.4908 -0.1342
   19CHTO   C20 7939   5.522   6.418  -0.691  0.0271 -0.6487 -0.4952
   19CHTO   H48 7940   5.504   6.409  -0.799  0.2024 -0.1903 -0.5629
   19CHTO   O19 7941   5.413   6.494  -0.642 -0.0086 -0.1982  0.4180
   19CHTO   H35 7942   5.397   6.576  -0.684 -0.8964  0.7841  2.5740
   19CHTO   C21 7943   5.523   6.266  -0.643  0.8289  0.1969 -0.2188
   19CHTO   H49 7944   5.533   6.267  -0.534 -2.3997 -0.2096  0.1148
   19CHTO    N4 7945   5.398   6.192  -0.666  0.4611 -0.1152 -0.0778
   19CHTO   H41 7946   5.353   6.195  -0.764  0.6040  1.3140 -0.1157
   19CHTO   H42 7947   5.397   6.090  -0.634  0.3933  0.1263  0.6883
   19CHTO   C22 7948   5.651   6.197  -0.702  0.2924 -0.5326  0.1005
   19CHTO   H50 7949   5.635   6.188  -0.809  1.6709  1.3764 -0.2989
   19CHTO   O14 7950   5.768   6.274  -0.672 -0.8910 -0.3976  0.1378
   19CHTO   C23 7951   5.773   6.405  -0.726  0.4537 -0.5205 -0.4468
   19CHTO   H51 7952   5.767   6.395  -0.836  2.2592 -2.7509 -0.3847
   19CHTO   C34 7953   5.906   6.473  -0.687  0.4091  0.2185  0.7069
   19CHTO   O23 7954   6.013   6.423  -0.765 -0.3602 -0.1039  0.0823
   19CHTO   H38 7955   6.084   6.483  -0.751 -1.8923  1.6884  0.2923
   19CHTO   O16 7956   5.677   6.074  -0.645  0.4157 -0.0858 -0.3016
   19CHTO   C24 7957   5.741   5.959  -0.747 -0.4409  0.3022  0.7113
   19CHTO   H52 7958   5.795   5.884  -0.689 -1.0260 -1.0852 -0.5075
   19CHTO   C26 7959   5.830   6.010  -0.862 -0.4667 -0.4840 -0.1756
   19CHTO   H54 7960   5.770   6.069  -0.934 -0.4460 -3.0069 -2.3480
   19CHTO   O20 7961   5.934   6.088  -0.794 -0.0209 -0.5189 -0.2652
   19CHTO   H36 7962   5.889   6.160  -0.753 -0.5977 -0.1426 -1.5430
   19CHTO   C30 7963   5.895   5.882  -0.932 -0.2435 -0.6736  0.5964
   19CHTO   H58 7964   5.942   5.815  -0.858  0.8910 -0.2075  0.3107
   19CHTO    N6 7965   5.995   5.918  -1.037 -0.1205 -0.4162 -1.0463
   19CHTO   H45 7966   6.075   5.968  -0.984  1.1464 -1.4690 -1.9146
   19CHTO   H46 7967   5.966   5.983  -1.119 -0.1794  0.5001 -0.3061
   19CHTO   C33 7968   5.786   5.793  -0.995 -0.3598  0.2775 -0.1642
   19CHTO   H61 7969   5.743   5.849  -1.079  2.4305  0.7312 -1.3359
   19CHTO   O18 7970   5.682   5.765  -0.898 -0.4393 -0.6485  0.4468
   19CHTO   C28 7971   5.629   5.877  -0.823 -0.2353  0.3108  0.2455
   19CHTO   H56 7972   5.571   5.949  -0.881 -1.0660 -1.8817 -1.6700
   19CHTO   C35 7973   5.538   5.832  -0.703  0.2305  0.0021 -0.0594
   19CHTO   O24 7974   5.605   5.757  -0.601 -0.0728 -0.1639 -0.7909
   19CHTO   H39 7975   5.670   5.799  -0.548 -2.0733 -0.6896  2.2568
   19CHTO    O9 7976   5.837   5.671  -1.051  0.0303 -0.5427  0.1437
   19CHTO   C13 7977   5.806   5.618  -1.193 -0.2277 -0.5493 -0.1298
   19CHTO   H26 7978   5.885   5.658  -1.261 -1.4318 -1.1734 -1.9112
   19CHTO   C11 7979   5.663   5.641  -1.250  0.1434 -0.6488 -0.5014
   19CHTO   H24 7980   5.668   5.740  -1.298  3.3083 -0.3507  0.3767
   19CHTO    O8 7981   5.561   5.659  -1.144  0.5217  0.0346 -0.0211
   19CHTO    H3 7982   5.571   5.602  -1.070  0.3047  0.6239  0.4565
   19CHTO    C9 7983   5.634   5.533  -1.355 -0.1434 -0.5579 -0.1100
   19CHTO   H22 7984   5.715   5.543  -1.429  0.2113 -2.5084 -0.0085
   19CHTO    N2 7985   5.514   5.567  -1.430 -0.3365 -0.4420 -0.3041
   19CHTO   H10 7986   5.447   5.492  -1.468  0.1814 -0.8156 -0.4890
   19CHTO   H11 7987   5.459   5.652  -1.393 -0.5973 -1.0623  0.7478
   19CHTO    C7 7988   5.636   5.387  -1.285 -0.8075  0.7252  0.1833
   19CHTO   H20 7989   5.647   5.321  -1.373 -2.5159  3.0207 -1.8174
   19CHTO    O4 7990   5.741   5.367  -1.182  0.1680 -0.7333  0.2596
   19CHTO   C14 7991   5.846   5.464  -1.202  0.2001 -0.7421 -0.0524
   19CHTO   H27 7992   5.888   5.454  -1.304  0.5172 -0.8688  0.0888
   19CHTO   C18 7993   5.956   5.420  -1.099  0.0898  0.4758 -0.4943
   19CHTO   O13 7994   6.035   5.303  -1.139  0.2276 -0.3790 -0.4719
   19CHTO    H7 7995   6.072   5.261  -1.063 -0.9436 -0.2511  0.1868
   19CHTO    O2 7996   5.489   5.365  -1.210  0.0013  0.1334  0.2837
   19CHTO    C1 7997   5.465   5.253  -1.134  0.1751 -0.3103 -0.1650
   19CHTO   H14 7998   5.560   5.195  -1.134  0.0839 -0.4945 -1.4895
   19CHTO    C2 7999   5.350   5.164  -1.190 -0.1684 -0.5060 -0.1372
   19CHTO   H15 8000   5.265   5.233  -1.175  2.1975  1.9285  2.6098
   19CHTO    O6 8001   5.366   5.137  -1.327  1.1189 -0.6066  0.5199
   19CHTO    H1 8002   5.303   5.075  -1.359  1.1621 -0.2534 -0.2759
   19CHTO    C3 8003   5.324   5.033  -1.104 -0.5821  0.0429 -0.7571
   19CHTO   H16 8004   5.418   4.976  -1.108  0.2815  1.1916  1.9899
   19CHTO    N1 8005   5.217   4.945  -1.152  0.1039  0.9329 -0.4793
   19CHTO    H8 8006   5.231   4.841  -1.126  1.0825  1.0083 -0.7033
   19CHTO    H9 8007   5.199   4.963  -1.256  1.8743 -0.4928 -1.0597
   19CHTO    C4 8008   5.307   5.070  -0.950  0.1914  0.7096 -0.0140
   19CHTO   H17 8009   5.213   5.122  -0.931  1.1822  2.1507  1.0178
   19CHTO    O1 8010   5.412   5.169  -0.917 -0.1863  0.4355  0.6131
   19CHTO    C5 8011   5.421   5.291  -0.990 -0.7571  0.3603 -0.4756
   19CHTO   H18 8012   5.320   5.329  -0.979 -0.3050  1.3392  0.3927
   19CHTO   C16 8013   5.520   5.381  -0.909  0.1529  0.3726  0.0964
   19CHTO   O11 8014   5.644   5.317  -0.865  0.0686 -0.2109  0.0261
   19CHTO    H5 8015   5.639   5.309  -0.772  1.0161  0.5823  0.1480
   19CHTO    O3 8016   5.315   4.959  -0.858  0.0684  0.2112  0.0623
   19CHTO    C6 8017   5.250   4.969  -0.730  0.4727 -0.2845 -0.3900
   19CHTO   H19 8018   5.209   5.070  -0.721 -0.8462 -1.0063  1.6809
   19CHTO    C8 8019   5.141   4.859  -0.708 -0.5300  0.0767  0.0803
   19CHTO   H21 8020   5.189   4.764  -0.728 -1.1631  0.1738 -2.0423
   19CHTO    O7 8021   5.024   4.869  -0.797  0.3021 -0.0143 -0.3816
   19CHTO    H2 8022   4.985   4.784  -0.793 -0.5201  0.3966  0.5449
   19CHTO   C12 8023   5.092   4.864  -0.556  0.2307 -0.3402 -0.0464
   19CHTO   H25 8024   5.052   4.967  -0.550 -0.1729 -0.4404 -0.9203
   19CHTO    N3 8025   4.984   4.768  -0.533  0.8032 -0.4487 -0.4411
   19CHTO   H12 8026   5.010   4.679  -0.589  0.3881 -0.7535 -0.1613
   19CHTO   H13 8027   4.975   4.738  -0.429  0.9302 -0.2345 -0.3690
   19CHTO   C15 8028   5.212   4.849  -0.466 -0.0039  0.4163  0.0674
   19CHTO   H28 8029   5.257   4.750  -0.478 -1.2135 -0.1788  0.3642
   19CHTO   O10 8030   5.178   4.869  -0.314 -0.6138  0.0142 -0.0523
   19CHTO    H4 8031   5.120   4.798  -0.294  0.7050 -0.7962  0.9645
   19CHTO    O5 8032   5.307   4.954  -0.488 -0.4086  0.4904 -0.3745
   19CHTO   C10 8033   5.365   4.954  -0.618 -0.3110  1.1335  0.3045
   19CHTO   H23 8034   5.422   4.864  -0.641 -3.2490 -0.6726 -0.1692
   19CHTO   C17 8035   5.471   5.064  -0.603 -0.3676 -0.0758 -0.2010
   19CHTO   O12 8036   5.603   5.025  -0.649  0.3401  0.3950  0.4797
   19CHTO    H6 8037   5.633   4.960  -0.589  0.7364 -0.8458 -1.0245
   20CHTO  H203 8038   5.640   0.377   0.489  0.7563  1.2820 -1.5083
   20CHTO   O82 8039   5.613   0.411   0.573 -0.0970 -0.6986 -0.9517
   20CHTO  C123 8040   5.594   0.552   0.558  0.0474  0.0379 -0.0777
   20CHTO  H227 8041   5.532   0.574   0.470  0.0278  1.1782  0.2202
   20CHTO   O77 8042   5.521   0.593   0.673 -0.6173 -0.0803 -0.7353
   20CHTO  C118 8043   5.492   0.730   0.683  0.2049  0.5296 -0.0218
   20CHTO  H222 8044   5.435   0.762   0.595 -0.9687 -1.2890  0.0588
   20CHTO  C125 8045   5.407   0.758   0.809 -0.2201  1.0819  0.9504
   20CHTO   O84 8046   5.280   0.691   0.817 -0.1932 -0.3836 -0.1306
   20CHTO  H205 8047   5.237   0.678   0.734 -1.1380  0.2166  0.2530
   20CHTO  C114 8048   5.621   0.812   0.697 -0.1126 -0.0770 -0.3913
   20CHTO  H218 8049   5.680   0.775   0.781  1.3633  0.4471 -1.1796
   20CHTO  C116 8050   5.710   0.789   0.575  0.2498 -0.0980  0.5494
   20CHTO  H220 8051   5.653   0.818   0.484  0.5569  1.2998  0.7797
   20CHTO   O79 8052   5.835   0.861   0.579 -0.6533 -0.2157  0.4008
   20CHTO  H201 8053   5.821   0.954   0.577  2.0439  0.2169  0.9224
   20CHTO  C120 8054   5.737   0.631   0.564 -0.2154  0.1937  0.1592
   20CHTO  H224 8055   5.797   0.595   0.650  2.7202 -2.9823 -3.0348
   20CHTO   N21 8056   5.822   0.606   0.444  0.4770  0.2801  0.1639
   20CHTO  H211 8057   5.760   0.591   0.356 -0.4278  0.9266  0.6901
   20CHTO  H212 8058   5.892   0.528   0.470  0.8176  0.9360  1.2153
   20CHTO   O75 8059   5.594   0.946   0.736  0.1631  0.1210 -0.1674
   20CHTO  C112 8060   5.641   1.090   0.648 -0.4273  0.2481  0.1982
   20CHTO  H216 8061   5.652   1.062   0.543 -0.7766 -0.3597  0.3195
   20CHTO   O73 8062   5.769   1.129   0.707  0.3099  0.4868  0.6113
   20CHTO  C113 8063   5.822   1.247   0.648 -0.3604  0.5334 -0.2857
   20CHTO  H217 8064   5.828   1.241   0.537 -0.0993 -1.2648 -0.1825
   20CHTO  C124 8065   5.964   1.261   0.696  0.9192 -0.4059  0.8030
   20CHTO   O83 8066   6.034   1.352   0.608  0.2066 -0.0634  0.3125
   20CHTO  H204 8067   6.125   1.339   0.622  0.7779  2.1660 -1.1115
   20CHTO  C109 8068   5.739   1.367   0.690  0.3214  0.1115 -0.2071
   20CHTO  H213 8069   5.743   1.366   0.800  0.8850 -0.2873 -0.2324
   20CHTO  C110 8070   5.597   1.339   0.646 -0.0229  0.0058  0.4227
   20CHTO  H214 8071   5.582   1.360   0.540  2.2468 -1.7559 -0.3020
   20CHTO   O78 8072   5.524   1.443   0.704 -0.8740  0.1389  0.1019
   20CHTO  H200 8073   5.471   1.489   0.643 -1.4208  0.7652  1.0372
   20CHTO  C111 8074   5.538   1.198   0.683 -0.2644 -0.2824 -0.2965
   20CHTO  H215 8075   5.521   1.198   0.792  0.0459  4.3341 -0.1369
   20CHTO   N19 8076   5.411   1.162   0.617  0.2588  0.2381 -1.1139
   20CHTO  H207 8077   5.333   1.231   0.645  0.5077  0.1359 -0.1405
   20CHTO  H208 8078   5.409   1.086   0.541 -3.5381 -0.2047 -0.6693
   20CHTO   O74 8079   5.798   1.494   0.634 -0.4028 -1.0683  0.1910
   20CHTO  C115 8080   5.769   1.627   0.694 -0.0705 -0.1008  0.5090
   20CHTO  H219 8081   5.705   1.619   0.782 -0.3258  1.7880  0.5225
   20CHTO   O76 8082   5.904   1.700   0.746 -0.2314  0.4195  0.2961
   20CHTO  C122 8083   6.004   1.712   0.641  0.1986 -0.0844 -0.3482
   20CHTO  H226 8084   6.072   1.627   0.644 -1.4791 -1.4194  0.8723
   20CHTO  C126 8085   6.098   1.833   0.666  0.2350 -0.1738 -0.5212
   20CHTO   O85 8086   6.193   1.810   0.770 -0.9187 -0.2478 -0.6090
   20CHTO  H206 8087   6.149   1.789   0.850  1.1919 -0.9702  0.3914
   20CHTO  C121 8088   5.941   1.746   0.497  0.0764 -0.7182 -0.0470
   20CHTO  H225 8089   6.003   1.816   0.438 -0.2384  0.9489  1.5681
   20CHTO   O81 8090   5.923   1.628   0.421 -0.1942  0.3271 -0.0359
   20CHTO  H202 8091   6.000   1.622   0.368  0.2642  2.7888  0.3243
   20CHTO  C119 8092   5.809   1.815   0.520  0.3046  0.1741  0.4877
   20CHTO  H223 8093   5.834   1.896   0.588  3.3602 -1.5629  1.5378
   20CHTO  C117 8094   5.697   1.724   0.586  0.4733  0.0554  0.4101
   20CHTO  H221 8095   5.647   1.652   0.522 -0.1210  0.5445  0.3187
   20CHTO   N20 8096   5.593   1.807   0.641 -0.4420  0.0959 -0.2065
   20CHTO  H209 8097   5.616   1.872   0.724 -0.5938  0.2724 -0.3012
   20CHTO  H210 8098   5.508   1.745   0.667 -1.5660  1.2140 -1.0960
   20CHTO   O80 8099   5.751   1.900   0.390 -0.4611  0.4944 -0.6192
   20CHTO  C103 8100   5.776   2.071   0.378  0.0784 -0.7307 -0.5992
   20CHTO  H190 8101   5.724   2.123   0.458  1.1480 -1.4235  0.5576
   20CHTO  C101 8102   5.930   2.117   0.401 -0.3906 -0.8578 -0.4653
   20CHTO  H188 8103   5.992   2.056   0.335  0.4231 -0.6460  0.0909
   20CHTO   O68 8104   5.985   2.099   0.557  0.0048  0.1361  0.5900
   20CHTO  H168 8105   5.938   2.033   0.605 -2.4632 -0.4121 -2.4268
   20CHTO   C99 8106   5.947   2.268   0.351  0.3417 -0.8091  0.2733
   20CHTO  H186 8107   5.876   2.326   0.412 -2.1466  0.0039 -3.2031
   20CHTO   N17 8108   6.091   2.321   0.367  0.1491  0.1031  0.3572
   20CHTO  H174 8109   6.159   2.253   0.318 -0.1050  1.6923 -2.2251
   20CHTO  H175 8110   6.105   2.338   0.473 -0.4192 -1.2501  0.6641
   20CHTO   C97 8111   5.894   2.284   0.206 -0.0685  0.2752  0.5292
   20CHTO  H184 8112   5.955   2.213   0.149 -0.0573  1.2535 -0.7266
   20CHTO   O64 8113   5.753   2.248   0.200 -0.0515 -0.1502  0.2095
   20CHTO  C104 8114   5.716   2.118   0.236  0.2943 -0.0978 -0.3962
   20CHTO  H191 8115   5.743   2.045   0.160  0.1990 -1.0016  0.4368
   20CHTO  C108 8116   5.564   2.113   0.251  0.4044  0.5983  0.8442
   20CHTO   O71 8117   5.486   2.158   0.131  0.0746  0.1349  0.0271
   20CHTO  H171 8118   5.401   2.120   0.145 -0.7934  1.7106 -0.7925
   20CHTO   O62 8119   5.897   2.423   0.155 -0.0356 -0.0167  0.1401
   20CHTO   C91 8120   5.898   2.437   0.016 -0.3555 -0.2166  0.3967
   20CHTO  H178 8121   5.896   2.338  -0.030 -0.9083 -0.4409  0.8975
   20CHTO   C92 8122   6.031   2.505  -0.026 -0.6856 -0.1982 -0.2773
   20CHTO  H179 8123   6.046   2.597   0.032  3.1814 -1.7488  1.3780
   20CHTO   O66 8124   6.144   2.422   0.018  0.2107 -0.6802 -0.3179
   20CHTO  H166 8125   6.216   2.479   0.038 -1.7592  1.6052  0.6083
   20CHTO   C93 8126   6.034   2.523  -0.183  0.0267  0.1351 -0.3374
   20CHTO  H180 8127   6.037   2.427  -0.236  0.0637  0.5226 -1.0405
   20CHTO   N16 8128   6.161   2.592  -0.226 -0.3151 -0.1804  0.7358
   20CHTO  H172 8129   6.160   2.588  -0.334  0.6477  1.1350  0.6579
   20CHTO  H173 8130   6.247   2.536  -0.192 -1.0255 -1.1561  0.9420
   20CHTO   C94 8131   5.907   2.607  -0.226  0.4571 -0.1545  0.2852
   20CHTO  H181 8132   5.910   2.709  -0.188  1.6247  0.0073 -0.2282
   20CHTO   O61 8133   5.782   2.549  -0.186 -0.1334 -0.2871 -0.1664
   20CHTO   C95 8134   5.778   2.528  -0.042 -0.0590 -1.1250  0.0916
   20CHTO  H182 8135   5.778   2.626   0.006  0.4836 -0.7242 -0.7121
   20CHTO  C106 8136   5.634   2.460  -0.029  0.8057  0.0313  0.4070
   20CHTO   O69 8137   5.627   2.322  -0.077  0.5359  0.0249  0.1867
   20CHTO  H169 8138   5.656   2.311  -0.165 -1.4095  0.5228 -0.5288
   20CHTO   O63 8139   5.896   2.622  -0.396  0.0993  0.1371 -0.0933
   20CHTO   C96 8140   5.855   2.481  -0.479  0.2080  0.2321 -0.0348
   20CHTO  H183 8141   5.846   2.401  -0.405  1.6518 -1.3223 -1.5118
   20CHTO   C98 8142   5.958   2.438  -0.584  0.5844  0.5590  0.0637
   20CHTO  H185 8143   6.056   2.421  -0.538  0.9667 -0.9332 -1.2569
   20CHTO   O67 8144   5.913   2.308  -0.636  0.3612 -0.0856  0.8457
   20CHTO  H167 8145   5.827   2.282  -0.610 -0.3933  0.7734 -0.7610
   20CHTO  C102 8146   5.966   2.525  -0.711 -0.0156  0.9353  0.5546
   20CHTO  H189 8147   6.001   2.460  -0.792 -1.6661  1.5071 -0.6544
   20CHTO   N18 8148   6.067   2.635  -0.698 -0.0154 -0.3251 -0.2483
   20CHTO  H176 8149   6.026   2.734  -0.706 -3.3543 -1.5590  0.4807
   20CHTO  H177 8150   6.170   2.616  -0.725 -0.1086  0.5316 -1.2031
   20CHTO  C105 8151   5.826   2.566  -0.765 -0.1925  0.5401 -0.3491
   20CHTO  H192 8152   5.817   2.674  -0.752  0.0721  0.6144 -0.7707
   20CHTO   O65 8153   5.714   2.498  -0.697 -0.1674  0.6301 -0.5560
   20CHTO  C100 8154   5.715   2.498  -0.549  0.2761 -0.0226  0.6497
   20CHTO  H187 8155   5.667   2.593  -0.523  0.4012  0.4452 -0.8090
   20CHTO  C107 8156   5.609   2.390  -0.516 -0.7391 -0.3767 -0.5315
   20CHTO   O70 8157   5.559   2.388  -0.382 -0.3198  0.7225 -0.2035
   20CHTO  H170 8158   5.520   2.303  -0.369 -0.3243  0.8699  0.7492
   20CHTO   O57 8159   5.830   2.515  -0.917 -0.2941 -0.5789  0.1964
   20CHTO   C85 8160   5.742   2.579  -1.009  0.5560  0.2619  0.6134
   20CHTO  H157 8161   5.719   2.671  -0.951  2.1685  0.9082  0.2632
   20CHTO   C83 8162   5.613   2.489  -1.021 -0.1285 -1.0089 -0.2052
   20CHTO  H155 8163   5.565   2.475  -0.924  0.0136 -0.0800  0.0106
   20CHTO   O56 8164   5.649   2.355  -1.064  0.0992  0.2664  0.1092
   20CHTO  H135 8165   5.572   2.301  -1.071  1.9179 -2.3616 -0.3623
   20CHTO   C81 8166   5.505   2.551  -1.118 -0.5176  0.3020  0.6706
   20CHTO  H153 8167   5.485   2.653  -1.084 -1.5888 -0.0391  1.0974
   20CHTO   N14 8168   5.376   2.478  -1.116 -0.3606  0.3712 -0.1811
   20CHTO  H141 8169   5.368   2.403  -1.041 -0.6486  0.4217 -0.1623
   20CHTO  H142 8170   5.287   2.538  -1.114  1.0885  2.8516 -3.5709
   20CHTO   C79 8171   5.570   2.564  -1.259 -0.0635  0.9499  0.5373
   20CHTO  H151 8172   5.501   2.619  -1.323  2.2461  0.1372 -2.8334
   20CHTO   O52 8173   5.693   2.640  -1.251  0.5452 -0.2881 -0.1625
   20CHTO   C86 8174   5.797   2.610  -1.152 -0.8405 -0.4293 -0.2160
   20CHTO  H158 8175   5.852   2.520  -1.189 -2.0581 -0.9434 -0.7879
   20CHTO   C90 8176   5.899   2.730  -1.150  0.4938  0.3151 -0.8281
   20CHTO   O60 8177   6.012   2.703  -1.064 -0.5202 -0.6694 -0.1076
   20CHTO  H138 8178   6.066   2.633  -1.096 -0.7271 -0.5958 -0.6255
   20CHTO   O50 8179   5.589   2.443  -1.337  0.2381  0.2436 -0.0397
   20CHTO   C73 8180   5.616   2.404  -1.473  0.0788  1.0017 -0.3065
   20CHTO  H145 8181   5.719   2.435  -1.495  0.1996  0.5037 -0.4521
   20CHTO   C74 8182   5.523   2.479  -1.574 -0.0472 -0.3783  0.2340
   20CHTO  H146 8183   5.527   2.586  -1.550 -3.0068 -0.1004 -0.4199
   20CHTO   O54 8184   5.578   2.470  -1.704  0.3413 -0.0340 -0.0358
   20CHTO  H133 8185   5.532   2.518  -1.771  0.7898 -1.1288 -1.1541
   20CHTO   C75 8186   5.370   2.421  -1.562 -0.7728  0.4254  0.4622
   20CHTO  H147 8187   5.333   2.450  -1.463  0.9491 -0.0158  1.2494
   20CHTO   N13 8188   5.273   2.476  -1.664 -0.1700 -0.3117 -0.3082
   20CHTO  H139 8189   5.181   2.419  -1.668  0.5113 -1.4595  0.0947
   20CHTO  H140 8190   5.246   2.574  -1.627  1.4135  0.5827 -1.5201
   20CHTO   C76 8191   5.371   2.255  -1.566  0.3392 -0.3864 -0.6587
   20CHTO  H148 8192   5.384   2.223  -1.670  0.9021  2.2573 -1.4418
   20CHTO   O49 8193   5.475   2.209  -1.480  0.1843  0.4687  0.3436
   20CHTO   C77 8194   5.608   2.247  -1.490 -0.0963  0.8053  0.4789
   20CHTO  H149 8195   5.655   2.226  -1.586 -0.1244  1.9602  0.2042
   20CHTO   C88 8196   5.686   2.168  -1.386 -0.0432 -0.1605  0.6376
   20CHTO   O58 8197   5.845   2.219  -1.385 -0.4653 -0.0953  0.1516
   20CHTO  H136 8198   5.876   2.225  -1.297  0.2735  0.7824 -0.1597
   20CHTO   O51 8199   5.235   2.202  -1.518  0.8239 -0.1652 -0.6317
   20CHTO   C78 8200   5.238   2.063  -1.462 -0.0755  0.2437 -0.0750
   20CHTO  H150 8201   5.341   2.039  -1.431 -0.4561 -0.8115  0.4214
   20CHTO   C80 8202   5.203   1.967  -1.578 -0.0024 -0.3422 -0.2370
   20CHTO  H152 8203   5.116   2.013  -1.630 -0.7128 -0.5804  0.7149
   20CHTO   O55 8204   5.313   1.976  -1.674  0.1847  0.3284  0.3589
   20CHTO  H134 8205   5.395   1.957  -1.635 -0.0849  0.4205  0.9722
   20CHTO   C84 8206   5.172   1.821  -1.528  0.8186  0.1749 -0.0487
   20CHTO  H156 8207   5.262   1.771  -1.492  0.2002  0.6027  2.1707
   20CHTO   N15 8208   5.103   1.734  -1.629 -0.2960  0.1235  0.1722
   20CHTO  H143 8209   5.012   1.779  -1.663 -0.4508  0.3187  0.8314
   20CHTO  H144 8210   5.165   1.717  -1.714  1.0679 -0.0087  1.1674
   20CHTO   C87 8211   5.089   1.815  -1.395  0.6687 -0.3561  0.0757
   20CHTO  H159 8212   4.982   1.826  -1.415  0.4820  0.2625  1.3464
   20CHTO   O53 8213   5.133   1.919  -1.297 -0.6201 -0.5143 -0.3836
   20CHTO   C82 8214   5.137   2.054  -1.347  0.3433 -0.4663 -0.2758
   20CHTO  H154 8215   5.038   2.088  -1.378  0.0906 -1.8574 -0.9904
   20CHTO   C89 8216   5.172   2.145  -1.233  0.3204 -0.1806  0.0156
   20CHTO   O59 8217   5.167   2.280  -1.257 -0.3194  0.0731  0.2426
   20CHTO  H137 8218   5.248   2.317  -1.228 -0.6019  1.4623 -0.7147
   20CHTO   O45 8219   5.116   1.687  -1.318 -0.0057 -0.0606 -0.1502
   20CHTO   C67 8220   5.018   1.670  -1.217 -0.2604  0.5047  0.4630
   20CHTO  H124 8221   4.989   1.767  -1.176  1.1210  0.6905  1.0309
   20CHTO   C65 8222   4.892   1.601  -1.280 -0.0389  0.5154  0.1761
   20CHTO  H122 8223   4.925   1.537  -1.362 -2.6105 -1.9379  0.9683
   20CHTO   O44 8224   4.808   1.706  -1.331  0.5267 -0.1695 -0.6663
   20CHTO  H102 8225   4.732   1.668  -1.371  0.4911  0.1814 -0.9345
   20CHTO   C63 8226   4.836   1.505  -1.170 -0.1481  0.2603  0.4562
   20CHTO  H120 8227   4.892   1.413  -1.180 -0.5849  0.0598 -0.2051
   20CHTO   N11 8228   4.704   1.456  -1.205 -0.4766  1.1338 -0.2155
   20CHTO  H108 8229   4.631   1.509  -1.148 -0.5213  1.2751 -0.4031
   20CHTO  H109 8230   4.696   1.349  -1.209 -0.5134  1.1325 -0.0949
   20CHTO   C61 8231   4.851   1.553  -1.024 -0.1915 -0.4829  0.8363
   20CHTO  H118 8232   4.817   1.466  -0.964  0.5024 -0.8053  0.7615
   20CHTO   O40 8233   4.993   1.581  -0.990  0.6249 -0.1302  0.2867
   20CHTO   C68 8234   5.094   1.595  -1.096 -0.7345 -0.0004 -0.4947
   20CHTO  H125 8235   5.126   1.497  -1.138  1.7546  0.6906 -0.3015
   20CHTO   C72 8236   5.233   1.661  -1.043  0.0987 -0.1292 -0.1526
   20CHTO   O48 8237   5.211   1.799  -1.014 -0.6141 -0.6329 -0.0419
   20CHTO  H105 8238   5.230   1.808  -0.923  0.4256  1.9605 -0.4639
   20CHTO   O38 8239   4.779   1.673  -0.986 -0.7116  0.0592 -0.3121
   20CHTO   C55 8240   4.745   1.692  -0.847  0.2732  0.1077  0.3374
   20CHTO  H112 8241   4.800   1.635  -0.769  1.5288  1.3139  0.3624
   20CHTO   C56 8242   4.591   1.679  -0.836  0.1237 -0.1976  0.5203
   20CHTO  H113 8243   4.542   1.743  -0.910  1.4639 -0.5586 -0.7158
   20CHTO   O42 8244   4.560   1.546  -0.881  0.0858  0.3173 -0.2939
   20CHTO  H100 8245   4.471   1.529  -0.856  0.2697 -0.1316  0.0671
   20CHTO   C57 8246   4.537   1.703  -0.687 -0.3834  0.3482 -0.2493
   20CHTO  H114 8247   4.572   1.620  -0.625  0.5126  1.1164  0.2756
   20CHTO   N10 8248   4.395   1.703  -0.669  0.4556  0.4460 -0.4866
   20CHTO  H106 8249   4.337   1.630  -0.724  1.7564 -1.3024  0.3819
   20CHTO  H107 8250   4.370   1.708  -0.564  1.2662 -0.9369 -0.2132
   20CHTO   C58 8251   4.591   1.839  -0.633 -0.4314  0.5092 -0.0160
   20CHTO  H115 8252   4.535   1.922  -0.680 -1.7909 -1.2907 -1.6304
   20CHTO   O37 8253   4.731   1.855  -0.668  0.3464  0.1336  0.0822
   20CHTO   C59 8254   4.772   1.837  -0.803  0.2494  0.4072  0.2042
   20CHTO  H116 8255   4.719   1.904  -0.871  0.7656 -1.8615 -2.5731
   20CHTO   C70 8256   4.919   1.866  -0.814 -0.5900  0.2960 -0.2444
   20CHTO   O46 8257   5.003   1.795  -0.725 -0.2827 -0.1335 -0.1387
   20CHTO  H103 8258   5.080   1.846  -0.716  0.4440 -0.9061 -1.8438
   20CHTO   O39 8259   4.575   1.848  -0.463  0.0850  0.5789 -0.3541
   20CHTO   C60 8260   4.657   1.958  -0.412 -0.0392  0.8109  0.1338
   20CHTO  H117 8261   4.728   1.992  -0.488 -0.1487  0.7346 -0.0022
   20CHTO   C62 8262   4.576   2.087  -0.371 -0.4268 -0.2881  0.8395
   20CHTO  H119 8263   4.515   2.118  -0.458 -1.0224 -1.3482  0.8643
   20CHTO   O43 8264   4.478   2.052  -0.268 -0.2419 -0.4523  0.1498
   20CHTO  H101 8265   4.421   2.126  -0.269  0.8858  0.4306  0.4278
   20CHTO   C66 8266   4.674   2.203  -0.328  0.4128  0.4538  0.1443
   20CHTO  H123 8267   4.752   2.209  -0.404 -0.0601 -1.9169 -0.5689
   20CHTO   N12 8268   4.599   2.332  -0.309 -0.2940 -0.1488 -0.6185
   20CHTO  H110 8269   4.515   2.314  -0.244  1.1668 -0.4136  1.2503
   20CHTO  H111 8270   4.565   2.355  -0.409  0.7831  0.7319 -0.7901
   20CHTO   C69 8271   4.749   2.154  -0.205  0.4761 -0.0059  0.5938
   20CHTO  H126 8272   4.688   2.128  -0.116 -1.2315  0.5424 -0.4004
   20CHTO   O41 8273   4.824   2.022  -0.235 -0.2344  0.5927  0.3869
   20CHTO   C64 8274   4.745   1.905  -0.296  0.3191  0.5299 -0.4187
   20CHTO  H121 8275   4.678   1.850  -0.228  0.5330 -2.0127 -2.1539
   20CHTO   C71 8276   4.846   1.797  -0.352 -0.1267  0.1942 -0.3021
   20CHTO   O47 8277   4.924   1.735  -0.250 -0.6800  0.1968  0.2404
   20CHTO  H104 8278   4.878   1.693  -0.179  0.0746 -0.4716  0.3425
   20CHTO   O34 8279   4.848   2.252  -0.162 -0.3735 -0.0419  0.1812
   20CHTO   C49 8280   4.967   2.285  -0.057 -0.1447  0.6744 -0.1184
   20CHTO   H91 8281   4.925   2.320   0.037  0.3144  0.3692  0.2073
   20CHTO   C47 8282   5.052   2.399  -0.118  0.0918  0.0913  0.1201
   20CHTO   H89 8283   5.108   2.444  -0.034 -0.3883  1.0296 -0.0624
   20CHTO   O33 8284   4.961   2.502  -0.157 -0.2842  0.1353 -0.3782
   20CHTO   H70 8285   5.015   2.568  -0.197  2.3993 -1.0840  1.0315
   20CHTO   C45 8286   5.140   2.347  -0.247 -0.4743  0.3448  0.3396
   20CHTO   H87 8287   5.092   2.394  -0.334 -0.6241  2.1461  1.3752
   20CHTO    N8 8288   5.267   2.416  -0.222 -0.0170 -0.1457 -0.4639
   20CHTO   H75 8289   5.336   2.414  -0.305 -0.0552 -0.2588 -0.4937
   20CHTO   H76 8290   5.259   2.520  -0.194  0.0927 -0.1850 -0.2870
   20CHTO   C43 8291   5.138   2.192  -0.270 -0.5773 -0.3627 -0.8498
   20CHTO   H85 8292   5.041   2.177  -0.317 -1.3928  0.2445  0.6076
   20CHTO   O29 8293   5.148   2.124  -0.145  0.2125  0.1780  0.4996
   20CHTO   C50 8294   5.058   2.155  -0.038 -0.0593  0.2103 -0.2070
   20CHTO   H92 8295   4.983   2.074  -0.040 -0.0075  0.0760  1.9788
   20CHTO   C54 8296   5.138   2.152   0.087 -0.5321  0.8671  0.5729
   20CHTO   O36 8297   5.066   2.141   0.208  0.9286 -0.1075 -0.7783
   20CHTO   H72 8298   5.054   2.050   0.228 -0.4914  0.1255 -0.5642
   20CHTO   O27 8299   5.238   2.136  -0.355 -0.6862  0.5151 -0.3057
   20CHTO   C37 8300   5.265   2.045  -0.460 -0.5256  0.4160 -0.0320
   20CHTO   H79 8301   5.208   1.953  -0.443 -1.3755  0.9296 -0.1025
   20CHTO   C38 8302   5.217   2.104  -0.599  0.3330  0.3969 -0.1270
   20CHTO   H80 8303   5.250   2.209  -0.604 -2.5677  1.3610 -0.1218
   20CHTO   O31 8304   5.077   2.114  -0.592  0.8184  0.0265  0.4272
   20CHTO   H68 8305   5.054   2.139  -0.679  2.0241 -0.8987 -0.1586
   20CHTO   C39 8306   5.263   2.017  -0.719  0.7852 -0.1885 -0.5071
   20CHTO   H81 8307   5.223   1.916  -0.724  1.9573 -0.5769 -3.3717
   20CHTO    N7 8308   5.241   2.090  -0.852  0.2012  0.0795 -0.0634
   20CHTO   H73 8309   5.301   2.039  -0.926 -2.2403 -3.3467  0.1900
   20CHTO   H74 8310   5.251   2.197  -0.855 -4.1313  0.5839  0.2478
   20CHTO   C40 8311   5.417   1.992  -0.705 -0.1381  0.1031  0.5813
   20CHTO   H82 8312   5.473   2.084  -0.718  1.4001 -0.7134  1.1582
   20CHTO   O26 8313   5.446   1.932  -0.581  0.5945  0.3294  0.0146
   20CHTO   C41 8314   5.414   2.010  -0.461 -0.4936  0.1579  0.2632
   20CHTO   H83 8315   5.467   2.106  -0.460 -1.8122  0.8934  0.8499
   20CHTO   C52 8316   5.443   1.921  -0.340  0.4524 -0.5176  0.5235
   20CHTO   O35 8317   5.434   1.976  -0.192  0.4248  0.1078 -0.2277
   20CHTO   H71 8318   5.485   2.054  -0.191 -1.4447  1.4039 -1.7286
   20CHTO   O28 8319   5.466   1.895  -0.799 -0.0439 -0.3448  0.1872
   20CHTO   C42 8320   5.604   1.891  -0.848 -0.0080 -0.7574 -0.3840
   20CHTO   H84 8321   5.610   1.789  -0.887  1.0699 -0.6480 -0.5355
   20CHTO   C44 8322   5.729   1.901  -0.746 -0.0518 -0.1473 -0.6385
   20CHTO   H86 8323   5.730   2.003  -0.708 -1.5080  0.5760 -2.4354
   20CHTO   O32 8324   5.713   1.791  -0.651  0.2858  0.1780 -0.4929
   20CHTO   H69 8325   5.739   1.825  -0.567  0.4426 -0.4785 -0.2741
   20CHTO   C48 8326   5.866   1.893  -0.828 -0.0614  0.0066 -0.6041
   20CHTO   H90 8327   5.873   1.796  -0.876  0.1992 -0.2764  0.0059
   20CHTO    N9 8328   5.986   1.914  -0.735  0.0368 -0.3105  0.1783
   20CHTO   H77 8329   5.968   1.965  -0.641 -2.0455 -3.3187  1.4864
   20CHTO   H78 8330   6.030   1.818  -0.713  1.9952  0.4527 -0.2206
   20CHTO   C51 8331   5.867   1.994  -0.946 -0.9108 -0.1500  0.3667
   20CHTO   H93 8332   5.874   2.099  -0.917 -0.0631 -0.2521  0.5739
   20CHTO   O30 8333   5.752   1.968  -1.033  0.2372 -0.4918 -0.1091
   20CHTO   C46 8334   5.617   1.983  -0.974  0.6230 -0.4815  0.3927
   20CHTO   H88 8335   5.608   2.087  -0.944 -0.5070 -0.5201  0.2241
   20CHTO   C53 8336   5.503   1.950  -1.079 -0.2060 -0.1232  0.1162
   20CHTO   O72 8337   5.511   1.823  -1.141  0.2659  0.4358 -0.3927
   20CHTO  H199 8338   5.464   1.759  -1.091 -0.7462  1.5278  0.0913
   20CHTO   O22 8339   5.973   1.969  -1.038 -0.2341  0.2851 -0.3718
   20CHTO   C31 8340   6.095   2.043  -1.065 -0.5696 -0.5524  0.5056
   20CHTO   H59 8341   6.105   2.056  -1.175 -1.9336  0.6831  0.5088
   20CHTO   C29 8342   6.096   2.190  -1.009  0.7955  0.1944  0.6046
   20CHTO   H57 8343   6.082   2.190  -0.900 -1.5076 -3.0460  0.3891
   20CHTO   O21 8344   5.979   2.262  -1.066 -0.3332 -0.5459 -0.4957
   20CHTO   H37 8345   5.964   2.345  -1.025 -2.9972 -0.6784 -1.1491
   20CHTO   C27 8346   6.230   2.268  -1.046 -0.1098 -0.4911 -0.4498
   20CHTO   H55 8347   6.243   2.276  -1.155 -0.4856  3.5832 -0.2695
   20CHTO    N5 8348   6.231   2.406  -0.986 -0.6868 -0.0790  0.6341
   20CHTO   H43 8349   6.312   2.467  -1.025  0.1773 -2.9544 -2.3715
   20CHTO   H44 8350   6.148   2.465  -1.020 -1.3225 -0.9004  0.7417
   20CHTO   C25 8351   6.351   2.181  -0.994 -0.0846 -0.3678  0.0162
   20CHTO   H53 8352   6.340   2.175  -0.885 -1.0578  2.6719  0.1552
   20CHTO   O17 8353   6.344   2.052  -1.054 -0.4629  0.5369  0.2409
   20CHTO   C32 8354   6.230   1.970  -1.015 -0.3828  0.5033  0.0440
   20CHTO   H60 8355   6.227   1.961  -0.907 -0.8404  1.1703  0.0937
   20CHTO   C36 8356   6.248   1.823  -1.069  0.3402 -0.6180  0.0651
   20CHTO   O25 8357   6.358   1.758  -1.002  0.0213  0.3307 -0.1646
   20CHTO   H40 8358   6.377   1.675  -1.042  1.4655  0.8197 -0.5144
   20CHTO   O15 8359   6.477   2.239  -1.021 -0.3344  0.1251 -0.3175
   20CHTO   C19 8360   6.608   2.196  -0.969  0.3576  0.5909  0.6254
   20CHTO   H47 8361   6.666   2.275  -1.018 -0.0104  1.1682  1.1187
   20CHTO   C20 8362   6.610   2.196  -0.815  0.1423  0.0292  0.2452
   20CHTO   H48 8363   6.535   2.128  -0.772 -0.1690  1.2902  1.7013
   20CHTO   O19 8364   6.563   2.325  -0.782 -0.0295  0.5668  0.2602
   20CHTO   H35 8365   6.509   2.314  -0.706 -0.0321  0.8583  0.3004
   20CHTO   C21 8366   6.750   2.155  -0.753 -0.0464  0.0755  0.2768
   20CHTO   H49 8367   6.820   2.236  -0.777 -1.2332  0.5823 -1.5593
   20CHTO    N4 8368   6.741   2.143  -0.604  0.4200 -0.6234 -0.3188
   20CHTO   H41 8369   6.791   2.228  -0.559 -0.4300 -0.6389  0.6712
   20CHTO   H42 8370   6.797   2.055  -0.578 -1.0753 -1.5919 -0.3478
   20CHTO   C22 8371   6.805   2.025  -0.825  0.0404 -0.0214  0.1946
   20CHTO   H50 8372   6.736   1.947  -0.794  0.1754 -0.6793 -1.1280
   20CHTO   O14 8373   6.798   2.042  -0.969  0.1293  0.5126 -0.0296
   20CHTO   C23 8374   6.667   2.058  -1.027 -0.8693  0.1498 -0.0985
   20CHTO   H51 8375   6.602   1.971  -1.009  0.1836 -0.6117  0.0741
   20CHTO   C34 8376   6.685   2.069  -1.182 -0.3787  0.5266  0.2173
   20CHTO   O23 8377   6.704   1.947  -1.246 -0.2400  0.7273  0.0155
   20CHTO   H38 8378   6.623   1.920  -1.285  1.2815 -2.4009 -1.1242
   20CHTO   O16 8379   6.939   1.998  -0.787 -0.3912  0.3893 -0.1620
   20CHTO   C24 8380   6.971   1.839  -0.742 -0.1659 -0.2435  0.5865
   20CHTO   H52 8381   6.879   1.781  -0.747 -1.2425  1.5626 -1.7018
   20CHTO   C26 8382   7.008   1.829  -0.593  0.1704  0.2852 -0.5501
   20CHTO   H54 8383   7.095   1.895  -0.569  0.8660 -0.3268 -1.3422
   20CHTO   O20 8384   6.895   1.871  -0.510 -0.0895  0.0163  0.1815
   20CHTO   H36 8385   6.812   1.846  -0.546 -1.1937  0.4859  2.3046
   20CHTO   C30 8386   7.040   1.679  -0.555  0.8177  0.2139  0.0549
   20CHTO   H58 8387   6.957   1.651  -0.489 -0.0392  1.0142 -0.6618
   20CHTO    N6 8388   7.164   1.662  -0.473 -0.4128  0.8313  0.4503
   20CHTO   H45 8389   7.253   1.678  -0.532  0.4943  2.7794  2.2666
   20CHTO   H46 8390   7.159   1.741  -0.399 -3.8991  0.3502  0.8166
   20CHTO   C33 8391   7.041   1.583  -0.680  0.6070 -0.0919  0.0941
   20CHTO   H61 8392   7.088   1.486  -0.658 -2.2477 -1.8152 -1.0633
   20CHTO   O18 8393   7.111   1.637  -0.789  0.0655  0.2148 -0.0626
   20CHTO   C28 8394   7.073   1.768  -0.831  0.1713  0.4631  0.2081
   20CHTO   H56 8395   7.167   1.822  -0.828 -0.4352  1.4838  1.2747
   20CHTO   C35 8396   7.021   1.748  -0.978 -0.5019 -0.0051 -0.2841
   20CHTO   O24 8397   6.906   1.659  -0.982  0.1168  0.1594 -0.8698
   20CHTO   H39 8398   6.897   1.623  -0.896 -3.1913  0.4490 -1.0370
   20CHTO    O9 8399   6.904   1.547  -0.720 -0.4732 -0.5501  0.0846
   20CHTO   C13 8400   6.842   1.447  -0.617  1.0357  0.6618  0.3047
   20CHTO   H26 8401   6.918   1.429  -0.538  0.9421  0.1268  0.2722
   20CHTO   C11 8402   6.810   1.315  -0.706  0.3647  0.0020  0.6597
   20CHTO   H24 8403   6.903   1.270  -0.745 -0.7290 -0.8369 -1.0193
   20CHTO    O8 8404   6.726   1.352  -0.817 -0.3072 -0.5501 -0.0219
   20CHTO    H3 8405   6.657   1.407  -0.785  0.7907  0.6093  0.3651
   20CHTO    C9 8406   6.728   1.208  -0.619  0.0938  0.7654 -0.4301
   20CHTO   H22 8407   6.793   1.177  -0.537 -0.5808  1.8281  0.5124
   20CHTO    N2 8408   6.699   1.083  -0.696  0.4470  0.2284  0.2951
   20CHTO   H10 8409   6.629   1.113  -0.773  2.1258  1.7472 -0.6810
   20CHTO   H11 8410   6.794   1.054  -0.739  0.2603 -1.0408  0.7264
   20CHTO    C7 8411   6.606   1.283  -0.553  0.2499 -0.5910 -0.4607
   20CHTO   H20 8412   6.572   1.215  -0.472  0.3601  1.1980  1.1322
   20CHTO    O4 8413   6.638   1.405  -0.487  0.2761  0.1948  0.3326
   20CHTO   C14 8414   6.720   1.503  -0.555  0.2125  0.4463 -0.3038
   20CHTO   H27 8415   6.756   1.573  -0.476  0.7828  1.8806 -1.8002
   20CHTO   C18 8416   6.635   1.590  -0.650 -0.5339  0.2461  0.2021
   20CHTO   O13 8417   6.614   1.714  -0.586  0.4448 -0.3784 -0.4874
   20CHTO    H7 8418   6.526   1.740  -0.571  0.5535 -1.1565  1.5838
   20CHTO    O2 8419   6.488   1.296  -0.654  0.4001 -0.1308 -0.4903
   20CHTO    C1 8420   6.358   1.276  -0.591 -0.1094  0.4480 -0.5657
   20CHTO   H14 8421   6.375   1.293  -0.483 -3.9000  1.2105 -0.0145
   20CHTO    C2 8422   6.290   1.133  -0.606 -0.4499  0.6385 -0.0808
   20CHTO   H15 8423   6.261   1.114  -0.710 -1.0251  1.3410 -0.0561
   20CHTO    O6 8424   6.391   1.036  -0.569 -0.0430 -0.0915 -0.1854
   20CHTO    H1 8425   6.447   1.006  -0.638  0.7120  1.0319 -0.0819
   20CHTO    C3 8426   6.162   1.121  -0.514  0.5681  0.1905  0.0697
   20CHTO   H16 8427   6.196   1.156  -0.415  1.3052  0.3204 -0.2243
   20CHTO    N1 8428   6.102   0.987  -0.497 -0.2260  0.2563  0.9306
   20CHTO    H8 8429   5.998   0.998  -0.522  0.1453  0.6108 -0.4960
   20CHTO    H9 8430   6.106   0.958  -0.393 -0.5807 -1.6285  0.4299
   20CHTO    C4 8431   6.060   1.235  -0.559 -0.1878  0.0233  0.3499
   20CHTO   H17 8432   6.021   1.208  -0.657 -1.0233 -3.2099  1.5169
   20CHTO    O1 8433   6.123   1.367  -0.561 -0.2994 -0.2910 -0.0033
   20CHTO    C5 8434   6.245   1.373  -0.637  0.0361  0.1320 -0.2689
   20CHTO   H18 8435   6.230   1.351  -0.742 -1.9018 -0.9016  0.2000
   20CHTO   C16 8436   6.281   1.517  -0.625  0.5885 -0.8217 -0.1699
   20CHTO   O11 8437   6.201   1.600  -0.706  0.1181  0.3626  0.2742
   20CHTO    H5 8438   6.235   1.619  -0.791 -0.9205  2.5585  0.3343
   20CHTO    O3 8439   5.945   1.249  -0.462 -0.4025 -0.2951  0.2753
   20CHTO    C6 8440   5.823   1.318  -0.518  0.1892 -0.3683 -0.2654
   20CHTO   H19 8441   5.841   1.347  -0.621 -0.0051 -1.3735 -0.5929
   20CHTO    C8 8442   5.700   1.220  -0.517 -0.3590  0.3789  0.3850
   20CHTO   H21 8443   5.688   1.182  -0.415 -0.1176  0.1052  0.3147
   20CHTO    O7 8444   5.748   1.114  -0.605  0.0116 -0.2705  0.1058
   20CHTO    H2 8445   5.707   1.034  -0.578  0.6491 -0.3688  0.7897
   20CHTO   C12 8446   5.567   1.286  -0.570  0.6886  0.1510 -0.1272
   20CHTO   H25 8447   5.583   1.290  -0.680  2.9765  0.1252  0.1831
   20CHTO    N3 8448   5.447   1.207  -0.543 -0.4268  0.6883 -0.0704
   20CHTO   H12 8449   5.431   1.205  -0.436  0.7188  1.4923  0.1230
   20CHTO   H13 8450   5.464   1.105  -0.573  0.4882  0.4390  1.2705
   20CHTO   C15 8451   5.546   1.431  -0.514  0.0712  0.4697  0.6113
   20CHTO   H28 8452   5.513   1.437  -0.410 -2.8566 -0.5850 -0.2215
   20CHTO   O10 8453   5.450   1.535  -0.602 -0.0305  0.1271 -0.0392
   20CHTO    H4 8454   5.368   1.531  -0.558 -0.1834  0.3424 -0.3070
   20CHTO    O5 8455   5.673   1.504  -0.516 -0.2635  0.1004  0.1639
   20CHTO   C10 8456   5.779   1.448  -0.442  0.1116 -0.0530 -0.7405
   20CHTO   H23 8457   5.733   1.426  -0.345 -0.6564  0.6921 -0.9253
   20CHTO   C17 8458   5.895   1.547  -0.422 -0.1145 -0.1901 -0.8043
   20CHTO   O12 8459   5.879   1.652  -0.326  0.6964  0.3670  0.0370
   20CHTO    H6 8460   5.825   1.724  -0.354 -0.7919 -0.9416 -0.5804
   21GLOH   H03 8461   7.931   2.979   2.008  0.3821  0.2898  2.0408
   21GLOH    O1 8462   7.989   3.056   1.989  0.3582 -0.2972 -0.5052
   21GLOH    C1 8463   8.042   3.045   1.858  0.2137 -0.5316 -0.7612
   21GLOH   H02 8464   7.958   3.047   1.787 -0.0070  0.2236 -0.4812
   21GLOH   H08 8465   8.084   2.947   1.838  2.7391  0.6047 -1.2741
   21GLOH    C2 8466   8.143   3.153   1.824 -0.0771 -0.6759 -0.0004
   21GLOH   H04 8467   8.207   3.165   1.912  0.9120 -1.5791 -0.5890
   21GLOH    O2 8468   8.213   3.111   1.715  0.7456  0.3553  0.8114
   21GLOH   H05 8469   8.298   3.158   1.711  0.3928  0.9220 -0.1754
   21GLOH    C3 8470   8.081   3.294   1.804 -0.1217  0.7963 -0.0042
   21GLOH   H06 8471   8.015   3.314   1.889  0.4064  2.3113  0.0722
   21GLOH   H07 8472   8.015   3.296   1.718 -0.4143 -0.0720  0.2007
   21GLOH    O3 8473   8.175   3.405   1.798 -0.2461 -0.5145 -0.3113
   21GLOH   H01 8474   8.256   3.366   1.759  1.0688  1.0810  0.7498
   22GLOH   H03 8475   4.298   5.309   1.999 -0.6757  0.4475  0.8548
   22GLOH    O1 8476   4.363   5.380   1.981 -0.3830  0.0243  0.2068
   22GLOH    C1 8477   4.405   5.364   1.846 -0.1083  0.7044 -0.6329
   22GLOH   H02 8478   4.480   5.289   1.823  0.6289  1.3704 -0.4432
   22GLOH   H08 8479   4.449   5.460   1.817  1.2052  0.1117 -0.6202
   22GLOH    C2 8480   4.288   5.324   1.751 -0.7523  0.2021 -0.4097
   22GLOH   H04 8481   4.209   5.400   1.753 -1.0093  0.0828 -3.3246
   22GLOH    O2 8482   4.327   5.311   1.614  0.5040  0.2300 -0.1299
   22GLOH   H05 8483   4.333   5.218   1.586  1.4449 -0.4884  2.3131
   22GLOH    C3 8484   4.220   5.202   1.810 -0.2150 -0.1474 -0.2463
   22GLOH   H06 8485   4.293   5.121   1.815  1.3937  1.1689 -1.9477
   22GLOH   H07 8486   4.144   5.175   1.737  0.0584  2.5935 -1.6050
   22GLOH    O3 8487   4.162   5.234   1.940  0.2260  0.0012 -0.3260
   22GLOH   H01 8488   4.068   5.212   1.925  0.5629 -1.2654 -0.6642
   23GLOH   H03 8489   8.378   8.610   4.455  0.7546  0.9874 -0.0931
   23GLOH    O1 8490   8.354   8.546   4.385  0.1997  0.5076  0.5245
   23GLOH    C1 8491   8.222   8.495   4.381 -0.4481  0.3704 -0.3678
   23GLOH   H02 8492   8.194   8.439   4.292  0.1571 -1.0713  0.3458
   23GLOH   H08 8493   8.164   8.586   4.397  0.8467  0.9507  1.2492
   23GLOH    C2 8494   8.189   8.415   4.505 -1.0460 -0.3492 -0.7065
   23GLOH   H04 8495   8.258   8.331   4.518  0.2475  0.9918  1.2553
   23GLOH    O2 8496   8.192   8.492   4.632 -0.4142 -0.1934  0.1000
   23GLOH   H05 8497   8.130   8.566   4.641 -0.6899 -0.4868  0.6868
   23GLOH    C3 8498   8.059   8.344   4.502  1.2578  0.6662  0.3552
   23GLOH   H06 8499   7.975   8.412   4.516  2.6457  2.5648 -0.3264
   23GLOH   H07 8500   8.067   8.283   4.592 -0.1938  0.4010  0.3262
   23GLOH    O3 8501   8.034   8.257   4.388 -0.7004  0.0002 -0.1390
   23GLOH   H01 8502   7.984   8.304   4.318  0.8599  1.1734 -0.4811
   24GLOH   H03 8503   7.500   2.139   4.682  1.5245 -1.0569  0.1258
   24GLOH    O1 8504   7.513   2.182   4.595 -0.4615 -0.7681 -0.0670
   24GLOH    C1 8505   7.428   2.300   4.591 -0.1454  0.1813  0.8521
   24GLOH   H02 8506   7.437   2.356   4.684  0.1373  0.4958  0.6369
   24GLOH   H08 8507   7.325   2.266   4.588 -0.5057  1.0598  2.7855
   24GLOH    C2 8508   7.459   2.389   4.466  0.7207  0.1475  0.8290
   24GLOH   H04 8509   7.441   2.329   4.376  1.9829  1.8018 -0.5517
   24GLOH    O2 8510   7.369   2.503   4.469 -0.2699  0.5247  0.1331
   24GLOH   H05 8511   7.384   2.553   4.387  0.8821 -0.1816 -0.1023
   24GLOH    C3 8512   7.607   2.423   4.473  0.4673 -0.0395 -0.0329
   24GLOH   H06 8513   7.607   2.492   4.558 -1.2478 -0.0558 -0.0054
   24GLOH   H07 8514   7.618   2.482   4.381  0.5698 -0.0040  0.0011
   24GLOH    O3 8515   7.694   2.307   4.478 -0.4359  0.4317 -0.2452
   24GLOH   H01 8516   7.639   2.248   4.533  0.7006 -1.5135 -1.1214
   25GLOH   H03 8517   5.691   8.271   3.041  1.0638  0.0648  0.8947
   25GLOH    O1 8518   5.710   8.177   3.058 -0.0522 -0.3323 -0.0063
   25GLOH    C1 8519   5.838   8.178   3.123  0.0651 -0.0624 -0.3308
   25GLOH   H02 8520   5.892   8.265   3.085 -1.4210  0.5659 -1.0570
   25GLOH   H08 8521   5.899   8.091   3.099 -1.6600 -1.3307 -0.1631
   25GLOH    C2 8522   5.829   8.197   3.274 -0.4201  0.0340 -0.7015
   25GLOH   H04 8523   5.764   8.115   3.308 -1.2335  0.4651 -1.1960
   25GLOH    O2 8524   5.956   8.185   3.339 -0.6984 -0.4494 -0.3480
   25GLOH   H05 8525   6.004   8.102   3.323  1.9179  0.7993  0.6668
   25GLOH    C3 8526   5.751   8.318   3.318  0.7668  0.1302 -0.6641
   25GLOH   H06 8527   5.768   8.411   3.263 -2.6437  1.0838 -0.2660
   25GLOH   H07 8528   5.785   8.351   3.416 -0.5255  0.3374 -0.2762
   25GLOH    O3 8529   5.608   8.290   3.322  0.0757  0.2953 -0.4031
   25GLOH   H01 8530   5.592   8.197   3.300  1.9526 -0.0192 -0.4280
   26GLOH   H03 8531   5.681   9.665   3.307  0.7603 -0.8291  1.2254
   26GLOH    O1 8532   5.624   9.585   3.309  0.3553 -0.5846 -0.0663
   26GLOH    C1 8533   5.493   9.617   3.360  0.1296  0.9223  0.5739
   26GLOH   H02 8534   5.416   9.543   3.336  0.5343  0.7693 -0.2761
   26GLOH   H08 8535   5.469   9.711   3.310 -0.3723 -0.5226 -2.0188
   26GLOH    C2 8536   5.491   9.647   3.509  0.1626  0.0773  0.6285
   26GLOH   H04 8537   5.567   9.725   3.522  0.3497 -0.1414  0.8676
   26GLOH    O2 8538   5.360   9.689   3.547 -0.3462  0.4443 -0.2912
   26GLOH   H05 8539   5.346   9.783   3.525  0.0419  0.8668  1.1606
   26GLOH    C3 8540   5.529   9.511   3.571 -0.3533  0.3254 -0.3960
   26GLOH   H06 8541   5.446   9.450   3.535 -0.7528  0.4032  0.3838
   26GLOH   H07 8542   5.514   9.512   3.679  0.2093 -3.6131 -0.2199
   26GLOH    O3 8543   5.664   9.469   3.539 -0.5575 -0.0291  0.2140
   26GLOH   H01 8544   5.673   9.466   3.442 -2.2787  0.8674  0.0143
   27GLOH   H03 8545   0.289   6.250   3.272  0.7471 -0.8543  2.1224
   27GLOH    O1 8546   0.237   6.174   3.303 -0.3749 -0.8950  0.2083
   27GLOH    C1 8547   0.095   6.200   3.275  0.3372  0.0529  0.5038
   27GLOH   H02 8548   0.083   6.210   3.167  1.1294 -1.3899  0.2754
   27GLOH   H08 8549   0.074   6.291   3.330 -1.5058  0.3134 -0.5682
   27GLOH    C2 8550   0.007   6.082   3.334  0.3629  0.2854 -0.1261
   27GLOH   H04 8551   0.030   6.073   3.441  0.8355  0.8414 -0.1749
   27GLOH    O2 8552  -0.137   6.108   3.314 -0.1044  0.0307 -0.3418
   27GLOH   H05 8553  -0.155   6.113   3.218 -0.7221  1.2557 -0.1715
   27GLOH    C3 8554   0.037   5.954   3.264  0.2710  0.2880  0.3286
   27GLOH   H06 8555   0.017   5.967   3.157 -0.2320  2.2335  0.6297
   27GLOH   H07 8556  -0.026   5.875   3.302  0.1624  0.8050  1.2427
   27GLOH    O3 8557   0.176   5.926   3.281 -0.5830  0.6613  0.1971
   27GLOH   H01 8558   0.223   6.011   3.291 -0.3722  0.7143 -1.1142
   28GLOH   H03 8559   2.705   2.442   1.230 -0.9772  0.2501  1.5236
   28GLOH    O1 8560   2.773   2.466   1.295  0.2639  0.3075  0.2190
   28GLOH    C1 8561   2.819   2.354   1.367  0.1028  0.7448  0.4467
   28GLOH   H02 8562   2.759   2.264   1.352 -1.5674  1.8028  0.5904
   28GLOH   H08 8563   2.808   2.373   1.474  0.3974 -0.5433  0.7204
   28GLOH    C2 8564   2.959   2.315   1.333 -0.5138 -0.8402 -0.3379
   28GLOH   H04 8565   3.005   2.413   1.314 -1.9162 -0.1835 -0.4421
   28GLOH    O2 8566   3.026   2.254   1.447  0.2206 -0.1047 -0.2313
   28GLOH   H05 8567   3.123   2.260   1.439  0.1154 -0.6644 -2.0581
   28GLOH    C3 8568   2.966   2.227   1.212  0.2512  0.1382 -0.1521
   28GLOH   H06 8569   2.887   2.153   1.221 -2.7920  3.4478  2.0232
   28GLOH   H07 8570   3.061   2.174   1.206 -0.6559 -1.4588 -0.8050
   28GLOH    O3 8571   2.953   2.308   1.094  0.4046 -0.1588 -0.1752
   28GLOH   H01 8572   3.031   2.365   1.087  0.3819 -0.0618  0.3289
   29GLOH   H03 8573   3.658   2.827   4.412 -0.6025 -1.5578 -0.3900
   29GLOH    O1 8574   3.564   2.824   4.439 -0.5074 -0.0468  0.1804
   29GLOH    C1 8575   3.484   2.906   4.353 -0.6368 -0.1719 -0.2595
   29GLOH   H02 8576   3.377   2.888   4.362 -0.8089  1.1040  0.4192
   29GLOH   H08 8577   3.512   2.880   4.251  0.8588 -1.3742  0.4409
   29GLOH    C2 8578   3.500   3.056   4.383 -0.4124  0.1613  0.2490
   29GLOH   H04 8579   3.453   3.105   4.296  1.8616  2.1384  0.0508
   29GLOH    O2 8580   3.419   3.091   4.494 -0.0539  0.4420 -0.6954
   29GLOH   H05 8581   3.355   3.163   4.478  1.8788  2.0504 -1.3551
   29GLOH    C3 8582   3.645   3.104   4.395  0.0118  0.1717  0.0838
   29GLOH   H06 8583   3.711   3.041   4.335  1.6053  1.6417  0.2331
   29GLOH   H07 8584   3.679   3.107   4.499  1.6538  1.1830 -0.4703
   29GLOH    O3 8585   3.648   3.239   4.351  0.4796 -0.7187 -0.2742
   29GLOH   H01 8586   3.598   3.298   4.410  2.7557  1.3392 -0.2980
   30GLOH   H03 8587   9.424   5.036   3.704 -0.6224 -1.4396 -1.7534
   30GLOH    O1 8588   9.494   5.077   3.650 -0.1922  0.1178 -0.0780
   30GLOH    C1 8589   9.558   4.967   3.591 -0.7536  1.1888 -0.3895
   30GLOH   H02 8590   9.510   4.952   3.494 -0.8709  1.0990 -0.3186
   30GLOH   H08 8591   9.534   4.881   3.655  0.2948 -0.8142 -2.6346
   30GLOH    C2 8592   9.707   4.969   3.575 -0.3233 -0.0159 -0.6336
   30GLOH   H04 8593   9.727   4.870   3.531 -1.9292 -0.1267 -1.1604
   30GLOH    O2 8594   9.754   5.076   3.488  0.2142  0.4125  0.1055
   30GLOH   H05 8595   9.715   5.161   3.512 -0.3505  0.3079 -0.4490
   30GLOH    C3 8596   9.785   4.989   3.709  0.6062 -0.9096 -0.1723
   30GLOH   H06 8597   9.761   5.085   3.753 -0.2623 -1.4644  0.5884
   30GLOH   H07 8598   9.890   4.985   3.679  0.9970  2.2441  0.5965
   30GLOH    O3 8599   9.747   4.903   3.818  0.3567  0.9617 -0.5647
   30GLOH   H01 8600   9.746   4.812   3.783 -0.1473  1.9749 -3.2890
   31GLOH   H03 8601   4.255   4.166   4.657  1.0214 -0.2653  0.7971
   31GLOH    O1 8602   4.226   4.238   4.717  0.1012  0.1173 -0.0770
   31GLOH    C1 8603   4.344   4.309   4.761  0.4339 -0.2065  0.3566
   31GLOH   H02 8604   4.306   4.399   4.809  0.4495  0.2126 -0.4246
   31GLOH   H08 8605   4.405   4.362   4.688 -0.9478  2.7403  1.2552
   31GLOH    C2 8606   4.429   4.223   4.856 -0.1133 -0.0587 -0.4458
   31GLOH   H04 8607   4.469   4.139   4.797 -2.2957 -1.8758  0.5803
   31GLOH    O2 8608   4.546   4.292   4.909  0.0505 -0.2761  0.1077
   31GLOH   H05 8609   4.545   4.279   5.005  0.7397 -1.0149  0.0199
   31GLOH    C3 8610   4.343   4.162   4.976  0.3182 -0.7573  0.3007
   31GLOH   H06 8611   4.284   4.083   4.928 -0.3564  1.1203 -2.0797
   31GLOH   H07 8612   4.281   4.241   5.019 -1.1478 -1.4959 -0.3981
   31GLOH    O3 8613   4.422   4.111   5.088  0.4907  0.0111  0.1964
   31GLOH   H01 8614   4.481   4.177   5.129  0.9336 -0.8224  0.9105
   32GLOH   H03 8615   8.455   9.897   0.197  0.2703 -0.5268 -0.7143
   32GLOH    O1 8616   8.378   9.848   0.161 -0.0646 -0.6272  0.1286
   32GLOH    C1 8617   8.425   9.725   0.103  0.4976  0.2589  0.0041
   32GLOH   H02 8618   8.455   9.742  -0.000 -1.0682  1.3685 -0.2856
   32GLOH   H08 8619   8.344   9.653   0.105  0.3832  0.4105  2.9373
   32GLOH    C2 8620   8.543   9.657   0.177  0.0458  0.1797  0.2990
   32GLOH   H04 8621   8.640   9.709   0.170  0.8339 -1.3441 -0.4198
   32GLOH    O2 8622   8.523   9.644   0.318  0.3366 -0.3623 -0.6354
   32GLOH   H05 8623   8.436   9.605   0.335 -0.1781  1.5589  1.2051
   32GLOH    C3 8624   8.571   9.521   0.112  0.0643 -0.3602  0.1996
   32GLOH   H06 8625   8.476   9.474   0.087 -0.0682  0.4162 -0.7814
   32GLOH   H07 8626   8.626   9.453   0.178  3.6983 -0.7514 -3.0486
   32GLOH    O3 8627   8.632   9.535  -0.015 -0.1364 -0.7741  0.1020
   32GLOH   H01 8628   8.661   9.446  -0.044 -1.4636 -0.2707 -2.9838
   33GLOH   H03 8629   9.529   9.813   4.454  0.0418  0.0497 -2.6882
   33GLOH    O1 8630   9.456   9.877   4.446 -0.0787  0.3396  0.0823
   33GLOH    C1 8631   9.509   9.938   4.324  0.2836  0.5454 -0.3735
   33GLOH   H02 8632   9.536   9.855   4.258  1.0570 -0.6328  1.3925
   33GLOH   H08 8633   9.603   9.989   4.345  0.9842 -0.4603 -0.9829
   33GLOH    C2 8634   9.416  10.043   4.264  0.6896 -0.2214  0.6242
   33GLOH   H04 8635   9.468  10.106   4.191 -2.5377  1.7814 -0.0754
   33GLOH    O2 8636   9.305   9.979   4.198 -0.1804  0.6396 -0.4533
   33GLOH   H05 8637   9.353   9.933   4.127 -1.4212 -1.4721  0.0309
   33GLOH    C3 8638   9.346  10.139   4.362 -0.4396  0.8294  0.1921
   33GLOH   H06 8639   9.289  10.083   4.436 -2.4445  0.4585 -1.5776
   33GLOH   H07 8640   9.273  10.199   4.307 -0.8077 -0.5042 -0.8070
   33GLOH    O3 8641   9.437  10.230   4.432  0.2991  0.2255 -0.0925
   33GLOH   H01 8642   9.445  10.202   4.525  3.3129  3.4182  0.7124
   34GLOH   H03 8643   6.661   9.852   4.252 -0.1002 -0.1947  1.1583
   34GLOH    O1 8644   6.737   9.890   4.301  0.1853  0.2078  0.4264
   34GLOH    C1 8645   6.719   9.852   4.439  0.3729  0.4031 -0.2710
   34GLOH   H02 8646   6.809   9.814   4.488  0.0958  0.8537  0.6155
   34GLOH   H08 8647   6.639   9.778   4.445  0.1042  0.4086 -3.2504
   34GLOH    C2 8648   6.674   9.980   4.524  0.0571 -0.2566  0.5098
   34GLOH   H04 8649   6.646   9.950   4.626 -0.5327 -0.0591  0.4026
   34GLOH    O2 8650   6.770  10.087   4.532 -0.3120  0.1261 -0.2653
   34GLOH   H05 8651   6.762  10.138   4.450 -2.2237 -0.9644 -0.8098
   34GLOH    C3 8652   6.548  10.040   4.465  0.3595 -0.1882  0.5459
   34GLOH   H06 8653   6.564  10.056   4.358  0.6916  1.9877  0.9064
   34GLOH   H07 8654   6.525  10.135   4.512 -0.1991  0.2749 -0.6438
   34GLOH    O3 8655   6.432   9.951   4.481  0.7736  0.3109 -0.0004
   34GLOH   H01 8656   6.358   9.998   4.439  0.5662 -1.7079 -1.9259
   35GLOH   H03 8657   4.769   2.902   2.582  0.5882  0.3928 -0.1182
   35GLOH    O1 8658   4.783   2.982   2.528  0.2372  0.5227 -0.0177
   35GLOH    C1 8659   4.674   3.075   2.547 -0.0407 -0.5845 -0.3526
   35GLOH   H02 8660   4.668   3.099   2.653  0.8313 -1.2184 -0.1611
   35GLOH   H08 8661   4.577   3.034   2.519  0.8007 -1.3664 -2.2062
   35GLOH    C2 8662   4.726   3.211   2.488  0.3418 -0.3025 -0.2877
   35GLOH   H04 8663   4.784   3.184   2.399  1.1137  0.0889  0.0955
   35GLOH    O2 8664   4.616   3.292   2.442 -0.3024  0.5611  0.2467
   35GLOH   H05 8665   4.552   3.304   2.514  0.2204 -0.4730  0.8917
   35GLOH    C3 8666   4.807   3.292   2.596 -0.1753 -0.0397  0.0716
   35GLOH   H06 8667   4.888   3.229   2.633 -0.3563 -0.8229 -0.8346
   35GLOH   H07 8668   4.742   3.310   2.681 -0.6395 -0.6729 -0.1474
   35GLOH    O3 8669   4.874   3.414   2.545 -0.0329 -0.0383  0.3073
   35GLOH   H01 8670   4.821   3.492   2.570  2.7141  1.8525  0.4330
   36GLOH   H03 8671   4.309   7.613   0.074 -1.1658  0.7190  1.4223
   36GLOH    O1 8672   4.375   7.558   0.120 -0.5605  0.1959 -0.0513
   36GLOH    C1 8673   4.510   7.587   0.086 -0.5501 -0.1421 -0.0210
   36GLOH   H02 8674   4.575   7.520   0.142  0.7671  1.4390  0.3895
   36GLOH   H08 8675   4.541   7.689   0.108 -1.3534  0.7410 -2.7745
   36GLOH    C2 8676   4.546   7.567  -0.064  0.2492  0.1097  0.5277
   36GLOH   H04 8677   4.477   7.632  -0.120 -0.2333 -1.4157 -0.7047
   36GLOH    O2 8678   4.678   7.622  -0.090 -0.0387 -0.4345  0.2962
   36GLOH   H05 8679   4.682   7.718  -0.076 -0.4161 -0.0032 -2.2654
   36GLOH    C3 8680   4.529   7.417  -0.098  0.1925  0.6937 -0.2914
   36GLOH   H06 8681   4.608   7.366  -0.043  0.4218  2.0029  0.6101
   36GLOH   H07 8682   4.544   7.396  -0.204  0.0275  1.9699 -0.5739
   36GLOH    O3 8683   4.390   7.364  -0.072  0.6772 -0.0347 -0.7880
   36GLOH   H01 8684   4.358   7.400   0.012  0.3322  0.2563 -1.0385
   37GLOH   H03 8685   4.420   2.182   2.658  0.3863 -1.0594  1.5546
   37GLOH    O1 8686   4.465   2.256   2.702  0.1615  0.0626 -0.0600
   37GLOH    C1 8687   4.549   2.325   2.605  0.4634  0.1404  0.1377
   37GLOH   H02 8688   4.514   2.426   2.586 -2.0094 -0.8140 -0.5370
   37GLOH   H08 8689   4.553   2.274   2.509  0.0222  0.1699  0.1027
   37GLOH    C2 8690   4.693   2.333   2.653 -1.0493 -0.8036 -0.0439
   37GLOH   H04 8691   4.749   2.367   2.565  1.8991 -1.1386  1.6413
   37GLOH    O2 8692   4.705   2.429   2.762 -0.4558  0.0331  0.2639
   37GLOH   H05 8693   4.690   2.395   2.852 -1.8720 -0.8829 -0.2879
   37GLOH    C3 8694   4.750   2.193   2.695 -0.1190  0.2236 -0.2410
   37GLOH   H06 8695   4.723   2.163   2.796  1.0903  0.5284  0.1862
   37GLOH   H07 8696   4.858   2.207   2.700  0.1932 -2.1818  0.2301
   37GLOH    O3 8697   4.740   2.088   2.593 -0.1177 -0.3551  0.0878
   37GLOH   H01 8698   4.812   2.025   2.610 -1.2755 -2.1162 -1.4068
   38GLOH   H03 8699   8.366   2.679   0.256 -2.1582 -0.2794  0.1933
   38GLOH    O1 8700   8.369   2.635   0.170 -0.1886  0.2094 -0.0124
   38GLOH    C1 8701   8.263   2.670   0.083 -0.3164  0.3020  0.0077
   38GLOH   H02 8702   8.171   2.646   0.135 -0.5020  0.0981 -0.4114
   38GLOH   H08 8703   8.267   2.610  -0.009  4.5905  0.8265 -0.2689
   38GLOH    C2 8704   8.275   2.822   0.055  0.2761  0.2197  0.0966
   38GLOH   H04 8705   8.180   2.852   0.007  0.5942  1.1575  0.0461
   38GLOH    O2 8706   8.287   2.900   0.178  0.3080  0.4893 -0.4861
   38GLOH   H05 8707   8.196   2.905   0.212  0.5478 -1.6811  0.5617
   38GLOH    C3 8708   8.389   2.843  -0.043 -0.3230 -0.0015  0.1940
   38GLOH   H06 8709   8.478   2.805   0.007  0.5437  0.7272 -0.7756
   38GLOH   H07 8710   8.404   2.948  -0.067 -1.1340  0.4022  1.3841
   38GLOH    O3 8711   8.367   2.780  -0.168 -0.1850 -0.5734  0.1909
   38GLOH   H01 8712   8.288   2.820  -0.207 -1.0669 -1.1862  1.3448
   39GLOH   H03 8713   8.712   3.820   1.038  0.4828 -0.4408 -1.5648
   39GLOH    O1 8714   8.650   3.868   0.980 -0.3248  0.5333  0.0828
   39GLOH    C1 8715   8.527   3.796   0.984  0.0976  0.1322 -0.4516
   39GLOH   H02 8716   8.484   3.810   1.083 -0.9147  0.8689 -0.9961
   39GLOH   H08 8717   8.558   3.692   0.969  1.7697  0.6071 -0.3772
   39GLOH    C2 8718   8.428   3.844   0.874  0.5357 -0.0096 -0.4477
   39GLOH   H04 8719   8.453   3.809   0.773  4.2190  0.3812  0.2388
   39GLOH    O2 8720   8.296   3.815   0.921  0.0245  0.2076 -0.2343
   39GLOH   H05 8721   8.273   3.861   1.003 -0.7093 -0.4488 -0.0690
   39GLOH    C3 8722   8.432   3.999   0.855 -0.0488  0.1799  0.4766
   39GLOH   H06 8723   8.365   4.031   0.774 -0.5376 -0.8893  0.4549
   39GLOH   H07 8724   8.529   4.035   0.821 -0.1608 -1.6572 -1.9870
   39GLOH    O3 8725   8.404   4.077   0.971 -0.2349 -0.1543 -0.3152
   39GLOH   H01 8726   8.322   4.048   1.015 -1.0271  1.2527 -0.8280
   40GLOH   H03 8727   4.852   8.653   1.229 -1.8678 -0.5246 -0.2903
   40GLOH    O1 8728   4.865   8.610   1.316 -0.4981  0.1405 -0.1499
   40GLOH    C1 8729   4.959   8.502   1.301  0.0294  0.4425  0.7888
   40GLOH   H02 8730   5.055   8.514   1.351  1.4476 -1.6176 -1.3255
   40GLOH   H08 8731   4.984   8.482   1.197  0.1057  0.2701  0.8406
   40GLOH    C2 8732   4.897   8.376   1.364 -0.1611 -0.6289  0.9304
   40GLOH   H04 8733   4.810   8.338   1.308 -0.7243  1.4653  0.3683
   40GLOH    O2 8734   4.996   8.271   1.356 -0.0257 -0.1590 -0.3458
   40GLOH   H05 8735   5.008   8.242   1.447 -1.2222 -0.7931 -0.3841
   40GLOH    C3 8736   4.847   8.393   1.507 -0.0774  0.0047 -0.3089
   40GLOH   H06 8737   4.787   8.307   1.534 -1.2047  0.1504 -2.2707
   40GLOH   H07 8738   4.790   8.486   1.514  0.7807  0.5189  0.0442
   40GLOH    O3 8739   4.967   8.415   1.588 -0.0810  0.3023  0.2715
   40GLOH   H01 8740   4.941   8.431   1.681 -1.5765 -0.9707  0.0834
   41GLOH   H03 8741   7.180   3.110   0.081  1.0828 -0.5465 -0.5387
   41GLOH    O1 8742   7.209   3.148   0.167  0.0506  0.0961 -0.4581
   41GLOH    C1 8743   7.183   3.058   0.272 -0.0967  0.5955  0.2426
   41GLOH   H02 8744   7.087   3.011   0.255  0.6558 -1.2532  0.9564
   41GLOH   H08 8745   7.170   3.107   0.368  1.4573 -1.2579  1.4399
   41GLOH    C2 8746   7.277   2.933   0.287  0.1329  0.5079  0.4691
   41GLOH   H04 8747   7.229   2.871   0.365  0.2998  0.1985  0.3247
   41GLOH    O2 8748   7.286   2.851   0.168 -0.1850  0.1611  0.3452
   41GLOH   H05 8749   7.358   2.890   0.117 -0.4315  2.1588  1.4624
   41GLOH    C3 8750   7.418   2.988   0.332  0.1298 -0.5684 -0.4119
   41GLOH   H06 8751   7.454   3.056   0.255 -0.4228  2.3663  1.8225
   41GLOH   H07 8752   7.490   2.907   0.335  2.3094  1.3407  0.9065
   41GLOH    O3 8753   7.412   3.047   0.463 -0.2161  0.6451  0.1499
   41GLOH   H01 8754   7.366   3.132   0.450 -0.2918  0.5231 -0.4130
   42GLOH   H03 8755   5.149   4.286   0.126  1.8732  1.7107 -2.3581
   42GLOH    O1 8756   5.220   4.305   0.190  0.4020 -0.2854 -0.0062
   42GLOH    C1 8757   5.198   4.222   0.306 -0.0759  0.5393 -0.5417
   42GLOH   H02 8758   5.233   4.123   0.278 -0.8656  0.2735 -0.5726
   42GLOH   H08 8759   5.093   4.207   0.328 -0.4853  2.0599 -1.4067
   42GLOH    C2 8760   5.281   4.269   0.426 -0.5038 -0.1241  0.0188
   42GLOH   H04 8761   5.239   4.365   0.458  0.8670  0.8778 -1.1280
   42GLOH    O2 8762   5.267   4.180   0.532 -0.2882  0.0644 -0.6314
   42GLOH   H05 8763   5.272   4.238   0.610 -0.6339 -0.8945  0.1105
   42GLOH    C3 8764   5.434   4.264   0.380 -0.1598  0.1283  0.0388
   42GLOH   H06 8765   5.459   4.159   0.366  0.6569  0.4656 -1.0218
   42GLOH   H07 8766   5.493   4.302   0.463  1.3512 -0.6116 -0.6689
   42GLOH    O3 8767   5.451   4.344   0.261 -0.1724 -0.5367 -0.0558
   42GLOH   H01 8768   5.368   4.349   0.210  0.3006  0.4939 -0.7263
   43GLOH   H03 8769   7.150   3.304   4.465 -0.0745  0.1548  0.6137
   43GLOH    O1 8770   7.062   3.282   4.500 -0.0225 -0.7510  0.1947
   43GLOH    C1 8771   6.987   3.394   4.553 -0.1652 -0.1953 -0.2093
   43GLOH   H02 8772   6.970   3.377   4.659 -1.1770 -2.3958 -0.7025
   43GLOH   H08 8773   6.895   3.411   4.498 -0.9690  0.1726  1.2372
   43GLOH    C2 8774   7.060   3.527   4.542 -0.2396  0.0989  0.4344
   43GLOH   H04 8775   7.051   3.558   4.437 -0.0031 -2.0436 -0.2532
   43GLOH    O2 8776   6.995   3.627   4.629  0.1832 -0.0636  0.2181
   43GLOH   H05 8777   7.060   3.698   4.638  1.3575 -0.7748 -2.1517
   43GLOH    C3 8778   7.207   3.503   4.570 -0.9173 -0.5141  0.5332
   43GLOH   H06 8779   7.219   3.463   4.671 -1.1480  0.1238  0.8176
   43GLOH   H07 8780   7.249   3.604   4.567 -2.2413  0.0347  0.3297
   43GLOH    O3 8781   7.266   3.423   4.465 -0.3330  0.1754 -0.7354
   43GLOH   H01 8782   7.363   3.416   4.466 -0.5628 -4.2763 -1.2829
   44GLOH   H03 8783   1.136   1.263   0.134 -0.9506 -3.8856 -0.3065
   44GLOH    O1 8784   1.154   1.259   0.230 -0.2588 -0.4503 -0.2240
   44GLOH    C1 8785   1.142   1.116   0.265 -0.5536 -0.4065  0.2302
   44GLOH   H02 8786   1.206   1.061   0.197 -0.8540  0.7954 -1.0615
   44GLOH   H08 8787   1.041   1.076   0.251  0.2287 -1.6564 -2.0325
   44GLOH    C2 8788   1.181   1.091   0.413 -0.1277  0.0043 -0.2603
   44GLOH   H04 8789   1.115   1.142   0.485 -1.2823  0.7395 -1.8209
   44GLOH    O2 8790   1.172   0.952   0.453  0.3950 -0.1966  0.6354
   44GLOH   H05 8791   1.252   0.906   0.422  0.4611  0.1880  0.2315
   44GLOH    C3 8792   1.316   1.149   0.442 -0.7876 -0.8652 -0.2251
   44GLOH   H06 8793   1.386   1.096   0.378 -0.4239  1.3084 -1.6715
   44GLOH   H07 8794   1.349   1.127   0.544  0.7392 -0.9178 -0.7210
   44GLOH    O3 8795   1.319   1.293   0.411 -0.2375  0.0234 -0.0061
   44GLOH   H01 8796   1.269   1.311   0.329 -0.1577  2.2473  0.4131
   45GLOH   H03 8797   6.981   1.360   2.551  0.2693 -1.8135  1.9409
   45GLOH    O1 8798   7.060   1.407   2.584  0.0064  0.0107  0.0645
   45GLOH    C1 8799   7.118   1.317   2.681 -0.0857  0.5814 -1.0171
   45GLOH   H02 8800   7.110   1.210   2.661 -0.3114  0.6933 -1.5496
   45GLOH   H08 8801   7.057   1.317   2.770  1.1667 -2.3562 -0.0983
   45GLOH    C2 8802   7.262   1.345   2.717  0.4064 -0.1779  0.2823
   45GLOH   H04 8803   7.277   1.454   2.722 -0.2075 -0.0300 -0.8046
   45GLOH    O2 8804   7.291   1.279   2.836  0.1224 -0.2720  0.1846
   45GLOH   H05 8805   7.372   1.230   2.811 -2.0162 -2.1589 -3.4101
   45GLOH    C3 8806   7.363   1.296   2.610 -0.4117  0.4152  0.2923
   45GLOH   H06 8807   7.329   1.345   2.519 -3.5539 -1.0168  0.6329
   45GLOH   H07 8808   7.353   1.188   2.601  0.3951  0.3546  0.1260
   45GLOH    O3 8809   7.498   1.333   2.643  0.8171  0.0603 -0.4802
   45GLOH   H01 8810   7.503   1.427   2.667 -2.5997 -0.0215  0.8740
   46GLOH   H03 8811   3.765   5.137   1.584  0.1604 -0.2981 -0.4058
   46GLOH    O1 8812   3.816   5.078   1.524  0.7235  0.0421 -0.2632
   46GLOH    C1 8813   3.842   5.165   1.411  0.1212 -0.1192  0.1609
   46GLOH   H02 8814   3.907   5.245   1.446 -0.4145  0.2570  0.2951
   46GLOH   H08 8815   3.751   5.219   1.385 -0.2283 -1.5517 -1.7270
   46GLOH    C2 8816   3.883   5.079   1.292  0.5355  0.9951  0.4286
   46GLOH   H04 8817   3.799   5.010   1.273  1.2238 -0.3889  2.3195
   46GLOH    O2 8818   3.898   5.158   1.179 -0.1461  0.6284  0.3838
   46GLOH   H05 8819   3.915   5.094   1.108 -0.4177 -1.5625  2.2338
   46GLOH    C3 8820   4.009   4.999   1.322  0.1487  0.8603 -0.6295
   46GLOH   H06 8821   4.083   5.071   1.355 -0.1773  0.3759  1.2259
   46GLOH   H07 8822   4.044   4.957   1.227 -1.1974  2.0741 -1.6807
   46GLOH    O3 8823   3.978   4.910   1.429  0.5004  0.5288 -0.4305
   46GLOH   H01 8824   3.909   4.947   1.487  0.0337  0.8374 -1.1616
   47GLOH   H03 8825   2.736   7.287   0.481 -1.8499 -0.2495  0.2753
   47GLOH    O1 8826   2.723   7.305   0.386  0.2988  0.1158  0.0266
   47GLOH    C1 8827   2.858   7.323   0.339  0.0520 -0.6647 -0.5074
   47GLOH   H02 8828   2.929   7.327   0.423  0.1327  1.3284 -0.6499
   47GLOH   H08 8829   2.864   7.415   0.280 -0.4919  1.3949  2.4932
   47GLOH    C2 8830   2.900   7.213   0.252 -0.2735 -0.1343  0.4959
   47GLOH   H04 8831   2.843   7.226   0.158  2.1438  1.8366 -0.7618
   47GLOH    O2 8832   3.047   7.225   0.227 -0.4108  0.3422 -0.2753
   47GLOH   H05 8833   3.063   7.230   0.131  0.9468  1.2313 -0.0283
   47GLOH    C3 8834   2.866   7.082   0.316  0.1964  0.2054 -0.4820
   47GLOH   H06 8835   2.759   7.087   0.339  0.5307  0.1875  1.1829
   47GLOH   H07 8836   2.921   7.076   0.410  0.9777  0.8240 -0.8971
   47GLOH    O3 8837   2.900   6.974   0.236 -0.9103 -0.3794 -0.4470
   47GLOH   H01 8838   2.885   7.000   0.143  0.6308 -1.6558 -1.0620
   48GLOH   H03 8839   9.237   2.965   3.884  0.5389  0.2334 -0.1766
   48GLOH    O1 8840   9.298   3.007   3.821 -0.1398  0.4508 -0.6970
   48GLOH    C1 8841   9.321   2.915   3.710 -0.2455  0.2298 -0.2339
   48GLOH   H02 8842   9.223   2.900   3.666 -1.8710  1.5993  2.8112
   48GLOH   H08 8843   9.357   2.816   3.739  0.9317  0.6585 -0.2186
   48GLOH    C2 8844   9.418   2.970   3.605 -0.4695  0.4689 -0.5523
   48GLOH   H04 8845   9.516   2.990   3.652 -1.0753 -0.2037  1.0245
   48GLOH    O2 8846   9.441   2.871   3.501  0.6753 -0.4292  0.5178
   48GLOH   H05 8847   9.475   2.789   3.540  1.4159 -0.8975 -1.0618
   48GLOH    C3 8848   9.368   3.106   3.552 -0.5067 -0.2324  0.3170
   48GLOH   H06 8849   9.269   3.083   3.513 -0.7225  1.2988 -0.0919
   48GLOH   H07 8850   9.423   3.153   3.471 -3.8075  0.1509 -1.7892
   48GLOH    O3 8851   9.363   3.194   3.667  0.4520 -0.0071  0.3136
   48GLOH   H01 8852   9.332   3.138   3.740 -3.4388  0.4327 -0.8982
   49GLOH   H03 8853   9.736   9.253   1.732 -0.7068 -2.0779  1.1958
   49GLOH    O1 8854   9.781   9.194   1.670  0.8117 -0.0812  0.3573
   49GLOH    C1 8855   9.809   9.071   1.749  0.1333 -0.3713  0.1169
   49GLOH   H02 8856   9.861   9.002   1.683  0.2633 -0.4849  0.3428
   49GLOH   H08 8857   9.720   9.021   1.786  0.2706 -1.2360 -0.7008
   49GLOH    C2 8858   9.913   9.087   1.858  0.7721  0.0983 -0.2437
   49GLOH   H04 8859   9.882   9.166   1.928  1.2589 -0.0660  0.1565
   49GLOH    O2 8860   9.923   8.963   1.931  0.2872  0.0364 -0.1491
   49GLOH   H05 8861   9.849   8.970   1.994 -1.1549 -1.7378 -1.5768
   49GLOH    C3 8862  10.044   9.139   1.812  0.5176  0.1941  0.4176
   49GLOH   H06 8863  10.089   9.071   1.739  2.7779 -0.3674  2.2785
   49GLOH   H07 8864  10.110   9.127   1.898  0.1015 -2.5253  0.3962
   49GLOH    O3 8865  10.033   9.269   1.765  0.1669  0.4992 -0.0814
   49GLOH   H01 8866   9.972   9.266   1.688 -0.0521 -0.3952  0.1257
   50GLOH   H03 8867   9.688   5.995   0.593 -0.1151  1.5020  0.2538
   50GLOH    O1 8868   9.594   6.019   0.582 -0.5212 -0.0870  0.1788
   50GLOH    C1 8869   9.536   5.912   0.503  0.2552 -0.2834  0.7423
   50GLOH   H02 8870   9.430   5.931   0.489  0.2815 -1.0025 -0.5611
   50GLOH   H08 8871   9.543   5.820   0.562  3.4638 -0.1457  0.6673
   50GLOH    C2 8872   9.596   5.882   0.369  0.7969  0.0387  0.3720
   50GLOH   H04 8873   9.703   5.856   0.377  0.4230 -1.4436  0.6886
   50GLOH    O2 8874   9.527   5.764   0.319  0.1934 -0.4971  0.3316
   50GLOH   H05 8875   9.499   5.711   0.396 -0.6799 -0.7012 -0.1275
   50GLOH    C3 8876   9.582   6.005   0.274 -0.4476  0.2576  0.6164
   50GLOH   H06 8877   9.482   6.004   0.232  0.4430 -1.1058 -1.5898
   50GLOH   H07 8878   9.643   6.001   0.184  0.1039  1.5978  0.9098
   50GLOH    O3 8879   9.617   6.127   0.335  0.6541  0.0949  0.1327
   50GLOH   H01 8880   9.581   6.198   0.279 -0.9657 -1.4847 -0.8916
   51GLOH   H03 8881   0.058   6.372   2.817  1.0615  0.8256 -1.5840
   51GLOH    O1 8882   0.004   6.454   2.809 -0.1521  0.2091  0.0377
   51GLOH    C1 8883  -0.133   6.413   2.809  0.0126  0.3730  0.1256
   51GLOH   H02 8884  -0.137   6.305   2.820  1.5148  0.2618 -0.3902
   51GLOH   H08 8885  -0.184   6.439   2.716  1.1727 -1.0074 -0.9158
   51GLOH    C2 8886  -0.216   6.466   2.923  1.0654 -0.3907 -0.1507
   51GLOH   H04 8887  -0.318   6.428   2.906  0.8537  0.2738 -0.3649
   51GLOH    O2 8888  -0.178   6.409   3.048  0.4289  0.1073 -0.0427
   51GLOH   H05 8889  -0.095   6.457   3.066  0.9639 -0.8209 -0.0180
   51GLOH    C3 8890  -0.206   6.620   2.914 -0.0711 -0.1364 -0.2185
   51GLOH   H06 8891  -0.100   6.640   2.899  0.0859 -1.1034 -0.3852
   51GLOH   H07 8892  -0.237   6.659   3.011  0.6488 -0.0963 -0.0042
   51GLOH    O3 8893  -0.284   6.674   2.804 -0.3212  0.7834  0.0583
   51GLOH   H01 8894  -0.346   6.600   2.788  1.3667 -1.6808  4.0557
   52GLOH   H03 8895   8.363   1.358   0.804  0.1011  1.1346  0.1562
   52GLOH    O1 8896   8.267   1.350   0.787  0.2908  0.2960 -0.5429
   52GLOH    C1 8897   8.198   1.465   0.836  0.8541 -0.0166 -1.3241
   52GLOH   H02 8898   8.089   1.453   0.832  0.6322  1.2536  0.3559
   52GLOH   H08 8899   8.220   1.546   0.766  1.9216  0.5242 -0.3717
   52GLOH    C2 8900   8.234   1.502   0.981 -0.7130 -0.1102  0.2356
   52GLOH   H04 8901   8.341   1.482   0.999 -0.6425  0.5434  0.5779
   52GLOH    O2 8902   8.202   1.638   0.999 -0.8486 -0.4877 -0.1917
   52GLOH   H05 8903   8.166   1.655   1.088 -0.2843  0.2204 -0.0906
   52GLOH    C3 8904   8.161   1.416   1.089  0.5138 -0.6776 -0.0794
   52GLOH   H06 8905   8.055   1.434   1.103  0.6586  1.1396 -1.2426
   52GLOH   H07 8906   8.202   1.448   1.185 -1.2836 -1.2808  0.9023
   52GLOH    O3 8907   8.188   1.273   1.077 -0.0127  0.3231 -0.0741
   52GLOH   H01 8908   8.277   1.251   1.109 -0.8627  0.9774  2.9019
   53GLOH   H03 8909   0.592   1.005   3.610  0.4068  0.9448 -1.2186
   53GLOH    O1 8910   0.645   0.954   3.547  0.5290 -0.3301 -0.1014
   53GLOH    C1 8911   0.651   1.024   3.416 -0.4426  0.4632  0.3704
   53GLOH   H02 8912   0.557   1.037   3.364 -0.9349 -1.6318  0.6945
   53GLOH   H08 8913   0.709   0.960   3.348 -2.5644 -1.5376  0.3923
   53GLOH    C2 8914   0.719   1.160   3.437 -0.2204 -0.6701 -0.7491
   53GLOH   H04 8915   0.722   1.224   3.348  0.0218 -2.5715 -2.1384
   53GLOH    O2 8916   0.668   1.245   3.542 -0.0310 -0.6516 -0.1389
   53GLOH   H05 8917   0.644   1.183   3.613  0.0704 -3.3902 -2.3984
   53GLOH    C3 8918   0.870   1.129   3.455  0.6459 -0.0645  0.4421
   53GLOH   H06 8919   0.914   1.078   3.369 -3.0871 -0.4577 -1.3752
   53GLOH   H07 8920   0.884   1.057   3.536  1.8771 -1.1403 -0.7067
   53GLOH    O3 8921   0.945   1.260   3.471  0.3643  0.3801 -0.0130
   53GLOH   H01 8922   0.981   1.264   3.561 -0.3606  0.3611  0.2746
   54GLOH   H03 8923   3.816   7.122   1.430  1.2670 -0.0230  3.5574
   54GLOH    O1 8924   3.871   7.052   1.390  0.0609  0.9505  0.0269
   54GLOH    C1 8925   3.852   6.932   1.468  0.2472 -0.5310  0.0721
   54GLOH   H02 8926   3.756   6.929   1.520 -0.2254  2.5775 -0.5091
   54GLOH   H08 8927   3.925   6.925   1.548  0.5093  2.9380  0.2207
   54GLOH    C2 8928   3.862   6.804   1.382  0.5532 -0.1787 -0.0022
   54GLOH   H04 8929   3.959   6.801   1.330  1.3656 -2.7178  1.5608
   54GLOH    O2 8930   3.861   6.683   1.460 -0.0368  0.1464  0.2431
   54GLOH   H05 8931   3.836   6.608   1.403  0.4547  0.1353  0.0395
   54GLOH    C3 8932   3.745   6.795   1.285 -0.1361  0.0155  0.3915
   54GLOH   H06 8933   3.648   6.817   1.331 -1.7060  0.2473 -2.8640
   54GLOH   H07 8934   3.738   6.693   1.247  1.5227 -0.8409  2.3333
   54GLOH    O3 8935   3.756   6.876   1.169  0.0160  0.1727  0.1482
   54GLOH   H01 8936   3.840   6.923   1.157 -1.3318  3.2277  1.9590
   55GLOH   H03 8937   4.004   2.777   2.453 -0.0646  1.1606 -1.0006
   55GLOH    O1 8938   4.043   2.709   2.395  0.4900  0.3520  0.2900
   55GLOH    C1 8939   3.944   2.605   2.370 -0.4067 -0.3695 -1.0735
   55GLOH   H02 8940   3.980   2.514   2.417  0.9468  1.8398  2.3158
   55GLOH   H08 8941   3.937   2.578   2.265  0.9309 -0.7032 -1.0825
   55GLOH    C2 8942   3.804   2.637   2.428  0.2771 -0.4843 -0.0026
   55GLOH   H04 8943   3.773   2.725   2.370 -1.0366 -0.2560  1.0349
   55GLOH    O2 8944   3.711   2.531   2.398 -0.0278  0.3061  0.3496
   55GLOH   H05 8945   3.670   2.546   2.311 -0.3860  3.2831  0.9862
   55GLOH    C3 8946   3.819   2.673   2.574  0.1623 -0.1145  0.5630
   55GLOH   H06 8947   3.882   2.592   2.609 -1.8140 -2.5182 -1.2726
   55GLOH   H07 8948   3.721   2.668   2.622 -0.2940 -2.8646 -0.5788
   55GLOH    O3 8949   3.897   2.793   2.589 -0.5857  0.6292 -0.2904
   55GLOH   H01 8950   3.889   2.818   2.683 -0.3247 -4.8828  1.3518
   56GLOH   H03 8951   0.017   1.137   4.693 -2.8091  1.1472 -1.3897
   56GLOH    O1 8952  -0.010   1.045   4.676  0.1650 -0.1302  0.2982
   56GLOH    C1 8953  -0.118   1.003   4.758  0.3925  0.3357  0.0555
   56GLOH   H02 8954  -0.210   1.058   4.737  1.4228  2.1183  0.0862
   56GLOH   H08 8955  -0.093   1.029   4.861  1.6862  2.5683 -0.7771
   56GLOH    C2 8956  -0.148   0.849   4.760  0.2979 -0.9575  0.5893
   56GLOH   H04 8957  -0.068   0.800   4.819  0.4707  0.7754  1.8488
   56GLOH    O2 8958  -0.267   0.806   4.827 -0.0986  0.1085 -0.6029
   56GLOH   H05 8959  -0.281   0.712   4.805 -3.3275  0.9792 -2.6620
   56GLOH    C3 8960  -0.140   0.788   4.617  0.5475  0.1994  0.2499
   56GLOH   H06 8961  -0.229   0.824   4.564  0.0118 -0.8285  0.4336
   56GLOH   H07 8962  -0.145   0.680   4.625 -2.4139  0.1148 -1.6945
   56GLOH    O3 8963  -0.009   0.816   4.567  0.2243 -0.4024 -0.1410
   56GLOH   H01 8964  -0.001   0.906   4.605 -2.3182 -0.2278  0.1193
   57GLOH   H03 8965   1.832   9.466   1.986 -1.7719  2.0582 -1.9422
   57GLOH    O1 8966   1.844   9.528   2.061  0.1957 -0.9060  0.2912
   57GLOH    C1 8967   1.774   9.643   2.019 -0.6840 -0.3272  0.4790
   57GLOH   H02 8968   1.761   9.632   1.911  1.2906  0.0361  0.1919
   57GLOH   H08 8969   1.834   9.733   2.027 -1.5523  0.4997 -1.9544
   57GLOH    C2 8970   1.626   9.642   2.073  0.0575  0.3951 -0.2139
   57GLOH   H04 8971   1.617   9.693   2.170 -1.1970  0.2397 -0.2518
   57GLOH    O2 8972   1.544   9.716   1.976 -0.2361  0.3256  0.5920
   57GLOH   H05 8973   1.462   9.745   2.019 -1.4276 -3.4112  1.0487
   57GLOH    C3 8974   1.571   9.498   2.078 -0.3340 -0.4922 -0.9414
   57GLOH   H06 8975   1.587   9.449   1.982  0.5889 -1.2109 -0.4300
   57GLOH   H07 8976   1.464   9.504   2.092 -0.1010  0.8079  0.4583
   57GLOH    O3 8977   1.637   9.408   2.169 -0.3135 -0.0841  0.5677
   57GLOH   H01 8978   1.638   9.457   2.254 -1.4624 -0.8647  1.0409
   58GLOH   H03 8979   8.846   6.243   3.680  0.6800  1.0974 -0.8603
   58GLOH    O1 8980   8.934   6.239   3.722  0.1422  0.5008  0.2206
   58GLOH    C1 8981   9.028   6.160   3.651 -0.7734  0.0121  0.9079
   58GLOH   H02 8982   9.131   6.165   3.685 -1.1233  5.3669  1.5056
   58GLOH   H08 8983   9.032   6.195   3.548  2.3606 -1.4649  0.4676
   58GLOH    C2 8984   9.000   6.009   3.643 -0.2551 -0.7204 -0.1291
   58GLOH   H04 8985   8.913   5.999   3.577  1.1519 -0.8750 -2.0080
   58GLOH    O2 8986   9.112   5.925   3.603 -0.1964  0.7166 -0.1194
   58GLOH   H05 8987   9.183   5.940   3.668  0.7929 -2.4346 -0.3789
   58GLOH    C3 8988   8.966   5.961   3.785  0.0847  0.2768 -0.4541
   58GLOH   H06 8989   8.888   6.033   3.812  2.3863  2.5433  0.3904
   58GLOH   H07 8990   9.048   5.990   3.851  0.6340  0.1471 -1.0792
   58GLOH    O3 8991   8.935   5.820   3.795 -0.0634 -0.3552  0.5403
   58GLOH   H01 8992   8.987   5.785   3.870  1.0295  0.9215  0.4067
   59GLOH   H03 8993   2.675   8.621   0.915 -0.4790 -1.3783  0.6409
   59GLOH    O1 8994   2.719   8.577   0.840 -0.4768 -0.0411 -0.1517
   59GLOH    C1 8995   2.710   8.664   0.734  0.0797 -0.1017  0.5696
   59GLOH   H02 8996   2.781   8.632   0.658 -1.4354  3.4571 -2.4807
   59GLOH   H08 8997   2.737   8.762   0.775 -1.9693  0.4597  0.6035
   59GLOH    C2 8998   2.577   8.684   0.662 -0.0310  0.3954 -0.1713
   59GLOH   H04 8999   2.519   8.744   0.733 -0.2502 -0.2526  0.2028
   59GLOH    O2 9000   2.596   8.764   0.547  0.0798  0.3683  0.2779
   59GLOH   H05 9001   2.644   8.711   0.481 -0.5729 -0.6105  0.5625
   59GLOH    C3 9002   2.506   8.548   0.635 -0.5921  0.9020 -0.1434
   59GLOH   H06 9003   2.494   8.489   0.726  0.8752  1.1407  0.2206
   59GLOH   H07 9004   2.572   8.495   0.566 -0.6903 -0.6705  0.9505
   59GLOH    O3 9005   2.376   8.563   0.575  0.3673 -0.1516  0.1788
   59GLOH   H01 9006   2.387   8.591   0.482  0.5150  0.9516  0.5283
   60GLOH   H03 9007   9.767   5.073   0.294  0.5051 -1.6990 -0.8456
   60GLOH    O1 9008   9.684   5.027   0.319 -0.1566  0.1494  0.4797
   60GLOH    C1 9009   9.686   4.927   0.424 -0.2595  0.8169 -0.9329
   60GLOH   H02 9010   9.594   4.909   0.480  1.0946  0.1359  1.1301
   60GLOH   H08 9011   9.750   4.952   0.509 -2.0824  1.9526  0.1436
   60GLOH    C2 9012   9.730   4.795   0.360 -0.1199  0.3580  0.8086
   60GLOH   H04 9013   9.816   4.820   0.295 -0.6915 -0.7856 -0.4002
   60GLOH    O2 9014   9.766   4.711   0.471  0.3178  0.3505  0.2431
   60GLOH   H05 9015   9.690   4.672   0.518  1.1000 -0.1893  1.0879
   60GLOH    C3 9016   9.622   4.734   0.264  0.4072 -0.5159  0.4235
   60GLOH   H06 9017   9.653   4.633   0.237  2.6630  0.1463  0.3936
   60GLOH   H07 9018   9.593   4.780   0.169 -0.7229 -1.6753  0.1944
   60GLOH    O3 9019   9.496   4.709   0.329 -0.0599 -0.2914 -0.0632
   60GLOH   H01 9020   9.497   4.632   0.388 -3.4040 -0.7235 -0.4628
   61GLOH   H03 9021   2.768   3.698   3.888 -2.6910  2.3162 -0.4580
   61GLOH    O1 9022   2.834   3.769   3.899 -0.2296  0.0685 -0.3419
   61GLOH    C1 9023   2.922   3.734   4.008  0.0417  0.5626 -0.2768
   61GLOH   H02 9024   2.996   3.814   4.016 -1.2582  1.6184  1.5278
   61GLOH   H08 9025   2.976   3.643   3.980  0.3455 -0.0645  2.2342
   61GLOH    C2 9026   2.849   3.700   4.138 -0.9888  0.5276  0.0088
   61GLOH   H04 9027   2.781   3.784   4.157 -0.9586  0.7923 -1.0597
   61GLOH    O2 9028   2.762   3.585   4.136 -0.5547 -0.0195  0.7240
   61GLOH   H05 9029   2.736   3.565   4.044 -0.9719 -0.9803  1.0510
   61GLOH    C3 9030   2.939   3.692   4.265  0.2655 -0.4725  0.4378
   61GLOH   H06 9031   3.002   3.604   4.255 -0.1582 -0.5842 -1.4314
   61GLOH   H07 9032   2.869   3.666   4.345 -1.3722  2.8505  0.1608
   61GLOH    O3 9033   3.013   3.813   4.288  0.1184  0.3371 -0.4806
   61GLOH   H01 9034   2.959   3.894   4.286  0.1050  0.3148 -1.1397
   62GLOH   H03 9035   6.845   8.608   1.804 -1.9186  1.2651 -0.8284
   62GLOH    O1 9036   6.888   8.695   1.816  0.5224 -0.0508  0.2762
   62GLOH    C1 9037   6.810   8.785   1.733 -0.1096  0.2859  0.5407
   62GLOH   H02 9038   6.802   8.764   1.626  1.9280  2.0340  0.0284
   62GLOH   H08 9039   6.845   8.888   1.736 -0.3428  0.4215 -1.1941
   62GLOH    C2 9040   6.666   8.801   1.787 -0.1977 -0.1605 -0.4798
   62GLOH   H04 9041   6.668   8.861   1.879 -0.3525 -1.5912  0.4787
   62GLOH    O2 9042   6.578   8.862   1.690  0.1691  0.0834 -0.4288
   62GLOH   H05 9043   6.573   8.957   1.712  2.2724  0.2329 -0.5011
   62GLOH    C3 9044   6.615   8.666   1.842 -0.1176  0.3537  0.6875
   62GLOH   H06 9045   6.507   8.670   1.832 -0.1621 -0.3269  0.8843
   62GLOH   H07 9046   6.634   8.663   1.949 -1.8418  1.3453  1.0384
   62GLOH    O3 9047   6.669   8.553   1.768 -0.2558 -0.3261  1.0343
   62GLOH   H01 9048   6.590   8.507   1.736 -1.2266  1.9419  0.0851
   63GLOH   H03 9049   7.015   9.126   3.836  0.5781 -3.7401  0.6493
   63GLOH    O1 9050   7.072   9.148   3.912 -0.0189 -0.3087  0.2119
   63GLOH    C1 9051   7.171   9.043   3.922  0.1353  0.3441  0.1198
   63GLOH   H02 9052   7.216   9.024   3.825  3.1556  2.1493  1.0909
   63GLOH   H08 9053   7.136   8.951   3.969 -0.8674  1.4863  1.6888
   63GLOH    C2 9054   7.292   9.093   4.007 -0.1842 -0.5303 -0.3038
   63GLOH   H04 9055   7.261   9.114   4.110  0.2836 -0.8301 -0.1023
   63GLOH    O2 9056   7.380   8.984   4.015 -0.1879 -0.5668  0.2383
   63GLOH   H05 9057   7.355   8.927   4.090  0.3677 -0.3107  0.6180
   63GLOH    C3 9058   7.356   9.218   3.949  0.6624  0.0281 -0.0050
   63GLOH   H06 9059   7.412   9.198   3.858 -0.9438 -0.0717 -0.9967
   63GLOH   H07 9060   7.428   9.249   4.024  0.5645 -2.9499  1.3823
   63GLOH    O3 9061   7.258   9.315   3.935  0.2462 -0.9780 -0.1938
   63GLOH   H01 9062   7.175   9.270   3.911 -0.4851 -0.6407  1.5516
   64GLOH   H03 9063   9.913   1.188   0.772  0.4364  1.7494  0.1445
   64GLOH    O1 9064   9.824   1.215   0.743  0.0970 -0.0909 -0.6078
   64GLOH    C1 9065   9.741   1.109   0.691 -0.5889  0.5394  0.1118
   64GLOH   H02 9066   9.799   1.048   0.621 -1.8398 -1.3218  0.6627
   64GLOH   H08 9067   9.661   1.155   0.634 -0.1819  1.3949  0.2296
   64GLOH    C2 9068   9.673   1.018   0.797  0.1479  0.3275  0.6369
   64GLOH   H04 9069   9.593   1.074   0.848  0.3815 -0.4339  1.8731
   64GLOH    O2 9070   9.610   0.901   0.733  0.3075 -0.1800  0.6164
   64GLOH   H05 9071   9.533   0.931   0.682  0.2708 -1.0099  0.1696
   64GLOH    C3 9072   9.778   0.988   0.902  0.0066  0.8957  0.0930
   64GLOH   H06 9073   9.814   1.085   0.936 -0.1699  0.8922  0.2887
   64GLOH   H07 9074   9.868   0.938   0.865  0.9109  0.1192  3.1225
   64GLOH    O3 9075   9.732   0.906   1.015  0.1268 -0.3551 -0.5976
   64GLOH   H01 9076   9.735   0.812   0.992  2.1304 -0.3247 -0.5327
   65GLOH   H03 9077   3.014   1.910   1.707  0.8774  0.5377  2.9115
   65GLOH    O1 9078   3.086   1.846   1.694 -0.4890 -0.5871  0.4053
   65GLOH    C1 9079   3.046   1.709   1.696  0.1844 -0.5972 -1.0029
   65GLOH   H02 9080   3.030   1.677   1.593  0.1615 -1.2954 -0.7877
   65GLOH   H08 9081   2.959   1.691   1.759  1.3825  0.5714  1.0465
   65GLOH    C2 9082   3.150   1.617   1.761 -0.4776 -0.1243  0.5035
   65GLOH   H04 9083   3.159   1.648   1.866 -0.1872 -0.9715  0.7289
   65GLOH    O2 9084   3.096   1.485   1.756  0.1268 -0.0153  0.4756
   65GLOH   H05 9085   3.002   1.493   1.780 -0.5995 -2.7629 -1.2217
   65GLOH    C3 9086   3.288   1.623   1.688 -0.2568  0.7419  0.0793
   65GLOH   H06 9087   3.361   1.566   1.746 -2.5358 -0.0998  2.2377
   65GLOH   H07 9088   3.312   1.728   1.703  0.2852  0.5334  0.7257
   65GLOH    O3 9089   3.286   1.598   1.544 -0.3379 -0.4183 -0.5744
   65GLOH   H01 9090   3.334   1.514   1.531  1.6081  0.1723  2.1969
   66GLOH   H03 9091   5.481   9.486   1.509  0.2112  0.2952 -1.0970
   66GLOH    O1 9092   5.498   9.390   1.511  0.1343  0.3012 -0.2165
   66GLOH    C1 9093   5.635   9.386   1.486 -1.0420  0.5541  0.2254
   66GLOH   H02 9094   5.692   9.380   1.579  0.7471 -0.8766 -0.9404
   66GLOH   H08 9095   5.674   9.471   1.430  1.9814 -0.0196  1.3471
   66GLOH    C2 9096   5.666   9.259   1.405 -0.3403 -0.2739 -0.2356
   66GLOH   H04 9097   5.667   9.174   1.474  2.0597 -1.9117 -2.1921
   66GLOH    O2 9098   5.565   9.240   1.299  0.0582  0.1123  0.2596
   66GLOH   H05 9099   5.547   9.145   1.289 -0.7567  0.2999 -0.0832
   66GLOH    C3 9100   5.805   9.271   1.342  0.3542  0.0943  0.2019
   66GLOH   H06 9101   5.809   9.357   1.275 -1.6190 -1.1036 -1.5344
   66GLOH   H07 9102   5.826   9.179   1.288  0.7635  0.3857 -0.1415
   66GLOH    O3 9103   5.896   9.285   1.453 -0.8175  0.5040  0.3078
   66GLOH   H01 9104   5.983   9.252   1.424 -1.4642 -0.4967 -0.5139
   67GLOH   H03 9105   4.419   6.026   1.630  0.6444  1.9518 -0.3612
   67GLOH    O1 9106   4.499   6.034   1.685  0.4915 -0.1976  0.2192
   67GLOH    C1 9107   4.459   5.990   1.817  0.0861  0.4828 -0.1875
   67GLOH   H02 9108   4.382   5.913   1.811 -0.0903  0.7152 -0.8927
   67GLOH   H08 9109   4.410   6.072   1.871  0.7082 -0.1817  1.4135
   67GLOH    C2 9110   4.562   5.926   1.911  0.9198 -0.5780 -0.2799
   67GLOH   H04 9111   4.617   6.013   1.951 -3.6973  0.2067  4.8041
   67GLOH    O2 9112   4.493   5.875   2.020 -0.2609 -0.0152 -0.0070
   67GLOH   H05 9113   4.471   5.782   2.002 -0.9216  0.3713 -1.2312
   67GLOH    C3 9114   4.669   5.841   1.845 -0.3164 -0.1804  0.9121
   67GLOH   H06 9115   4.634   5.742   1.818  1.0439 -0.0872 -1.3519
   67GLOH   H07 9116   4.743   5.842   1.925 -0.2090  0.2522  0.8104
   67GLOH    O3 9117   4.719   5.916   1.730  0.5392  0.7776  0.1479
   67GLOH   H01 9118   4.646   5.967   1.691  0.2791 -0.5423 -1.1428
   68GLOH   H03 9119   8.665   6.558   2.973 -0.7625 -1.0851  1.6605
   68GLOH    O1 9120   8.645   6.467   2.944 -0.3464 -0.4167 -0.7772
   68GLOH    C1 9121   8.585   6.475   2.810 -0.2032 -0.3895 -0.3385
   68GLOH   H02 9122   8.647   6.428   2.735  0.2200 -0.9774  0.3715
   68GLOH   H08 9123   8.588   6.582   2.785  0.1144 -0.1561  0.6690
   68GLOH    C2 9124   8.443   6.425   2.820  0.4059  0.5061 -0.0618
   68GLOH   H04 9125   8.393   6.516   2.854  0.6879 -0.0370  1.8424
   68GLOH    O2 9126   8.400   6.381   2.686  0.2620  0.3051  0.5871
   68GLOH   H05 9127   8.353   6.456   2.645 -2.2478 -1.4985  0.0723
   68GLOH    C3 9128   8.406   6.311   2.919  0.2545  0.2314  0.4432
   68GLOH   H06 9129   8.459   6.223   2.884 -1.1474 -1.7661  3.1476
   68GLOH   H07 9130   8.298   6.297   2.924  0.2478  0.1939  0.2043
   68GLOH    O3 9131   8.449   6.352   3.046  0.5500 -0.0588 -0.0577
   68GLOH   H01 9132   8.523   6.411   3.024  0.8320  0.0876  1.2629
   69GLOH   H03 9133   3.269   3.695   3.712  1.6557  0.0227 -0.6522
   69GLOH    O1 9134   3.326   3.754   3.765  0.3939  0.4879  0.2213
   69GLOH    C1 9135   3.286   3.894   3.756 -0.1380 -0.0953 -0.0370
   69GLOH   H02 9136   3.365   3.961   3.789 -0.7358  0.2045  0.8110
   69GLOH   H08 9137   3.213   3.906   3.836  0.9884 -0.0169  0.9890
   69GLOH    C2 9138   3.251   3.930   3.617  0.2300  0.2651  0.1445
   69GLOH   H04 9139   3.155   3.883   3.590 -0.0535  0.1552  1.3357
   69GLOH    O2 9140   3.240   4.073   3.606  0.2649  0.1572  0.4786
   69GLOH   H05 9141   3.215   4.093   3.515  0.4348  0.4214  0.4887
   69GLOH    C3 9142   3.349   3.869   3.516 -0.1356 -0.2233  0.2531
   69GLOH   H06 9143   3.341   3.760   3.525  1.6523 -0.4930 -1.0340
   69GLOH   H07 9144   3.447   3.909   3.541 -0.3113  0.3622  0.0128
   69GLOH    O3 9145   3.322   3.903   3.380  0.2197  0.8917  0.3173
   69GLOH   H01 9146   3.264   3.980   3.369 -1.1964 -0.5141 -2.7348
   70GLOH   H03 9147   2.398   3.688   0.041  0.4656 -1.0445  0.7796
   70GLOH    O1 9148   2.306   3.659   0.032  0.0910  0.4151 -0.2599
   70GLOH    C1 9149   2.265   3.671  -0.104  0.4157 -0.0731  0.4981
   70GLOH   H02 9150   2.344   3.641  -0.172  0.0107  0.4965 -0.2340
   70GLOH   H08 9151   2.254   3.775  -0.136  1.1065  0.3374  1.5438
   70GLOH    C2 9152   2.135   3.597  -0.149 -0.0237 -0.3640 -0.4564
   70GLOH   H04 9153   2.045   3.615  -0.089 -0.1884  0.7105 -1.0053
   70GLOH    O2 9154   2.090   3.631  -0.282  0.7116 -0.1884  0.3804
   70GLOH   H05 9155   1.999   3.606  -0.302  0.7021  1.0732 -1.3095
   70GLOH    C3 9156   2.172   3.444  -0.150  0.3921  0.0072 -0.1727
   70GLOH   H06 9157   2.247   3.421  -0.225  0.3696  1.6536 -0.7320
   70GLOH   H07 9158   2.081   3.404  -0.195  0.7181 -1.3156  0.3169
   70GLOH    O3 9159   2.199   3.397  -0.017 -0.3592 -0.3317 -0.4886
   70GLOH   H01 9160   2.283   3.438   0.011 -2.2027  1.0316  3.3410
   71GLOH   H03 9161   3.077   5.451   4.115  0.4462  1.2027  0.7359
   71GLOH    O1 9162   3.073   5.358   4.146 -0.0817  1.0414  0.1936
   71GLOH    C1 9163   3.187   5.278   4.108  0.0570 -0.6499  0.0407
   71GLOH   H02 9164   3.152   5.180   4.075  1.6093 -1.3817  0.5060
   71GLOH   H08 9165   3.239   5.264   4.203 -1.6386 -4.3462  0.5281
   71GLOH    C2 9166   3.281   5.334   4.008  0.0843  0.5278  0.2762
   71GLOH   H04 9167   3.351   5.253   3.981 -0.6479 -0.4432  1.2046
   71GLOH    O2 9168   3.209   5.369   3.885 -0.7004 -0.5449  0.1572
   71GLOH   H05 9169   3.252   5.447   3.845  0.2660 -0.1736  1.8329
   71GLOH    C3 9170   3.348   5.455   4.071  0.7831 -0.0121  0.1013
   71GLOH   H06 9171   3.427   5.489   4.004  1.7573  0.1802  1.3422
   71GLOH   H07 9172   3.399   5.429   4.163  2.7480  2.2354 -0.3094
   71GLOH    O3 9173   3.257   5.560   4.096 -0.1766 -0.7188 -0.0142
   71GLOH   H01 9174   3.214   5.582   4.011  1.3610 -2.0271 -1.1718
   72GLOH   H03 9175   1.233   2.060   0.935 -0.4836  1.0087  2.3741
   72GLOH    O1 9176   1.146   2.021   0.917  0.2177  0.2054  0.6009
   72GLOH    C1 9177   1.049   2.128   0.928  0.3406 -0.2386  0.0266
   72GLOH   H02 9178   1.100   2.213   0.884 -0.1407 -1.1639 -2.3789
   72GLOH   H08 9179   1.031   2.153   1.033 -2.8311  0.8865 -0.7344
   72GLOH    C2 9180   0.904   2.115   0.868  0.2162 -0.7497 -0.1429
   72GLOH   H04 9181   0.835   2.195   0.899 -0.7307 -2.1658  1.4523
   72GLOH    O2 9182   0.899   2.109   0.720  0.7892  0.5109 -0.2879
   72GLOH   H05 9183   0.971   2.160   0.679 -0.1278  0.8463 -1.5128
   72GLOH    C3 9184   0.838   1.997   0.929 -0.8074 -0.5958  0.1104
   72GLOH   H06 9185   0.903   1.912   0.910 -1.5650 -0.6384 -2.4050
   72GLOH   H07 9186   0.740   1.972   0.890 -0.8765  2.5553 -1.9371
   72GLOH    O3 9187   0.837   2.010   1.073  0.1262 -0.2954 -0.7136
   72GLOH   H01 9188   0.811   1.918   1.092  1.8889 -0.7810 -0.5268
   73GLOH   H03 9189   1.631   9.136   3.312 -0.5335  0.1085  0.0087
   73GLOH    O1 9190   1.664   9.074   3.244 -0.0662  0.4702 -0.0959
   73GLOH    C1 9191   1.555   8.981   3.205 -0.2954  0.5045  0.7003
   73GLOH   H02 9192   1.504   9.035   3.125  3.3496  0.8038 -1.5721
   73GLOH   H08 9193   1.491   8.962   3.291  0.0648 -1.6617  0.5402
   73GLOH    C2 9194   1.621   8.845   3.162  0.3691  0.7215  0.3677
   73GLOH   H04 9195   1.700   8.826   3.235 -0.3383 -0.1133  0.9175
   73GLOH    O2 9196   1.520   8.744   3.156  0.3771 -0.4986 -0.2491
   73GLOH   H05 9197   1.456   8.778   3.092  2.4345  1.4479 -1.3784
   73GLOH    C3 9198   1.687   8.869   3.022  0.4362  0.4349 -1.4724
   73GLOH   H06 9199   1.604   8.892   2.956 -1.8046  1.0464  1.4175
   73GLOH   H07 9200   1.738   8.777   2.993  1.2845  0.0463  1.0567
   73GLOH    O3 9201   1.786   8.976   3.032 -0.0049  0.3370 -0.0758
   73GLOH   H01 9202   1.746   9.054   3.076  0.8209  0.2043  0.9387
   74GLOH   H03 9203   3.616   3.200   3.974  1.0489  0.6028 -0.4406
   74GLOH    O1 9204   3.586   3.150   3.896  0.6155 -0.3510  0.3288
   74GLOH    C1 9205   3.523   3.027   3.944  0.0658  0.5217 -0.1152
   74GLOH   H02 9206   3.445   2.990   3.877 -0.9885  2.0877  0.2016
   74GLOH   H08 9207   3.474   3.057   4.036  0.1426  0.3000 -0.0043
   74GLOH    C2 9208   3.626   2.914   3.974  0.0712  0.0622  0.8054
   74GLOH   H04 9209   3.671   2.949   4.068  2.8148 -0.8288 -0.1274
   74GLOH    O2 9210   3.558   2.793   3.995 -0.4374  0.6864  0.0540
   74GLOH   H05 9211   3.614   2.720   4.028 -1.3495  0.4816  1.1795
   74GLOH    C3 9212   3.744   2.906   3.868  0.3091  0.2212 -0.4691
   74GLOH   H06 9213   3.808   2.829   3.912  1.7765  0.5860 -1.9334
   74GLOH   H07 9214   3.788   3.004   3.881  0.1445  0.3914 -1.1422
   74GLOH    O3 9215   3.694   2.876   3.733 -0.1284 -0.1836 -0.6304
   74GLOH   H01 9216   3.669   2.960   3.689 -3.6173 -0.8116 -0.0565
   75GLOH   H03 9217   0.361   7.736   2.722  1.4912  0.2927 -0.7612
   75GLOH    O1 9218   0.392   7.691   2.803  0.3067  0.0435 -0.4410
   75GLOH    C1 9219   0.292   7.606   2.857 -0.0615  0.8978  0.1866
   75GLOH   H02 9220   0.268   7.534   2.778 -1.3858  0.2858  1.1345
   75GLOH   H08 9221   0.198   7.657   2.880 -0.2811  0.8340 -0.5287
   75GLOH    C2 9222   0.347   7.550   2.991  0.2755  0.3001  0.1333
   75GLOH   H04 9223   0.352   7.633   3.063  2.6290  0.1663  0.1435
   75GLOH    O2 9224   0.262   7.455   3.054 -0.2381 -0.2882 -0.0039
   75GLOH   H05 9225   0.303   7.420   3.134  1.8656 -2.4730 -1.9323
   75GLOH    C3 9226   0.485   7.496   2.973 -0.0511  0.2793 -0.1105
   75GLOH   H06 9227   0.507   7.461   3.074  0.8119  1.7932  0.2440
   75GLOH   H07 9228   0.558   7.573   2.948  0.3958  0.2619  1.0867
   75GLOH    O3 9229   0.496   7.385   2.876 -0.2285  0.3953  0.0976
   75GLOH   H01 9230   0.591   7.380   2.854 -0.0714  2.6890  0.1162
   76GLOH   H03 9231   2.640   7.168   1.905  1.4117 -0.4171  1.7255
   76GLOH    O1 9232   2.572   7.157   1.975  0.2928 -0.7647  0.6028
   76GLOH    C1 9233   2.473   7.050   1.942 -0.1348  0.5337 -0.3360
   76GLOH   H02 9234   2.380   7.072   1.995 -1.5202  2.2777 -3.3327
   76GLOH   H08 9235   2.510   6.954   1.978  1.9611  1.1176 -0.8704
   76GLOH    C2 9236   2.431   7.031   1.794  0.2015  0.0288  0.4618
   76GLOH   H04 9237   2.348   6.959   1.798  0.4316 -0.1830  1.5871
   76GLOH    O2 9238   2.382   7.164   1.748  0.0949  0.1458 -0.1395
   76GLOH   H05 9239   2.344   7.211   1.824  0.3203  0.1750 -0.0436
   76GLOH    C3 9240   2.540   6.979   1.701 -0.7241 -0.4763 -0.1852
   76GLOH   H06 9241   2.611   7.055   1.667 -1.7207  0.9046  0.7399
   76GLOH   H07 9242   2.493   6.943   1.609  0.5749 -0.5194 -0.8358
   76GLOH    O3 9243   2.606   6.869   1.764 -0.3012 -0.0824  0.1327
   76GLOH   H01 9244   2.544   6.794   1.760 -0.4700  0.0884 -0.6291
   77GLOH   H03 9245   7.748   5.703   2.036  0.5968 -0.6250 -0.4872
   77GLOH    O1 9246   7.749   5.791   1.996  0.3543 -0.3699  0.0624
   77GLOH    C1 9247   7.662   5.883   2.077  0.2363  0.0590  0.7602
   77GLOH   H02 9248   7.670   5.988   2.051  1.2066  0.2645  1.8880
   77GLOH   H08 9249   7.682   5.872   2.183 -0.7049 -2.7081  0.6892
   77GLOH    C2 9250   7.516   5.834   2.064  0.3503 -0.2211  0.8284
   77GLOH   H04 9251   7.512   5.726   2.088 -2.1906 -0.8263 -1.9546
   77GLOH    O2 9252   7.428   5.901   2.163  0.3842  0.0081 -0.2923
   77GLOH   H05 9253   7.338   5.863   2.168  0.6282 -0.5283  0.1390
   77GLOH    C3 9254   7.462   5.862   1.920  0.8397  0.5660  0.1270
   77GLOH   H06 9255   7.532   5.823   1.847  0.8675  2.2008 -0.7371
   77GLOH   H07 9256   7.448   5.969   1.904  2.7239  0.7721 -0.1835
   77GLOH    O3 9257   7.332   5.801   1.901 -0.1180  0.3288 -0.1821
   77GLOH   H01 9258   7.336   5.704   1.908  2.6929  0.2544 -1.7981
   78GLOH   H03 9259   8.331   9.103   1.580  0.5050  0.7481 -0.8475
   78GLOH    O1 9260   8.311   9.167   1.651 -0.4648 -0.0647 -0.3685
   78GLOH    C1 9261   8.343   9.093   1.768  0.4828  0.2653 -0.6523
   78GLOH   H02 9262   8.319   9.147   1.860  0.2883  0.1271 -0.6216
   78GLOH   H08 9263   8.450   9.074   1.767  0.7077  1.1258  2.6659
   78GLOH    C2 9264   8.274   8.959   1.800  0.2676 -0.3131  0.1226
   78GLOH   H04 9265   8.281   8.901   1.706  0.2689  2.0287 -1.3585
   78GLOH    O2 9266   8.319   8.900   1.923 -0.5850  0.2016  0.4869
   78GLOH   H05 9267   8.413   8.904   1.949 -0.8443  0.7527  1.3744
   78GLOH    C3 9268   8.125   8.994   1.814  0.0277  1.0323 -0.2206
   78GLOH   H06 9269   8.101   9.035   1.913 -4.3109 -2.4766  0.3525
   78GLOH   H07 9270   8.068   8.902   1.822  2.9043 -0.9000 -1.3451
   78GLOH    O3 9271   8.073   9.081   1.711  0.2259  0.6933  0.7103
   78GLOH   H01 9272   7.976   9.073   1.711  0.2715 -0.1327 -0.3292
   79GLOH   H03 9273   4.896   2.741   4.680 -0.4083  1.4949 -2.4018
   79GLOH    O1 9274   4.990   2.766   4.676  0.0235  0.4384  0.0428
   79GLOH    C1 9275   5.001   2.892   4.600 -0.6558 -0.7056  0.2574
   79GLOH   H02 9276   4.899   2.919   4.571 -0.4169 -0.6501 -0.5664
   79GLOH   H08 9277   5.065   2.892   4.511 -0.6370  2.3580  0.2138
   79GLOH    C2 9278   5.063   3.005   4.682 -0.1097 -0.1465  0.8819
   79GLOH   H04 9279   5.167   2.976   4.705  0.9909  0.9805 -2.3206
   79GLOH    O2 9280   5.061   3.127   4.612  0.0207  0.2173  0.1526
   79GLOH   H05 9281   5.053   3.199   4.678  0.7320  0.3057  0.1412
   79GLOH    C3 9282   4.989   3.019   4.815 -0.3805 -0.5184 -0.1287
   79GLOH   H06 9283   4.978   2.921   4.860 -1.1005 -0.8095 -0.9094
   79GLOH   H07 9284   4.889   3.053   4.787  0.6143 -0.0141 -3.2938
   79GLOH    O3 9285   5.049   3.110   4.910  0.3621 -0.7667 -0.3146
   79GLOH   H01 9286   5.060   3.195   4.864  2.0283 -1.6581 -1.5867
   80GLOH   H03 9287   5.678   9.268   3.692 -0.1783  0.9512  0.3669
   80GLOH    O1 9288   5.599   9.241   3.742  0.3350 -0.2939  0.5130
   80GLOH    C1 9289   5.564   9.108   3.705 -0.0711 -0.2880  0.0301
   80GLOH   H02 9290   5.613   9.028   3.761  0.0224 -1.3986 -1.6075
   80GLOH   H08 9291   5.597   9.092   3.602  1.5302 -1.3123  0.6866
   80GLOH    C2 9292   5.413   9.089   3.690 -0.2861  0.4302 -0.6978
   80GLOH   H04 9293   5.377   9.166   3.620 -2.0871  2.2298  2.1016
   80GLOH    O2 9294   5.397   8.959   3.644 -0.6233  0.0859 -0.3324
   80GLOH   H05 9295   5.325   8.922   3.697 -2.7581  1.7909 -1.9610
   80GLOH    C3 9296   5.328   9.120   3.811 -0.1335 -0.2726 -0.1205
   80GLOH   H06 9297   5.336   9.031   3.874 -0.6442  0.9061  1.6152
   80GLOH   H07 9298   5.225   9.143   3.787 -0.3746 -2.7007 -1.5879
   80GLOH    O3 9299   5.387   9.230   3.880  0.1402 -0.5467 -0.2904
   80GLOH   H01 9300   5.478   9.225   3.847 -0.4001  2.6402 -2.3890
   81GLOH   H03 9301   4.951   1.533   1.646 -0.9621 -0.1522  1.0500
   81GLOH    O1 9302   4.969   1.590   1.724 -0.0974  0.6551  0.2700
   81GLOH    C1 9303   5.086   1.544   1.793 -0.2218  1.1119 -0.1920
   81GLOH   H02 9304   5.135   1.637   1.823  0.2809  1.0321 -0.7539
   81GLOH   H08 9305   5.155   1.490   1.728 -1.4785  0.0225 -0.6416
   81GLOH    C2 9306   5.057   1.458   1.914  0.2550 -0.3999 -0.2654
   81GLOH   H04 9307   5.149   1.428   1.967  0.6394  0.0928 -0.6566
   81GLOH    O2 9308   4.972   1.522   2.009 -0.5544 -0.4315  0.3081
   81GLOH   H05 9309   5.020   1.598   2.046 -1.5933  0.7416 -0.7075
   81GLOH    C3 9310   4.994   1.324   1.857  0.7277 -0.6890 -0.8659
   81GLOH   H06 9311   4.903   1.362   1.810 -0.1058  0.0890  1.2911
   81GLOH   H07 9312   4.960   1.273   1.948  0.5334 -2.0750 -1.7111
   81GLOH    O3 9313   5.063   1.251   1.763  0.3133  0.0760  0.4669
   81GLOH   H01 9314   5.121   1.198   1.822  2.4254  2.5090  0.6441
   82GLOH   H03 9315   4.264   1.584   4.313 -0.9795  1.4085 -0.2155
   82GLOH    O1 9316   4.301   1.613   4.398 -0.0174  0.0205 -0.1330
   82GLOH    C1 9317   4.309   1.755   4.406 -0.4054  0.5784 -0.0498
   82GLOH   H02 9318   4.351   1.803   4.318  0.8355  1.0564  0.7766
   82GLOH   H08 9319   4.378   1.788   4.484 -0.4623 -0.9660  0.6672
   82GLOH    C2 9320   4.178   1.824   4.435  0.6100 -0.1041  0.1689
   82GLOH   H04 9321   4.143   1.789   4.533 -0.0795 -2.8105 -1.0098
   82GLOH    O2 9322   4.187   1.959   4.452  0.1631  0.2176  0.3515
   82GLOH   H05 9323   4.206   1.973   4.546 -2.3085  2.1460  0.5967
   82GLOH    C3 9324   4.063   1.789   4.338  0.2756  0.1307  0.3393
   82GLOH   H06 9325   4.108   1.806   4.240 -1.1584  1.5601 -0.1001
   82GLOH   H07 9326   3.979   1.859   4.343  1.2009  1.1673  1.5913
   82GLOH    O3 9327   4.018   1.651   4.335 -0.1471 -0.3106 -0.1368
   82GLOH   H01 9328   4.038   1.604   4.418 -0.4650  1.4827  0.9667
   83GLOH   H03 9329   3.759   3.953   1.444 -0.6941  0.6751 -0.1199
   83GLOH    O1 9330   3.800   3.905   1.518 -0.0653  0.3666 -0.6564
   83GLOH    C1 9331   3.691   3.878   1.614 -0.1670 -0.5383  0.9904
   83GLOH   H02 9332   3.664   3.962   1.678  1.9362  2.1079 -1.4918
   83GLOH   H08 9333   3.728   3.798   1.678  0.4930 -0.9060  0.1586
   83GLOH    C2 9334   3.559   3.831   1.547 -0.3622 -0.2979  0.6727
   83GLOH   H04 9335   3.489   3.823   1.631  1.3896  2.0548  2.4395
   83GLOH    O2 9336   3.508   3.932   1.455  0.1039  0.2338 -0.0739
   83GLOH   H05 9337   3.486   3.898   1.367 -0.8437  1.1831 -0.2130
   83GLOH    C3 9338   3.567   3.692   1.484 -0.4377 -0.7881  0.4051
   83GLOH   H06 9339   3.650   3.695   1.413  0.2538  1.7380  1.2459
   83GLOH   H07 9340   3.490   3.666   1.411  1.9276 -2.2861 -1.6430
   83GLOH    O3 9341   3.584   3.587   1.572 -0.7676  0.5755  0.4014
   83GLOH   H01 9342   3.558   3.615   1.662 -1.6441  1.8726 -0.2386
   84GLOH   H03 9343   1.083   3.656   1.003 -1.9465  0.6002 -0.9689
   84GLOH    O1 9344   1.120   3.580   0.954 -0.0112  0.4843  0.5961
   84GLOH    C1 9345   1.021   3.534   0.859 -0.1611 -0.2223  0.6554
   84GLOH   H02 9346   1.030   3.605   0.777  2.2760  0.9256  1.8625
   84GLOH   H08 9347   0.918   3.542   0.895  0.6857  1.9690  2.7159
   84GLOH    C2 9348   1.055   3.386   0.819 -0.9575  0.4239  0.0405
   84GLOH   H04 9349   1.052   3.322   0.909 -2.0544  0.8961  0.3481
   84GLOH    O2 9350   0.958   3.345   0.712 -0.2283 -0.0292  0.0766
   84GLOH   H05 9351   0.974   3.253   0.685 -0.6694 -0.2208  0.4659
   84GLOH    C3 9352   1.200   3.368   0.765  0.7333  0.3915  0.3038
   84GLOH   H06 9353   1.258   3.433   0.830  0.7486  0.1998  0.4832
   84GLOH   H07 9354   1.206   3.409   0.664  1.2049 -2.1115 -0.7292
   84GLOH    O3 9355   1.246   3.228   0.759 -0.3828 -0.0768 -0.3397
   84GLOH   H01 9356   1.207   3.165   0.822  3.6775 -0.9375  1.4689
   85GLOH   H03 9357   4.074   1.521   3.626 -0.3461  1.4400 -0.3493
   85GLOH    O1 9358   4.065   1.535   3.722 -0.3561 -0.0593 -0.1145
   85GLOH    C1 9359   4.178   1.492   3.796 -0.4855 -0.3424 -0.3148
   85GLOH   H02 9360   4.180   1.553   3.886 -0.0546 -1.5095  0.4710
   85GLOH   H08 9361   4.272   1.512   3.744  0.8253 -0.9736  1.7242
   85GLOH    C2 9362   4.168   1.338   3.811 -0.6076  0.3367  0.1529
   85GLOH   H04 9363   4.074   1.319   3.866 -1.7264  0.8547 -1.5291
   85GLOH    O2 9364   4.159   1.272   3.676  0.0289 -0.7681 -0.0262
   85GLOH   H05 9365   4.072   1.287   3.635 -0.4311 -1.4931  0.6649
   85GLOH    C3 9366   4.297   1.280   3.884  0.5665 -0.0150  0.0022
   85GLOH   H06 9367   4.380   1.262   3.815 -1.0009  2.8577 -2.8229
   85GLOH   H07 9368   4.276   1.175   3.904  0.5510 -0.4326 -2.0787
   85GLOH    O3 9369   4.332   1.341   4.009  0.0168  0.0464 -0.4042
   85GLOH   H01 9370   4.427   1.331   4.027  0.2133 -0.4745 -1.6723
   86GLOH   H03 9371   0.012   2.112   3.014 -1.4834  0.8677  1.4333
   86GLOH    O1 9372  -0.000   2.180   2.945  0.7206  0.0465  0.1797
   86GLOH    C1 9373   0.132   2.200   2.889 -0.6459 -0.4327 -0.5491
   86GLOH   H02 9374   0.179   2.102   2.876 -1.8009 -0.9065 -1.2034
   86GLOH   H08 9375   0.178   2.266   2.962 -3.0217  0.3203  0.3082
   86GLOH    C2 9376   0.122   2.251   2.745  0.5557  0.0973 -0.1105
   86GLOH   H04 9377   0.061   2.341   2.739 -1.7802 -1.5608 -2.1463
   86GLOH    O2 9378   0.251   2.274   2.686  0.1255  0.2614 -0.3183
   86GLOH   H05 9379   0.321   2.234   2.741 -0.2421  1.0321  0.7204
   86GLOH    C3 9380   0.052   2.137   2.659 -0.5753 -1.1894  0.1626
   86GLOH   H06 9381   0.120   2.054   2.644  2.1606  1.0965 -0.4547
   86GLOH   H07 9382   0.039   2.184   2.561 -0.1419 -1.4595 -0.0234
   86GLOH    O3 9383  -0.073   2.097   2.710 -0.4326 -0.2278  0.2244
   86GLOH   H01 9384  -0.076   2.135   2.800  0.3009  0.0690  0.1307
   87GLOH   H03 9385   7.893   3.215   1.481 -0.7602  0.2595 -0.8752
   87GLOH    O1 9386   7.877   3.119   1.474 -0.1153  0.0596  0.2346
   87GLOH    C1 9387   7.791   3.111   1.357  0.1978  0.2226 -0.3765
   87GLOH   H02 9388   7.853   3.093   1.269  0.2012  0.7154 -0.4744
   87GLOH   H08 9389   7.727   3.197   1.340  0.3436 -0.0120 -2.2164
   87GLOH    C2 9390   7.699   2.990   1.376  0.7213  0.3717  0.1113
   87GLOH   H04 9391   7.636   3.005   1.465  1.3367 -1.8033  0.9409
   87GLOH    O2 9392   7.602   2.977   1.263  0.5160  0.2641 -0.1982
   87GLOH   H05 9393   7.646   2.921   1.197 -0.2825 -0.0879 -0.4349
   87GLOH    C3 9394   7.782   2.868   1.396  0.3281  1.1795  0.0676
   87GLOH   H06 9395   7.865   2.869   1.325 -2.8035 -1.1669 -3.8689
   87GLOH   H07 9396   7.714   2.787   1.368  1.5942 -0.6907  2.2993
   87GLOH    O3 9397   7.832   2.862   1.530  0.5547 -0.0407  0.1045
   87GLOH   H01 9398   7.858   2.950   1.563 -1.9408  0.1092  1.8101
   88GLOH   H03 9399   3.638   6.351   1.892 -0.7367 -0.1584  1.8176
   88GLOH    O1 9400   3.725   6.321   1.924  0.1324  0.1165 -0.2298
   88GLOH    C1 9401   3.773   6.219   1.836 -0.6616  0.0296 -0.0155
   88GLOH   H02 9402   3.880   6.217   1.817 -0.5603 -0.3718  0.5481
   88GLOH   H08 9403   3.733   6.233   1.736 -3.4051 -2.4576  0.6428
   88GLOH    C2 9404   3.739   6.079   1.894  0.2599  0.0463 -0.8383
   88GLOH   H04 9405   3.631   6.074   1.915  0.5570  0.8666  1.0087
   88GLOH    O2 9406   3.789   5.980   1.806 -0.9170 -0.0429  1.2966
   88GLOH   H05 9407   3.783   5.893   1.848 -1.3477 -0.3763  0.5400
   88GLOH    C3 9408   3.809   6.056   2.031  0.7184  0.2741  0.6841
   88GLOH   H06 9409   3.758   6.121   2.101 -0.9206  0.4406 -0.6364
   88GLOH   H07 9410   3.912   6.092   2.025  0.9691 -0.5077  0.1360
   88GLOH    O3 9411   3.819   5.922   2.081  0.6605  0.2108  0.1444
   88GLOH   H01 9412   3.734   5.874   2.089  0.3313  0.7459 -0.0620
   89GLOH   H03 9413   6.718   6.229   2.858  0.5162  0.3879 -0.6382
   89GLOH    O1 9414   6.793   6.198   2.912 -0.2026 -0.0126  0.1385
   89GLOH    C1 9415   6.896   6.224   2.824  0.2025 -0.0168  0.2344
   89GLOH   H02 9416   6.891   6.157   2.739 -0.4262  1.3737 -0.8489
   89GLOH   H08 9417   6.995   6.208   2.867 -0.3117  0.5930  1.6696
   89GLOH    C2 9418   6.892   6.359   2.757 -0.0896  0.7974  0.1492
   89GLOH   H04 9419   6.896   6.435   2.837 -0.1209 -1.4680  2.3696
   89GLOH    O2 9420   7.004   6.372   2.667 -0.1470  0.5744  0.1222
   89GLOH   H05 9421   7.082   6.401   2.717  0.9152 -0.8950 -0.6573
   89GLOH    C3 9422   6.758   6.363   2.681  0.2464 -0.0480  0.0536
   89GLOH   H06 9423   6.767   6.292   2.599  1.1547  1.4786 -1.2027
   89GLOH   H07 9424   6.756   6.464   2.641 -0.3273 -0.2883 -0.5339
   89GLOH    O3 9425   6.634   6.344   2.754  0.0008  0.3805  0.2135
   89GLOH   H01 9426   6.568   6.385   2.694 -0.7203  0.5049  1.0794
   90GLOH   H03 9427   0.076   4.315   4.005 -0.4115 -0.1282  0.2573
   90GLOH    O1 9428   0.044   4.367   3.930  0.7807 -0.2427 -0.3550
   90GLOH    C1 9429  -0.088   4.406   3.968 -0.3586  0.4989  0.0444
   90GLOH   H02 9430  -0.128   4.358   4.057 -0.9996  1.5599  0.3388
   90GLOH   H08 9431  -0.160   4.379   3.890 -1.6910 -1.9617  2.0354
   90GLOH    C2 9432  -0.084   4.554   4.000  0.2495 -0.4224  0.5309
   90GLOH   H04 9433  -0.004   4.568   4.074  2.0821  3.0024 -1.9964
   90GLOH    O2 9434  -0.055   4.634   3.885 -0.1688  0.5275 -0.1966
   90GLOH   H05 9435   0.041   4.641   3.870 -0.1694 -0.9637 -1.0523
   90GLOH    C3 9436  -0.221   4.590   4.058 -0.1441 -0.3099 -0.7715
   90GLOH   H06 9437  -0.290   4.559   3.980  0.6296  3.1684 -2.9811
   90GLOH   H07 9438  -0.223   4.699   4.066 -0.3321 -0.3124 -0.7814
   90GLOH    O3 9439  -0.245   4.529   4.191 -0.2496 -0.1896 -0.1147
   90GLOH   H01 9440  -0.337   4.496   4.186 -0.8087  1.2856 -0.0316
   91GLOH   H03 9441   7.195   1.335   2.944  1.2298 -0.9934  0.8764
   91GLOH    O1 9442   7.141   1.363   3.020  0.3511  0.3125 -0.2005
   91GLOH    C1 9443   7.178   1.293   3.137 -0.1322 -0.0224 -0.1236
   91GLOH   H02 9444   7.165   1.345   3.232  0.9689  1.2784 -0.6604
   91GLOH   H08 9445   7.283   1.262   3.132  0.5382  1.4611  3.4379
   91GLOH    C2 9446   7.106   1.161   3.158  0.1537  0.2733  0.0190
   91GLOH   H04 9447   7.107   1.091   3.073  0.6731 -0.4315  0.6046
   91GLOH    O2 9448   7.159   1.093   3.272 -0.2275  0.1812  0.6835
   91GLOH   H05 9449   7.114   1.007   3.279  2.7727 -1.4036  1.6828
   91GLOH    C3 9450   6.960   1.182   3.178 -0.4774 -0.0748 -0.3231
   91GLOH   H06 9451   6.942   1.219   3.279 -1.8541 -0.1617 -0.5257
   91GLOH   H07 9452   6.920   1.081   3.169  0.3949 -0.4911  0.3906
   91GLOH    O3 9453   6.902   1.270   3.079  0.3923  0.0566 -0.4059
   91GLOH   H01 9454   6.981   1.319   3.050  0.1160  1.0666  0.5101
   92GLOH   H03 9455   2.167   4.219   3.400 -0.4735  1.2215 -0.0049
   92GLOH    O1 9456   2.249   4.273   3.404  0.3357  0.0313 -0.4885
   92GLOH    C1 9457   2.270   4.329   3.273  0.1451  0.0487  0.7215
   92GLOH   H02 9458   2.228   4.261   3.200 -1.9953  1.0162  1.0061
   92GLOH   H08 9459   2.375   4.342   3.248 -0.1573  0.4283 -0.3694
   92GLOH    C2 9460   2.198   4.468   3.268 -0.0032  0.2685  0.0188
   92GLOH   H04 9461   2.241   4.536   3.344 -0.6517 -0.6971  1.2742
   92GLOH    O2 9462   2.229   4.523   3.137 -0.1472  0.2938 -0.3941
   92GLOH   H05 9463   2.288   4.598   3.156 -2.3619  2.1128 -0.3684
   92GLOH    C3 9464   2.050   4.447   3.292 -0.2891  0.1320  0.0646
   92GLOH   H06 9465   2.011   4.548   3.276  0.2153  0.4504  0.8262
   92GLOH   H07 9466   2.032   4.416   3.395 -0.4041  0.7723  0.2443
   92GLOH    O3 9467   1.992   4.358   3.196 -0.3001 -0.0541  0.4182
   92GLOH   H01 9468   1.902   4.332   3.221 -0.7659  1.6736  0.5807
   93GLOH   H03 9469   5.115   9.984   3.198 -0.9909 -1.0674  2.7132
   93GLOH    O1 9470   5.034   9.959   3.150  0.4485 -0.7636  0.0173
   93GLOH    C1 9471   4.926   9.920   3.245  1.2130 -0.0427  0.7077
   93GLOH   H02 9472   4.825   9.906   3.206  1.1602 -0.6325  1.0450
   93GLOH   H08 9473   4.918   9.986   3.330  2.1266  2.6513 -1.2296
   93GLOH    C2 9474   4.954   9.787   3.317 -0.2454  0.0330  0.2003
   93GLOH   H04 9475   4.955   9.708   3.240  0.6970 -0.8516  1.1072
   93GLOH    O2 9476   5.082   9.802   3.385  0.0481  0.2368 -0.2680
   93GLOH   H05 9477   5.146   9.785   3.314  0.0350 -2.1145  0.2594
   93GLOH    C3 9478   4.845   9.767   3.423 -0.0536  0.4302 -0.5631
   93GLOH   H06 9479   4.849   9.841   3.502 -0.8338 -0.5079  0.3659
   93GLOH   H07 9480   4.849   9.676   3.483 -0.0063  1.3675  0.8612
   93GLOH    O3 9481   4.711   9.771   3.365  0.2478 -0.4352 -0.2362
   93GLOH   H01 9482   4.705   9.697   3.301  1.2576  0.1854 -1.0587
   94GLOH   H03 9483   7.188   3.825   4.545  0.9283  1.9999 -0.2589
   94GLOH    O1 9484   7.212   3.842   4.638  0.6090  0.1434  0.1781
   94GLOH    C1 9485   7.358   3.843   4.635  0.1344  0.2284 -0.7056
   94GLOH   H02 9486   7.397   3.778   4.557  1.3862 -1.2413  1.1145
   94GLOH   H08 9487   7.398   3.807   4.729  2.6981  3.4330 -0.4888
   94GLOH    C2 9488   7.418   3.987   4.617  0.2524  0.5479  0.0433
   94GLOH   H04 9489   7.378   4.060   4.688 -1.2108  2.0114 -2.2146
   94GLOH    O2 9490   7.561   3.974   4.619 -0.4215  0.2609  0.0538
   94GLOH   H05 9491   7.587   3.894   4.570  0.1700 -2.9888  5.3519
   94GLOH    C3 9492   7.368   4.052   4.479 -0.8793 -0.2551 -0.2197
   94GLOH   H06 9493   7.408   4.153   4.479 -0.5512 -0.3566  1.4248
   94GLOH   H07 9494   7.261   4.060   4.498 -0.7481 -0.1887  0.5094
   94GLOH    O3 9495   7.410   3.980   4.358 -0.1334  0.1663 -0.1082
   94GLOH   H01 9496   7.488   4.032   4.331 -0.1218  0.9920  1.4386
   95GLOH   H03 9497   4.797   1.279   4.546 -1.7391  0.1583  0.1849
   95GLOH    O1 9498   4.804   1.360   4.493  0.4749 -0.4763 -0.5369
   95GLOH    C1 9499   4.710   1.450   4.551  0.0503  0.4820 -0.3867
   95GLOH   H02 9500   4.758   1.548   4.549  2.2827 -0.5374  1.3488
   95GLOH   H08 9501   4.683   1.432   4.655 -0.4851  2.9000 -0.0678
   95GLOH    C2 9502   4.578   1.455   4.475 -0.5545 -0.0276  0.0984
   95GLOH   H04 9503   4.545   1.351   4.464 -1.2585  0.2275 -0.2602
   95GLOH    O2 9504   4.485   1.530   4.543  0.1382 -0.7681 -0.0808
   95GLOH   H05 9505   4.405   1.540   4.488 -0.0947 -2.3039 -0.0285
   95GLOH    C3 9506   4.596   1.501   4.325 -0.3352  0.3011  0.2463
   95GLOH   H06 9507   4.635   1.602   4.310  1.3850 -0.3833  0.0911
   95GLOH   H07 9508   4.499   1.499   4.275 -2.0136 -1.1995  3.4283
   95GLOH    O3 9509   4.695   1.408   4.264  0.0794 -0.0855 -0.2476
   95GLOH   H01 9510   4.747   1.371   4.337  0.9946 -0.2855 -0.9927
   96GLOH   H03 9511   8.419   9.960   1.320  2.1756  1.9058  2.9201
   96GLOH    O1 9512   8.391  10.050   1.295 -0.5854  0.3291 -0.0572
   96GLOH    C1 9513   8.467  10.083   1.178 -0.0747  0.5661  0.2869
   96GLOH   H02 9514   8.489   9.996   1.117 -0.1540 -0.0629  1.1298
   96GLOH   H08 9515   8.559  10.116   1.225 -0.7310  1.1348  1.2011
   96GLOH    C2 9516   8.416  10.199   1.100 -0.3727  0.2258  0.4827
   96GLOH   H04 9517   8.418  10.293   1.157 -0.1432  0.2641  0.4082
   96GLOH    O2 9518   8.513  10.219   0.997 -0.0904 -0.0921 -0.3338
   96GLOH   H05 9519   8.476  10.248   0.912  0.4110  0.1984 -0.4534
   96GLOH    C3 9520   8.270  10.189   1.055 -0.5106 -0.3273 -0.7954
   96GLOH   H06 9521   8.229  10.288   1.035 -1.5596 -0.2632  1.5504
   96GLOH   H07 9522   8.216  10.152   1.141 -1.0139 -0.1707 -1.0414
   96GLOH    O3 9523   8.260  10.100   0.947  0.0192  0.2799  0.1290
   96GLOH   H01 9524   8.319  10.134   0.876  2.7529 -1.2478  1.5720
   97GLOH   H03 9525   1.454   6.009   2.762  0.5409 -0.2807  0.0049
   97GLOH    O1 9526   1.470   6.098   2.799 -0.5499  0.1041 -0.4016
   97GLOH    C1 9527   1.346   6.172   2.803  0.0195  0.2677 -0.0947
   97GLOH   H02 9528   1.351   6.231   2.895  0.0884 -2.3601  1.6245
   97GLOH   H08 9529   1.253   6.116   2.796  0.7885 -1.4733  2.8061
   97GLOH    C2 9530   1.353   6.263   2.679 -0.0689  0.4604 -0.3127
   97GLOH   H04 9531   1.345   6.192   2.594 -2.7120  0.8442 -0.4235
   97GLOH    O2 9532   1.239   6.350   2.672 -0.1163 -0.5292  0.4014
   97GLOH   H05 9533   1.241   6.412   2.747  1.2931 -1.3191  1.0297
   97GLOH    C3 9534   1.489   6.346   2.682 -0.6062 -0.2538  0.0436
   97GLOH   H06 9535   1.571   6.275   2.676 -1.3068 -1.4572  3.2174
   97GLOH   H07 9536   1.485   6.391   2.781  0.9359 -1.0719  0.5004
   97GLOH    O3 9537   1.505   6.436   2.568 -0.1165 -0.0205  0.1538
   97GLOH   H01 9538   1.447   6.514   2.568 -2.4892 -1.6766 -2.3519
   98GLOH   H03 9539   5.485   7.432   3.136  1.4298 -2.6745 -2.0602
   98GLOH    O1 9540   5.533   7.500   3.085  0.3278 -0.5988 -0.4061
   98GLOH    C1 9541   5.476   7.499   2.954 -0.4878 -0.5396 -0.1543
   98GLOH   H02 9542   5.367   7.495   2.959 -0.5555 -1.1733 -1.8108
   98GLOH   H08 9543   5.504   7.406   2.905 -1.7069 -0.9809 -0.0270
   98GLOH    C2 9544   5.520   7.625   2.877 -0.3369  0.3285  1.3252
   98GLOH   H04 9545   5.628   7.643   2.868 -0.2088 -1.0939 -0.4148
   98GLOH    O2 9546   5.464   7.604   2.746  0.3402  0.2512 -0.3697
   98GLOH   H05 9547   5.508   7.665   2.683 -0.3786  1.1119 -0.0472
   98GLOH    C3 9548   5.466   7.746   2.954  0.5896  0.6544  0.0388
   98GLOH   H06 9549   5.359   7.735   2.965  0.7777 -3.0295 -1.2931
   98GLOH   H07 9550   5.486   7.839   2.900  1.7905  0.5568  0.2853
   98GLOH    O3 9551   5.511   7.749   3.090  0.1137  0.3443  0.1809
   98GLOH   H01 9552   5.538   7.657   3.111  0.1761  0.3576  0.1569
   99GLOH   H03 9553   5.758   6.751   2.105  0.9695 -1.0017  1.1160
   99GLOH    O1 9554   5.763   6.665   2.060  0.6541 -0.3370 -0.2353
   99GLOH    C1 9555   5.633   6.604   2.082 -0.5211  0.2011 -0.0926
   99GLOH   H02 9556   5.611   6.535   2.000  0.5891  0.0968 -0.3096
   99GLOH   H08 9557   5.563   6.687   2.076 -1.1465 -0.2644  0.7916
   99GLOH    C2 9558   5.612   6.531   2.218  0.1143 -0.0896  0.4008
   99GLOH   H04 9559   5.686   6.449   2.230  0.8888  0.5755  0.2204
   99GLOH    O2 9560   5.626   6.618   2.334  0.4443  0.0311 -0.1570
   99GLOH   H05 9561   5.548   6.674   2.345 -0.4365 -0.4417 -3.4444
   99GLOH    C3 9562   5.477   6.457   2.223 -0.2446  0.1369  0.1526
   99GLOH   H06 9563   5.461   6.415   2.322 -0.7367  1.8721  0.8266
   99GLOH   H07 9564   5.471   6.368   2.160 -0.6199 -0.9181  1.6387
   99GLOH    O3 9565   5.371   6.541   2.187  0.3224 -0.2988 -0.3948
   99GLOH   H01 9566   5.326   6.563   2.271  1.6107 -0.9576  0.4896
  100GLOH   H03 9567   5.204   8.628   4.261 -0.0850 -1.3003 -1.1601
  100GLOH    O1 9568   5.266   8.675   4.202 -0.0617 -0.0921 -0.2095
  100GLOH    C1 9569   5.373   8.592   4.149  0.6307 -0.2256 -0.0715
  100GLOH   H02 9570   5.454   8.580   4.221 -0.6850 -1.0716  1.2979
  100GLOH   H08 9571   5.420   8.647   4.067  1.2906 -1.9142 -0.8689
  100GLOH    C2 9572   5.320   8.459   4.101  0.1238  0.2820  0.2389
  100GLOH   H04 9573   5.400   8.412   4.042  0.7472 -0.1919  1.4442
  100GLOH    O2 9574   5.284   8.373   4.212  0.0352 -0.6031  0.6120
  100GLOH   H05 9575   5.247   8.429   4.282 -3.4989 -2.4683  0.3540
  100GLOH    C3 9576   5.196   8.468   4.007 -0.3369 -0.0412 -0.0750
  100GLOH   H06 9577   5.123   8.525   4.064  0.2188  0.9294 -0.3110
  100GLOH   H07 9578   5.157   8.372   3.976 -0.9509  0.6126 -1.3403
  100GLOH    O3 9579   5.234   8.546   3.892  0.3925  0.5965  0.8072
  100GLOH   H01 9580   5.235   8.493   3.810  3.0737  0.5193  0.8619
  101GLOH   H03 9581   4.571   3.613   1.220  0.0534  0.7535 -1.1117
  101GLOH    O1 9582   4.618   3.686   1.264  0.2450 -0.2422  0.3770
  101GLOH    C1 9583   4.684   3.636   1.383 -0.3016  0.6006 -0.9401
  101GLOH   H02 9584   4.607   3.579   1.436  1.4060 -2.4745 -1.6234
  101GLOH   H08 9585   4.722   3.720   1.440  0.6293  0.2649 -1.0617
  101GLOH    C2 9586   4.797   3.544   1.339 -0.2183 -0.2433  0.3267
  101GLOH   H04 9587   4.882   3.607   1.310 -1.5467  0.9205 -1.1238
  101GLOH    O2 9588   4.845   3.463   1.449 -0.4895  0.2412 -0.1302
  101GLOH   H05 9589   4.923   3.415   1.416 -1.3027 -0.0736 -1.6481
  101GLOH    C3 9590   4.767   3.453   1.220 -0.1351  0.1136 -0.3337
  101GLOH   H06 9591   4.672   3.404   1.239 -0.5861  1.7193  1.8559
  101GLOH   H07 9592   4.844   3.376   1.213 -0.4091 -0.1448 -0.4946
  101GLOH    O3 9593   4.760   3.532   1.098 -0.2736 -0.2606 -0.3190
  101GLOH   H01 9594   4.752   3.628   1.113 -1.1932 -0.2255 -0.9476
  102GLOH   H03 9595   5.247   1.698   2.670 -2.8211  1.0487  0.4788
  102GLOH    O1 9596   5.263   1.764   2.600  0.5632 -0.7677 -0.5881
  102GLOH    C1 9597   5.159   1.863   2.629  0.3168 -0.6291 -0.4649
  102GLOH   H02 9598   5.175   1.957   2.577  1.3082  0.2379  1.3812
  102GLOH   H08 9599   5.155   1.876   2.737 -1.9249 -0.9230 -0.4780
  102GLOH    C2 9600   5.020   1.817   2.608 -0.3596  0.0109 -0.4563
  102GLOH   H04 9601   4.994   1.739   2.681 -0.6895  0.3247 -0.2394
  102GLOH    O2 9602   4.933   1.925   2.634 -0.3061 -0.7699 -0.2002
  102GLOH   H05 9603   4.921   1.928   2.731  1.6673 -0.7123  0.0751
  102GLOH    C3 9604   4.993   1.781   2.466  0.0634  0.2205  0.4340
  102GLOH   H06 9605   5.008   1.871   2.406 -0.0163 -0.6172 -0.8354
  102GLOH   H07 9606   4.888   1.751   2.461  0.1099 -0.1790  1.5460
  102GLOH    O3 9607   5.073   1.660   2.445 -0.1205  0.2312  0.2655
  102GLOH   H01 9608   5.153   1.679   2.497 -0.2107  0.6439  0.2527
  103GLOH   H03 9609   0.098   6.742   2.560  1.0382 -1.8230 -1.8938
  103GLOH    O1 9610   0.073   6.794   2.481  0.1961  0.1635 -0.3842
  103GLOH    C1 9611  -0.069   6.809   2.461 -0.8482  0.1837  0.5668
  103GLOH   H02 9612  -0.084   6.877   2.377 -0.0830 -0.5032 -0.1342
  103GLOH   H08 9613  -0.119   6.849   2.549 -0.3750 -0.0243  0.9363
  103GLOH    C2 9614  -0.135   6.674   2.431 -0.2331  0.1406  0.4308
  103GLOH   H04 9615  -0.118   6.610   2.519 -2.5198  0.0697  0.8490
  103GLOH    O2 9616  -0.281   6.694   2.422 -0.1574 -0.5478 -0.4825
  103GLOH   H05 9617  -0.316   6.756   2.489  0.5082 -1.2756  0.5490
  103GLOH    C3 9618  -0.063   6.600   2.316  0.1408  0.6171  0.4581
  103GLOH   H06 9619  -0.121   6.510   2.292  1.0383  0.6434 -1.9306
  103GLOH   H07 9620   0.036   6.564   2.342 -0.6224 -0.9861  1.2446
  103GLOH    O3 9621  -0.055   6.693   2.208 -0.4417 -0.4081 -0.1313
  103GLOH   H01 9622   0.014   6.651   2.153 -1.0019  0.5454 -1.6133
  104GLOH   H03 9623   7.060   7.070   3.190  1.2252 -2.1088 -0.1766
  104GLOH    O1 9624   7.071   7.083   3.094  0.3476 -0.2241 -0.0446
  104GLOH    C1 9625   7.046   6.955   3.034 -0.2052 -0.3728 -0.0740
  104GLOH   H02 9626   6.986   6.895   3.102  1.8297 -3.0693 -0.5860
  104GLOH   H08 9627   7.141   6.904   3.023  1.2526  2.1171  0.5874
  104GLOH    C2 9628   6.980   6.966   2.895 -0.0249  0.1055 -0.4154
  104GLOH   H04 9629   7.052   7.023   2.835  1.6166 -1.1795  0.3096
  104GLOH    O2 9630   6.961   6.836   2.837 -0.5150 -0.0204  0.2796
  104GLOH   H05 9631   6.921   6.856   2.750  1.0715 -0.2084 -0.5061
  104GLOH    C3 9632   6.843   7.041   2.898  0.2126  1.1786 -0.5885
  104GLOH   H06 9633   6.847   7.137   2.950 -2.6494  0.4829  1.0402
  104GLOH   H07 9634   6.766   6.979   2.945 -0.2291  1.7994 -0.4922
  104GLOH    O3 9635   6.811   7.064   2.760 -0.1535  0.3605 -0.6588
  104GLOH   H01 9636   6.860   7.143   2.731  0.0588  0.0851 -1.0574
  105GLOH   H03 9637   1.622   6.426   2.469  2.3110 -0.5752  3.1670
  105GLOH    O1 9638   1.701   6.450   2.417  0.1276  0.1628  0.0485
  105GLOH    C1 9639   1.740   6.345   2.330 -0.8993 -0.2946  0.2626
  105GLOH   H02 9640   1.661   6.314   2.261 -1.0590  0.3409  0.1608
  105GLOH   H08 9641   1.748   6.252   2.388 -2.9922  0.3947  1.7381
  105GLOH    C2 9642   1.863   6.374   2.248  0.0589  0.3422 -0.8028
  105GLOH   H04 9643   1.935   6.412   2.322  1.0546 -0.3538 -1.4081
  105GLOH    O2 9644   1.900   6.246   2.181  0.3223 -0.6390  0.0665
  105GLOH   H05 9645   1.991   6.241   2.146  0.4920 -1.1077  0.5850
  105GLOH    C3 9646   1.835   6.479   2.146 -0.0683 -0.3755  0.3666
  105GLOH   H06 9647   1.756   6.447   2.078 -0.0924  0.4875 -0.0109
  105GLOH   H07 9648   1.923   6.478   2.083 -1.5052  0.8683 -1.7203
  105GLOH    O3 9649   1.801   6.603   2.207 -0.1977 -0.6555 -0.1933
  105GLOH   H01 9650   1.752   6.575   2.286 -1.3269 -0.2255 -0.7379
  106GLOH   H03 9651   3.700   0.909   4.092  1.5365 -2.0500  0.1420
  106GLOH    O1 9652   3.683   0.883   4.185 -0.2507 -0.0434  0.4381
  106GLOH    C1 9653   3.626   0.747   4.187 -0.0559 -0.0838 -0.0155
  106GLOH   H02 9654   3.579   0.719   4.281 -2.2205  1.2178 -0.6546
  106GLOH   H08 9655   3.707   0.677   4.167  0.8328  0.6651  0.9027
  106GLOH    C2 9656   3.527   0.730   4.069  0.0246  0.7050  0.3844
  106GLOH   H04 9657   3.576   0.765   3.977  3.7349 -3.1343  0.7083
  106GLOH    O2 9658   3.494   0.589   4.047  0.5630 -0.0942  0.2355
  106GLOH   H05 9659   3.449   0.560   4.128 -1.3711  0.4956 -0.6055
  106GLOH    C3 9660   3.408   0.827   4.073 -0.5936 -0.1475  0.6279
  106GLOH   H06 9661   3.348   0.812   3.982  0.8295  0.4345 -0.4262
  106GLOH   H07 9662   3.450   0.926   4.058 -0.7337 -0.6539 -3.7534
  106GLOH    O3 9663   3.331   0.812   4.193  0.6237 -0.2898  0.1536
  106GLOH   H01 9664   3.240   0.800   4.159  1.2057  2.7301 -2.7426
  107GLOH   H03 9665   0.991   2.788   0.306  0.8476  0.6231  1.5215
  107GLOH    O1 9666   0.915   2.739   0.343  0.3465  0.0373 -0.2185
  107GLOH    C1 9667   0.793   2.815   0.327 -0.1791 -0.3873 -0.0075
  107GLOH   H02 9668   0.766   2.797   0.223 -2.7409 -1.3899  0.7724
  107GLOH   H08 9669   0.806   2.922   0.341 -2.4588  0.0219 -0.7533
  107GLOH    C2 9670   0.685   2.760   0.423 -0.0381 -0.0824 -0.1987
  107GLOH   H04 9671   0.715   2.775   0.528  3.5312 -2.4927 -0.7803
  107GLOH    O2 9672   0.558   2.823   0.414  0.1493 -0.0187  0.0281
  107GLOH   H05 9673   0.521   2.802   0.327  0.6396 -1.9088  0.2630
  107GLOH    C3 9674   0.662   2.606   0.401 -0.7615 -0.0800  0.2611
  107GLOH   H06 9675   0.570   2.597   0.459 -0.0416 -0.1928  1.4085
  107GLOH   H07 9676   0.745   2.550   0.444 -0.8113 -0.6390 -0.3665
  107GLOH    O3 9677   0.638   2.562   0.266  0.3719 -0.0982  0.3739
  107GLOH   H01 9678   0.544   2.578   0.246  0.6825  1.0991 -0.1374
  108GLOH   H03 9679   4.522   2.488   3.264 -0.6261 -0.8659  0.6787
  108GLOH    O1 9680   4.564   2.433   3.196 -0.5118  0.0538 -0.0030
  108GLOH    C1 9681   4.532   2.294   3.230 -0.4679 -0.0195 -0.6699
  108GLOH   H02 9682   4.439   2.259   3.185 -1.1583 -0.8266  1.3047
  108GLOH   H08 9683   4.504   2.281   3.335 -2.4163  1.1114 -1.0226
  108GLOH    C2 9684   4.650   2.197   3.193  0.3676 -0.1431 -0.5724
  108GLOH   H04 9685   4.746   2.215   3.244  0.2286 -0.3344 -0.2398
  108GLOH    O2 9686   4.605   2.066   3.234  0.2620 -0.1716 -0.6730
  108GLOH   H05 9687   4.663   1.989   3.225 -1.8219 -2.0491  1.2680
  108GLOH    C3 9688   4.664   2.199   3.042  0.3733  0.5022 -1.1122
  108GLOH   H06 9689   4.572   2.158   3.002 -0.6540 -0.4999  2.1037
  108GLOH   H07 9690   4.751   2.137   3.021  0.1548 -0.9652  1.9876
  108GLOH    O3 9691   4.682   2.338   3.004  0.2331  0.1121  0.0868
  108GLOH   H01 9692   4.637   2.388   3.074 -0.0746 -1.8353  1.3327
  109GLOH   H03 9693   2.910   1.573   1.235 -2.4294 -0.8712  1.0159
  109GLOH    O1 9694   2.924   1.606   1.326  0.2220  0.2251  0.2721
  109GLOH    C1 9695   2.988   1.735   1.305  0.4218  0.5262  0.1851
  109GLOH   H02 9696   3.059   1.724   1.223  0.2788 -0.2611  0.1605
  109GLOH   H08 9697   3.042   1.757   1.397  1.2355 -0.1594 -0.1201
  109GLOH    C2 9698   2.898   1.854   1.276 -0.7037  0.1083  0.3295
  109GLOH   H04 9699   2.965   1.941   1.279 -1.1338  0.4436  0.1803
  109GLOH    O2 9700   2.835   1.840   1.147 -0.2303 -0.4520 -1.0422
  109GLOH   H05 9701   2.882   1.888   1.077 -1.4932  0.9887 -0.9318
  109GLOH    C3 9702   2.794   1.869   1.386  0.1759  0.1288  0.4031
  109GLOH   H06 9703   2.733   1.780   1.402  0.1345 -0.3135 -2.0240
  109GLOH   H07 9704   2.723   1.944   1.352  1.0267  1.7075  2.0305
  109GLOH    O3 9705   2.856   1.898   1.511 -0.0142 -0.0808 -0.2094
  109GLOH   H01 9706   2.835   1.991   1.532  1.9522  0.3307  0.0294
  110GLOH   H03 9707   5.491   9.070   2.411 -2.8857 -0.1983 -3.4854
  110GLOH    O1 9708   5.519   9.160   2.384 -0.0599  0.2427  0.4379
  110GLOH    C1 9709   5.397   9.222   2.363 -0.0439  0.1882  0.2265
  110GLOH   H02 9710   5.349   9.256   2.454  1.2294  2.0639  0.2257
  110GLOH   H08 9711   5.320   9.160   2.316  0.0761 -0.4667  0.8891
  110GLOH    C2 9712   5.410   9.360   2.288  0.2357 -0.3801 -0.6779
  110GLOH   H04 9713   5.482   9.428   2.335  1.0096 -0.4743 -1.7101
  110GLOH    O2 9714   5.458   9.336   2.155  0.1746 -0.1229  0.3701
  110GLOH   H05 9715   5.400   9.274   2.108  1.2815 -0.9324  0.0495
  110GLOH    C3 9716   5.267   9.426   2.281 -0.1343  0.0249 -0.6219
  110GLOH   H06 9717   5.199   9.368   2.218 -0.4598 -0.2221 -0.0471
  110GLOH   H07 9718   5.272   9.522   2.230 -0.4969 -0.0652 -0.8315
  110GLOH    O3 9719   5.212   9.448   2.409  0.0691 -0.1577  0.4882
  110GLOH   H01 9720   5.267   9.507   2.464  0.8360 -0.8337  0.4578
  111GLOH   H03 9721   5.165   1.685   0.849  0.0329  0.3885  1.2103
  111GLOH    O1 9722   5.231   1.756   0.838 -0.1375  0.3550 -0.0398
  111GLOH    C1 9723   5.192   1.836   0.724  0.8560  0.2925  0.1590
  111GLOH   H02 9724   5.088   1.819   0.693  0.5676 -0.3060  1.4257
  111GLOH   H08 9725   5.249   1.812   0.634 -0.9642  1.3113 -1.3104
  111GLOH    C2 9726   5.196   1.989   0.751 -0.0488  0.2135 -0.1397
  111GLOH   H04 9727   5.297   2.015   0.788  0.2935 -1.0276 -0.1564
  111GLOH    O2 9728   5.171   2.067   0.633 -0.3106 -0.3980  0.1216
  111GLOH   H05 9729   5.076   2.056   0.616 -0.7472  0.1446  2.0473
  111GLOH    C3 9730   5.106   2.018   0.871 -0.0907  0.2636  0.0947
  111GLOH   H06 9731   5.107   2.125   0.893 -0.0722  0.0804  0.9869
  111GLOH   H07 9732   5.139   1.970   0.963 -0.6323  0.7136  0.5270
  111GLOH    O3 9733   4.968   1.977   0.844  1.1081  0.2601  0.4535
  111GLOH   H01 9734   4.901   2.040   0.878  0.7094 -1.1481  2.4097
  112GLOH   H03 9735   9.190   8.409   0.463 -1.6133  0.7210  2.9887
  112GLOH    O1 9736   9.258   8.471   0.494  0.3269 -0.1013  0.5640
  112GLOH    C1 9737   9.340   8.514   0.381 -0.3036  0.9088 -1.1459
  112GLOH   H02 9738   9.389   8.441   0.318  0.8579 -0.5825  1.4287
  112GLOH   H08 9739   9.430   8.562   0.420  0.6958  1.4220 -3.9822
  112GLOH    C2 9740   9.269   8.607   0.283 -0.0720 -0.6555 -0.2794
  112GLOH   H04 9741   9.214   8.683   0.341  0.0444 -1.2613  0.6246
  112GLOH    O2 9742   9.365   8.671   0.195 -0.3917  0.1077 -0.5810
  112GLOH   H05 9743   9.311   8.748   0.169 -0.1461  0.2906 -0.5414
  112GLOH    C3 9744   9.160   8.516   0.220 -0.0153  0.5738  0.5651
  112GLOH   H06 9745   9.215   8.434   0.174 -1.6264 -1.3637  2.0025
  112GLOH   H07 9746   9.097   8.570   0.150 -0.4113 -1.2326 -0.5108
  112GLOH    O3 9747   9.065   8.464   0.311 -0.3442 -0.2865  0.1169
  112GLOH   H01 9748   9.086   8.369   0.310  1.9202  0.1626  1.7002
  113GLOH   H03 9749   0.056   0.861   0.248  0.8550  0.7182  1.0293
  113GLOH    O1 9750  -0.005   0.829   0.317  0.0999 -0.0911  0.0188
  113GLOH    C1 9751   0.042   0.904   0.428  0.1299  0.0982  0.2496
  113GLOH   H02 9752  -0.048   0.953   0.467  0.5221 -0.0790  1.3941
  113GLOH   H08 9753   0.123   0.970   0.400  0.2260 -0.4155 -0.6928
  113GLOH    C2 9754   0.098   0.804   0.528  0.1372 -0.2665  0.0353
  113GLOH   H04 9755   0.163   0.731   0.477  0.3611  0.1298 -0.2450
  113GLOH    O2 9756   0.182   0.861   0.636  0.5020  0.1032  0.9704
  113GLOH   H05 9757   0.228   0.788   0.681 -3.0416 -2.9768 -0.0523
  113GLOH    C3 9758  -0.017   0.725   0.597 -0.1123 -1.3530  0.4253
  113GLOH   H06 9759  -0.086   0.792   0.649  1.0742 -0.7869  1.2961
  113GLOH   H07 9760   0.043   0.678   0.675  0.6475  2.2285  2.1312
  113GLOH    O3 9761  -0.085   0.631   0.506 -0.2662  0.3229 -0.2407
  113GLOH   H01 9762  -0.046   0.648   0.418 -3.1424  1.7988 -1.2953
  114GLOH   H03 9763   0.936   2.920   3.541  0.3966  0.5485  0.3298
  114GLOH    O1 9764   0.992   2.899   3.465  0.1785  0.0891  0.2970
  114GLOH    C1 9765   0.933   2.800   3.381  0.7807 -0.7497  0.2508
  114GLOH   H02 9766   0.906   2.840   3.283  1.6621 -1.2169 -0.1977
  114GLOH   H08 9767   0.849   2.758   3.437 -0.1013 -1.2409 -1.4010
  114GLOH    C2 9768   1.016   2.675   3.353 -0.2472 -0.3337 -0.0282
  114GLOH   H04 9769   1.036   2.621   3.447  1.1336  2.1308  1.1491
  114GLOH    O2 9770   0.959   2.593   3.251  0.0870  0.4199 -0.1222
  114GLOH   H05 9771   0.876   2.553   3.283  0.5241 -0.3751  0.0436
  114GLOH    C3 9772   1.149   2.726   3.300  0.3676 -0.2256 -0.4506
  114GLOH   H06 9773   1.132   2.781   3.207 -0.3487 -3.4037 -2.2509
  114GLOH   H07 9774   1.207   2.638   3.272 -0.1004 -0.3758 -0.9588
  114GLOH    O3 9775   1.226   2.795   3.405  0.1140 -0.3161  0.2353
  114GLOH   H01 9776   1.174   2.873   3.434 -0.5414 -0.4413 -0.5868
  115GLOH   H03 9777   5.632   8.660   1.186  0.3951 -0.2071  0.9223
  115GLOH    O1 9778   5.639   8.575   1.138  0.3924  0.4609 -0.2781
  115GLOH    C1 9779   5.776   8.526   1.134  0.3608  0.5957  0.0176
  115GLOH   H02 9780   5.834   8.562   1.219 -0.2679  0.7266  0.3926
  115GLOH   H08 9781   5.815   8.562   1.039 -0.1232  0.8375 -0.0888
  115GLOH    C2 9782   5.798   8.374   1.138  0.2876 -0.6093  0.5742
  115GLOH   H04 9783   5.758   8.319   1.051 -0.0930  0.0765  0.3100
  115GLOH    O2 9784   5.939   8.336   1.147  0.4854  0.8710 -0.1605
  115GLOH   H05 9785   5.939   8.239   1.158 -0.1684  0.8836 -0.0338
  115GLOH    C3 9786   5.717   8.328   1.258 -0.1539  0.6437 -0.1946
  115GLOH   H06 9787   5.755   8.391   1.339  0.1264  0.4320 -0.1588
  115GLOH   H07 9788   5.734   8.226   1.293 -1.7260  0.8293  1.1589
  115GLOH    O3 9789   5.577   8.344   1.239  0.8889 -0.4136  0.0956
  115GLOH   H01 9790   5.566   8.435   1.207 -2.2590 -0.6046  0.4664
  116GLOH   H03 9791   2.031   0.295   2.780 -0.8174 -0.7498 -0.3099
  116GLOH    O1 9792   2.089   0.265   2.708 -0.1253  0.3103 -0.2042
  116GLOH    C1 9793   2.030   0.161   2.632 -0.6970  0.3920  0.2258
  116GLOH   H02 9794   2.097   0.134   2.550 -0.3391 -1.6198  1.1496
  116GLOH   H08 9795   1.936   0.194   2.587 -0.2394  0.5101 -0.6572
  116GLOH    C2 9796   2.010   0.032   2.712  0.1069 -0.9990 -1.1916
  116GLOH   H04 9797   1.913   0.047   2.762  0.1356  0.0812 -1.4426
  116GLOH    O2 9798   2.002  -0.082   2.628 -0.3577 -0.4213  0.1282
  116GLOH   H05 9799   2.077  -0.139   2.652  0.4541  0.0468 -1.1901
  116GLOH    C3 9800   2.116   0.024   2.815  0.2371 -0.1595 -0.2832
  116GLOH   H06 9801   2.104   0.111   2.879 -0.0252 -0.9773  0.7837
  116GLOH   H07 9802   2.216   0.027   2.772 -0.4144  0.6913 -1.8032
  116GLOH    O3 9803   2.098  -0.093   2.894  0.0176  0.6514 -0.1684
  116GLOH   H01 9804   2.189  -0.126   2.907  0.0782  1.4211  1.4576
  117GLOH   H03 9805   8.099   3.673   1.419 -0.5346 -0.3772  0.7733
  117GLOH    O1 9806   8.050   3.757   1.403 -0.1703 -0.2562  0.2928
  117GLOH    C1 9807   7.924   3.726   1.354  0.3670 -0.6838 -0.1968
  117GLOH   H02 9808   7.854   3.810   1.360 -2.3719 -2.8693 -0.2628
  117GLOH   H08 9809   7.877   3.643   1.407  0.3767 -0.2156  0.5500
  117GLOH    C2 9810   7.928   3.674   1.209 -0.4724  0.0383  0.6349
  117GLOH   H04 9811   7.825   3.665   1.170 -0.0861  1.4375 -0.7297
  117GLOH    O2 9812   7.984   3.781   1.129  0.3341 -0.2884 -0.0903
  117GLOH   H05 9813   7.971   3.774   1.033 -1.7130  1.8313  0.0069
  117GLOH    C3 9814   8.008   3.549   1.182 -0.3113  0.0207  0.0313
  117GLOH   H06 9815   8.110   3.551   1.221 -0.0968 -0.2961 -0.5235
  117GLOH   H07 9816   8.010   3.542   1.074  1.2886  2.2117 -0.1129
  117GLOH    O3 9817   7.938   3.438   1.230 -0.1005  0.1717  0.5025
  117GLOH   H01 9818   7.933   3.380   1.152 -1.4345  0.9258  0.0206
  118GLOH   H03 9819   1.896   7.536   2.332  1.7561 -0.2095 -0.6558
  118GLOH    O1 9820   1.884   7.605   2.265 -0.0134 -0.0929 -0.2417
  118GLOH    C1 9821   1.921   7.561   2.129 -0.3289 -0.4821 -0.5388
  118GLOH   H02 9822   1.875   7.627   2.055 -0.3051  0.0033 -0.1216
  118GLOH   H08 9823   1.884   7.460   2.114  0.3416 -0.6534 -1.0551
  118GLOH    C2 9824   2.073   7.568   2.100 -0.2645 -0.1451 -0.3148
  118GLOH   H04 9825   2.124   7.522   2.186 -1.0091 -1.6042 -0.6335
  118GLOH    O2 9826   2.108   7.489   1.985  0.7437  0.2116  0.2263
  118GLOH   H05 9827   2.069   7.529   1.905  0.4372 -0.1790  0.1760
  118GLOH    C3 9828   2.115   7.715   2.080 -0.0368  0.2020 -0.0371
  118GLOH   H06 9829   2.055   7.753   1.997 -1.3613  0.6986  1.1283
  118GLOH   H07 9830   2.219   7.728   2.050  0.2954 -0.9007  0.5979
  118GLOH    O3 9831   2.093   7.787   2.200 -0.1324 -0.0920  0.2808
  118GLOH   H01 9832   2.015   7.752   2.246 -0.7597  2.8074  1.5422
  119GLOH   H03 9833   6.652   9.535   3.569  0.6447 -2.9012  0.7367
  119GLOH    O1 9834   6.576   9.540   3.630  0.3958  0.0505  0.2610
  119GLOH    C1 9835   6.593   9.423   3.711 -1.0864  0.3437  0.4643
  119GLOH   H02 9836   6.536   9.423   3.804 -0.3710 -1.6386  0.9279
  119GLOH   H08 9837   6.696   9.423   3.747 -1.0804 -0.4419  0.4535
  119GLOH    C2 9838   6.553   9.295   3.637 -0.0458  0.4415 -0.2408
  119GLOH   H04 9839   6.592   9.310   3.535  0.5883  0.3569 -0.0131
  119GLOH    O2 9840   6.608   9.185   3.709  0.0811  0.2135 -0.6330
  119GLOH   H05 9841   6.608   9.101   3.660  2.1149 -1.4189  2.0956
  119GLOH    C3 9842   6.400   9.295   3.631  0.1453 -0.3477  0.0337
  119GLOH   H06 9843   6.365   9.394   3.601 -2.0836 -1.1612 -0.1725
  119GLOH   H07 9844   6.365   9.282   3.734  1.0045 -0.0385  0.3642
  119GLOH    O3 9845   6.343   9.200   3.538 -0.1688 -0.1186 -0.0333
  119GLOH   H01 9846   6.281   9.242   3.474 -2.2924  1.1992  2.7666
  120GLOH   H03 9847   1.286   9.387   2.588  0.8884 -0.3156 -0.1076
  120GLOH    O1 9848   1.252   9.309   2.540 -0.3063  0.1257 -0.0165
  120GLOH    C1 9849   1.140   9.241   2.607 -0.1853 -0.1628 -0.4262
  120GLOH   H02 9850   1.046   9.245   2.552  0.0121  1.4709 -0.6555
  120GLOH   H08 9851   1.121   9.295   2.700  0.6536 -0.0059 -0.3453
  120GLOH    C2 9852   1.174   9.099   2.645 -0.3501  0.6991  0.2076
  120GLOH   H04 9853   1.219   9.051   2.556 -0.3685 -0.5268  0.8455
  120GLOH    O2 9854   1.259   9.077   2.764 -0.3602  0.6499 -0.6840
  120GLOH   H05 9855   1.329   9.145   2.766  1.9056 -1.6368 -1.1105
  120GLOH    C3 9856   1.039   9.031   2.665  0.1589 -0.0594 -0.2066
  120GLOH   H06 9857   0.977   9.078   2.741  2.1716  0.7781  0.9628
  120GLOH   H07 9858   1.051   8.932   2.709 -3.4602  0.7922  3.0220
  120GLOH    O3 9859   0.949   9.013   2.550  0.2960 -0.1202  0.0247
  120GLOH   H01 9860   0.859   8.988   2.579  0.3243 -1.3211 -0.8852
  121ACOH    H4 9861   4.627   6.559   3.100  0.5609  0.2263  0.5823
  121ACOH    O2 9862   4.694   6.518   3.042 -0.0611  0.3313 -0.2178
  121ACOH    C2 9863   4.801   6.477   3.112  0.0468  0.6617  0.1012
  121ACOH    O1 9864   4.818   6.502   3.229  0.0990 -0.1936 -0.0895
  121ACOH    C1 9865   4.879   6.375   3.036 -0.5618  0.2374  0.1304
  121ACOH    H1 9866   4.931   6.424   2.954  1.7711 -1.4180  0.5563
  121ACOH    H2 9867   4.820   6.297   2.989  1.2678 -1.7145  0.9787
  121ACOH    H3 9868   4.953   6.320   3.094  0.5224  0.3539 -1.1241
  122ACOH    H4 9869   3.345   5.978   1.529 -0.6454 -0.6272 -0.1481
  122ACOH    O2 9870   3.293   6.051   1.564 -0.4047 -0.6361  0.2265
  122ACOH    C2 9871   3.164   6.011   1.538  1.3915 -0.6066  0.0253
  122ACOH    O1 9872   3.129   5.891   1.517 -0.5863 -0.7752 -0.0621
  122ACOH    C1 9873   3.060   6.119   1.560  0.0836 -0.0235  0.1209
  122ACOH    H1 9874   3.112   6.214   1.574 -0.8041  0.4378  0.2927
  122ACOH    H2 9875   2.988   6.102   1.639  0.0597 -1.1776 -0.1485
  122ACOH    H3 9876   3.003   6.125   1.467  1.1781  1.4414 -0.4800
  123ACOH    H4 9877   4.537   9.038   2.856  0.2684 -0.0007  1.2651
  123ACOH    O2 9878   4.481   9.113   2.830  0.1448 -0.5563 -0.1487
  123ACOH    C2 9879   4.456   9.085   2.699 -0.1840 -0.3681 -0.0636
  123ACOH    O1 9880   4.455   8.971   2.653  0.4317 -0.2443  0.3623
  123ACOH    C1 9881   4.384   9.201   2.643  0.2378  0.5748 -0.2810
  123ACOH    H1 9882   4.322   9.248   2.719 -0.0851 -0.8895  0.3690
  123ACOH    H2 9883   4.313   9.178   2.564  0.3004  0.9937 -0.4645
  123ACOH    H3 9884   4.456   9.280   2.620  0.3500  0.1303 -1.4844
  124ACOH    H4 9885   7.852   5.317   2.378  0.4934 -0.3759 -0.6718
  124ACOH    O2 9886   7.761   5.295   2.351  0.1068 -0.0779  0.3648
  124ACOH    C2 9887   7.727   5.166   2.333  0.4624 -0.2183  0.5705
  124ACOH    O1 9888   7.798   5.067   2.355  0.3855 -0.7188 -0.0466
  124ACOH    C1 9889   7.589   5.156   2.290  0.6998  0.4021  0.3231
  124ACOH    H1 9890   7.534   5.191   2.377 -0.9329  0.6485 -0.7946
  124ACOH    H2 9891   7.565   5.053   2.262  1.9173 -0.0984  1.0889
  124ACOH    H3 9892   7.567   5.224   2.208  0.5376 -0.2206 -0.1532
  125ACOH    H4 9893   7.093   2.531   0.269 -0.4995  0.9525 -0.7238
  125ACOH    O2 9894   7.018   2.473   0.294  0.4325  0.2939  0.6152
  125ACOH    C2 9895   7.062   2.344   0.283  0.7792 -0.5702  0.5846
  125ACOH    O1 9896   7.167   2.301   0.233 -0.6922 -0.2102 -0.4550
  125ACOH    C1 9897   6.950   2.251   0.329 -0.3672  0.8385  0.4015
  125ACOH    H1 9898   6.908   2.291   0.421 -1.5724  2.3202 -0.7659
  125ACOH    H2 9899   6.992   2.151   0.338 -2.0250  0.3185  2.6483
  125ACOH    H3 9900   6.872   2.256   0.253 -0.8072  0.9194  0.8571
  126ACOH    H4 9901   5.131   2.718   4.724 -0.0346  1.7949  2.3400
  126ACOH    O2 9902   5.220   2.686   4.746  0.0714  0.2512 -0.1837
  126ACOH    C2 9903   5.217   2.680   4.880 -0.7627  0.5674 -0.1177
  126ACOH    O1 9904   5.121   2.701   4.952 -0.4345 -0.5752  0.3994
  126ACOH    C1 9905   5.345   2.639   4.931 -0.0373  0.8882  0.5413
  126ACOH    H1 9906   5.343   2.642   5.039  0.6110 -0.4439  0.6058
  126ACOH    H2 9907   5.420   2.709   4.893 -1.5388  2.0400 -0.3217
  126ACOH    H3 9908   5.368   2.539   4.892 -2.3901  0.8758 -0.8649
  127ACOH    H4 9909   5.959   8.076   1.316 -0.2523  0.0196  0.2339
  127ACOH    O2 9910   5.930   8.087   1.224  0.4633 -0.4857 -0.0588
  127ACOH    C2 9911   5.820   8.012   1.210 -0.0853 -0.8047  0.1742
  127ACOH    O1 9912   5.779   7.931   1.293  0.1721 -0.0457 -0.1718
  127ACOH    C1 9913   5.748   8.027   1.082  0.2253  0.8445  0.0202
  127ACOH    H1 9914   5.641   8.044   1.091  0.1327  0.2045  0.1565
  127ACOH    H2 9915   5.748   7.928   1.037  0.8983 -0.0319  1.9036
  127ACOH    H3 9916   5.792   8.095   1.008 -1.0548 -0.2426 -1.7779
  128ACOH    H4 9917   4.250   4.857   1.100  0.5537 -0.4845  0.4034
  128ACOH    O2 9918   4.195   4.891   1.027  0.5855 -0.0034  0.5985
  128ACOH    C2 9919   4.245   4.842   0.915  0.6472 -0.0881  0.3250
  128ACOH    O1 9920   4.330   4.760   0.904 -0.3305 -0.1872  0.2879
  128ACOH    C1 9921   4.174   4.900   0.792  0.0388 -0.3098  0.2204
  128ACOH    H1 9922   4.248   4.954   0.732 -1.6867  1.6347 -0.2078
  128ACOH    H2 9923   4.089   4.966   0.805  0.4243  0.2361 -0.0179
  128ACOH    H3 9924   4.129   4.821   0.732  1.3974 -0.4142 -0.6994
  129ACOH    H4 9925   4.780   6.733   3.626 -0.1562 -3.0008  0.5500
  129ACOH    O2 9926   4.845   6.742   3.698 -0.3049  0.1677  0.3521
  129ACOH    C2 9927   4.810   6.837   3.775  0.1784  0.0422  0.2643
  129ACOH    O1 9928   4.701   6.893   3.764 -0.0729 -0.4142  0.5659
  129ACOH    C1 9929   4.911   6.864   3.877  0.3735  0.4404 -0.6541
  129ACOH    H1 9930   4.864   6.840   3.972 -0.0961  0.8537 -0.7757
  129ACOH    H2 9931   4.937   6.970   3.882  0.5391  0.3491  0.6073
  129ACOH    H3 9932   4.998   6.801   3.862  0.8514  1.1870 -1.0130
  130ACOH    H4 9933   8.112   5.336   4.357  0.3615  1.3086  2.1961
  130ACOH    O2 9934   8.032   5.390   4.344  0.1618  0.5321  0.1416
  130ACOH    C2 9935   8.013   5.477   4.443  0.0630  0.1684  0.7486
  130ACOH    O1 9936   8.096   5.489   4.527 -0.0419  0.5347  0.4452
  130ACOH    C1 9937   7.871   5.534   4.440 -0.3311  0.0181  0.4342
  130ACOH    H1 9938   7.841   5.559   4.542 -0.3262  2.4048 -0.1171
  130ACOH    H2 9939   7.804   5.459   4.397 -2.0446  1.8116 -0.0694
  130ACOH    H3 9940   7.858   5.623   4.378 -0.6062  0.0354  0.5184
  131ACOH    H4 9941   5.470   2.380   0.776 -1.0655 -0.3584 -0.6888
  131ACOH    O2 9942   5.479   2.287   0.802 -0.9988 -0.2083 -0.1587
  131ACOH    C2 9943   5.595   2.261   0.739  0.2075  0.2639  0.5539
  131ACOH    O1 9944   5.661   2.334   0.672 -0.1477 -0.2381  0.5055
  131ACOH    C1 9945   5.655   2.127   0.765 -0.2940  0.1786 -0.0385
  131ACOH    H1 9946   5.591   2.065   0.829 -0.4059  1.2975  0.9441
  131ACOH    H2 9947   5.753   2.136   0.810  0.1850 -1.3459 -0.7344
  131ACOH    H3 9948   5.668   2.071   0.672  2.0367  1.5272 -0.5387
  132ACOH    H4 9949   1.285   8.247   1.935 -1.3392  1.7625 -0.5315
  132ACOH    O2 9950   1.354   8.264   1.869 -0.3832 -0.0955 -0.0515
  132ACOH    C2 9951   1.299   8.237   1.746  0.5096 -0.7248  0.1915
  132ACOH    O1 9952   1.189   8.198   1.722  1.0056  0.1066 -0.0755
  132ACOH    C1 9953   1.392   8.255   1.635  0.1236 -0.3863  0.4577
  132ACOH    H1 9954   1.354   8.243   1.533 -1.1086 -0.2866  0.8972
  132ACOH    H2 9955   1.472   8.183   1.652  3.0449  2.7253  0.4246
  132ACOH    H3 9956   1.421   8.360   1.635  0.7644 -0.5605  0.8921
  133ACOH    H4 9957   7.142   7.456   1.987  0.9026 -0.7073 -0.7226
  133ACOH    O2 9958   7.213   7.515   1.958  0.6284 -0.1197 -0.2151
  133ACOH    C2 9959   7.162   7.635   1.919 -0.1952  0.5332  0.9625
  133ACOH    O1 9960   7.060   7.696   1.943 -0.5554 -0.3567  0.4739
  133ACOH    C1 9961   7.259   7.702   1.824  0.1316  0.5676 -0.3475
  133ACOH    H1 9962   7.204   7.703   1.730 -0.1939  2.0679 -0.1471
  133ACOH    H2 9963   7.350   7.642   1.813 -0.4842 -0.2502 -1.0215
  133ACOH    H3 9964   7.284   7.801   1.862 -0.2274  0.7540 -0.6002
  134ACOH    H4 9965   0.137   1.630   2.395 -4.3710  2.9256 -2.0199
  134ACOH    O2 9966   0.204   1.701   2.393 -0.6693 -0.2914 -0.2041
  134ACOH    C2 9967   0.197   1.782   2.502 -0.2690 -0.1906  0.3547
  134ACOH    O1 9968   0.125   1.764   2.600  0.1931  0.7747 -0.2816
  134ACOH    C1 9969   0.290   1.895   2.492  0.2118  0.8247  0.1813
  134ACOH    H1 9970   0.232   1.985   2.466 -2.0749  0.0793  2.5373
  134ACOH    H2 9971   0.361   1.872   2.412 -1.6304  0.1735 -1.3173
  134ACOH    H3 9972   0.340   1.906   2.588 -3.8413  2.8252  2.1755
  135ACOH    H4 9973   3.929   4.608   2.170  0.6925 -1.1451 -1.3768
  135ACOH    O2 9974   3.956   4.698   2.145 -1.2106  0.0386  0.6344
  135ACOH    C2 9975   3.985   4.751   2.270  0.5843 -0.3756 -0.0911
  135ACOH    O1 9976   3.986   4.693   2.376 -0.2060  0.4329  0.1195
  135ACOH    C1 9977   4.033   4.888   2.252  0.3516 -0.5276 -0.5617
  135ACOH    H1 9978   3.960   4.952   2.202 -0.7637  0.7184  2.5415
  135ACOH    H2 9979   4.120   4.876   2.188 -0.3239 -1.9994 -1.2339
  135ACOH    H3 9980   4.055   4.932   2.349 -0.9721 -1.1683  0.0607
  136ACOH    H4 9981   7.673   4.017   4.737  0.2003 -1.8290  0.4401
  136ACOH    O2 9982   7.763   4.037   4.766  0.1894 -0.2362 -0.5403
  136ACOH    C2 9983   7.761   4.049   4.900 -0.3326  0.2999  0.2608
  136ACOH    O1 9984   7.663   4.037   4.968 -0.2943  0.2746  0.1336
  136ACOH    C1 9985   7.888   4.090   4.957  0.0445 -0.8461 -0.3430
  136ACOH    H1 9986   7.924   4.171   4.894  0.0399  0.3979  1.2239
  136ACOH    H2 9987   7.949   4.001   4.949 -0.1709 -0.9872 -0.4339
  136ACOH    H3 9988   7.888   4.136   5.056 -1.0545 -0.4963 -0.4955
  137ACOH    H4 9989   3.190   5.671   4.177 -1.5417 -1.8131  0.9040
  137ACOH    O2 9990   3.138   5.748   4.207  0.2818 -0.2830  0.2102
  137ACOH    C2 9991   3.027   5.703   4.267  0.2828 -0.0792 -0.0200
  137ACOH    O1 9992   3.025   5.596   4.331 -0.5219  0.3956 -0.1158
  137ACOH    C1 9993   2.938   5.818   4.300  0.7358  0.3621 -0.5663
  137ACOH    H1 9994   2.834   5.788   4.290  0.5285  0.5940  0.8380
  137ACOH    H2 9995   2.950   5.896   4.225  1.6538 -0.2467 -1.0660
  137ACOH    H3 9996   2.954   5.856   4.401  1.4965 -0.2899 -0.4342
  138ACOH    H4 9997   5.532   4.007   4.410 -0.0612 -1.6018  0.0675
  138ACOH    O2 9998   5.450   4.009   4.356  0.3276 -0.5459 -0.4996
  138ACOH    C2 9999   5.384   3.895   4.372 -0.1867 -0.0727  0.2644
  138ACOH    O110000   5.408   3.806   4.453  0.0622  0.3617  0.2925
  138ACOH    C110001   5.266   3.889   4.291 -0.3489 -0.3918  0.1501
  138ACOH    H110002   5.189   3.851   4.358 -0.0195 -1.5468 -0.1144
  138ACOH    H210003   5.280   3.807   4.222 -0.7620  0.0158 -0.4246
  138ACOH    H310004   5.243   3.985   4.244  1.9329 -0.9069 -2.0912
  139ACOH    H410005   8.174   6.575   4.211 -1.2695  0.0293  0.1585
  139ACOH    O210006   8.155   6.628   4.289 -0.2769 -0.4932  0.7722
  139ACOH    C210007   8.238   6.601   4.394  0.5809 -0.1234 -0.5673
  139ACOH    O110008   8.346   6.549   4.382 -0.1823  0.3075  0.2075
  139ACOH    C110009   8.199   6.692   4.504  0.0459 -0.3336  0.4366
  139ACOH    H110010   8.174   6.792   4.469  3.9035  0.1353 -1.2135
  139ACOH    H210011   8.259   6.692   4.595 -0.1140 -0.5901  0.5429
  139ACOH    H310012   8.108   6.640   4.534 -0.3146  0.3155  0.4606
  140ACOH    H410013   5.479   1.452   1.054 -0.7634 -1.0083  2.4313
  140ACOH    O210014   5.573   1.429   1.064  0.0031  0.7839 -0.2759
  140ACOH    C210015   5.637   1.534   1.114 -0.1633 -0.2450 -0.3500
  140ACOH    O110016   5.596   1.634   1.165  0.6573  1.1523 -0.1232
  140ACOH    C110017   5.783   1.511   1.101 -0.2456  0.3368 -0.5025
  140ACOH    H110018   5.803   1.419   1.047 -0.9936  1.1273 -2.1589
  140ACOH    H210019   5.834   1.509   1.197  1.7366  2.6231 -1.4447
  140ACOH    H310020   5.828   1.595   1.048  1.2303 -0.7492 -1.0021
  141ACOH    H410021   7.409   1.567   0.231  0.2391  0.5954 -0.1427
  141ACOH    O210022   7.334   1.527   0.184  0.1875  0.4472  0.0655
  141ACOH    C210023   7.260   1.460   0.274 -0.2608 -0.0394  0.1152
  141ACOH    O110024   7.298   1.415   0.381 -0.1660 -0.8816  0.1140
  141ACOH    C110025   7.122   1.454   0.230  0.7595  0.0936 -0.2825
  141ACOH    H110026   7.099   1.514   0.142 -0.6138  0.7030  0.4644
  141ACOH    H210027   7.059   1.479   0.316  0.3181 -0.2307 -0.5137
  141ACOH    H310028   7.100   1.351   0.204  0.8989 -0.2495  0.9177
  142ACOH    H410029   5.065   0.834   2.995 -1.4183  0.8823 -0.7613
  142ACOH    O210030   5.011   0.831   3.075  0.2256  0.0999  0.3516
  142ACOH    C210031   5.025   0.941   3.153 -0.0863  0.5557 -0.2873
  142ACOH    O110032   5.128   1.009   3.157  0.2281  0.2503  0.1896
  142ACOH    C110033   4.926   0.934   3.262 -0.2994 -0.5866 -0.5035
  142ACOH    H110034   4.821   0.936   3.231 -0.2981  0.6861 -0.4473
  142ACOH    H210035   4.943   1.019   3.328 -0.0791 -0.3240 -0.8939
  142ACOH    H310036   4.948   0.839   3.311 -0.0858 -0.7099 -0.8326
  143ACOH    H410037   3.401   4.423   3.990 -0.7778 -0.2635  0.7049
  143ACOH    O210038   3.460   4.501   3.994 -0.5880 -0.3794  0.2098
  143ACOH    C210039   3.581   4.454   4.021  0.5730  0.2978  0.2652
  143ACOH    O110040   3.619   4.340   4.045  0.3723 -0.6638 -0.5845
  143ACOH    C110041   3.670   4.573   4.040  0.3945 -0.2709 -1.0680
  143ACOH    H110042   3.772   4.541   4.019  0.5228  0.2607 -1.2678
  143ACOH    H210043   3.674   4.612   4.141  1.5226 -0.7001 -0.9305
  143ACOH    H310044   3.646   4.659   3.977  0.1899 -0.0667 -0.7070
  144ACOH    H410045   4.300   4.469   0.640 -2.7661 -1.5036  2.4677
  144ACOH    O210046   4.243   4.543   0.615  0.4977  0.4156  0.3361
  144ACOH    C210047   4.206   4.514   0.487  0.5323  0.9148 -0.4517
  144ACOH    O110048   4.248   4.425   0.413 -0.0319  0.3454 -0.1939
  144ACOH    C110049   4.116   4.620   0.433  0.4499  0.4940  0.0912
  144ACOH    H110050   4.068   4.663   0.521 -0.8738 -1.6851  0.4755
  144ACOH    H210051   4.045   4.578   0.361  0.4369  1.1453 -0.2726
  144ACOH    H310052   4.184   4.692   0.388 -0.6920  0.9190 -0.9715
  145ACOH    H410053   7.011   6.803   3.413 -0.3397  1.4027 -1.5558
  145ACOH    O210054   6.988   6.849   3.496 -0.0815 -0.9185 -0.1702
  145ACOH    C210055   7.044   6.972   3.485  0.2229 -0.4444 -0.0036
  145ACOH    O110056   7.095   7.014   3.383  0.5864 -0.3510 -0.2087
  145ACOH    C110057   7.030   7.054   3.611  0.9107  0.3239  0.2925
  145ACOH    H110058   7.065   6.984   3.687 -0.3390 -0.9694 -0.2986
  145ACOH    H210059   6.927   7.080   3.638  0.8853  0.3350  0.1835
  145ACOH    H310060   7.091   7.144   3.609 -1.5347  2.0355  0.0981
  146ACOH    H410061   5.416   5.062   0.793 -1.1573 -0.1778 -1.2028
  146ACOH    O210062   5.458   5.136   0.745 -0.4254  0.0996 -0.1596
  146ACOH    C210063   5.520   5.079   0.640 -0.1814 -0.0979  0.5536
  146ACOH    O110064   5.520   4.961   0.610 -0.6015  0.3263 -0.0389
  146ACOH    C110065   5.573   5.192   0.566  0.0058 -0.3943 -0.3122
  146ACOH    H110066   5.630   5.241   0.646 -1.8304 -1.1391  1.5192
  146ACOH    H210067   5.493   5.255   0.527 -3.0316 -2.2606  2.5320
  146ACOH    H310068   5.639   5.141   0.497  0.6305 -0.2899  0.2009
  147ACOH    H410069   7.271   0.403   1.220  1.5433  0.7091  0.6143
  147ACOH    O210070   7.235   0.425   1.308  0.3692  0.3717  0.2236
  147ACOH    C210071   7.118   0.489   1.295  0.3464  0.0388 -0.5643
  147ACOH    O110072   7.060   0.545   1.384 -0.2191  0.6542 -0.8780
  147ACOH    C110073   7.075   0.509   1.158  0.6845  0.1612  0.3824
  147ACOH    H110074   7.089   0.420   1.097 -1.2731  0.8239 -1.1001
  147ACOH    H210075   7.132   0.592   1.116  1.0396 -0.6554 -0.7833
  147ACOH    H310076   6.971   0.543   1.153  0.6431  0.0878  0.8015
  148ACOH    H410077   4.560   3.837   2.887 -1.4968 -0.5911 -1.5880
  148ACOH    O210078   4.648   3.795   2.890 -0.8764  0.8066  0.0870
  148ACOH    C210079   4.676   3.731   2.997  0.0869  0.1033  0.2275
  148ACOH    O110080   4.589   3.713   3.079 -0.0262 -0.0764 -1.2058
  148ACOH    C110081   4.808   3.654   2.990 -0.5476 -0.1059 -0.0133
  148ACOH    H110082   4.788   3.547   2.994  2.3609 -0.6448  1.2165
  148ACOH    H210083   4.872   3.685   3.072 -0.2926 -1.0953  0.1701
  148ACOH    H310084   4.860   3.686   2.900  0.4377  0.3707  0.7156
  149ACOH    H410085   3.267   5.086   0.093 -2.3816  0.5944  0.8176
  149ACOH    O210086   3.302   5.176   0.084 -0.1986 -0.3337 -0.2630
  149ACOH    C210087   3.199   5.255   0.117  0.7008  0.7685  0.3099
  149ACOH    O110088   3.086   5.218   0.140 -0.7088  0.3141 -0.7951
  149ACOH    C110089   3.236   5.396   0.145  0.1697 -0.0883  0.5370
  149ACOH    H110090   3.337   5.427   0.117  1.8796 -3.6098  2.5130
  149ACOH    H210091   3.236   5.414   0.252  0.7814 -0.3896  0.5898
  149ACOH    H310092   3.170   5.465   0.092 -0.7153 -0.9396  0.5158
  150ACOH    H410093   7.081   1.559   2.572  0.7308  0.0314 -1.2104
  150ACOH    O210094   7.108   1.651   2.559 -0.7595  0.5915 -0.4722
  150ACOH    C210095   7.015   1.728   2.501  0.0152  0.1734 -0.0534
  150ACOH    O110096   6.914   1.697   2.450  0.3073 -0.3746 -0.5930
  150ACOH    C110097   7.063   1.870   2.504 -0.7287  1.1560 -0.0011
  150ACOH    H110098   7.140   1.880   2.581  2.2170  1.1335 -2.8313
  150ACOH    H210099   6.972   1.929   2.511 -1.4287  0.2650 -1.2259
  150ACOH    H310100   7.099   1.888   2.403 -0.3399 -2.4205 -0.5940
  151ACOH    H410101   5.437   1.288   1.921  1.1626 -1.3393  2.5624
  151ACOH    O210102   5.394   1.361   1.968 -0.1506 -0.3472 -0.0456
  151ACOH    C210103   5.429   1.340   2.099  0.4663 -0.0912  0.0525
  151ACOH    O110104   5.499   1.254   2.143  0.1348 -0.0562 -0.1563
  151ACOH    C110105   5.361   1.434   2.188  0.4552 -0.4036 -0.2136
  151ACOH    H110106   5.299   1.388   2.265 -0.0076  0.9381  0.2424
  151ACOH    H210107   5.299   1.506   2.134  1.2461 -0.0873 -0.7030
  151ACOH    H310108   5.434   1.500   2.237  0.5737 -2.0279  1.8584
  152ACOH    H410109   7.174   5.764   1.940  1.3635 -0.9222  0.7810
  152ACOH    O210110   7.097   5.723   1.982  0.6106 -0.0761  0.2457
  152ACOH    C210111   7.111   5.722   2.114 -0.0995 -0.3472 -0.2565
  152ACOH    O110112   7.181   5.794   2.182  0.6208  0.3087 -0.2542
  152ACOH    C110113   6.999   5.639   2.180  0.0600  0.8267 -0.3533
  152ACOH    H110114   6.915   5.613   2.115 -0.7950  0.8261  0.7371
  152ACOH    H210115   6.959   5.683   2.271  1.1096 -1.3776  1.1949
  152ACOH    H310116   7.052   5.545   2.197  2.5298  2.1863 -0.3136
  153ACOH    H410117   2.077   3.196   3.066 -1.9515 -0.3369  1.3135
  153ACOH    O210118   2.072   3.280   3.114  0.4127  0.3345  0.4300
  153ACOH    C210119   2.033   3.238   3.240  0.1874 -0.6551 -0.1477
  153ACOH    O110120   2.013   3.123   3.279  0.0701 -0.4577 -0.0496
  153ACOH    C110121   2.025   3.356   3.322  0.9410 -0.2149  0.4349
  153ACOH    H110122   1.959   3.337   3.406  0.0352  1.3874  0.1168
  153ACOH    H210123   1.995   3.443   3.263 -1.1439  0.9877  3.1680
  153ACOH    H310124   2.124   3.387   3.358 -0.0088  0.3971  2.5722
  154ACOH    H410125   7.873   6.085   1.422  0.7495  0.5189 -2.5546
  154ACOH    O210126   7.812   6.027   1.374  0.2152 -0.6946 -0.4651
  154ACOH    C210127   7.803   6.067   1.245 -0.3628 -0.0176  0.1667
  154ACOH    O110128   7.860   6.164   1.200  0.3581 -0.1215  0.0056
  154ACOH    C110129   7.712   5.986   1.163 -0.1384  0.1405  0.3777
  154ACOH    H110130   7.677   6.039   1.075 -1.2169 -0.5197  0.4001
  154ACOH    H210131   7.627   5.953   1.223  0.7241 -0.3969  1.3321
  154ACOH    H310132   7.780   5.911   1.122 -1.1229 -0.1304 -0.7764
  155ACOH    H410133   5.911   8.813   3.754  2.2905 -1.4756  2.3729
  155ACOH    O210134   5.838   8.781   3.809  0.5235 -0.3266  0.7618
  155ACOH    C210135   5.727   8.775   3.727  0.1454  1.1488  0.2883
  155ACOH    O110136   5.728   8.815   3.612 -0.1373  0.0254 -0.3026
  155ACOH    C110137   5.605   8.721   3.794 -0.0061  0.6470  1.0126
  155ACOH    H110138   5.572   8.792   3.870  0.8146  1.6826  0.4245
  155ACOH    H210139   5.630   8.624   3.838  0.2272  0.7727  1.1589
  155ACOH    H310140   5.527   8.700   3.721  2.2298 -1.8424 -0.7783
  156ACOH    H410141   4.560   9.638   0.435 -0.0740 -0.5948 -0.6041
  156ACOH    O210142   4.625   9.598   0.495 -0.0452  0.3497  0.0022
  156ACOH    C210143   4.744   9.654   0.508  0.3629 -0.4774  0.5441
  156ACOH    O110144   4.801   9.636   0.612  0.1738 -0.8549  0.2237
  156ACOH    C110145   4.783   9.754   0.404 -0.1390 -0.3688  0.9276
  156ACOH    H110146   4.703   9.827   0.399 -0.8192 -1.1820 -0.4767
  156ACOH    H210147   4.792   9.700   0.310  1.2523 -2.6113  2.3099
  156ACOH    H310148   4.875   9.810   0.422 -1.4903  1.6035  1.8565
  157ACOH    H410149   3.481   6.633   4.442  1.6381 -1.3469  0.5400
  157ACOH    O210150   3.562   6.675   4.476  0.7798  0.6508  0.1846
  157ACOH    C210151   3.520   6.771   4.570  0.0364 -0.0024  0.7459
  157ACOH    O110152   3.409   6.799   4.599  0.4345  0.1616  0.2534
  157ACOH    C110153   3.635   6.847   4.627  0.7734  0.4908 -0.1857
  157ACOH    H110154   3.699   6.882   4.547  0.9756  1.2866  0.3222
  157ACOH    H210155   3.704   6.794   4.693 -0.2093 -1.5891 -0.7819
  157ACOH    H310156   3.601   6.934   4.684  0.0546  0.3589 -0.4099
  158ACOH    H410157   4.707   3.148   3.084  0.1383  0.0698 -0.3067
  158ACOH    O210158   4.771   3.221   3.074 -0.0227  0.2039 -0.3461
  158ACOH    C210159   4.842   3.211   2.966  0.0551  0.3389  0.7481
  158ACOH    O110160   4.822   3.145   2.866  0.0959 -0.6480  0.6254
  158ACOH    C110161   4.938   3.325   2.954  0.3612 -0.0827  0.0397
  158ACOH    H110162   4.967   3.367   3.050 -1.0607 -1.6652  1.1984
  158ACOH    H210163   4.899   3.404   2.891  0.9518 -0.0825 -0.3287
  158ACOH    H310164   5.025   3.289   2.899  0.0634  1.8119 -1.7153
  159ACOH    H410165   5.337   1.764   2.470  0.2293 -2.2338  0.1539
  159ACOH    O210166   5.376   1.751   2.382  0.6454 -0.1117 -0.0057
  159ACOH    C210167   5.341   1.843   2.293 -0.8197  0.2640  0.4675
  159ACOH    O110168   5.265   1.938   2.325  0.1236 -0.2990  0.4638
  159ACOH    C110169   5.425   1.834   2.174 -0.6681 -0.0322  0.6254
  159ACOH    H110170   5.528   1.807   2.197 -1.3233 -3.9401 -0.6510
  159ACOH    H210171   5.414   1.921   2.110 -1.2293  0.4111  1.3205
  159ACOH    H310172   5.400   1.746   2.115 -0.4485  0.6461 -0.4923
  160ACOH    H410173   7.570   2.135   3.139  0.6589 -2.9037 -1.6098
  160ACOH    O210174   7.480   2.114   3.109 -0.8841  0.3209  0.4973
  160ACOH    C210175   7.443   2.162   2.991 -0.5909  0.3138  0.2590
  160ACOH    O110176   7.524   2.215   2.911  0.2169  0.3679  0.1052
  160ACOH    C110177   7.310   2.107   2.969  0.3844  0.1002 -0.0388
  160ACOH    H110178   7.287   2.118   2.863 -0.2100 -0.8497 -0.0073
  160ACOH    H210179   7.244   2.162   3.036 -0.8498 -2.3839  0.8454
  160ACOH    H310180   7.312   2.005   3.005  1.1367  0.3057  0.5298
  161ACOH    H410181   0.756   2.562   2.234 -0.7058  1.2576  2.4265
  161ACOH    O210182   0.849   2.579   2.257  0.1765  0.3475 -0.3007
  161ACOH    C210183   0.889   2.470   2.325  0.3463  0.1800 -0.3890
  161ACOH    O110184   0.828   2.365   2.324  0.3216  1.1060 -0.3022
  161ACOH    C110185   1.027   2.479   2.382  0.1155  0.7487 -0.3337
  161ACOH    H110186   1.083   2.567   2.352 -0.9620  0.8974 -1.9645
  161ACOH    H210187   1.080   2.387   2.361  1.7907  0.9757  2.6210
  161ACOH    H310188   1.016   2.478   2.491 -1.9735  0.4007 -0.5184
  162ACOH    H410189   9.436   2.866   4.086  2.4046  0.5029  0.3781
  162ACOH    O210190   9.419   2.961   4.097  0.0233  0.1714 -0.1878
  162ACOH    C210191   9.500   3.039   4.027  0.6791 -0.0847  0.5076
  162ACOH    O110192   9.605   3.008   3.976 -0.5407 -0.1489  0.0625
  162ACOH    C110193   9.462   3.182   4.039 -0.0402  0.3414 -0.7053
  162ACOH    H110194   9.400   3.208   3.953  0.8325  0.2752 -1.3763
  162ACOH    H210195   9.556   3.237   4.049 -0.2150  0.1534  2.3738
  162ACOH    H310196   9.406   3.199   4.130  1.1496  0.1759  0.0611
  163ACOH    H410197   5.504   6.218   2.740 -0.9363  0.1654  0.2697
  163ACOH    O210198   5.476   6.144   2.797 -0.3497 -0.1511  0.1505
  163ACOH    C210199   5.585   6.085   2.852  0.2789 -0.0988  0.2424
  163ACOH    O110200   5.693   6.126   2.850 -0.4431 -0.0549  0.2852
  163ACOH    C110201   5.542   5.983   2.952 -0.8039  0.6706 -0.1671
  163ACOH    H110202   5.434   5.969   2.958 -0.9249  1.4177 -0.5124
  163ACOH    H210203   5.571   6.020   3.050  0.8953 -2.3139  0.5161
  163ACOH    H310204   5.597   5.890   2.940 -0.2800  0.7169  1.7449
  164ACOH    H410205   7.386   8.797   0.360  0.9771  0.9383 -1.6315
  164ACOH    O210206   7.444   8.720   0.370  0.0154  0.4017 -0.0285
  164ACOH    C210207   7.461   8.669   0.247  0.4558 -0.2672 -0.1145
  164ACOH    O110208   7.452   8.725   0.138 -0.3544  0.2384  0.1312
  164ACOH    C110209   7.534   8.544   0.255 -0.2489 -0.0893  0.0729
  164ACOH    H110210   7.491   8.463   0.196  3.4505 -0.9770 -1.5271
  164ACOH    H210211   7.543   8.504   0.356 -1.5328  2.4255  1.2118
  164ACOH    H310212   7.635   8.563   0.219 -0.3371  0.4030  0.0935
  165ACOH    H410213   6.659   8.411   3.473 -0.9732 -0.3854 -0.4732
  165ACOH    O210214   6.647   8.318   3.448  0.0011 -0.4778 -0.6044
  165ACOH    C210215   6.516   8.296   3.422 -0.0815  0.4674  0.0192
  165ACOH    O110216   6.425   8.368   3.456  0.4671 -0.7217 -0.0210
  165ACOH    C110217   6.489   8.156   3.378 -0.9479 -0.4004 -0.0024
  165ACOH    H110218   6.381   8.145   3.371 -1.1197  0.4592  1.0851
  165ACOH    H210219   6.523   8.089   3.457  2.4610  2.2452  0.8779
  165ACOH    H310220   6.531   8.126   3.282  0.3408 -1.5793  0.9050
  166ACOH    H410221   4.239   4.170   3.047 -0.3336 -3.0685 -0.0147
  166ACOH    O210222   4.148   4.192   3.019  0.1965  0.1085  0.4940
  166ACOH    C210223   4.133   4.153   2.889  0.1486  0.6109 -0.4470
  166ACOH    O110224   4.213   4.090   2.822  0.4468 -0.2909 -0.4153
  166ACOH    C110225   4.001   4.212   2.841 -0.4837 -0.4835 -0.1249
  166ACOH    H110226   3.997   4.321   2.846  0.8342 -0.4422  0.2854
  166ACOH    H210227   3.922   4.169   2.903 -0.8056 -1.8049 -1.4360
  166ACOH    H310228   3.994   4.188   2.735  0.0572 -1.2386  0.0081
  167ACOH    H410229   1.631   4.488   4.143 -0.2084 -0.7736 -0.8275
  167ACOH    O210230   1.604   4.526   4.057  0.2510  0.4319 -0.4550
  167ACOH    C210231   1.494   4.462   4.015 -0.6395  0.3640  0.4797
  167ACOH    O110232   1.415   4.405   4.092  0.0912  0.3484  0.6659
  167ACOH    C110233   1.466   4.485   3.873 -0.0371 -0.8938 -0.0799
  167ACOH    H110234   1.372   4.439   3.843 -0.3592 -0.4557  0.2555
  167ACOH    H210235   1.550   4.442   3.818 -0.5735 -1.6230 -0.3389
  167ACOH    H310236   1.475   4.592   3.856 -0.0262 -0.8719  0.0646
  168ACOH    H410237   5.090   6.169   1.866  0.2122 -1.3907  0.4699
  168ACOH    O210238   5.181   6.196   1.844 -0.2164  0.0004  0.3665
  168ACOH    C210239   5.188   6.332   1.855  0.1438  0.2867  0.3016
  168ACOH    O110240   5.094   6.416   1.857  0.4489 -0.3995  0.2972
  168ACOH    C110241   5.335   6.366   1.859  0.0780  0.5823 -0.1287
  168ACOH    H110242   5.356   6.473   1.860  1.4208  0.3790 -2.6502
  168ACOH    H210243   5.376   6.329   1.766 -0.8345  0.2706 -0.4119
  168ACOH    H310244   5.379   6.324   1.950  1.5764  0.0356 -1.1002
  169ACOH    H410245   2.436   6.755   4.400 -0.9167  1.6400  2.3896
  169ACOH    O210246   2.477   6.833   4.359  0.0073 -0.0036  0.0824
  169ACOH    C210247   2.404   6.868   4.249 -0.3429  0.3727 -0.1087
  169ACOH    O110248   2.316   6.802   4.201  0.1834  0.2778  0.1075
  169ACOH    C110249   2.481   6.974   4.177 -0.6591  0.4121  0.4337
  169ACOH    H110250   2.533   7.042   4.244 -0.5060  0.3627  0.3658
  169ACOH    H210251   2.423   7.029   4.102 -0.2975  1.8981  1.2218
  169ACOH    H310252   2.559   6.922   4.120 -0.8241  0.4413  0.1834
  170ACOH    H410253   1.634   9.054   0.656  2.2966  0.1657  2.5311
  170ACOH    O210254   1.588   8.986   0.708 -0.3126 -0.4605 -0.4651
  170ACOH    C210255   1.461   9.029   0.721  0.1584  0.8053  0.1783
  170ACOH    O110256   1.424   9.142   0.738 -0.2166 -0.2111 -0.0545
  170ACOH    C110257   1.388   8.914   0.787 -0.2377  0.5260 -0.2301
  170ACOH    H110258   1.408   8.908   0.894 -0.4008 -0.5979 -0.2480
  170ACOH    H210259   1.425   8.820   0.745  0.3301  0.1088  1.1863
  170ACOH    H310260   1.279   8.921   0.775 -0.4929 -2.8482 -0.3857
  171ACOH    H410261   7.023   3.154   4.084 -0.3903 -2.1191 -0.5349
  171ACOH    O210262   7.047   3.168   3.991 -0.3133 -0.2648 -0.2590
  171ACOH    C210263   7.002   3.068   3.916 -0.5721 -0.9119 -0.3244
  171ACOH    O110264   6.913   2.991   3.949  0.5581 -0.2718  0.6264
  171ACOH    C110265   7.072   3.070   3.790  0.2565  0.1069 -0.2127
  171ACOH    H110266   7.179   3.060   3.805  0.5998 -0.8699 -2.9252
  171ACOH    H210267   7.057   3.168   3.743  0.8493 -0.0464 -0.7323
  171ACOH    H310268   7.040   2.991   3.722 -1.7731  1.4222 -0.8461
  172ACOH    H410269   4.386   1.998   3.675  0.0212  2.0775 -0.7875
  172ACOH    O210270   4.482   2.002   3.685  0.0830 -0.2171 -0.0523
  172ACOH    C210271   4.539   1.924   3.585  0.1814  0.5335 -0.5323
  172ACOH    O110272   4.490   1.832   3.522 -0.6865  0.0898 -0.1362
  172ACOH    C110273   4.687   1.943   3.587 -0.1502 -0.3323  0.2819
  172ACOH    H110274   4.710   1.961   3.482  0.3506 -1.3904  0.2011
  172ACOH    H210275   4.741   1.852   3.615 -2.5404 -1.3818  1.6099
  172ACOH    H310276   4.709   2.032   3.647 -3.1121  0.8159 -0.2779
  173ACOH    H410277   1.848   0.776   0.145 -0.5073  1.8855  0.3658
  173ACOH    O210278   1.901   0.786   0.226 -0.0242  0.2063  0.2826
  173ACOH    C210279   1.834   0.733   0.334  0.3801  0.4186  0.0953
  173ACOH    O110280   1.712   0.740   0.351  0.0255 -0.0680  0.5617
  173ACOH    C110281   1.922   0.703   0.447  0.2350 -0.9525  0.1929
  173ACOH    H110282   1.904   0.784   0.518  0.7021 -1.0394  0.4135
  173ACOH    H210283   2.028   0.699   0.424 -0.1872  0.5504 -2.0851
  173ACOH    H310284   1.896   0.604   0.486 -0.9909 -0.3165  1.0158
  174ACOH    H410285   4.633   6.214   1.338  0.3382  0.7747 -1.0946
  174ACOH    O210286   4.673   6.130   1.311  0.3385  0.3443  0.2167
  174ACOH    C210287   4.801   6.132   1.324 -0.6434  0.7252  0.0477
  174ACOH    O110288   4.879   6.224   1.324 -0.0590  0.0066 -0.1036
  174ACOH    C110289   4.847   5.994   1.344 -0.6957  0.1754 -0.7075
  174ACOH    H110290   4.820   5.955   1.442  2.8098 -0.1640  0.1677
  174ACOH    H210291   4.956   5.997   1.342 -0.6163  1.3533  2.4871
  174ACOH    H310292   4.814   5.923   1.268 -1.0251  0.2223 -0.6111
  175ACOH    H410293   7.705   2.008   2.197 -0.7388  0.1927 -0.4864
  175ACOH    O210294   7.696   2.104   2.207  0.0746  0.2717 -0.4809
  175ACOH    C210295   7.626   2.161   2.107 -0.1577 -0.2221  0.6649
  175ACOH    O110296   7.592   2.094   2.013  0.4909 -0.4819  0.3791
  175ACOH    C110297   7.582   2.295   2.140  0.1078 -0.1160  0.0560
  175ACOH    H110298   7.673   2.356   2.141  0.0331  0.0096 -0.8072
  175ACOH    H210299   7.540   2.310   2.239 -2.0831 -2.6703 -0.4596
  175ACOH    H310300   7.523   2.334   2.057  0.0038  0.6415  0.4756
  176ACOH    H410301   7.810   6.051   3.397  0.1605  0.8790 -1.0750
  176ACOH    O210302   7.732   6.080   3.347 -0.8278  0.0593 -0.0497
  176ACOH    C210303   7.781   6.106   3.223  0.0281  1.1610 -0.1170
  176ACOH    O110304   7.899   6.112   3.180 -0.3457 -0.3875 -0.7506
  176ACOH    C110305   7.667   6.124   3.128  0.1701 -0.1740 -0.2525
  176ACOH    H110306   7.592   6.188   3.174 -2.2926 -1.8231 -1.8517
  176ACOH    H210307   7.618   6.027   3.127  0.0276 -0.1014 -0.4364
  176ACOH    H310308   7.695   6.158   3.028 -0.4823  1.2988  0.0536
  177ACOH    H410309   6.509   7.722   1.535 -2.0703  1.3264 -2.3008
  177ACOH    O210310   6.476   7.631   1.521  0.0967  0.0976  0.0721
  177ACOH    C210311   6.580   7.557   1.477 -0.1634 -0.1605 -0.4712
  177ACOH    O110312   6.698   7.595   1.466 -0.2381 -0.3525  0.5581
  177ACOH    C110313   6.534   7.415   1.476  0.7500 -0.0899  0.4501
  177ACOH    H110314   6.431   7.409   1.440  0.3367  2.4556  1.1440
  177ACOH    H210315   6.531   7.384   1.580 -2.4560 -1.9570 -0.1208
  177ACOH    H310316   6.613   7.359   1.427  1.2825  1.1783 -0.1658
  178ACOH    H410317   3.182   4.354   1.836 -1.4012 -0.3538 -0.0701
  178ACOH    O210318   3.192   4.445   1.871 -0.5961 -0.3971 -0.1810
  178ACOH    C210319   3.258   4.447   1.993  0.2708 -0.8752  1.4335
  178ACOH    O110320   3.305   4.353   2.052  0.2091 -0.3310  0.0099
  178ACOH    C110321   3.256   4.586   2.052 -0.1254  0.3712 -0.1092
  178ACOH    H110322   3.155   4.616   2.080 -0.3479  0.3859 -0.9154
  178ACOH    H210323   3.277   4.661   1.976 -1.6072 -0.8117 -1.7206
  178ACOH    H310324   3.326   4.597   2.135 -0.8723 -1.8998  0.8831
  179ACOH    H410325   0.282   1.761   2.219 -1.1298  2.4528 -0.2882
  179ACOH    O210326   0.369   1.772   2.178 -0.5802  0.4489  0.2793
  179ACOH    C210327   0.377   1.901   2.120  0.1808 -0.0972  0.2039
  179ACOH    O110328   0.310   1.999   2.151  0.6805  0.7031  0.3777
  179ACOH    C110329   0.477   1.901   2.012 -0.9705 -0.1182 -0.2703
  179ACOH    H110330   0.430   1.862   1.922 -2.0381  2.0263 -0.6665
  179ACOH    H210331   0.557   1.831   2.036 -1.2078  0.0090  0.8810
  179ACOH    H310332   0.509   2.005   2.000 -1.2929  0.0005 -0.0925
  180ACOH    H410333   3.715   4.511   2.670 -0.6918 -0.4494 -0.1219
  180ACOH    O210334   3.665   4.494   2.751 -0.0542 -0.3300  0.2978
  180ACOH    C210335   3.579   4.584   2.774 -0.0394  0.1391  0.4351
  180ACOH    O110336   3.533   4.666   2.693  0.1956  0.0783  0.6386
  180ACOH    C110337   3.526   4.566   2.909  0.2935 -0.0566  1.0994
  180ACOH    H110338   3.448   4.641   2.922 -1.4513 -1.0866 -2.6634
  180ACOH    H210339   3.603   4.570   2.986  1.7464 -0.2071 -0.3235
  180ACOH    H310340   3.478   4.468   2.913 -1.7139  0.7751 -1.0626
  181ACOH    H410341   7.392   1.821   4.706 -0.8955 -0.5692  0.0092
  181ACOH    O210342   7.344   1.828   4.790  0.2185 -0.3669  0.6287
  181ACOH    C210343   7.365   1.948   4.851  0.6252 -0.2054 -0.2553
  181ACOH    O110344   7.468   2.008   4.828  0.2902 -0.8974  0.0103
  181ACOH    C110345   7.288   1.951   4.981  0.5293 -0.1449  0.5711
  181ACOH    H110346   7.255   2.054   4.994 -2.0492 -0.5054 -2.3300
  181ACOH    H210347   7.351   1.919   5.064  0.2948 -2.0558  0.0449
  181ACOH    H310348   7.205   1.881   4.974 -0.2507  0.7695  0.5227
  182ACOH    H410349   7.505   2.029   1.869 -0.5483 -0.2291  0.8331
  182ACOH    O210350   7.466   1.997   1.786  0.4076  0.0501  0.2620
  182ACOH    C210351   7.541   1.895   1.734 -0.0081  0.5187  1.1158
  182ACOH    O110352   7.640   1.844   1.785 -0.3293  0.0842 -0.1272
  182ACOH    C110353   7.490   1.865   1.600 -0.6219  0.2495  0.3988
  182ACOH    H110354   7.569   1.816   1.543  0.6415 -0.0349  2.3625
  182ACOH    H210355   7.466   1.959   1.550  0.5958  0.8059  0.8461
  182ACOH    H310356   7.401   1.803   1.605 -1.3421  1.0815 -1.7525
  183ACOH    H410357   7.594   9.220   3.647  2.1337  0.2403 -0.7382
  183ACOH    O210358   7.560   9.132   3.626  0.2063  0.6468  0.5715
  183ACOH    C210359   7.672   9.058   3.593  0.1125 -0.0074 -0.4904
  183ACOH    O110360   7.784   9.074   3.644  0.1129  0.0644  0.3549
  183ACOH    C110361   7.651   8.933   3.509 -0.2454  0.1409  0.3948
  183ACOH    H110362   7.719   8.938   3.424  2.1918  0.7855  2.3094
  183ACOH    H210363   7.550   8.919   3.472  0.0466  0.2370 -0.4496
  183ACOH    H310364   7.679   8.848   3.571 -0.4287 -2.2880 -2.7471
  184ACOH    H410365   6.386   8.616   2.032 -0.2358  0.0795 -0.1215
  184ACOH    O210366   6.448   8.550   2.066  0.0649  0.1517 -0.5192
  184ACOH    C210367   6.526   8.612   2.161  0.5684 -0.2965  0.2388
  184ACOH    O110368   6.543   8.734   2.175  0.1702  0.3437 -0.5348
  184ACOH    C110369   6.596   8.515   2.246 -0.5227  0.2086  0.8177
  184ACOH    H110370   6.626   8.428   2.188  1.3819  1.1173  0.4216
  184ACOH    H210371   6.533   8.480   2.328 -0.7428 -0.9673  0.1656
  184ACOH    H310372   6.681   8.556   2.301 -0.6351  3.0421 -1.0041
  185ACOH    H410373   4.852   4.373   1.532  0.4398  0.5060 -1.0121
  185ACOH    O210374   4.891   4.351   1.618 -0.3489  0.2930 -0.7016
  185ACOH    C210375   4.894   4.464   1.690 -0.1740  1.1779  0.4562
  185ACOH    O110376   4.864   4.576   1.652 -0.4481 -0.4532 -0.0532
  185ACOH    C110377   4.920   4.438   1.835  0.2310  0.6394 -0.3951
  185ACOH    H110378   4.884   4.517   1.901 -0.4545  0.4158 -0.5048
  185ACOH    H210379   5.023   4.419   1.868 -0.8511  0.2239  2.9710
  185ACOH    H310380   4.865   4.347   1.860  0.7351  0.8272  1.5221
  186ACOH    H410381   4.160   6.393   3.006  2.2099  0.7781 -1.3597
  186ACOH    O210382   4.149   6.304   2.968  0.0271  0.3938  0.0633
  186ACOH    C210383   4.057   6.230   3.038  0.0193 -0.0535  0.2515
  186ACOH    O110384   4.007   6.263   3.141 -0.0245  0.3717 -0.7919
  186ACOH    C110385   4.041   6.095   2.983 -0.8279 -0.5091 -0.2957
  186ACOH    H110386   3.983   6.087   2.891 -1.0453  0.1552 -0.2204
  186ACOH    H210387   4.003   6.038   3.068  2.1914 -4.4184 -1.4353
  186ACOH    H310388   4.140   6.055   2.960  0.1751  0.4371  2.1733
  187ACOH    H410389   5.471   6.727   1.762  0.1015 -1.8186  2.9973
  187ACOH    O210390   5.567   6.721   1.757  0.1599  0.3193  0.4193
  187ACOH    C210391   5.627   6.833   1.702  0.0866 -0.1294  0.5043
  187ACOH    O110392   5.571   6.930   1.655 -0.2054  0.1273 -0.4719
  187ACOH    C110393   5.768   6.827   1.732  0.0437  0.5187 -0.1316
  187ACOH    H110394   5.769   6.805   1.838  0.5126 -0.1484 -0.2681
  187ACOH    H210395   5.816   6.923   1.713  0.3268 -0.0724 -2.6071
  187ACOH    H310396   5.820   6.750   1.674 -1.7424  0.1496 -1.2785
  188ACOH    H410397   7.222   3.302   0.210 -0.9498  0.5621 -1.2284
  188ACOH    O210398   7.231   3.399   0.214 -0.1954  0.4449  0.2593
  188ACOH    C210399   7.360   3.429   0.179  0.0724  0.4719  0.0097
  188ACOH    O110400   7.444   3.350   0.135  0.6021  0.4501  0.0779
  188ACOH    C110401   7.381   3.579   0.170  0.7545  0.3757 -0.2730
  188ACOH    H110402   7.293   3.630   0.210 -0.5304 -1.9286 -0.1313
  188ACOH    H210403   7.393   3.606   0.065 -2.3362  0.7796 -0.5557
  188ACOH    H310404   7.466   3.607   0.232  1.2608 -0.2237 -0.6826
  189ACOH    H410405   0.152   0.772   2.616  2.4368  3.9687  2.2741
  189ACOH    O210406   0.241   0.750   2.586  0.7374 -0.7352  0.1365
  189ACOH    C210407   0.300   0.872   2.578 -0.0669 -0.0292  0.2242
  189ACOH    O110408   0.265   0.975   2.630  0.3820 -0.0170  0.1502
  189ACOH    C110409   0.433   0.857   2.516  0.4572 -0.0177 -0.5383
  189ACOH    H110410   0.473   0.766   2.560 -0.5169 -0.3303 -0.2761
  189ACOH    H210411   0.490   0.946   2.541  0.8580 -1.1143  2.6816
  189ACOH    H310412   0.414   0.865   2.409 -1.9040  0.3639 -0.1095
  190ACOH    H410413   7.789   4.875   0.183 -0.0116 -0.5505  0.3262
  190ACOH    O210414   7.700   4.844   0.207 -0.2204 -0.4585 -0.3255
  190ACOH    C210415   7.655   4.914   0.318  0.3812  0.5600 -0.0073
  190ACOH    O110416   7.730   4.974   0.397  0.2704  0.4385 -0.1662
  190ACOH    C110417   7.532   4.853   0.381 -0.0363 -0.0435 -0.0798
  190ACOH    H110418   7.553   4.760   0.434 -1.6084 -0.6618 -0.5001
  190ACOH    H210419   7.464   4.834   0.297  0.5860 -0.5360 -0.4747
  190ACOH    H310420   7.484   4.926   0.446  0.0189  1.7704 -2.0373
  191ACOH    H410421   5.629   3.825   0.118 -0.6674 -2.1800  1.3358
  191ACOH    O210422   5.680   3.853   0.196  0.0771 -0.2040  0.1722
  191ACOH    C210423   5.594   3.920   0.274  0.7697  0.2352  0.0939
  191ACOH    O110424   5.476   3.942   0.245 -0.1832 -0.4261 -0.3309
  191ACOH    C110425   5.662   3.994   0.377  1.1614  0.3470 -0.2270
  191ACOH    H110426   5.693   4.087   0.328 -1.5396  2.0412  1.2031
  191ACOH    H210427   5.756   3.954   0.416  1.3907  0.0135 -1.1084
  191ACOH    H310428   5.599   4.016   0.463  1.4635 -0.0262  0.0920
  192ACOH    H410429   5.333   3.552   0.439 -0.6876  0.9777 -2.3897
  192ACOH    O210430   5.349   3.459   0.416 -0.4251  0.5677 -0.6052
  192ACOH    C210431   5.376   3.379   0.521  0.6995 -0.2249 -0.1061
  192ACOH    O110432   5.362   3.412   0.638  0.1010  0.2992 -0.4522
  192ACOH    C110433   5.408   3.246   0.471  0.6785  0.4609 -0.4769
  192ACOH    H110434   5.337   3.175   0.513  0.6763  0.0212 -1.2209
  192ACOH    H210435   5.513   3.226   0.494  0.5540  0.7414  0.3898
  192ACOH    H310436   5.396   3.247   0.363  2.0722 -1.2283 -0.6563
  193ACOH    H410437   5.964   6.498   1.977 -0.2066 -1.3105  1.0840
  193ACOH    O210438   5.938   6.452   1.895  0.0405 -0.3062  0.4335
  193ACOH    C210439   5.824   6.386   1.928 -0.5980 -0.3917  0.5210
  193ACOH    O110440   5.801   6.355   2.046  0.2380 -0.6509 -0.1422
  193ACOH    C110441   5.734   6.340   1.811 -0.0785  0.5714  0.1919
  193ACOH    H110442   5.749   6.396   1.719 -1.6333 -1.8377 -1.5822
  193ACOH    H210443   5.630   6.353   1.842  0.6459  1.3179  2.3950
  193ACOH    H310444   5.758   6.235   1.796  0.0338 -0.0285  4.0821
  194ACOH    H410445   5.741   3.522   4.522  1.1274  3.4563  1.9796
  194ACOH    O210446   5.832   3.488   4.523  0.2389  0.7963 -0.1301
  194ACOH    C210447   5.829   3.370   4.585 -0.5021 -0.0266  0.3309
  194ACOH    O110448   5.727   3.302   4.600  0.3311 -0.5867  0.0587
  194ACOH    C110449   5.955   3.351   4.659 -0.0637 -0.3050  0.1084
  194ACOH    H110450   5.947   3.258   4.715 -3.1080 -0.7343 -0.9734
  194ACOH    H210451   5.973   3.436   4.726  1.0928 -0.9285  0.6081
  194ACOH    H310452   6.042   3.336   4.595  1.3943  2.5153  1.2694
  195ACOH    H410453   8.077   6.322   0.564  2.4149 -0.4985  1.4134
  195ACOH    O210454   8.038   6.401   0.604  0.4137 -0.7497  0.0386
  195ACOH    C210455   8.030   6.495   0.510 -0.0112  0.5761  0.1139
  195ACOH    O110456   8.100   6.504   0.408 -0.3740 -0.0141  0.0188
  195ACOH    C110457   7.940   6.611   0.541 -0.4599 -0.4020  0.1701
  195ACOH    H110458   7.975   6.657   0.633  0.2165 -2.7121  1.1036
  195ACOH    H210459   7.838   6.573   0.536 -0.3337 -0.4848 -3.3822
  195ACOH    H310460   7.950   6.695   0.472 -0.8745  0.7335  1.4671
  196ACOH    H410461   5.002   7.373   3.826 -0.6014  1.8489  0.5358
  196ACOH    O210462   5.052   7.332   3.898 -0.6485  0.2965 -0.3015
  196ACOH    C210463   5.056   7.412   4.008 -0.0284  0.5909 -0.1688
  196ACOH    O110464   5.019   7.527   4.003 -0.1930  0.1685  0.1499
  196ACOH    C110465   5.152   7.371   4.115 -0.8064  1.1108  0.7141
  196ACOH    H110466   5.234   7.442   4.118 -0.6449  1.0903 -1.9246
  196ACOH    H210467   5.192   7.271   4.098 -1.4975  1.1263 -1.0824
  196ACOH    H310468   5.100   7.371   4.211 -2.1992  0.2283 -0.0059
  197ACOH    H410469   6.661   0.546   1.511  1.1278  1.9832 -0.9736
  197ACOH    O210470   6.590   0.611   1.522 -0.2488  0.3013  0.2713
  197ACOH    C210471   6.489   0.567   1.445  0.3319  0.1723  0.1986
  197ACOH    O110472   6.478   0.460   1.389  0.0931  0.0056 -0.2925
  197ACOH    C110473   6.385   0.674   1.439  0.0190  0.3622  0.1956
  197ACOH    H110474   6.285   0.633   1.429  0.6632 -1.3712  0.7323
  197ACOH    H210475   6.397   0.744   1.356 -0.5469  1.2967  0.8887
  197ACOH    H310476   6.397   0.730   1.532  2.1347 -2.1680  1.5201
  198ACOH    H410477   1.357   1.895   1.240 -0.2693  0.4102  0.1376
  198ACOH    O210478   1.269   1.907   1.279 -0.3412  0.0224  0.1048
  198ACOH    C210479   1.239   2.039   1.287 -0.4234 -0.4464 -0.3145
  198ACOH    O110480   1.307   2.127   1.239  0.4588 -0.3985 -0.2325
  198ACOH    C110481   1.107   2.069   1.354 -0.3611 -0.1797  0.4781
  198ACOH    H110482   1.074   1.978   1.405  0.1688  0.7844  2.6302
  198ACOH    H210483   1.037   2.098   1.276  1.0694  0.0206 -0.7456
  198ACOH    H310484   1.116   2.144   1.433  0.4547  1.3512 -1.0434
  199ACOH    H410485   5.729   0.295   1.263 -0.2536 -1.4834 -0.4998
  199ACOH    O210486   5.800   0.357   1.239 -0.7109 -0.3206  1.0234
  199ACOH    C210487   5.851   0.426   1.348  0.4188  0.0650  0.6862
  199ACOH    O110488   5.773   0.461   1.437 -0.1558  0.3470 -0.1901
  199ACOH    C110489   5.978   0.488   1.317  0.0825  0.4721  0.2811
  199ACOH    H110490   6.051   0.408   1.325 -0.4225 -0.0535 -0.2902
  199ACOH    H210491   5.999   0.568   1.389 -0.6294 -0.5995  1.7077
  199ACOH    H310492   5.969   0.537   1.220  0.8248 -0.8640 -0.4705
  200ACOH    H410493   6.280   9.915   0.499  0.4603  1.0875 -0.8732
  200ACOH    O210494   6.187   9.910   0.524  0.7625  0.4992  0.1582
  200ACOH    C210495   6.134  10.021   0.465  0.1912 -0.4596 -0.1424
  200ACOH    O110496   6.184  10.089   0.378  0.3579  0.7325 -0.3655
  200ACOH    C110497   5.994  10.035   0.502  0.3730  1.1995  0.0977
  200ACOH    H110498   5.963  10.135   0.473 -1.5297 -0.1531 -2.8519
  200ACOH    H210499   5.989  10.027   0.610  2.5703  2.3457  0.3147
  200ACOH    H310500   5.941   9.953   0.454  0.5453  0.4742  1.1317
  201ACOH    H410501   6.319   8.827   1.213  1.7088 -2.5351 -0.8103
  201ACOH    O210502   6.318   8.876   1.129 -0.2568  0.1842  0.7468
  201ACOH    C210503   6.439   8.859   1.068 -0.1994  0.0979 -0.0533
  201ACOH    O110504   6.502   8.761   1.106 -0.1793  0.0301  0.4626
  201ACOH    C110505   6.451   8.921   0.930  0.2656  0.5334  0.2586
  201ACOH    H110506   6.449   9.030   0.939  1.8307  0.5569  0.5149
  201ACOH    H210507   6.368   8.894   0.865  1.9232 -1.1467 -1.2041
  201ACOH    H310508   6.546   8.897   0.882  1.2863  1.2755  1.8782
  202ACOH    H410509   4.273   1.019   4.217 -0.8265  0.0184  1.9143
  202ACOH    O210510   4.195   1.065   4.182  0.1135  0.0835 -0.1383
  202ACOH    C210511   4.133   0.964   4.115  0.0713 -0.3612 -0.0113
  202ACOH    O110512   4.151   0.848   4.127 -0.0793  0.0551  0.6049
  202ACOH    C110513   4.015   1.012   4.032  0.2435 -0.5136  0.1103
  202ACOH    H110514   3.978   0.925   3.979  1.6238 -1.9177  1.3664
  202ACOH    H210515   4.048   1.071   3.947 -1.5857  1.9564  1.0511
  202ACOH    H310516   3.928   1.050   4.086 -0.4105  0.6366 -1.7117
  203ACOH    H410517   6.068   6.825   3.427 -2.3148  0.6120  0.4710
  203ACOH    O210518   6.106   6.900   3.474 -0.4459 -0.2323  0.3557
  203ACOH    C210519   6.071   7.015   3.409 -0.0637  0.4643 -0.0325
  203ACOH    O110520   5.994   7.025   3.312 -0.5816  0.4646 -0.3531
  203ACOH    C110521   6.108   7.139   3.478 -0.1977 -0.4468 -0.8348
  203ACOH    H110522   6.084   7.132   3.585  0.7643 -0.4110 -0.6130
  203ACOH    H210523   6.064   7.223   3.425  2.2962 -0.4349 -2.9483
  203ACOH    H310524   6.216   7.151   3.472 -0.0102 -1.8505 -0.4638
  204ACOH    H410525   4.718   5.349   1.594 -0.6674 -3.6381  0.6985
  204ACOH    O210526   4.801   5.352   1.645 -0.2050  0.0197 -0.0549
  204ACOH    C210527   4.878   5.250   1.606 -0.5018  0.4740 -0.1309
  204ACOH    O110528   4.837   5.168   1.521 -0.4750 -0.6153  0.0098
  204ACOH    C110529   5.019   5.235   1.657  0.4227  0.1756  0.1424
  204ACOH    H110530   5.042   5.331   1.701  0.1872  1.5600 -2.6390
  204ACOH    H210531   5.076   5.219   1.565 -0.5241 -0.3431 -0.3717
  204ACOH    H310532   5.018   5.149   1.724 -1.7230 -0.1832 -0.3024
  205ACOH    H410533   9.935   3.678   3.984  1.5360 -3.1762 -1.2964
  205ACOH    O210534   9.964   3.732   3.909  0.5808 -0.2437  0.3699
  205ACOH    C210535  10.083   3.790   3.944  0.0915 -0.4903  0.2288
  205ACOH    O110536  10.110   3.817   4.059 -0.0452 -0.0297 -0.0503
  205ACOH    C110537  10.146   3.843   3.822 -0.0451 -0.2378  0.0994
  205ACOH    H110538  10.252   3.822   3.834  0.0925  0.3893  0.0270
  205ACOH    H210539  10.136   3.952   3.817  2.1325 -0.0335 -0.2388
  205ACOH    H310540  10.106   3.795   3.733  1.7177 -0.4690 -0.6008
  206ACOH    H410541   9.895   5.357   0.317  1.3739  0.6793  1.7999
  206ACOH    O210542   9.907   5.438   0.266 -0.5171 -0.3659 -0.3903
  206ACOH    C210543   9.788   5.484   0.228 -0.3238 -0.4860 -0.0799
  206ACOH    O110544   9.685   5.428   0.252  0.8312  0.4338  0.2710
  206ACOH    C110545   9.791   5.596   0.129 -0.4439 -0.4498 -0.3414
  206ACOH    H110546   9.772   5.555   0.030  2.0154 -0.1687 -0.9615
  206ACOH    H210547   9.889   5.641   0.145 -0.1820 -0.4727 -1.8146
  206ACOH    H310548   9.713   5.667   0.159 -1.7653 -1.4066 -1.4625
  207ACOH    H410549   3.726   4.586   4.612 -0.1754 -0.6226  1.8565
  207ACOH    O210550   3.672   4.667   4.610  0.3170 -0.3070 -0.6529
  207ACOH    C210551   3.578   4.644   4.709 -0.7075 -0.2689 -0.0920
  207ACOH    O110552   3.532   4.537   4.740 -0.0661 -0.0485 -0.1403
  207ACOH    C110553   3.513   4.773   4.747  0.5422 -0.3100 -0.0948
  207ACOH    H110554   3.560   4.815   4.836  0.1779  0.8021 -0.4176
  207ACOH    H210555   3.406   4.769   4.766  0.6417 -0.8614  0.3508
  207ACOH    H310556   3.526   4.850   4.670  3.1395  0.2184  0.8144
  208ACOH    H410557   7.813   8.912   4.618  1.7192 -0.7163 -2.0447
  208ACOH    O210558   7.767   8.827   4.629  0.1055  0.3774  0.2241
  208ACOH    C210559   7.808   8.775   4.748  0.3580  0.9299 -0.6802
  208ACOH    O110560   7.838   8.833   4.847 -0.0177  0.2194  0.4324
  208ACOH    C110561   7.775   8.630   4.754  0.4408 -0.1260  0.1483
  208ACOH    H110562   7.843   8.572   4.818  0.2242  0.1828  0.6582
  208ACOH    H210563   7.795   8.594   4.653  0.1673  1.4207 -0.4583
  208ACOH    H310564   7.673   8.612   4.786  0.6134  0.5467  1.1098
  209ACOH    H410565   5.028   7.060   2.446 -1.3178  0.2403  0.0803
  209ACOH    O210566   5.051   7.049   2.540  0.6643  0.0443 -0.3937
  209ACOH    C210567   4.953   7.129   2.595  0.4036 -0.3947  1.3999
  209ACOH    O110568   4.858   7.184   2.538  0.2921 -0.2112 -0.6839
  209ACOH    C110569   4.972   7.137   2.742 -0.5800  0.8271 -0.8299
  209ACOH    H110570   4.905   7.072   2.799  1.0384 -1.8160 -1.8485
  209ACOH    H210571   4.955   7.241   2.771 -1.7103  0.5886 -0.5884
  209ACOH    H310572   5.072   7.107   2.772 -0.6963 -0.2546 -1.5189
  210ACOH    H410573   7.675   5.222   4.348 -0.6465  0.0861  1.2286
  210ACOH    O210574   7.633   5.300   4.310 -0.0654 -0.1463  0.0871
  210ACOH    C210575   7.640   5.293   4.173 -0.0869 -0.2842  0.1165
  210ACOH    O110576   7.694   5.203   4.108 -0.2152  0.1103 -0.0847
  210ACOH    C110577   7.601   5.428   4.124 -0.1929  0.4900 -0.0840
  210ACOH    H110578   7.522   5.417   4.050 -0.3987  0.1396  0.1812
  210ACOH    H210579   7.682   5.482   4.074  0.8006  0.9063  1.9262
  210ACOH    H310580   7.565   5.493   4.203  0.0288 -0.9313  1.2106
  211ACOH    H410581   7.951   6.092   4.248  1.8736  0.0753  0.7070
  211ACOH    O210582   7.926   6.060   4.336 -0.5446 -0.6585 -0.2084
  211ACOH    C210583   7.990   5.942   4.346 -0.2007 -0.2794  0.0837
  211ACOH    O110584   8.061   5.893   4.261 -0.0824  0.3114  0.0766
  211ACOH    C110585   7.942   5.875   4.470 -0.0362  0.0947  0.5290
  211ACOH    H110586   7.983   5.774   4.471 -0.6353 -0.1667 -0.1422
  211ACOH    H210587   7.833   5.866   4.473 -0.0468 -0.6657 -1.3329
  211ACOH    H310588   7.971   5.932   4.558  2.3794 -1.0222  0.5079
  212ACOH    H410589   4.962   0.899   4.409 -0.7937 -0.5699  0.2173
  212ACOH    O210590   4.963   0.995   4.395 -0.1135 -0.5203  0.5849
  212ACOH    C210591   5.010   1.021   4.268  0.6045  0.5256 -0.1819
  212ACOH    O110592   5.049   0.937   4.189 -0.7933 -0.0550 -0.1469
  212ACOH    C110593   5.020   1.167   4.236 -0.1628  0.1136  0.7991
  212ACOH    H110594   5.119   1.183   4.194 -1.9030 -0.7553 -4.0725
  212ACOH    H210595   5.015   1.224   4.328 -0.0700 -0.3206  1.0759
  212ACOH    H310596   4.955   1.198   4.154 -0.6759 -0.9921  0.7651
  213ACOH    H410597   6.114   0.946   1.686 -0.1834 -0.0047 -1.0473
  213ACOH    O210598   6.208   0.960   1.667  0.0478  0.1199  0.1283
  213ACOH    C210599   6.240   1.085   1.680  0.8658 -0.1656  0.2688
  213ACOH    O110600   6.160   1.172   1.659 -0.2765 -0.2718 -0.2959
  213ACOH    C110601   6.386   1.099   1.655  0.5483 -0.1182  0.0048
  213ACOH    H110602   6.424   1.016   1.596 -2.1615 -1.9947  0.8275
  213ACOH    H210603   6.426   1.101   1.757 -0.5956  1.2065  0.4521
  213ACOH    H310604   6.405   1.196   1.608  0.7644  0.6221  1.5630
  214ACOH    H410605   4.796   8.800   0.052 -0.8649  1.9329 -2.9525
  214ACOH    O210606   4.788   8.885   0.099 -0.6032  0.1921  0.4565
  214ACOH    C210607   4.759   8.980   0.007  0.0141 -0.5057  0.0646
  214ACOH    O110608   4.712   8.951  -0.102  0.7719  0.4101 -0.8072
  214ACOH    C110609   4.740   9.114   0.067 -0.2571 -0.1021 -0.4978
  214ACOH    H110610   4.707   9.095   0.170  0.9680  2.4486  0.4113
  214ACOH    H210611   4.657   9.163   0.017  1.3273  1.3561 -1.7412
  214ACOH    H310612   4.835   9.167   0.067 -1.6500  2.4489 -1.1462
  215ACOH    H410613   8.036   6.961   0.834  3.4913  0.7446 -0.2825
  215ACOH    O210614   8.020   6.997   0.745 -0.1087  0.2918  0.1105
  215ACOH    C210615   8.089   7.113   0.723 -0.6482  0.1323  0.5165
  215ACOH    O110616   8.189   7.146   0.780 -0.0134 -0.7310 -0.3821
  215ACOH    C110617   8.048   7.174   0.589 -0.7906 -0.0816 -0.5630
  215ACOH    H110618   7.948   7.217   0.601 -0.2102  1.3553 -0.7287
  215ACOH    H210619   8.025   7.097   0.515 -2.5520  1.0709 -1.2623
  215ACOH    H310620   8.114   7.249   0.546  0.0187 -1.6679 -2.1132
  216ACOH    H410621   3.447   5.545   4.624 -0.6212 -0.5688 -0.8466
  216ACOH    O210622   3.528   5.508   4.585 -0.0635  0.0983 -0.3359
  216ACOH    C210623   3.501   5.397   4.518  0.7182  0.4572 -0.3381
  216ACOH    O110624   3.393   5.339   4.526 -0.6862  0.0055 -0.1192
  216ACOH    C110625   3.616   5.345   4.443 -0.5088 -0.2446  0.6151
  216ACOH    H110626   3.638   5.415   4.363 -1.2234  0.4955  1.0699
  216ACOH    H210627   3.589   5.247   4.404 -2.7763  1.3842 -2.1243
  216ACOH    H310628   3.703   5.337   4.508 -0.1656 -0.0813  0.1797
  217ACOH    H410629   5.862   2.713   0.675 -0.0841 -0.3153 -0.7131
  217ACOH    O210630   5.870   2.803   0.711  0.0885 -0.4405 -0.4394
  217ACOH    C210631   5.744   2.852   0.740 -0.2200 -0.7707  0.4812
  217ACOH    O110632   5.641   2.787   0.745  0.4519  0.3177 -1.0497
  217ACOH    C110633   5.746   2.994   0.789 -0.0014  0.7268 -0.4602
  217ACOH    H110634   5.697   3.064   0.722 -1.8273  0.9310  1.0649
  217ACOH    H210635   5.849   3.032   0.792  0.0143  0.5488  1.9852
  217ACOH    H310636   5.707   3.003   0.890  3.9309  0.3023  1.2175
  218ACOH    H410637   4.591   8.444   0.667 -1.5023 -0.9488 -0.4991
  218ACOH    O210638   4.627   8.396   0.743 -0.8416  0.3012 -0.0028
  218ACOH    C210639   4.710   8.300   0.693 -0.2649 -0.3225  0.3427
  218ACOH    O110640   4.725   8.280   0.571 -0.5587  0.3088 -0.2887
  218ACOH    C110641   4.781   8.221   0.793  0.3659  0.0226  0.2866
  218ACOH    H110642   4.868   8.177   0.744  0.4632  0.7210 -0.1719
  218ACOH    H210643   4.716   8.148   0.843  0.1424  1.9961  3.0028
  218ACOH    H310644   4.817   8.293   0.867  2.2424  0.4413 -0.9993
  219ACOH    H410645   7.689   6.277   2.508 -0.4760  0.6887  0.5451
  219ACOH    O210646   7.742   6.217   2.563  0.1623  0.1422 -0.6449
  219ACOH    C210647   7.755   6.276   2.682  0.1947  0.5585 -0.5522
  219ACOH    O110648   7.719   6.391   2.708 -0.9543 -0.1100 -0.2011
  219ACOH    C110649   7.847   6.191   2.757  0.3997 -0.3699  0.1119
  219ACOH    H110650   7.936   6.170   2.697 -0.9659 -0.7875 -1.8411
  219ACOH    H210651   7.807   6.090   2.771 -1.1079  0.0703 -0.8791
  219ACOH    H310652   7.882   6.233   2.851 -0.3996  0.0051  0.2466
  220ACOH    H410653   4.615   4.180   4.140  2.8771 -2.1692 -0.4436
  220ACOH    O210654   4.628   4.222   4.053 -0.1188 -0.2741 -0.0546
  220ACOH    C210655   4.736   4.152   4.001  0.4459 -0.2376 -0.4741
  220ACOH    O110656   4.801   4.074   4.069  0.6608  0.2373 -0.4269
  220ACOH    C110657   4.770   4.191   3.865  0.0710 -0.2766  0.1109
  220ACOH    H110658   4.744   4.113   3.794  2.2711  1.0705 -2.3050
  220ACOH    H210659   4.875   4.216   3.845  0.2514 -0.6513  0.5800
  220ACOH    H310660   4.705   4.275   3.842  0.9758 -0.2885 -2.6509
  221ACOH    H410661   7.593   2.003   1.233  0.9821  1.0680 -1.3072
  221ACOH    O210662   7.594   1.954   1.149 -0.8026 -0.4111 -0.5253
  221ACOH    C210663   7.576   1.823   1.169 -0.3340  0.6434  0.2451
  221ACOH    O110664   7.599   1.754   1.265  0.3204  0.4506 -0.3895
  221ACOH    C110665   7.567   1.753   1.035  0.4953 -0.1640 -0.5567
  221ACOH    H110666   7.519   1.815   0.959  0.5567  1.2050  0.4899
  221ACOH    H210667   7.504   1.666   1.049 -1.5738  1.3644 -0.1663
  221ACOH    H310668   7.661   1.717   0.994  0.6372 -0.9256  0.4089
  222ACOH    H410669   5.639   1.137   3.235  0.4301  2.4536 -0.1523
  222ACOH    O210670   5.686   1.117   3.318  0.6089  0.3990 -0.7196
  222ACOH    C210671   5.816   1.169   3.320  0.9110  0.1567  0.5251
  222ACOH    O110672   5.866   1.247   3.241  0.3053  0.4705 -0.4384
  222ACOH    C110673   5.876   1.148   3.458 -0.0923  0.7151  0.0957
  222ACOH    H110674   5.825   1.067   3.510 -1.6459  0.8463 -1.1878
  222ACOH    H210675   5.848   1.236   3.515 -0.9681  0.4220  0.1298
  222ACOH    H310676   5.982   1.122   3.461 -0.0564  0.9664  1.0752
  223ACOH    H410677   8.115   6.123   1.456  0.1810 -1.3520  0.8011
  223ACOH    O210678   8.125   6.069   1.376  0.0175 -0.2647  0.0217
  223ACOH    C210679   8.096   5.943   1.385 -0.1393  0.2987  0.0846
  223ACOH    O110680   8.105   5.873   1.487  0.2387 -0.2455  0.2350
  223ACOH    C110681   8.119   5.887   1.257 -0.8873  0.0982  0.2713
  223ACOH    H110682   8.120   5.960   1.176 -3.0936 -0.2566 -0.0986
  223ACOH    H210683   8.038   5.818   1.236 -1.3799  0.0496  2.1782
  223ACOH    H310684   8.205   5.819   1.255 -1.1725 -0.2499 -0.0642
  224ACOH    H410685   4.739   3.793   1.765 -0.9235 -0.4987 -1.9009
  224ACOH    O210686   4.660   3.795   1.822  0.4531 -0.4988  0.0864
  224ACOH    C210687   4.564   3.839   1.742 -0.0879  0.7679  0.0703
  224ACOH    O110688   4.562   3.851   1.621 -0.6979  0.0885  0.0220
  224ACOH    C110689   4.442   3.868   1.814  0.1796  0.7519 -0.1501
  224ACOH    H110690   4.454   3.938   1.897  0.5228  0.4777  0.0344
  224ACOH    H210691   4.391   3.783   1.861  1.2518  0.8161  1.1555
  224ACOH    H310692   4.369   3.919   1.751 -0.4267  0.3634  0.2294
  225ACOH    H410693   7.906   5.567   1.323 -0.6513  0.0238  0.8317
  225ACOH    O210694   7.880   5.656   1.352 -0.2869  0.5427 -0.3967
  225ACOH    C210695   7.831   5.631   1.472 -0.5408 -0.3169 -0.7747
  225ACOH    O110696   7.785   5.523   1.512  0.5522  0.3635 -0.0359
  225ACOH    C110697   7.795   5.752   1.546 -0.9120  0.4244  0.4580
  225ACOH    H110698   7.798   5.760   1.654 -1.1203 -1.4685  0.6129
  225ACOH    H210699   7.697   5.789   1.513  0.2419  2.6216 -0.6103
  225ACOH    H310700   7.861   5.825   1.500 -0.2619 -0.2172  0.3772
  226ACOH    H410701   3.255   4.593   0.296 -0.4596  0.3571 -3.1511
  226ACOH    O210702   3.257   4.687   0.319  0.0679 -0.4394  0.2951
  226ACOH    C210703   3.370   4.713   0.386 -0.2100 -0.3396  0.2880
  226ACOH    O110704   3.441   4.632   0.448  0.5510  0.4589  0.1131
  226ACOH    C110705   3.402   4.860   0.383  0.2545 -0.6379 -0.4642
  226ACOH    H110706   3.472   4.885   0.463 -1.7502 -0.8023  1.4031
  226ACOH    H210707   3.311   4.918   0.399  1.0462  0.7602 -1.0203
  226ACOH    H310708   3.437   4.892   0.285  0.0713 -1.4669 -0.8035
  227ACOH    H410709   0.042   2.522   3.043  0.3925 -0.9737 -0.0585
  227ACOH    O210710   0.128   2.556   3.074  0.0476 -0.2110  0.0522
  227ACOH    C210711   0.114   2.608   3.198  0.7217 -0.2391  0.1250
  227ACOH    O110712   0.016   2.635   3.268 -0.6762 -0.0130  0.0040
  227ACOH    C110713   0.246   2.659   3.233  0.2547  0.1410 -0.7968
  227ACOH    H110714   0.313   2.573   3.235 -1.3909 -1.1790 -0.8453
  227ACOH    H210715   0.239   2.691   3.337  0.6777  0.8843 -0.9964
  227ACOH    H310716   0.279   2.734   3.162 -0.0261 -0.3347 -1.4452
  228ACOH    H410717   5.813   4.163   0.084 -0.0112  0.0436 -2.1447
  228ACOH    O210718   5.894   4.110   0.088 -0.2094 -0.1645 -0.4225
  228ACOH    C210719   5.872   4.012   0.000  0.2257  0.1819  0.3355
  228ACOH    O110720   5.773   4.009  -0.071 -0.2909 -0.4890  0.8915
  228ACOH    C110721   5.970   3.899   0.016 -0.3072 -0.3310 -0.6227
  228ACOH    H110722   5.980   3.879   0.122  0.2484 -3.3504 -1.2033
  228ACOH    H210723   6.069   3.921  -0.024  0.2448 -1.6634 -0.0169
  228ACOH    H310724   5.941   3.808  -0.035  0.4175  0.1565 -1.9389
  229ACOH    H410725   7.746   4.506   0.365  0.4328 -1.0501  1.5493
  229ACOH    O210726   7.663   4.463   0.391 -0.8432  0.3251 -0.1335
  229ACOH    C210727   7.628   4.383   0.285 -0.0951  1.1261 -0.2630
  229ACOH    O110728   7.681   4.386   0.174  0.1736 -0.1139  0.4300
  229ACOH    C110729   7.512   4.299   0.321  0.0331  0.5264 -0.2859
  229ACOH    H110730   7.473   4.243   0.235 -1.0279 -1.7471  1.6169
  229ACOH    H210731   7.427   4.351   0.367  0.2551  0.5344  0.1143
  229ACOH    H310732   7.548   4.223   0.390  0.5632 -0.8214 -1.9994
  230ACOH    H410733   5.975   9.453   0.914  0.2903  0.7254  0.7792
  230ACOH    O210734   5.881   9.429   0.908  0.5383 -0.1339  0.1372
  230ACOH    C210735   5.870   9.310   0.976  0.1205  0.4796 -0.1640
  230ACOH    O110736   5.965   9.256   1.035 -0.5151 -0.4067 -0.5786
  230ACOH    C110737   5.733   9.253   0.967 -0.5015 -0.2545  0.9139
  230ACOH    H110738   5.734   9.152   0.926  0.2009  0.0441  0.1746
  230ACOH    H210739   5.678   9.315   0.896 -1.0270 -2.0960 -0.3107
  230ACOH    H310740   5.680   9.249   1.063 -1.5784  0.8126  0.3743
  231ACOH    H410741   8.485   1.678   0.258  2.0940  0.2691 -0.0851
  231ACOH    O210742   8.452   1.642   0.342  0.3826  1.0791 -0.3758
  231ACOH    C210743   8.326   1.680   0.385 -0.1661  0.7166  0.4780
  231ACOH    O110744   8.250   1.750   0.325  0.2527 -0.1867 -0.2595
  231ACOH    C110745   8.307   1.636   0.523 -0.2607  0.2777  0.2904
  231ACOH    H110746   8.383   1.561   0.549  0.9134  0.9671 -1.0792
  231ACOH    H210747   8.208   1.594   0.543 -0.1041 -0.2953 -0.1159
  231ACOH    H310748   8.330   1.723   0.583  0.3924  2.2977 -2.7805
  232ACOH    H410749   8.092   6.369   4.350 -0.0108 -0.7582  0.2697
  232ACOH    O210750   8.061   6.393   4.439  0.5101  0.2162  0.2010
  232ACOH    C210751   8.057   6.283   4.513 -0.0592  0.7115  0.3390
  232ACOH    O110752   8.140   6.195   4.521  0.1712 -0.2838 -0.1924
  232ACOH    C110753   7.958   6.307   4.619  0.3642 -0.2895 -0.1980
  232ACOH    H110754   8.015   6.331   4.709  1.0723  1.3673 -1.0730
  232ACOH    H210755   7.902   6.214   4.627 -2.8639  1.6953  1.4647
  232ACOH    H310756   7.885   6.385   4.597  1.1936  0.5874  0.0820
  233ACOH    H410757   0.993   4.481   2.027 -0.0147 -0.8293  0.0583
  233ACOH    O210758   1.060   4.475   1.958 -0.3759 -0.2277 -0.3559
  233ACOH    C210759   1.032   4.370   1.876 -0.1367 -0.3620 -0.1552
  233ACOH    O110760   0.942   4.290   1.882 -0.1682  0.0122  0.3365
  233ACOH    C110761   1.125   4.353   1.764  0.1030  0.0136 -0.7109
  233ACOH    H110762   1.209   4.291   1.794 -0.3464 -1.0581 -1.6121
  233ACOH    H210763   1.148   4.448   1.715 -0.9787  0.1023 -1.0504
  233ACOH    H310764   1.081   4.293   1.684 -0.8111 -1.8551  1.1506
  234ACOH    H410765   3.667   5.317   3.550  0.2563  0.1678  2.1887
  234ACOH    O210766   3.758   5.350   3.563  0.7218 -0.2735  0.2001
  234ACOH    C210767   3.757   5.480   3.554 -0.2921 -0.5567 -0.0208
  234ACOH    O110768   3.666   5.547   3.514 -0.0460  0.8758 -0.2124
  234ACOH    C110769   3.885   5.534   3.600  0.5292  0.3552  0.4395
  234ACOH    H110770   3.948   5.554   3.514 -2.3308  0.2299 -1.7526
  234ACOH    H210771   3.937   5.463   3.664 -1.1211  0.9666  2.5280
  234ACOH    H310772   3.877   5.627   3.657 -1.0832  1.0418 -0.8546
  235ACOH    H410773   7.320   4.270   4.248 -0.8745 -0.1439 -0.2929
  235ACOH    O210774   7.279   4.186   4.222 -0.1234 -0.6459  0.1137
  235ACOH    C210775   7.276   4.179   4.087 -0.6165  0.1010 -0.2088
  235ACOH    O110776   7.326   4.260   4.013 -0.0573 -0.1495 -0.1875
  235ACOH    C110777   7.200   4.065   4.028 -0.0488 -0.5715  0.0410
  235ACOH    H110778   7.195   4.063   3.919  0.3275  0.3075  0.0014
  235ACOH    H210779   7.096   4.075   4.060  0.1207 -1.7495  0.9646
  235ACOH    H310780   7.234   3.973   4.074  1.5183 -0.5970 -1.1217
  236ACOH    H410781   3.979   4.141   3.295 -0.3877 -0.0281 -0.8533
  236ACOH    O210782   4.030   4.224   3.288 -0.2508 -0.0149  0.1976
  236ACOH    C210783   3.947   4.301   3.221  0.5104 -0.6821 -0.3622
  236ACOH    O110784   3.845   4.272   3.161 -0.4163  0.0696 -0.3438
  236ACOH    C110785   4.002   4.437   3.221  0.0708 -0.6875 -0.2789
  236ACOH    H110786   3.918   4.504   3.236 -0.2813 -0.7887 -1.7568
  236ACOH    H210787   4.037   4.457   3.120  2.4742 -0.8662  0.4891
  236ACOH    H310788   4.083   4.450   3.293  0.1109  1.5917 -0.7231
  237ACOH    H410789   9.427   9.701   4.078  1.0949 -1.4677 -2.6855
  237ACOH    O210790   9.408   9.612   4.112  0.5160 -0.5420 -0.4768
  237ACOH    C210791   9.380   9.549   3.998  0.1807  0.5454 -0.7333
  237ACOH    O110792   9.389   9.586   3.883  0.8375  0.2413 -0.4631
  237ACOH    C110793   9.384   9.398   4.026  0.0865 -0.3491  0.1176
  237ACOH    H110794   9.291   9.343   4.010 -0.2605  0.9088 -2.4435
  237ACOH    H210795   9.416   9.387   4.130 -2.5758  0.0202  1.0088
  237ACOH    H310796   9.457   9.364   3.953  0.7664  0.7003  0.2939
  238ACOH    H410797   6.559   6.490   3.244  0.7815  1.5358 -0.2485
  238ACOH    O210798   6.497   6.536   3.303  0.0832 -0.2072  0.4046
  238ACOH    C210799   6.411   6.451   3.360 -1.1720 -0.2484 -0.2594
  238ACOH    O110800   6.384   6.343   3.315 -0.0528  0.3690  0.4529
  238ACOH    C110801   6.337   6.503   3.474  0.3427 -0.2160 -0.2966
  238ACOH    H110802   6.336   6.427   3.553 -1.7721 -1.3800 -1.3909
  238ACOH    H210803   6.235   6.527   3.443  0.5793  2.2890  0.7667
  238ACOH    H310804   6.393   6.587   3.514  2.9396 -1.6172 -0.9019
  239ACOH    H410805   4.607   4.132   4.546  1.0759  1.0258 -1.0373
  239ACOH    O210806   4.592   4.226   4.564  0.4758  0.7095  0.1847
  239ACOH    C210807   4.619   4.297   4.456  1.0011 -0.0279 -0.1944
  239ACOH    O110808   4.623   4.250   4.340  0.0177 -0.1567  0.1518
  239ACOH    C110809   4.609   4.445   4.479 -0.3955  0.0195 -0.4881
  239ACOH    H110810   4.621   4.463   4.585  0.2716  1.6022 -0.8281
  239ACOH    H210811   4.511   4.479   4.447  0.3659  0.3636 -2.5146
  239ACOH    H310812   4.684   4.503   4.425 -1.1308 -0.1659 -1.7434
  240ACOH    H410813   0.018   2.473   2.418  0.5796 -1.6572  1.2054
  240ACOH    O210814  -0.038   2.503   2.491  0.2507  0.0833  0.2449
  240ACOH    C210815   0.047   2.580   2.560  0.3263 -0.4726 -0.1413
  240ACOH    O110816   0.169   2.578   2.563 -0.0218 -0.4053 -0.4958
  240ACOH    C110817  -0.024   2.677   2.650  0.2371  0.3142 -0.6642
  240ACOH    H110818   0.033   2.693   2.741 -0.2679 -1.7454  0.0500
  240ACOH    H210819  -0.116   2.624   2.678  1.1236 -0.6451  0.4637
  240ACOH    H310820  -0.059   2.767   2.600  1.2494 -0.4179 -2.7585
  241ACOH    H410821   7.475   3.472   0.436  1.8197  1.4758  1.3421
  241ACOH    O210822   7.405   3.534   0.463  0.0008 -0.1148  0.4754
  241ACOH    C210823   7.297   3.459   0.490 -0.5317  0.1434 -0.7193
  241ACOH    O110824   7.297   3.341   0.508 -0.1169  0.3366  0.0564
  241ACOH    C110825   7.204   3.546   0.564  0.3836 -0.4699  0.1701
  241ACOH    H110826   7.141   3.586   0.485 -0.0345 -2.0801 -0.3427
  241ACOH    H210827   7.261   3.626   0.612  0.9101 -0.0064 -1.1991
  241ACOH    H310828   7.146   3.491   0.638 -1.5677  2.0411  0.5664
  242ACOH    H410829   1.774   7.220   2.075  0.1029 -0.1343  0.2271
  242ACOH    O210830   1.773   7.252   2.167  0.4944 -0.1423  0.2336
  242ACOH    C210831   1.652   7.297   2.188  0.2354  0.3078  0.8040
  242ACOH    O110832   1.575   7.327   2.097  0.2554 -0.2770  0.2586
  242ACOH    C110833   1.624   7.331   2.330  0.2830  0.1150 -0.1254
  242ACOH    H110834   1.518   7.320   2.352  0.9155 -1.6542  2.2905
  242ACOH    H210835   1.659   7.433   2.341 -0.7912  0.2863  2.1271
  242ACOH    H310836   1.664   7.265   2.408 -0.7276 -2.1307 -1.4387
  243ACOH    H410837   6.106   6.951   1.697 -0.1374 -1.6179  3.0851
  243ACOH    O210838   6.093   6.864   1.655  0.1204 -0.0232 -0.4438
  243ACOH    C210839   6.119   6.759   1.732 -0.4190  0.6179  0.9181
  243ACOH    O110840   6.138   6.770   1.849 -0.0864  0.0248 -1.0218
  243ACOH    C110841   6.103   6.623   1.667 -0.1896 -0.3686  0.5733
  243ACOH    H110842   6.016   6.578   1.714 -0.6470  2.0107  2.0850
  243ACOH    H210843   6.194   6.564   1.680  0.6650  0.8619  0.2921
  243ACOH    H310844   6.091   6.644   1.561  2.0866  0.1228  0.3799
  244ACOH    H410845   4.643   4.366   0.080  0.5187  2.1433  2.7149
  244ACOH    O210846   4.707   4.423   0.033 -0.0054  0.7734  0.2666
  244ACOH    C210847   4.797   4.469   0.119 -0.2196 -0.6059  0.8930
  244ACOH    O110848   4.802   4.462   0.242 -0.0522 -0.5289  0.1635
  244ACOH    C110849   4.908   4.527   0.032  0.2302  0.5420 -0.2206
  244ACOH    H110850   4.925   4.630   0.063 -1.4536  0.9039 -0.4680
  244ACOH    H210851   4.883   4.520  -0.074 -1.2992 -0.1909  0.1764
  244ACOH    H310852   4.996   4.464   0.043  0.6890  0.9125 -1.6263
  245ACOH    H410853   0.440   5.512   0.034  0.2673  1.2032  0.4343
  245ACOH    O210854   0.407   5.499   0.124  0.1136  0.3251  0.2577
  245ACOH    C210855   0.295   5.429   0.112  0.3549  0.2781  0.1677
  245ACOH    O110856   0.231   5.395   0.014  0.0750  0.1558  0.1759
  245ACOH    C110857   0.246   5.399   0.244  0.0395 -0.1250  0.0906
  245ACOH    H110858   0.151   5.452   0.252 -0.3582 -0.2009 -3.4059
  245ACOH    H210859   0.311   5.441   0.321  0.7283 -1.2484  0.1466
  245ACOH    H310860   0.236   5.290   0.249 -0.7986  0.0250  2.5181
  246ACOH    H410861   9.296   7.962   2.165  1.8110  2.4643  2.2491
  246ACOH    O210862   9.234   7.942   2.237  0.4000  0.2210  0.4902
  246ACOH    C210863   9.113   7.976   2.194  0.2422 -0.2413  0.5927
  246ACOH    O110864   9.070   7.984   2.082 -0.1743 -0.0477  0.5036
  246ACOH    C110865   9.022   7.995   2.313 -0.5281 -0.0938  0.7622
  246ACOH    H110866   8.931   7.934   2.309 -0.3452 -0.2120 -3.3158
  246ACOH    H210867   8.991   8.100   2.317  0.1225  0.2052 -1.3659
  246ACOH    H310868   9.078   7.969   2.403  1.2444  2.0822  0.3361
  247ACOH    H410869   4.341   2.370   3.983 -0.9400 -1.0197  0.5993
  247ACOH    O210870   4.415   2.327   4.029 -0.1167  0.3124  0.5286
  247ACOH    C210871   4.502   2.270   3.949  0.5711  0.3996  0.2675
  247ACOH    O110872   4.491   2.272   3.827 -0.0990 -0.4753 -0.5207
  247ACOH    C110873   4.616   2.225   4.025 -0.4306 -0.0518  0.8119
  247ACOH    H110874   4.695   2.182   3.964 -0.8063 -1.2160  1.1269
  247ACOH    H210875   4.589   2.147   4.096  2.0909  0.6874  2.6594
  247ACOH    H310876   4.662   2.305   4.082  1.0900  0.5157 -1.1636
  248ACOH    H410877   7.331   2.145   2.368 -1.4596 -0.1628  1.7543
  248ACOH    O210878   7.346   2.240   2.382  0.0278 -0.1916  0.4776
  248ACOH    C210879   7.319   2.264   2.514  0.1664  0.4722  0.0283
  248ACOH    O110880   7.256   2.187   2.588 -0.4009  0.1401 -0.4886
  248ACOH    C110881   7.378   2.395   2.556 -0.2252  0.1062 -0.1928
  248ACOH    H110882   7.297   2.457   2.595 -3.2178 -3.7042 -0.1440
  248ACOH    H210883   7.409   2.444   2.463  0.2810  2.3905  1.1268
  248ACOH    H310884   7.460   2.397   2.628  2.8591 -1.8122 -3.4895
  249ACOH    H410885   5.552   9.394   1.201 -1.1589 -0.7382 -0.8210
  249ACOH    O210886   5.585   9.459   1.137 -0.0179 -0.8602 -0.3675
  249ACOH    C210887   5.493   9.484   1.045  0.4819 -0.3843  0.3688
  249ACOH    O110888   5.383   9.430   1.037 -0.2750  0.0595 -0.6263
  249ACOH    C110889   5.539   9.587   0.940 -0.4099  0.0900  0.2747
  249ACOH    H110890   5.506   9.567   0.837 -0.5382 -2.5408  0.7825
  249ACOH    H210891   5.648   9.590   0.941 -0.4185  0.0906  1.4259
  249ACOH    H310892   5.501   9.684   0.969  0.2054 -0.1886  2.0302
  250ACOH    H410893   8.185   3.992   2.928 -0.1498 -0.5201 -0.3280
  250ACOH    O210894   8.146   4.075   2.960  0.4807 -0.0165 -0.8707
  250ACOH    C210895   8.056   4.045   3.050  1.2869 -0.1443 -0.5472
  250ACOH    O110896   8.022   3.934   3.087  0.2178 -0.1044  0.1321
  250ACOH    C110897   8.009   4.169   3.115 -0.0216 -0.4945  0.2352
  250ACOH    H110898   7.995   4.247   3.041  1.0512  1.5014  2.0661
  250ACOH    H210899   8.097   4.198   3.173  0.6104 -0.0137 -0.9493
  250ACOH    H310900   7.917   4.157   3.171 -1.7292 -1.0753 -2.5877
  251ACOH    H410901   4.628   9.658   3.678 -0.1207  0.2169 -0.4380
  251ACOH    O210902   4.540   9.624   3.653  0.0795 -0.2687 -0.4992
  251ACOH    C210903   4.573   9.542   3.558  0.1742 -0.5494 -0.5057
  251ACOH    O110904   4.672   9.473   3.543  0.5553 -0.1516  0.0324
  251ACOH    C110905   4.446   9.527   3.481  0.1621  0.3491  0.0801
  251ACOH    H110906   4.379   9.607   3.512 -0.1195 -0.6769  2.2538
  251ACOH    H210907   4.407   9.431   3.517 -3.5706  0.2858 -3.7295
  251ACOH    H310908   4.454   9.527   3.373 -1.1045 -0.4486 -0.0285
  252ACOH    H410909   5.249   3.711   1.707  0.6664 -2.0078  3.0514
  252ACOH    O210910   5.314   3.780   1.727  0.3457 -0.5167 -0.6418
  252ACOH    C210911   5.247   3.902   1.719 -0.2107  0.8293 -0.0193
  252ACOH    O110912   5.125   3.903   1.694  0.0618 -0.2056  0.1913
  252ACOH    C110913   5.321   4.029   1.741 -0.0648  0.0476 -0.4610
  252ACOH    H110914   5.413   4.006   1.794 -0.3479  0.5715  0.2576
  252ACOH    H210915   5.255   4.100   1.792 -0.4083 -0.5655 -0.0550
  252ACOH    H310916   5.346   4.076   1.646  1.8426 -0.2088 -0.0903
  253ACOH    H410917   7.833   3.470   0.876 -0.0612  0.2291 -0.7461
  253ACOH    O210918   7.761   3.449   0.938  0.2243  0.9383 -0.1519
  253ACOH    C210919   7.682   3.366   0.866 -0.4029 -0.1093 -0.0762
  253ACOH    O110920   7.721   3.300   0.773  0.2679  0.5554 -0.3544
  253ACOH    C110921   7.542   3.354   0.920  0.1316 -0.0827 -0.1554
  253ACOH    H110922   7.533   3.426   1.001 -2.1266 -0.7479  0.1980
  253ACOH    H210923   7.523   3.256   0.964  1.5602  0.5416  1.9494
  253ACOH    H310924   7.469   3.375   0.842 -2.1922  0.8133  2.1893
  254ACOH    H410925   0.499   5.951   1.372 -1.1066  0.4406  0.9763
  254ACOH    O210926   0.563   5.907   1.430 -0.2281  0.1546 -0.1740
  254ACOH    C210927   0.632   5.807   1.376 -0.3875  0.5104  0.4651
  254ACOH    O110928   0.575   5.723   1.306 -0.0722 -0.1335  0.2388
  254ACOH    C110929   0.755   5.781   1.456 -0.2005  0.0239 -0.2302
  254ACOH    H110930   0.837   5.759   1.387  0.2695  0.8831  0.0448
  254ACOH    H210931   0.731   5.694   1.517 -0.8388 -0.5894 -1.3298
  254ACOH    H310932   0.776   5.871   1.514 -0.7547  0.7092 -1.0867
  255ACOH    H410933   5.180   0.363   0.355  1.7748  1.7190  2.1372
  255ACOH    O210934   5.245   0.290   0.349 -0.0320  0.1997  0.4431
  255ACOH    C210935   5.183   0.183   0.299 -0.2792 -0.1549 -0.5197
  255ACOH    O110936   5.066   0.168   0.278  0.3954  0.0600  0.0594
  255ACOH    C110937   5.274   0.068   0.291  0.1907 -0.3606  1.0952
  255ACOH    H110938   5.355   0.084   0.220 -0.2374  2.7414  1.2626
  255ACOH    H210939   5.223  -0.025   0.265 -4.7276  1.8919  2.1840
  255ACOH    H310940   5.309   0.062   0.394 -2.2169  0.1201  1.9699
  256ACOH    H410941   7.492   5.714   3.231 -3.0823 -0.9258  3.0564
  256ACOH    O210942   7.425   5.707   3.162 -0.3610  0.0112  0.2042
  256ACOH    C210943   7.453   5.604   3.083  0.5285 -0.0676  0.5111
  256ACOH    O110944   7.529   5.515   3.116  0.4539  0.7056  0.5197
  256ACOH    C110945   7.370   5.596   2.960  0.5229  0.1280  0.4536
  256ACOH    H110946   7.393   5.675   2.889  1.7447 -0.5529  0.0809
  256ACOH    H210947   7.266   5.608   2.992  1.2025  3.4395  1.5725
  256ACOH    H310948   7.400   5.503   2.911  0.9047 -0.8822  2.5679
  257ACOH    H410949   7.391   1.773   2.387  0.1677 -1.5567 -0.1314
  257ACOH    O210950   7.333   1.757   2.311 -0.1240 -0.2762 -0.1967
  257ACOH    C210951   7.318   1.877   2.239  0.2726 -0.1071 -0.3159
  257ACOH    O110952   7.340   1.984   2.290 -0.4291 -0.0863 -0.0098
  257ACOH    C110953   7.231   1.867   2.120 -0.1817 -0.3118  0.2288
  257ACOH    H110954   7.293   1.865   2.031 -0.1039 -2.0912  0.3032
  257ACOH    H210955   7.160   1.950   2.113  0.4401  0.0480 -2.4113
  257ACOH    H310956   7.177   1.772   2.125 -0.1308 -0.2779  2.0330
  258ACOH    H410957   0.969   6.955   2.817  1.3511  2.4561 -0.0120
  258ACOH    O210958   1.048   6.908   2.784 -0.0560  0.3557 -0.5095
  258ACOH    C210959   1.166   6.971   2.806 -0.0360 -0.4272 -0.2302
  258ACOH    O110960   1.181   7.069   2.876 -0.0409 -0.8293  0.2962
  258ACOH    C110961   1.277   6.883   2.772 -0.1712  0.0521 -0.2522
  258ACOH    H110962   1.356   6.938   2.720 -0.0734 -1.0213 -1.2428
  258ACOH    H210963   1.248   6.794   2.717  1.0140 -0.7253  0.3732
  258ACOH    H310964   1.319   6.848   2.866  0.1679  2.6478  0.6036
  259ACOH    H410965   5.853   1.336   2.478 -0.3603 -0.2259 -0.8408
  259ACOH    O210966   5.887   1.347   2.388 -0.0617  0.2067 -0.6763
  259ACOH    C210967   5.845   1.253   2.298  0.2481 -0.1037  0.2533
  259ACOH    O110968   5.775   1.157   2.332 -0.7068  0.3911  0.3734
  259ACOH    C110969   5.916   1.265   2.167  0.1924 -0.3221  0.5651
  259ACOH    H110970   5.864   1.342   2.110  0.8893 -1.5207 -1.7743
  259ACOH    H210971   5.911   1.173   2.109  1.9609 -1.0272  1.4771
  259ACOH    H310972   6.020   1.298   2.175 -0.2218  1.6053 -1.5067
  260ACOH    H410973   0.500   3.865   1.345  0.0025 -0.0449  0.7497
  260ACOH    O210974   0.436   3.800   1.313 -0.1085  0.4517 -0.0337
  260ACOH    C210975   0.507   3.699   1.261  0.3989 -0.1096  0.2816
  260ACOH    O110976   0.630   3.694   1.254 -0.0435  0.1183  0.1962
  260ACOH    C110977   0.423   3.593   1.207  0.6857 -0.3189 -0.3486
  260ACOH    H110978   0.321   3.629   1.195  1.6102  2.7533  0.5507
  260ACOH    H210979   0.427   3.509   1.276  1.6170  0.9237  1.1550
  260ACOH    H310980   0.468   3.570   1.111  0.0865  0.9892 -0.9540
  261ACOH    H410981   5.317   3.245   0.765 -1.3160 -1.6627 -1.1350
  261ACOH    O210982   5.303   3.191   0.845 -0.1267  0.0096  0.2422
  261ACOH    C210983   5.387   3.087   0.842 -0.4708  0.0268 -0.3447
  261ACOH    O110984   5.409   3.022   0.741 -0.2643  0.4091 -0.2579
  261ACOH    C110985   5.385   3.011   0.972 -0.4106 -0.0191  0.4628
  261ACOH    H110986   5.422   3.083   1.045  1.3127 -1.7793  1.3859
  261ACOH    H210987   5.452   2.925   0.975  1.5350  1.3808 -1.0565
  261ACOH    H310988   5.284   2.987   1.005 -1.0329  1.8028 -0.0699
  262ACOH    H410989   4.849   4.060   4.738 -0.6016  0.2640 -0.6254
  262ACOH    O210990   4.900   4.042   4.658 -0.1295  0.1944 -0.3075
  262ACOH    C210991   5.013   4.108   4.669  0.5602  0.6602 -0.4659
  262ACOH    O110992   5.051   4.178   4.763 -0.4057 -0.1391  0.3195
  262ACOH    C110993   5.094   4.067   4.559 -0.2033  0.0619  0.4959
  262ACOH    H110994   5.051   4.095   4.463  1.1241 -0.0953 -0.1616
  262ACOH    H210995   5.107   3.959   4.566 -0.1602  0.0202 -0.1888
  262ACOH    H310996   5.191   4.117   4.563  0.2845 -0.8783  0.7358
  263ACOH    H410997   5.367   7.998   4.476  0.8504  0.1823 -2.0625
  263ACOH    O210998   5.440   8.046   4.519 -0.1944  0.0179 -0.0533
  263ACOH    C210999   5.440   8.043   4.654 -0.6416  0.4974  0.2096
  263ACOH    O111000   5.364   7.977   4.730  0.0337  0.1622  0.8972
  263ACOH    C111001   5.556   8.121   4.703 -0.3557 -0.3228 -0.7235
  263ACOH    H111002   5.572   8.113   4.811  1.6194  3.1620 -0.6525
  263ACOH    H211003   5.542   8.223   4.667  0.6495 -0.3153 -1.0928
  263ACOH    H311004   5.637   8.077   4.645 -0.9499 -3.2696  0.5820
  264ACOH    H411005   7.667   6.794   3.476 -1.4667 -1.4284 -0.7897
  264ACOH    O211006   7.597   6.862   3.476 -0.2035 -0.1014  0.3954
  264ACOH    C211007   7.664   6.979   3.481  0.0784 -0.1331 -0.1145
  264ACOH    O111008   7.785   6.983   3.500 -0.7122  0.1172  0.0639
  264ACOH    C111009   7.573   7.096   3.496 -0.5348 -0.2649 -0.4921
  264ACOH    H111010   7.503   7.089   3.412 -2.5089  1.5209  0.9476
  264ACOH    H211011   7.633   7.187   3.493 -0.6678 -0.0641  2.1115
  264ACOH    H311012   7.519   7.093   3.590 -1.6094  0.7814 -1.0511
  265ACOH    H411013   5.340   3.454   2.556 -1.3815  1.2402 -1.2723
  265ACOH    O211014   5.346   3.501   2.641  0.0066 -0.2387 -0.5235
  265ACOH    C211015   5.257   3.443   2.726  0.4903  0.5977  0.0599
  265ACOH    O111016   5.227   3.323   2.714 -0.4623 -0.2361 -0.2905
  265ACOH    C111017   5.241   3.521   2.851 -0.1358 -0.3423 -0.2645
  265ACOH    H111018   5.339   3.548   2.891 -0.7205  0.3434  0.7290
  265ACOH    H211019   5.183   3.464   2.924  0.5629 -0.5080  0.1704
  265ACOH    H311020   5.193   3.616   2.830 -1.0625 -0.2861  1.9579
  266ACOH    H411021   4.629   3.236   1.996 -0.4377  2.0454  1.2095
  266ACOH    O211022   4.676   3.278   1.922 -0.1812 -0.4498 -0.0745
  266ACOH    C211023   4.679   3.179   1.830  0.0830  0.0551  0.5225
  266ACOH    O111024   4.644   3.063   1.849 -0.1168 -0.1733  0.1515
  266ACOH    C111025   4.748   3.218   1.702  0.0320 -0.5235  0.3058
  266ACOH    H111026   4.792   3.136   1.646 -0.1444  0.8891 -1.9582
  266ACOH    H211027   4.819   3.296   1.727  0.1496 -0.1741 -1.1137
  266ACOH    H311028   4.677   3.265   1.634  0.2382 -1.1510 -0.3395
  267ACOH    H411029   4.716   5.568   1.185  0.1869 -0.8709 -0.4135
  267ACOH    O211030   4.738   5.640   1.123 -0.1952 -0.7066 -0.3596
  267ACOH    C211031   4.654   5.644   1.021  0.2312  0.5773  0.5240
  267ACOH    O111032   4.550   5.581   1.021 -0.6422  0.2163  0.0751
  267ACOH    C111033   4.691   5.738   0.912 -0.2426  0.3001 -0.4105
  267ACOH    H111034   4.640   5.719   0.817 -0.0146 -0.4005 -0.3940
  267ACOH    H211035   4.795   5.723   0.886 -0.5581 -0.7449 -1.1002
  267ACOH    H311036   4.676   5.842   0.938  2.3352  0.7346 -0.6179
  268ACOH    H411037   7.716   2.726   1.575  0.0393 -0.2714 -1.1869
  268ACOH    O211038   7.637   2.669   1.573 -0.1259 -0.1176  0.1860
  268ACOH    C211039   7.611   2.651   1.706 -0.1909 -0.1092  0.8011
  268ACOH    O111040   7.678   2.699   1.798  0.2848  0.2305 -0.2185
  268ACOH    C111041   7.504   2.552   1.727  0.3209  0.0817  0.3559
  268ACOH    H111042   7.543   2.463   1.776  0.2481 -0.2200 -0.1332
  268ACOH    H211043   7.460   2.533   1.629  0.7805  0.6580  0.0379
  268ACOH    H311044   7.433   2.593   1.800  1.5690 -0.1910  1.7492
  269ACOH    H411045   4.108   6.438   3.507 -1.9712  1.5322  2.3811
  269ACOH    O211046   4.190   6.465   3.552  0.1423 -0.1614 -0.2632
  269ACOH    C211047   4.155   6.450   3.675  0.1937  0.2197 -0.7049
  269ACOH    O111048   4.064   6.372   3.710  0.0545  0.1052  0.1616
  269ACOH    C111049   4.239   6.531   3.775  0.6560  0.3665  0.7079
  269ACOH    H111050   4.345   6.515   3.754  0.5611 -1.1942  1.2992
  269ACOH    H211051   4.214   6.515   3.880  2.9056 -2.1927  0.9452
  269ACOH    H311052   4.228   6.637   3.756  0.3654 -0.0330 -1.5133
  270ACOH    H411053   6.568   1.457   2.772 -0.6614 -0.6222  1.4286
  270ACOH    O211054   6.496   1.519   2.750 -0.2278 -0.7721 -0.4366
  270ACOH    C211055   6.389   1.439   2.727  0.5685  0.2645 -0.2144
  270ACOH    O111056   6.388   1.320   2.741  0.0614 -0.2707 -0.2161
  270ACOH    C111057   6.266   1.514   2.708 -0.4306  0.0265  0.3019
  270ACOH    H111058   6.279   1.563   2.611 -1.4462 -0.5606 -0.1326
  270ACOH    H211059   6.256   1.586   2.789 -0.9117  1.9993 -1.4554
  270ACOH    H311060   6.175   1.457   2.693 -0.7712 -0.0517  2.4621
  271ACOH    H411061   5.746   4.825   1.034 -0.7555  0.3568 -0.9936
  271ACOH    O211062   5.829   4.775   1.042 -0.5546  0.7810 -0.3626
  271ACOH    C211063   5.899   4.789   0.932 -0.1404 -0.3944  0.5324
  271ACOH    O111064   5.879   4.859   0.832 -0.1563  0.8263  0.1773
  271ACOH    C111065   6.025   4.713   0.936  0.5441 -0.1756 -0.1024
  271ACOH    H111066   6.023   4.648   0.849 -0.6853 -1.8688  1.1295
  271ACOH    H211067   6.028   4.644   1.021 -1.0161  1.4791  1.3378
  271ACOH    H311068   6.113   4.776   0.928 -0.0934  0.8621  0.9425
  272ACOH    H411069   2.663   4.703   2.148  0.7754  1.1443 -1.9929
  272ACOH    O211070   2.664   4.612   2.112 -0.0027  0.1393  0.3996
  272ACOH    C211071   2.789   4.573   2.123 -0.3380 -0.3312  0.4243
  272ACOH    O111072   2.882   4.630   2.180  0.6552  0.0800  0.0828
  272ACOH    C111073   2.808   4.429   2.077 -0.8257 -0.1253 -0.7364
  272ACOH    H111074   2.833   4.367   2.163  2.3788  1.6210 -0.3457
  272ACOH    H211075   2.887   4.426   2.002  0.3044 -1.4763  0.4638
  272ACOH    H311076   2.715   4.386   2.039  0.0201 -2.5503 -0.1357
  273ACOH    H411077   7.417   1.953   4.229  0.0227  0.5854  0.1644
  273ACOH    O211078   7.382   1.933   4.141 -0.6474 -0.2292  0.6057
  273ACOH    C211079   7.483   1.860   4.082  0.5925 -0.4817  1.1247
  273ACOH    O111080   7.583   1.802   4.124 -0.2261  0.2710 -0.0529
  273ACOH    C111081   7.457   1.864   3.935  0.4185 -0.0308  0.9322
  273ACOH    H111082   7.398   1.952   3.908 -1.3366 -0.4686  3.1812
  273ACOH    H211083   7.416   1.769   3.903  0.7645  0.7220 -1.8948
  273ACOH    H311084   7.553   1.871   3.884 -0.1390 -0.9025 -0.2489
  274ACOH    H411085   8.060   2.783   2.626  0.6404  0.3398  0.2630
  274ACOH    O211086   7.975   2.770   2.672  0.5501 -0.4515 -0.1091
  274ACOH    C211087   7.870   2.800   2.590  0.0156  0.2597 -0.6301
  274ACOH    O111088   7.877   2.855   2.479 -0.1108  0.1118 -0.2445
  274ACOH    C111089   7.749   2.756   2.658  0.5980  0.0879  0.4294
  274ACOH    H111090   7.769   2.774   2.764  2.2249 -0.2083  0.1820
  274ACOH    H211091   7.727   2.652   2.636 -0.1375  0.3738 -0.2260
  274ACOH    H311092   7.663   2.822   2.645 -0.0355 -0.0791  3.2929
  275ACOH    H411093   4.461   3.150   4.417  0.7318  2.0077  0.1398
  275ACOH    O211094   4.481   3.168   4.324  0.1793 -0.7381 -0.5454
  275ACOH    C211095   4.478   3.048   4.260 -0.4089 -0.5248 -0.2405
  275ACOH    O111096   4.479   2.939   4.312 -0.3723  0.3360  0.0726
  275ACOH    C111097   4.453   3.053   4.115 -0.2437 -0.2019 -0.3932
  275ACOH    H111098   4.415   3.146   4.074  2.4879  1.9299  1.7094
  275ACOH    H211099   4.389   2.967   4.098  0.2423 -1.1580  2.3337
  275ACOH    H311100   4.550   3.025   4.073 -0.3546 -1.0753 -0.0809
  276ACOH    H411101   7.170   1.545   3.017  0.6344  0.3142 -0.6005
  276ACOH    O211102   7.123   1.627   2.995  0.2670  0.2738  0.0416
  276ACOH    C211103   7.171   1.688   2.893 -0.2575  0.3720 -0.2622
  276ACOH    O111104   7.281   1.665   2.849  0.3858  0.4077 -0.1170
  276ACOH    C111105   7.101   1.820   2.878  0.1626  0.1124  0.3800
  276ACOH    H111106   7.004   1.799   2.832  0.3800 -2.7081  1.1058
  276ACOH    H211107   7.158   1.882   2.810  0.7969  0.0061  0.8112
  276ACOH    H311108   7.085   1.872   2.972  2.2952 -0.2382  0.9547
  277ACOH    H411109   7.572   1.402   2.184  0.0829  2.5218 -0.7487
  277ACOH    O211110   7.591   1.391   2.089 -0.0312 -0.0169 -0.5175
  277ACOH    C211111   7.692   1.478   2.067  0.5688 -0.6045 -0.4654
  277ACOH    O111112   7.733   1.558   2.148  0.3072 -0.7822  0.2111
  277ACOH    C111113   7.736   1.468   1.925 -1.1280  0.6538 -0.0645
  277ACOH    H111114   7.699   1.378   1.875  2.0245  0.7683 -2.7162
  277ACOH    H211115   7.845   1.468   1.929 -1.0853 -4.5587  3.3716
  277ACOH    H311116   7.708   1.560   1.873 -0.1447  1.0522  0.1040
  278ACOH    H411117   0.510   9.965   3.606 -0.6098 -1.1059 -0.6976
  278ACOH    O211118   0.469  10.029   3.546  0.1784 -0.0407 -0.1090
  278ACOH    C211119   0.423   9.953   3.449  0.8792  0.3691 -0.1213
  278ACOH    O111120   0.419   9.831   3.441 -0.2969  0.4012 -0.5743
  278ACOH    C111121   0.347  10.039   3.356  0.5524 -0.0948  0.5171
  278ACOH    H111122   0.391  10.027   3.257  0.2510  2.2606  0.0567
  278ACOH    H211123   0.367  10.143   3.384  1.8893 -0.1251 -0.2936
  278ACOH    H311124   0.241  10.016   3.351  0.2992  1.2532 -0.4866
  279ACOH    H411125   7.904   5.422   1.842  1.3743 -0.1300 -0.4156
  279ACOH    O211126   7.904   5.328   1.819 -0.3435 -0.2361 -0.0271
  279ACOH    C211127   7.860   5.260   1.925  0.4201 -0.3134 -0.6366
  279ACOH    O111128   7.803   5.296   2.025 -0.0392  0.4574  0.0537
  279ACOH    C111129   7.895   5.120   1.917 -0.4040  0.6765  0.1669
  279ACOH    H111130   7.889   5.098   1.810 -0.4790  1.6580 -0.0345
  279ACOH    H211131   7.823   5.053   1.963  1.6234 -1.2119  0.6707
  279ACOH    H311132   7.997   5.105   1.951 -0.6742  0.5982  0.9485
  280ACOH    H411133   5.292   0.697   3.559 -0.4940 -1.7654 -2.0225
  280ACOH    O211134   5.313   0.771   3.500 -0.0177 -0.1716  0.0860
  280ACOH    C211135   5.222   0.868   3.526 -0.0260 -0.0793  0.2642
  280ACOH    O111136   5.127   0.855   3.599 -0.1958 -0.6394  0.7358
  280ACOH    C111137   5.265   0.995   3.467  0.2038 -0.3073  0.1246
  280ACOH    H111138   5.370   1.017   3.484  0.1724  2.2034 -2.6163
  280ACOH    H211139   5.204   1.077   3.505 -1.7310 -1.0410 -1.2849
  280ACOH    H311140   5.242   0.989   3.360  0.0727  1.4665  0.0423
  281ACOH    H411141   6.868   0.236   0.508 -1.3132 -1.6259  1.4019
  281ACOH    O211142   6.861   0.160   0.448 -0.2422 -0.4641 -0.2456
  281ACOH    C211143   6.731   0.134   0.420 -0.7961  0.6352  0.8753
  281ACOH    O111144   6.707   0.040   0.345 -0.2379 -0.0767 -0.1488
  281ACOH    C111145   6.628   0.209   0.492  0.2840  0.0282 -0.5275
  281ACOH    H111146   6.589   0.279   0.418  0.5685  1.0222  0.2464
  281ACOH    H211147   6.679   0.257   0.576  1.2418 -2.9507  0.6616
  281ACOH    H311148   6.552   0.140   0.528  1.7518 -1.1523  0.3846
  282ACOH    H411149   8.309   3.184   2.170  0.4114  0.9226  0.3654
  282ACOH    O211150   8.218   3.171   2.199  0.2653 -0.4791 -0.6683
  282ACOH    C211151   8.167   3.289   2.244 -0.5456 -0.2842 -0.5499
  282ACOH    O111152   8.237   3.377   2.289  0.8046  0.0602 -0.0298
  282ACOH    C111153   8.025   3.279   2.277  0.0923  0.0678 -0.1290
  282ACOH    H111154   7.986   3.373   2.317  0.7480  0.5562 -0.6424
  282ACOH    H211155   8.015   3.198   2.350  0.8695  0.1876  0.1096
  282ACOH    H311156   7.973   3.255   2.184  0.5871  2.6096 -1.0816
  283ACOH    H411157   5.278   2.136   0.542  0.0562 -0.8027 -0.7819
  283ACOH    O211158   5.334   2.180   0.477 -0.5357  0.0793 -0.7014
  283ACOH    C211159   5.297   2.308   0.482 -0.4985  0.6329 -0.3172
  283ACOH    O111160   5.207   2.355   0.546  0.2234  0.5791 -0.3319
  283ACOH    C111161   5.375   2.387   0.389  0.1729 -0.5455  0.5642
  283ACOH    H111162   5.481   2.385   0.417 -0.0746  0.7016  1.6885
  283ACOH    H211163   5.349   2.493   0.390 -0.7693 -0.7652 -0.4981
  283ACOH    H311164   5.352   2.344   0.292 -0.7535  0.4050  0.3558
  284ACOH    H411165   8.669   7.162   4.551 -0.2869  3.0744 -0.4128
  284ACOH    O211166   8.584   7.138   4.511  0.1365  0.2743  0.2767
  284ACOH    C211167   8.564   7.009   4.543 -0.3030 -0.2870  0.6768
  284ACOH    O111168   8.647   6.937   4.601  0.5593  0.2010  0.1649
  284ACOH    C111169   8.435   6.956   4.490  0.1445 -0.1330  0.1814
  284ACOH    H111170   8.353   7.003   4.544 -0.2893 -0.1493 -0.4575
  284ACOH    H211171   8.426   6.849   4.513  1.0107 -0.1862  0.3147
  284ACOH    H311172   8.432   6.976   4.383  1.4840 -1.9257 -0.2297
  285ACOH    H411173   6.540   1.581   2.376  1.3625  2.2986 -1.8332
  285ACOH    O211174   6.481   1.591   2.300 -0.0024  0.4511 -1.0719
  285ACOH    C211175   6.383   1.504   2.313  0.1360 -0.0663 -0.1934
  285ACOH    O111176   6.374   1.407   2.389 -0.4270  0.1567 -0.4338
  285ACOH    C111177   6.272   1.541   2.225  0.2994  0.5751  0.3280
  285ACOH    H111178   6.196   1.595   2.282 -1.4217 -1.8188  0.4169
  285ACOH    H211179   6.222   1.449   2.195  0.9248 -0.7108  3.0148
  285ACOH    H311180   6.310   1.595   2.139 -0.4930  0.0123 -0.3754
  286ACOH    H411181   5.215   8.319   4.681 -0.7797  2.6456 -1.6892
  286ACOH    O211182   5.220   8.363   4.768 -0.1688  0.0945 -0.3786
  286ACOH    C211183   5.146   8.477   4.759 -0.8148 -0.0858 -0.2484
  286ACOH    O111184   5.076   8.509   4.667 -0.2416  0.1632 -0.9128
  286ACOH    C111185   5.156   8.554   4.894  0.7347  0.2034  0.2933
  286ACOH    H111186   5.258   8.590   4.901  0.9932 -0.6487  1.0943
  286ACOH    H211187   5.123   8.494   4.979  1.5346  1.4790  1.5257
  286ACOH    H311188   5.085   8.638   4.894 -0.5697 -0.8796 -0.4192
  287ACOH    H411189   5.552   2.880   0.455  0.8626  0.9629  1.5191
  287ACOH    O211190   5.638   2.889   0.412  0.2044 -0.0688 -0.0569
  287ACOH    C211191   5.683   2.766   0.400 -0.1016 -0.1042  0.0450
  287ACOH    O111192   5.632   2.658   0.400 -0.3930  0.4932 -0.0212
  287ACOH    C111193   5.826   2.770   0.361  0.1242 -0.2466 -0.3746
  287ACOH    H111194   5.829   2.803   0.258  0.6706  0.9581  0.0207
  287ACOH    H211195   5.875   2.673   0.361  0.7944  0.0380  2.9351
  287ACOH    H311196   5.877   2.847   0.420 -0.4786  0.2656 -0.5140
  288ACOH    H411197   6.306   6.023   2.977 -1.3791  1.8472 -2.5659
  288ACOH    O211198   6.252   5.945   2.956  0.7944 -0.3752 -0.1527
  288ACOH    C211199   6.146   5.984   2.886  0.0481  0.5409 -0.8085
  288ACOH    O111200   6.119   6.097   2.852  0.4851  0.1009  0.0069
  288ACOH    C111201   6.063   5.867   2.841  0.1007 -0.2917  0.9735
  288ACOH    H111202   6.096   5.772   2.881  3.0665 -0.1104 -0.9284
  288ACOH    H211203   6.075   5.856   2.733 -2.5619 -0.4288  0.6509
  288ACOH    H311204   5.957   5.880   2.866 -0.2322  1.8137 -1.3592
  289ACOH    H411205   5.459   9.567   4.012  0.7811 -0.6306  1.4342
  289ACOH    O211206   5.485   9.645   4.064  0.1969  0.3082  0.3429
  289ACOH    C211207   5.619   9.642   4.058  0.0102 -0.2028  0.1010
  289ACOH    O111208   5.692   9.591   3.976 -0.2909 -0.2607 -0.1302
  289ACOH    C111209   5.661   9.746   4.158 -0.1067  0.8628  0.5821
  289ACOH    H111210   5.611   9.738   4.254  0.9776  0.4619  1.1288
  289ACOH    H211211   5.638   9.841   4.111  0.6991  0.6208 -0.3233
  289ACOH    H311212   5.768   9.737   4.178  0.0358 -0.7383 -0.7642
  290ACOH    H411213   6.284   6.396   1.849  0.4697 -1.6746  3.1164
  290ACOH    O211214   6.299   6.318   1.793  0.3867  0.4167  0.0506
  290ACOH    C211215   6.236   6.224   1.867  0.1323  0.0239 -0.1268
  290ACOH    O111216   6.215   6.233   1.984  0.3285 -0.2837  0.0906
  290ACOH    C111217   6.209   6.097   1.793 -0.3767  0.1508  1.1249
  290ACOH    H111218   6.140   6.026   1.837  0.2830 -1.1390  0.1225
  290ACOH    H211219   6.301   6.039   1.788  0.5172  1.6245 -0.0540
  290ACOH    H311220   6.188   6.129   1.691 -0.9504  0.0379  1.2051
  291ACOH    H411221   7.093   2.787   4.390  0.6322  4.2804  0.6134
  291ACOH    O211222   7.011   2.799   4.338  0.1064  0.0277  0.3371
  291ACOH    C211223   6.936   2.873   4.422  0.6775 -0.8855  0.1636
  291ACOH    O111224   6.962   2.907   4.536 -0.3426  0.2209 -0.0599
  291ACOH    C111225   6.803   2.885   4.357  0.4162 -0.1911  0.1620
  291ACOH    H111226   6.792   2.970   4.290  0.0391  0.9461  1.6437
  291ACOH    H211227   6.725   2.902   4.431  0.1609 -0.1799 -0.1127
  291ACOH    H311228   6.782   2.796   4.298 -0.4081  2.1683 -3.2622
  292ACOH    H411229   6.191   9.908   4.271  1.5180  1.7543 -0.5467
  292ACOH    O211230   6.176   9.938   4.362  0.2449  0.2993 -0.2712
  292ACOH    C211231   6.043   9.927   4.372  0.8190 -0.4774  0.5006
  292ACOH    O111232   5.955   9.890   4.294 -0.0071 -0.7731 -0.4758
  292ACOH    C111233   6.002   9.978   4.506 -0.1168  0.3102  0.0778
  292ACOH    H111234   6.033  10.082   4.513 -1.7416  0.8245 -0.1724
  292ACOH    H211235   6.055   9.927   4.586  0.2378  0.2333 -0.2006
  292ACOH    H311236   5.897   9.965   4.532 -0.2182  1.5756  0.3351
  293ACOH    H411237   7.609   2.695   3.738  0.1443 -0.0196  1.4215
  293ACOH    O211238   7.593   2.601   3.718 -0.7597  0.4715 -0.2328
  293ACOH    C211239   7.513   2.558   3.811 -0.3934  0.1032 -0.0150
  293ACOH    O111240   7.472   2.632   3.904  0.5536  0.1051 -0.8885
  293ACOH    C111241   7.474   2.420   3.791  0.6515  0.3669 -0.5287
  293ACOH    H111242   7.559   2.352   3.795 -0.6651 -1.2788 -0.0355
  293ACOH    H211243   7.432   2.406   3.691  1.3812 -0.2632 -0.7546
  293ACOH    H311244   7.403   2.387   3.866  1.1360  2.7097  1.0122
  294ACOH    H411245   8.627   0.968   2.832 -1.2012 -1.1462 -0.0272
  294ACOH    O211246   8.542   1.013   2.845 -0.4831  0.2523 -0.0798
  294ACOH    C211247   8.571   1.122   2.916 -0.4027 -0.4611 -0.4001
  294ACOH    O111248   8.500   1.163   3.002  0.0840 -0.5375  0.2036
  294ACOH    C111249   8.704   1.174   2.906 -0.7269  0.5431  0.7136
  294ACOH    H111250   8.770   1.088   2.900 -0.1414  0.9167  1.7354
  294ACOH    H211251   8.746   1.236   2.985  0.2669 -0.7035  1.1853
  294ACOH    H311252   8.706   1.226   2.810 -2.4682 -2.7267 -1.2136
  295ACOH    H411253   4.428   4.025   3.345  0.5143 -0.5652 -0.0488
  295ACOH    O211254   4.478   4.108   3.343 -0.0589 -0.2188  0.1142
  295ACOH    C211255   4.476   4.166   3.461  0.4016  0.0049 -0.3701
  295ACOH    O111256   4.398   4.144   3.554 -0.3500  0.0360  0.2073
  295ACOH    C111257   4.593   4.262   3.468 -0.2141 -0.0359 -0.1758
  295ACOH    H111258   4.563   4.357   3.423  1.0409 -0.6145 -2.3420
  295ACOH    H211259   4.675   4.219   3.411 -0.8371  0.3460 -1.3789
  295ACOH    H311260   4.610   4.282   3.573 -0.9856  0.3251 -0.1161
  296ACOH    H411261   2.374   0.157   1.053 -0.2771 -2.7296 -0.3502
  296ACOH    O211262   2.456   0.141   1.102  0.1561  0.0633 -0.0704
  296ACOH    C211263   2.514   0.253   1.149  0.4549  1.0981  0.0499
  296ACOH    O111264   2.460   0.361   1.158  0.1116 -0.6577  0.3531
  296ACOH    C111265   2.640   0.222   1.225  0.1985 -0.0538 -0.3148
  296ACOH    H111266   2.706   0.184   1.147 -1.7615 -0.7221 -1.7091
  296ACOH    H211267   2.615   0.137   1.289 -1.0653  0.4234 -0.1619
  296ACOH    H311268   2.676   0.310   1.277  1.0969 -0.9286  0.5529
  297ACOH    H411269   7.777   7.896   0.876  0.8418 -0.4790 -0.7743
  297ACOH    O211270   7.729   7.926   0.796 -0.4142 -0.7971 -0.1576
  297ACOH    C211271   7.646   7.832   0.763  0.1826  0.3587  0.3425
  297ACOH    O111272   7.606   7.736   0.830  0.4119 -0.2772  0.0119
  297ACOH    C111273   7.598   7.855   0.624 -0.5512 -0.5985  0.2798
  297ACOH    H111274   7.565   7.958   0.606 -0.8742 -0.6731  0.4392
  297ACOH    H211275   7.507   7.796   0.618 -0.2838 -1.1064  1.1636
  297ACOH    H311276   7.674   7.815   0.556 -3.4270 -2.8045 -1.7677
  298ACOH    H411277   7.550   2.387   1.347 -0.5039  1.7831  0.2274
  298ACOH    O211278   7.478   2.347   1.295  0.2651  0.5789  0.0838
  298ACOH    C211279   7.474   2.411   1.175  0.0242  0.2803 -0.2921
  298ACOH    O111280   7.545   2.506   1.147  0.4898 -0.0560  0.0220
  298ACOH    C111281   7.388   2.329   1.083  0.4765 -0.4469  1.0631
  298ACOH    H111282   7.363   2.390   0.997  2.4792 -2.4273 -1.0057
  298ACOH    H211283   7.293   2.311   1.135 -0.7046 -1.4241 -1.3652
  298ACOH    H311284   7.431   2.237   1.043 -0.2055  0.3006 -1.4405
  299ACOH    H411285   4.797   3.948   1.183  1.8666  1.9068 -2.0750
  299ACOH    O211286   4.847   3.956   1.266 -0.4427  0.2172 -0.4416
  299ACOH    C211287   4.883   4.086   1.276  0.1519 -0.3689  0.0139
  299ACOH    O111288   4.871   4.179   1.196  0.1467 -0.4742 -0.0417
  299ACOH    C111289   4.958   4.093   1.405  0.5385 -0.4576 -1.2351
  299ACOH    H111290   5.043   4.025   1.398  0.4927 -0.4869 -1.5098
  299ACOH    H211291   4.883   4.049   1.471  0.3080  0.6637 -0.7492
  299ACOH    H311292   4.995   4.192   1.429  1.2933 -0.2667 -3.1240
  300ACOH    H411293   8.021   7.372   4.039  0.0557 -0.4843 -1.7558
  300ACOH    O211294   7.967   7.451   4.022 -0.2373 -0.2162  0.2692
  300ACOH    C211295   7.993   7.535   4.123  0.1541 -0.0014 -0.4913
  300ACOH    O111296   8.085   7.533   4.200 -0.4502  0.4208 -0.3631
  300ACOH    C111297   7.917   7.666   4.104  0.6532  0.3196  0.1325
  300ACOH    H111298   7.811   7.646   4.096  0.7015 -0.6275  1.6844
  300ACOH    H211299   7.939   7.724   4.014 -0.6440 -0.4369 -0.6834
  300ACOH    H311300   7.940   7.728   4.191  1.7121  0.9834 -0.6049
  301ACOH    H411301   5.155   1.926   1.753  1.8602  0.1321  1.2297
  301ACOH    O211302   5.205   1.988   1.697 -0.1996  0.4437 -0.3110
  301ACOH    C211303   5.303   2.040   1.778  0.2996  0.6639  0.0068
  301ACOH    O111304   5.293   2.053   1.899  0.6326  0.0969  0.5779
  301ACOH    C111305   5.418   2.105   1.705  0.6240  0.1388 -0.2359
  301ACOH    H111306   5.511   2.070   1.750 -0.7419 -0.7598  2.0075
  301ACOH    H211307   5.405   2.213   1.715  1.6761  0.1336  1.3143
  301ACOH    H311308   5.411   2.069   1.602 -2.4215 -1.2808  0.3975
  302ACOH    H411309   8.038   6.968   4.289  1.5725  1.4361  1.3818
  302ACOH    O211310   7.976   7.003   4.355 -0.3630  0.1523  0.2848
  302ACOH    C211311   8.032   7.079   4.446 -0.3083 -0.0865  0.2683
  302ACOH    O111312   8.140   7.137   4.438 -0.1964 -0.3106  0.3923
  302ACOH    C111313   7.929   7.106   4.549  1.3605 -0.1447 -0.3177
  302ACOH    H111314   7.884   7.202   4.527 -2.8312 -1.8523  0.3613
  302ACOH    H211315   7.974   7.104   4.649  0.2524 -0.6968  0.1741
  302ACOH    H311316   7.845   7.037   4.542  3.3107 -2.8581  1.5753
  303ACOH    H411317   3.403   6.150   3.980  1.0025 -2.1053 -0.7292
  303ACOH    O211318   3.380   6.079   4.042 -0.0667 -0.7588  0.4755
  303ACOH    C211319   3.338   6.151   4.151  0.3231  0.2473 -0.1895
  303ACOH    O111320   3.352   6.270   4.177  0.0901  0.1787 -0.2224
  303ACOH    C111321   3.254   6.064   4.232 -0.1471  0.1548 -0.5186
  303ACOH    H111322   3.314   6.005   4.301 -1.7075 -0.4045  0.3974
  303ACOH    H211323   3.210   5.988   4.167 -1.5496  1.0382 -0.6190
  303ACOH    H311324   3.167   6.101   4.286 -0.7030 -1.3550 -0.3530
  304ACOH    H411325   4.541   1.900   4.723  4.6076 -0.8141 -1.9819
  304ACOH    O211326   4.573   1.982   4.764  0.5822 -0.1349  0.0582
  304ACOH    C211327   4.685   1.951   4.834 -0.7051 -0.2334  0.2452
  304ACOH    O111328   4.750   1.852   4.813 -0.0302  0.1949  0.3378
  304ACOH    C111329   4.732   2.076   4.907 -0.9757 -0.0423  0.0861
  304ACOH    H111330   4.656   2.138   4.956 -1.1281  0.3936 -0.6929
  304ACOH    H211331   4.782   2.137   4.832 -0.1302 -0.8895 -0.0565
  304ACOH    H311332   4.809   2.041   4.976 -0.0817 -0.3720 -1.0542
  305ACOH    H411333   0.554   5.215   0.047  3.0630 -2.6620 -0.3899
  305ACOH    O211334   0.530   5.201   0.140  0.3922  0.6381 -0.4989
  305ACOH    C211335   0.448   5.093   0.133 -0.3032  0.1853 -0.1930
  305ACOH    O111336   0.383   5.070   0.033  0.7576  0.1275 -0.0077
  305ACOH    C111337   0.404   5.041   0.263  0.4707 -0.0068 -0.6556
  305ACOH    H111338   0.296   5.032   0.254  0.3967 -3.6001  2.6899
  305ACOH    H211339   0.438   5.108   0.342 -0.7350 -1.0556  0.7693
  305ACOH    H311340   0.448   4.942   0.278 -1.0532  0.0102  4.7284
  306ACOH    H411341   0.386   0.760   1.897 -0.5854  0.8331 -0.3538
  306ACOH    O211342   0.459   0.823   1.886 -0.0653  0.3647  0.3543
  306ACOH    C211343   0.458   0.903   1.991  0.2508  0.2313 -0.2657
  306ACOH    O111344   0.380   0.901   2.086  0.1429  0.0407 -0.3129
  306ACOH    C111345   0.580   0.987   1.984  0.4666  0.4344 -0.5968
  306ACOH    H111346   0.587   1.054   2.069  1.2320  0.8764 -1.0067
  306ACOH    H211347   0.579   1.049   1.894 -0.5465 -0.0710 -0.9355
  306ACOH    H311348   0.665   0.919   1.974 -0.1240 -0.3701 -0.1841
  307ACOH    H411349   5.666   9.867   0.726 -0.6762  0.1906  1.4309
  307ACOH    O211350   5.591   9.904   0.676 -0.0256 -1.0108 -0.4890
  307ACOH    C211351   5.605  10.041   0.674  0.5525 -0.2143 -0.0295
  307ACOH    O111352   5.646  10.110   0.764 -0.0067 -0.2447 -0.0186
  307ACOH    C111353   5.569  10.093   0.538  0.9182 -0.2261 -0.0115
  307ACOH    H111354   5.515  10.017   0.480  1.5633 -1.2873  0.7538
  307ACOH    H211355   5.656  10.127   0.482  0.7190 -0.9306 -0.7668
  307ACOH    H311356   5.505  10.179   0.556  0.4973 -0.2127 -1.4281
  308ACOH    H411357   6.979   9.080   0.751  2.1812  1.7445  0.0988
  308ACOH    O211358   7.030   9.002   0.778  0.6631  0.7005  0.0024
  308ACOH    C211359   7.127   8.990   0.689  0.4309 -0.1379 -0.3889
  308ACOH    O111360   7.151   9.060   0.591 -0.0450 -0.1171  0.1435
  308ACOH    C111361   7.201   8.863   0.716 -0.5466 -0.0033 -0.3032
  308ACOH    H111362   7.308   8.863   0.695 -0.6852  0.3596 -1.0367
  308ACOH    H211363   7.154   8.792   0.649  0.4541  0.3954 -1.4481
  308ACOH    H311364   7.196   8.837   0.822  2.2416  0.0278 -0.1321
  309ACOH    H411365   7.877   5.845   4.060 -0.3662 -1.3453 -1.1473
  309ACOH    O211366   7.788   5.817   4.088 -0.5467  0.0310 -0.3029
  309ACOH    C211367   7.698   5.832   3.985 -0.6549 -0.1796  0.1879
  309ACOH    O111368   7.725   5.889   3.880 -0.2953  0.2856  0.2035
  309ACOH    C111369   7.572   5.762   4.016 -0.5437  0.3963 -0.0291
  309ACOH    H111370   7.489   5.817   3.972  0.2281  1.7783  0.2197
  309ACOH    H211371   7.551   5.759   4.123  1.4847 -0.8819  0.3709
  309ACOH    H311372   7.585   5.666   3.966  0.6929 -0.3302  1.6345
  310ACOH    H411373   7.300   1.148   2.304 -1.8447 -0.6719 -2.3310
  310ACOH    O211374   7.244   1.226   2.321  0.0062  0.1865  0.1405
  310ACOH    C211375   7.143   1.231   2.236 -0.2353 -0.0404  0.0724
  310ACOH    O111376   7.074   1.134   2.201 -0.0652  0.1992 -0.2303
  310ACOH    C111377   7.083   1.372   2.226 -0.9155  0.8751  0.0518
  310ACOH    H111378   7.009   1.385   2.305  1.6871 -2.1003  3.1264
  310ACOH    H211379   7.038   1.383   2.127 -1.2988  2.6150  0.4052
  310ACOH    H311380   7.161   1.447   2.230 -1.4398  1.3227  2.0781
  311ACOH    H411381   8.093   3.515   1.848  0.6571 -0.2026 -0.0899
  311ACOH    O211382   8.056   3.604   1.860  0.4261 -0.3611  0.3758
  311ACOH    C211383   7.987   3.636   1.754  0.7814 -0.2821 -0.0510
  311ACOH    O111384   7.949   3.565   1.663  0.1502 -0.5077 -0.4322
  311ACOH    C111385   7.934   3.769   1.769 -0.2003  0.4884 -0.4802
  311ACOH    H111386   7.884   3.801   1.677 -1.3599 -1.3064 -0.4886
  311ACOH    H211387   8.020   3.831   1.795 -0.4263  0.6476 -0.1065
  311ACOH    H311388   7.861   3.761   1.849  0.6775  0.3599  0.3118
  312ACOH    H411389   4.913   2.467   2.413  0.2474 -0.1833  0.7067
  312ACOH    O211390   4.968   2.393   2.443  0.5261 -0.0887  0.4277
  312ACOH    C211391   4.946   2.278   2.366  0.0853 -0.6196  0.5284
  312ACOH    O111392   4.900   2.267   2.254 -0.5920 -0.3553  0.2016
  312ACOH    C111393   5.017   2.165   2.424  0.8345  0.3825 -1.2278
  312ACOH    H111394   5.116   2.145   2.383  1.1984  2.2308 -1.2721
  312ACOH    H211395   4.960   2.073   2.409  0.0205  0.7880 -0.7009
  312ACOH    H311396   5.026   2.187   2.530 -0.5854  2.5549 -1.5259
  313ACOH    H411397   7.804   8.219   0.659  0.7483 -0.0082 -0.5556
  313ACOH    O211398   7.868   8.163   0.708  0.2647  0.1178  0.2238
  313ACOH    C211399   7.981   8.160   0.632  0.2510 -0.4252 -0.1754
  313ACOH    O111400   8.011   8.217   0.530  0.0781  0.3204 -0.0301
  313ACOH    C111401   8.095   8.096   0.712 -0.4400  0.3007 -0.4268
  313ACOH    H111402   8.055   7.999   0.741  0.2827  0.3363  0.7123
  313ACOH    H211403   8.115   8.154   0.802 -0.1395 -2.0097  1.0294
  313ACOH    H311404   8.178   8.078   0.644 -1.8057 -2.0633 -1.5325
  314ACOH    H411405   4.543   7.419   4.227 -0.3635 -0.8299 -1.2852
  314ACOH    O211406   4.535   7.341   4.284  0.2985 -0.1190 -0.2048
  314ACOH    C211407   4.642   7.279   4.239 -0.1069 -0.2107  0.3106
  314ACOH    O111408   4.744   7.323   4.190 -0.2629  0.3405  0.2172
  314ACOH    C111409   4.638   7.139   4.284 -0.1594 -0.3553  0.3871
  314ACOH    H111410   4.679   7.069   4.212  0.9137 -0.8737  1.4792
  314ACOH    H211411   4.536   7.102   4.299 -0.8620  1.4449  0.1596
  314ACOH    H311412   4.690   7.139   4.380  1.7805  1.7602 -0.6292
  315ACOH    H411413   4.820   7.278   3.774 -0.3325 -0.5384 -2.2036
  315ACOH    O211414   4.763   7.216   3.823  0.1607  0.6041 -0.1128
  315ACOH    C211415   4.643   7.274   3.847 -0.6248 -0.7490 -0.3329
  315ACOH    O111416   4.616   7.386   3.808 -0.2239 -0.0005  0.2101
  315ACOH    C111417   4.554   7.183   3.917  0.5180  0.3487  0.3784
  315ACOH    H111418   4.515   7.112   3.844  0.1471 -0.2543  1.1528
  315ACOH    H211419   4.484   7.243   3.976 -0.6560 -0.5957 -0.0345
  315ACOH    H311420   4.616   7.131   3.990 -1.6405 -1.0273  1.2859
  316ACOH    H411421   9.711   3.427   4.071 -0.2361  0.0351  0.3797
  316ACOH    O211422   9.772   3.352   4.082  0.2040  0.3708  0.2690
  316ACOH    C211423   9.893   3.395   4.049  0.0289  0.0588  0.0876
  316ACOH    O111424   9.925   3.512   4.039 -0.1736  0.2079 -0.3659
  316ACOH    C111425   9.990   3.285   4.043  0.6172  0.7730 -0.2087
  316ACOH    H111426   9.939   3.196   4.006 -2.0094  1.7445  0.9031
  316ACOH    H211427  10.026   3.274   4.146  0.3560  1.5408 -0.0309
  316ACOH    H311428  10.082   3.299   3.987  1.3910 -1.7323  0.3481
  317ACOH    H411429   6.446   0.471   3.488  0.5519 -0.5238  0.2904
  317ACOH    O211430   6.518   0.536   3.492  0.0633  0.0253  0.2354
  317ACOH    C211431   6.508   0.595   3.367  0.1371  0.5800  0.5587
  317ACOH    O111432   6.443   0.561   3.272  0.2082 -0.2848  0.2979
  317ACOH    C111433   6.593   0.711   3.364  0.0823  0.0200 -0.0912
  317ACOH    H111434   6.650   0.719   3.271  1.4268  1.0672  0.8059
  317ACOH    H211435   6.667   0.709   3.443  1.2268 -1.1954 -1.1665
  317ACOH    H311436   6.534   0.802   3.364 -2.0373 -1.3167 -0.6333
  318ACOH    H411437   8.296   0.145   4.330 -1.7000  1.5417 -1.7775
  318ACOH    O211438   8.366   0.213   4.327 -0.2289  0.1351 -0.3204
  318ACOH    C211439   8.475   0.167   4.264  0.2110 -0.4459 -0.0759
  318ACOH    O111440   8.490   0.054   4.233  0.5451 -0.5305 -0.5383
  318ACOH    C111441   8.583   0.266   4.258  0.1062 -0.0416 -0.7047
  318ACOH    H111442   8.605   0.294   4.361 -1.4524  0.0943 -0.3982
  318ACOH    H211443   8.561   0.360   4.206 -2.0822 -0.3071 -0.3032
  318ACOH    H311444   8.671   0.214   4.220  1.5055  2.8840 -1.6331
  319ACOH    H411445   4.361   1.937   3.017 -0.7922 -1.6811  0.4035
  319ACOH    O211446   4.303   2.010   3.042  0.2308 -0.7453  0.0721
  319ACOH    C211447   4.225   2.045   2.935 -0.2618 -0.2344 -0.8196
  319ACOH    O111448   4.219   1.993   2.827 -0.0763 -0.0754  0.1333
  319ACOH    C111449   4.137   2.154   2.985  0.9905  0.3672 -0.2948
  319ACOH    H111450   4.035   2.116   2.988  0.9490  0.4062 -1.1625
  319ACOH    H211451   4.149   2.243   2.924  0.9916  1.6204  1.5009
  319ACOH    H311452   4.163   2.183   3.087  1.8196  0.2584 -0.4696
  320ACOH    H411453   9.449   0.719   4.227 -0.9622  1.4622  2.5008
  320ACOH    O211454   9.498   0.792   4.186  0.0366 -0.1696  0.7137
  320ACOH    C211455   9.626   0.763   4.183  0.3228  0.8121  0.0970
  320ACOH    O111456   9.678   0.657   4.201  0.3653  0.0677 -0.3873
  320ACOH    C111457   9.699   0.880   4.133 -0.4819  0.5911 -0.3723
  320ACOH    H111458   9.748   0.941   4.209  0.0163 -0.7203  0.3969
  320ACOH    H211459   9.633   0.952   4.086 -0.8388  2.6608  3.1266
  320ACOH    H311460   9.770   0.854   4.054 -2.4925  0.6292 -2.2341
  321ACOH    H411461   7.005   6.279   2.547 -0.1575  2.7812 -1.1649
  321ACOH    O211462   7.017   6.251   2.454  0.2082 -0.6340 -0.1658
  321ACOH    C211463   7.125   6.177   2.463 -0.6279 -0.6743 -0.1041
  321ACOH    O111464   7.193   6.136   2.559  0.1995 -0.6784 -0.3123
  321ACOH    C111465   7.153   6.123   2.325  0.2777  0.3348 -0.5277
  321ACOH    H111466   7.190   6.200   2.257 -1.0691  0.5903 -1.0016
  321ACOH    H211467   7.068   6.068   2.284  0.2715  0.3586 -0.5478
  321ACOH    H311468   7.237   6.055   2.334  0.3539  0.5916  0.7572
  322ACOH    H411469   3.586   1.769   1.906  1.3920  0.4999  2.4899
  322ACOH    O211470   3.668   1.793   1.861  0.1187  0.1529 -0.1151
  322ACOH    C211471   3.763   1.782   1.957 -0.0970  0.0032 -0.1200
  322ACOH    O111472   3.748   1.789   2.075  0.3575 -0.3538 -0.1768
  322ACOH    C111473   3.904   1.790   1.911  0.3900  0.5370  0.4657
  322ACOH    H111474   3.913   1.887   1.861 -0.6081  0.7325  0.6537
  322ACOH    H211475   3.923   1.728   1.823 -1.5199  0.5865 -0.0015
  322ACOH    H311476   3.983   1.782   1.985  0.7018  0.0652  0.0839
  323ACOH    H411477   6.876   6.177   3.053  1.8074  0.7839 -0.6195
  323ACOH    O211478   6.913   6.136   3.133 -0.1466 -0.4230 -0.3105
  323ACOH    C211479   6.805   6.093   3.209 -0.9789  0.4528  0.2327
  323ACOH    O111480   6.686   6.114   3.187 -0.4353  0.3975  0.2903
  323ACOH    C111481   6.850   6.004   3.324 -0.0473 -0.4759 -0.2055
  323ACOH    H111482   6.774   5.991   3.401 -0.7891 -0.2968 -0.9038
  323ACOH    H211483   6.940   6.048   3.368  0.0977  0.0467 -1.0095
  323ACOH    H311484   6.883   5.904   3.296  4.2269  0.4379  1.1335
  324ACOH    H411485   7.037   6.485   2.325  0.5372  0.0995 -0.2880
  324ACOH    O211486   7.045   6.455   2.233  0.3511  0.4159 -0.4040
  324ACOH    C211487   6.928   6.496   2.174  0.5328  0.3251 -0.7276
  324ACOH    O111488   6.831   6.555   2.225 -0.1932 -0.0041  0.6527
  324ACOH    C111489   6.935   6.461   2.024  0.3026  0.1539 -0.6120
  324ACOH    H111490   7.005   6.529   1.974  0.2173 -0.3104 -1.3730
  324ACOH    H211491   6.837   6.475   1.979  0.7804  1.7289 -1.2222
  324ACOH    H311492   6.966   6.358   2.008  1.6546  0.9330 -3.4999
  325ACOH    H411493   1.992   9.021   0.432 -2.1261 -0.8238 -1.0535
  325ACOH    O211494   1.987   8.954   0.502 -0.3555  0.1609  0.0472
  325ACOH    C211495   1.997   8.832   0.442  0.1052 -0.0465  0.1325
  325ACOH    O111496   2.048   8.799   0.331  0.3669 -0.5373  0.3216
  325ACOH    C111497   1.968   8.720   0.540  0.1757 -0.1248  0.7707
  325ACOH    H111498   1.911   8.640   0.493  0.0989 -0.2783  1.1320
  325ACOH    H211499   1.912   8.754   0.626 -2.5157 -0.2852 -0.8616
  325ACOH    H311500   2.065   8.677   0.565  1.5896  3.6617  2.1406
  326ACOH    H411501   7.525   1.065   4.662 -1.4770 -0.1755  1.7756
  326ACOH    O211502   7.471   1.144   4.647 -0.2617  0.4381  0.4796
  326ACOH    C211503   7.534   1.253   4.701  0.5744  0.4869  0.1723
  326ACOH    O111504   7.645   1.251   4.751 -0.2839 -0.4321 -0.1344
  326ACOH    C111505   7.466   1.380   4.662  0.4265 -0.4076 -0.0842
  326ACOH    H111506   7.393   1.368   4.583  0.7857 -1.4499 -0.2708
  326ACOH    H211507   7.547   1.445   4.630 -0.6579  0.4051 -1.2069
  326ACOH    H311508   7.426   1.426   4.753 -0.5318  0.3281 -0.8733
  327ACOH    H411509   4.488   0.556   3.393  2.0022 -0.3160  3.3942
  327ACOH    O211510   4.566   0.521   3.347  0.2591 -0.2497  0.2353
  327ACOH    C211511   4.683   0.553   3.394 -0.0780  0.3793 -0.3570
  327ACOH    O111512   4.701   0.612   3.499  0.1185  0.0929  0.3519
  327ACOH    C111513   4.790   0.523   3.293  0.2657 -0.6535  0.2525
  327ACOH    H111514   4.870   0.465   3.339 -0.9845 -0.9459  2.1323
  327ACOH    H211515   4.836   0.612   3.249 -0.7389  0.0744  0.6325
  327ACOH    H311516   4.740   0.468   3.213 -1.8028 -0.0556  1.0813
  328ACOH    H411517   4.412   1.672   3.487  0.9599 -0.4517 -0.2400
  328ACOH    O211518   4.374   1.587   3.462  0.0326 -0.0254 -0.3014
  328ACOH    C211519   4.375   1.577   3.325 -0.0668 -0.1170 -0.2802
  328ACOH    O111520   4.404   1.666   3.248  0.6186  0.4932 -0.2876
  328ACOH    C111521   4.380   1.433   3.293 -0.0873  0.1830  0.0046
  328ACOH    H111522   4.359   1.369   3.378 -1.0777 -1.7769 -1.6551
  328ACOH    H211523   4.485   1.415   3.269 -0.4032 -2.1719  0.2829
  328ACOH    H311524   4.318   1.414   3.205 -1.6345  2.7882  0.4835
  329ACOH    H411525   4.787   1.681   0.049  1.3746 -0.2797  0.8599
  329ACOH    O211526   4.801   1.585   0.049  1.2240 -0.3145 -0.4305
  329ACOH    C211527   4.774   1.548   0.176  0.6069  0.5102  0.3541
  329ACOH    O111528   4.742   1.619   0.271 -0.2881  1.1123 -0.0910
  329ACOH    C111529   4.777   1.398   0.183  0.0063  0.4976 -0.5205
  329ACOH    H111530   4.671   1.377   0.198  0.1579  0.1063  0.0242
  329ACOH    H211531   4.828   1.374   0.277 -0.3853  2.9416  0.3706
  329ACOH    H311532   4.812   1.351   0.092 -2.0704 -1.6505 -0.2582
  330ACOH    H411533   8.047   3.902   1.470 -2.8544  0.5124 -1.5377
  330ACOH    O211534   8.024   3.973   1.532  0.3066  0.3920 -0.1606
  330ACOH    C211535   8.125   4.047   1.578 -0.6519 -1.0435 -0.1625
  330ACOH    O111536   8.242   4.009   1.578  0.2012  0.2944  0.3821
  330ACOH    C111537   8.086   4.174   1.643  0.0047  0.1485  0.2459
  330ACOH    H111538   7.985   4.201   1.616 -0.3213 -1.5504 -0.3415
  330ACOH    H211539   8.153   4.255   1.613  1.9761 -1.1584  0.9401
  330ACOH    H311540   8.093   4.153   1.750 -0.0055 -3.0961 -0.3349
  331ACOH    H411541   7.775   8.046   3.880 -0.9774  3.0839 -0.1222
  331ACOH    O211542   7.764   8.032   3.785 -0.4058  0.4669  0.1716
  331ACOH    C211543   7.857   7.937   3.751  0.5644  0.0258 -0.5536
  331ACOH    O111544   7.957   7.908   3.811  0.1160 -0.4182 -0.1556
  331ACOH    C111545   7.842   7.927   3.603 -0.1046  0.3478 -0.1505
  331ACOH    H111546   7.745   7.966   3.572  0.9195  1.0197 -2.6105
  331ACOH    H211547   7.853   7.823   3.572 -3.1042 -1.0792  3.1045
  331ACOH    H311548   7.921   7.982   3.552  0.9495 -0.5683  0.4746
  332ACOH    H411549   4.234   6.861   4.290 -0.8039  0.6705  1.2890
  332ACOH    O211550   4.215   6.796   4.360  0.1223 -0.5667  0.4192
  332ACOH    C211551   4.306   6.818   4.451 -0.3646 -0.0617 -0.2963
  332ACOH    O111552   4.381   6.920   4.460 -0.1291  0.2655  0.1218
  332ACOH    C111553   4.306   6.707   4.551  1.7367 -0.1871  0.4245
  332ACOH    H111554   4.272   6.751   4.645  1.5861 -2.8513  1.6704
  332ACOH    H211555   4.404   6.663   4.568  1.7692 -0.2579  0.0380
  332ACOH    H311556   4.244   6.624   4.518  1.9521 -0.1985  0.0549
  333ACOH    H411557   7.441   5.396   2.058  1.4356  1.6559 -0.3390
  333ACOH    O211558   7.484   5.354   1.981  0.0220  0.1802 -0.3607
  333ACOH    C211559   7.478   5.431   1.874 -0.0497  0.2182  0.3050
  333ACOH    O111560   7.414   5.535   1.862  0.5264 -0.3348 -0.5864
  333ACOH    C111561   7.567   5.379   1.767 -0.2863  0.2918  0.5592
  333ACOH    H111562   7.584   5.272   1.773  1.5951  0.5541  0.1435
  333ACOH    H211563   7.669   5.416   1.782 -0.3047 -0.0835  1.7203
  333ACOH    H311564   7.533   5.404   1.667  1.7348  1.2184  0.0778
  334ACOH    H411565   4.388   6.534   2.663 -0.6230 -0.1600  0.1874
  334ACOH    O211566   4.440   6.457   2.691 -0.2744 -0.1275 -0.3674
  334ACOH    C211567   4.543   6.513   2.758  0.5817  0.1104  0.6779
  334ACOH    O111568   4.551   6.625   2.809 -0.0039  0.2004 -0.5173
  334ACOH    C111569   4.645   6.416   2.772  0.0479  0.3010  0.1161
  334ACOH    H111570   4.749   6.448   2.775  0.5054 -1.3161  3.5410
  334ACOH    H211571   4.648   6.341   2.693 -3.0910  0.9130 -0.6357
  334ACOH    H311572   4.622   6.376   2.871 -2.2958  2.9613  0.7258
  335ACOH    H411573   4.842   2.503   2.737  0.0576 -0.2596 -0.4856
  335ACOH    O211574   4.920   2.546   2.699  0.2318 -0.0656  0.0837
  335ACOH    C211575   5.037   2.477   2.717 -0.5787 -0.2207  0.1677
  335ACOH    O111576   5.046   2.373   2.780 -0.1506 -0.2724  0.7422
  335ACOH    C111577   5.152   2.556   2.667  0.4039  0.1842  0.2549
  335ACOH    H111578   5.245   2.509   2.702  0.7334 -0.5618 -1.5742
  335ACOH    H211579   5.147   2.658   2.705  0.2143  0.3341 -0.1767
  335ACOH    H311580   5.152   2.570   2.559 -2.3626 -1.2134  0.0348
  336ACOH    H411581   5.089   7.607   0.032  0.8008 -0.0687 -0.0826
  336ACOH    O211582   5.106   7.589   0.126  0.1663 -0.1763  0.0168
  336ACOH    C211583   5.021   7.665   0.200 -0.1228 -0.6929  0.1983
  336ACOH    O111584   4.908   7.712   0.169 -0.4647  0.2785 -0.1645
  336ACOH    C111585   5.068   7.661   0.340 -0.4805  0.8482 -0.1718
  336ACOH    H111586   5.063   7.557   0.374 -0.5328  0.5335 -1.1023
  336ACOH    H211587   5.007   7.733   0.394  0.2387 -0.5940  2.6300
  336ACOH    H311588   5.174   7.686   0.339  0.1367 -1.5815  0.0804
  337ACOH    H411589   7.519   5.604   2.465  0.1915  0.3673  1.6631
  337ACOH    O211590   7.477   5.692   2.460 -0.3593  0.0023 -0.3622
  337ACOH    C211591   7.345   5.684   2.491 -0.2552 -0.5446  0.6213
  337ACOH    O111592   7.279   5.585   2.492 -0.2663 -0.4815  0.8487
  337ACOH    C111593   7.286   5.813   2.503  0.2518 -0.7273  0.0821
  337ACOH    H111594   7.367   5.874   2.544 -0.7275  0.6642 -0.0055
  337ACOH    H211595   7.198   5.821   2.568  0.3715 -1.4650  0.3332
  337ACOH    H311596   7.260   5.847   2.402 -0.1845 -1.2017  0.0357
  338ACOH    H411597   4.874   3.952   4.174 -0.1055  1.5526  1.1323
  338ACOH    O211598   4.923   3.894   4.234 -0.1201  0.0891 -0.2238
  338ACOH    C211599   4.855   3.778   4.232 -0.0366 -0.2787 -0.0207
  338ACOH    O111600   4.763   3.738   4.164 -0.0949 -0.2436 -0.0903
  338ACOH    C111601   4.906   3.698   4.340  0.2026  0.2783 -0.4551
  338ACOH    H111602   5.015   3.695   4.346  0.1581 -0.7286 -0.0611
  338ACOH    H211603   4.877   3.595   4.323 -0.8968  0.2521  1.3798
  338ACOH    H311604   4.861   3.718   4.437  0.7645  1.0434 -0.3419
  339ACOH    H411605   4.980   7.997   0.338 -1.7232  2.4718 -0.3206
  339ACOH    O211606   5.054   8.049   0.304 -0.3698  0.0259 -1.2667
  339ACOH    C211607   5.142   8.030   0.403 -0.5193 -0.2640  0.3004
  339ACOH    O111608   5.129   7.969   0.512  0.3692 -0.7946  0.4661
  339ACOH    C111609   5.270   8.092   0.356 -0.3395  0.4854  1.0089
  339ACOH    H111610   5.346   8.072   0.431  1.2124 -2.5945 -1.2700
  339ACOH    H211611   5.270   8.200   0.337 -0.6645  0.2124 -0.6916
  339ACOH    H311612   5.297   8.046   0.261 -1.7634  0.8729  0.3844
  340ACOH    H411613   7.643   1.576   3.369 -0.7373 -0.7969  0.8198
  340ACOH    O211614   7.601   1.662   3.350  0.0156 -0.5602  0.1849
  340ACOH    C211615   7.591   1.676   3.218 -0.0592 -0.1090 -0.9275
  340ACOH    O111616   7.583   1.583   3.138  0.1719  0.0172 -0.2712
  340ACOH    C111617   7.552   1.816   3.180  0.0566  0.1652 -0.0795
  340ACOH    H111618   7.450   1.840   3.209 -0.2721  0.6617 -1.6502
  340ACOH    H211619   7.557   1.828   3.072  0.7989  1.8919  0.1232
  340ACOH    H311620   7.626   1.887   3.217 -0.7390 -0.1051  2.1122
  341ACOH    H411621   8.315   5.688   0.554  0.5272 -2.0274 -0.7395
  341ACOH    O211622   8.283   5.715   0.466 -0.0994  0.6367  0.2377
  341ACOH    C211623   8.239   5.839   0.473 -0.0161 -0.4882  0.0161
  341ACOH    O111624   8.180   5.884   0.572 -0.5659 -0.7017 -0.2976
  341ACOH    C111625   8.220   5.896   0.333  0.3982 -0.2073  0.0362
  341ACOH    H111626   8.274   5.987   0.305 -0.0680 -0.7797 -2.8890
  341ACOH    H211627   8.115   5.910   0.307  0.4580  0.7330  0.2867
  341ACOH    H311628   8.247   5.820   0.260 -1.4447 -2.0345  1.2216
  342ACOH    H411629   0.806   9.822   1.640  0.6976  0.9908  4.3801
  342ACOH    O211630   0.881   9.761   1.652  0.5552 -0.1278  0.4307
  342ACOH    C211631   0.847   9.695   1.765  0.0126  0.3499  0.2781
  342ACOH    O111632   0.757   9.721   1.840  0.2352  0.2161 -0.0999
  342ACOH    C111633   0.930   9.571   1.783 -0.3713  0.4221  0.1915
  342ACOH    H111634   0.984   9.582   1.877 -0.2634  1.1168  0.0516
  342ACOH    H211635   1.003   9.559   1.702 -0.6816  0.4974 -0.1017
  342ACOH    H311636   0.868   9.482   1.778  0.5191 -0.1728 -0.4961
  343ACOH    H411637   7.425   8.454   0.874  0.1396  0.7954  0.4329
  343ACOH    O211638   7.357   8.449   0.805  0.1909  0.4739  0.4083
  343ACOH    C211639   7.407   8.500   0.694 -0.3238  0.7568  0.0704
  343ACOH    O111640   7.522   8.524   0.679 -0.5267 -0.0869 -0.2665
  343ACOH    C111641   7.302   8.486   0.590 -0.8718 -0.2734  0.3106
  343ACOH    H111642   7.304   8.382   0.559 -0.1364 -0.2717  0.3429
  343ACOH    H211643   7.326   8.561   0.515 -0.6342 -0.1691  0.4879
  343ACOH    H311644   7.202   8.503   0.630 -0.9221 -0.9805  0.4905
  344ACOH    H411645   4.920   1.930   0.509  1.0620 -0.5097  0.2943
  344ACOH    O211646   4.945   2.020   0.537  0.4303 -0.3504  0.3718
  344ACOH    C211647   4.829   2.089   0.507 -0.2109 -0.4579 -0.2065
  344ACOH    O111648   4.712   2.058   0.487 -0.2700 -0.5899  0.1468
  344ACOH    C111649   4.864   2.233   0.514  0.5367 -0.1784 -0.3481
  344ACOH    H111650   4.792   2.300   0.466 -0.9521  0.6632  2.9172
  344ACOH    H211651   4.961   2.251   0.467  1.0113 -0.4860  0.5082
  344ACOH    H311652   4.867   2.268   0.617  2.1891 -1.3945  0.0383
  345ACOH    H411653   7.466   0.630   4.376  0.8519  0.3470  2.7979
  345ACOH    O211654   7.369   0.630   4.383  0.5776  0.2448 -0.2382
  345ACOH    C211655   7.326   0.704   4.484 -0.1343 -0.1425 -0.6836
  345ACOH    O111656   7.393   0.774   4.557 -0.2163 -0.6659  0.4320
  345ACOH    C111657   7.190   0.665   4.529 -0.8120  0.1327  0.4893
  345ACOH    H111658   7.202   0.573   4.586  1.9100  0.0005 -0.2637
  345ACOH    H211659   7.124   0.642   4.446  1.6974 -0.2713 -1.4407
  345ACOH    H311660   7.146   0.737   4.599 -1.1644  1.5670 -1.1856
  346ACOH    H411661   3.202   2.993   4.060  0.9703  1.0490 -2.2382
  346ACOH    O211662   3.152   3.076   4.054 -0.4150  0.4234 -0.1721
  346ACOH    C211663   3.074   3.074   4.164  0.5581 -0.6213  0.2315
  346ACOH    O111664   3.024   2.976   4.220 -0.6417 -0.4799 -0.4977
  346ACOH    C111665   3.014   3.208   4.186  0.1538 -0.4614 -0.5519
  346ACOH    H111666   2.927   3.219   4.122 -1.4225 -1.2678  1.4096
  346ACOH    H211667   3.090   3.283   4.164  1.1138 -0.8199  1.4235
  346ACOH    H311668   2.978   3.224   4.287 -1.1059 -0.9170 -0.9141
  347ACOH    H411669   7.680   1.162   1.789  0.2872 -1.7619  0.0217
  347ACOH    O211670   7.741   1.200   1.723 -0.5063 -0.0808  0.2507
  347ACOH    C211671   7.854   1.129   1.737  0.3660 -0.8238  0.7597
  347ACOH    O111672   7.880   1.014   1.766 -0.2532  0.1431  0.6460
  347ACOH    C111673   7.959   1.229   1.697  0.5289  0.5604 -0.0029
  347ACOH    H111674   8.054   1.177   1.681  0.9735  1.0589  0.9871
  347ACOH    H211675   7.970   1.299   1.780 -0.7835  1.2964 -0.4382
  347ACOH    H311676   7.935   1.285   1.606  1.2674 -0.9351 -1.1499
  348ACOH    H411677   7.979   4.655   2.816  0.2555  0.6634  0.0032
  348ACOH    O211678   7.893   4.695   2.836 -0.0601 -0.0442  0.0818
  348ACOH    C211679   7.870   4.653   2.964  0.3901  0.3859 -0.1395
  348ACOH    O111680   7.927   4.555   3.017  0.3284 -0.1997  0.1702
  348ACOH    C111681   7.736   4.691   3.018  0.4276 -0.4784 -0.2407
  348ACOH    H111682   7.665   4.610   3.003 -1.2932  0.9992 -0.2026
  348ACOH    H211683   7.700   4.777   2.962 -0.8197  0.4154  1.8704
  348ACOH    H311684   7.743   4.716   3.124  0.0327  0.8161 -0.5119
  349ACOH    H411685   6.384   7.490   3.000 -0.2202 -0.8430 -1.4744
  349ACOH    O211686   6.385   7.402   3.041 -0.2004 -0.0072  0.3522
  349ACOH    C211687   6.480   7.329   2.981  0.8448 -0.7742 -0.5253
  349ACOH    O111688   6.583   7.379   2.940  0.2284  0.5399  0.2599
  349ACOH    C111689   6.451   7.190   2.993 -0.1877  0.2373  0.1911
  349ACOH    H111690   6.502   7.130   2.917  0.7462  0.2363  0.8168
  349ACOH    H211691   6.345   7.176   2.971  0.0446  0.1412 -0.8990
  349ACOH    H311692   6.472   7.150   3.092 -1.0908  0.4747  0.4878
  350ACOH    H411693   3.631   4.348   1.201  0.7676 -0.4831  0.7231
  350ACOH    O211694   3.703   4.329   1.137  0.0447 -0.5276 -0.0828
  350ACOH    C211695   3.652   4.240   1.044 -0.0333  0.5646 -0.2776
  350ACOH    O111696   3.577   4.141   1.068 -0.3548  0.6476 -0.2842
  350ACOH    C111697   3.714   4.257   0.911 -0.0859  0.3101 -0.6979
  350ACOH    H111698   3.792   4.180   0.911  0.4482  0.8267  0.4027
  350ACOH    H211699   3.754   4.358   0.899  1.7830 -0.1504  1.2500
  350ACOH    H311700   3.644   4.230   0.832 -0.3189  0.9371 -0.7098
  351ACOH    H411701   5.659   2.602   1.483 -0.9561  0.0231  0.3593
  351ACOH    O211702   5.639   2.690   1.519 -0.3655  0.1242  0.4585
  351ACOH    C211703   5.554   2.737   1.421  0.0776 -0.0643  0.6880
  351ACOH    O111704   5.523   2.682   1.320  0.0625  0.5081 -0.3567
  351ACOH    C111705   5.490   2.870   1.445 -0.6568  0.0429  0.3686
  351ACOH    H111706   5.416   2.892   1.369 -0.0034 -0.1711 -0.3414
  351ACOH    H211707   5.567   2.947   1.433 -1.9179  0.9490 -2.3722
  351ACOH    H311708   5.448   2.889   1.543  1.2556 -1.1893  1.4668
  352ACOH    H411709   3.369   4.395   3.692 -0.3430 -0.3593  0.0166
  352ACOH    O211710   3.452   4.344   3.687  0.3403  0.7729 -0.2033
  352ACOH    C211711   3.504   4.365   3.568  1.0533  0.2134  0.4314
  352ACOH    O111712   3.472   4.443   3.480  0.1863 -0.1988 -0.2035
  352ACOH    C111713   3.633   4.289   3.555 -0.1946 -0.1978  0.5554
  352ACOH    H111714   3.699   4.300   3.640  0.4142 -1.4276  0.2548
  352ACOH    H211715   3.680   4.322   3.462 -0.4701  1.4532  0.9914
  352ACOH    H311716   3.608   4.183   3.546 -3.3120  0.4443  0.8336
  353ACOH    H411717   0.823   3.193   3.071 -3.6607  0.0089 -0.2145
  353ACOH    O211718   0.833   3.098   3.090 -0.0508  0.4009  0.1714
  353ACOH    C211719   0.909   3.043   2.989 -0.2599  0.2501  0.0798
  353ACOH    O111720   0.952   3.109   2.895 -0.1857  0.0940  0.2516
  353ACOH    C111721   0.897   2.895   2.992  0.3246 -0.3229  0.1874
  353ACOH    H111722   0.876   2.871   2.888  0.6622  2.4286 -0.5456
  353ACOH    H211723   0.820   2.857   3.060 -2.9933 -1.0123 -3.7859
  353ACOH    H311724   0.989   2.840   3.011  2.5210  2.5650 -1.7266
  354ACOH    H411725   5.509   4.476   0.342 -0.1526  0.1799  0.5790
  354ACOH    O211726   5.540   4.539   0.410 -0.1459  0.2125  0.5453
  354ACOH    C211727   5.666   4.579   0.370  0.5415 -0.4789  0.2336
  354ACOH    O111728   5.725   4.525   0.274  0.7342  0.0892 -0.0638
  354ACOH    C111729   5.708   4.706   0.429  0.4918  0.1579  0.0003
  354ACOH    H111730   5.732   4.696   0.535 -0.0410  2.7473  0.4061
  354ACOH    H211731   5.638   4.789   0.428  2.2841  1.6993 -0.9490
  354ACOH    H311732   5.800   4.739   0.381  0.0819 -0.6627 -1.3809
  355ACOH    H411733   4.877   5.395   1.298 -0.1388  1.6057 -1.7436
  355ACOH    O211734   4.972   5.384   1.283 -0.0269 -0.6492  0.4142
  355ACOH    C211735   4.976   5.368   1.151 -0.1975  0.0445  0.0073
  355ACOH    O111736   4.898   5.369   1.060 -0.4154  0.1752  1.0197
  355ACOH    C111737   5.113   5.337   1.113 -1.5896  0.2926 -0.3061
  355ACOH    H111738   5.127   5.293   1.014  0.0038 -1.9040  0.8617
  355ACOH    H211739   5.162   5.276   1.189 -2.0880 -0.4190 -0.5506
  355ACOH    H311740   5.167   5.432   1.112  0.3624 -0.7798  0.3984
  356ACOH    H411741   7.246   4.528   4.391 -1.8122 -0.4682 -0.8019
  356ACOH    O211742   7.205   4.610   4.424  0.6607  0.1409  0.8506
  356ACOH    C211743   7.303   4.691   4.476  0.1188  0.7652 -0.4741
  356ACOH    O111744   7.428   4.677   4.470  0.3066 -0.1621  0.8508
  356ACOH    C111745   7.238   4.812   4.534  0.1148 -0.1069 -0.6495
  356ACOH    H111746   7.185   4.861   4.453 -1.5129  0.6003  0.7932
  356ACOH    H211747   7.302   4.885   4.583 -2.1754  0.0916  2.1887
  356ACOH    H311748   7.161   4.782   4.606 -1.2667  3.0826 -0.7258
  357SOL     OW11749   1.487   5.851   1.800 -0.0438  0.0371  0.0959
  357SOL    HW111750   1.504   5.915   1.726  1.5941  0.8088  1.1164
  357SOL    HW211751   1.510   5.894   1.888 -0.5989 -1.3400  0.9401
  358SOL     OW11752   2.396   3.527   1.303  0.1583 -0.8120  0.0402
  358SOL    HW111753   2.492   3.527   1.272  0.0131 -0.5285 -0.4265
  358SOL    HW211754   2.378   3.446   1.359  0.0041 -2.1803 -1.9473
  359SOL     OW11755   3.373   7.910   4.015 -0.1848  0.1795  0.6927
  359SOL    HW111756   3.442   7.974   3.982 -0.8932  0.2067 -0.7859
  359SOL    HW211757   3.413   7.819   4.022 -0.0336  0.1461 -0.3982
  360SOL     OW11758   6.501   9.795   2.773  0.3703 -0.6276 -0.6384
  360SOL    HW111759   6.481   9.742   2.691 -0.0431 -1.0891 -0.2450
  360SOL    HW211760   6.580   9.855   2.756 -0.2130 -0.1262 -1.6252
  361SOL     OW11761   5.116   7.615   2.724  0.4449 -0.2188  0.1384
  361SOL    HW111762   5.169   7.535   2.694  0.7819 -0.0035  0.1626
  361SOL    HW211763   5.024   7.586   2.748  0.6831 -0.6690  0.5210
  362SOL     OW11764   1.089   1.502   0.299  0.0302 -0.3623  0.4754
  362SOL    HW111765   1.081   1.405   0.278 -2.4624  0.3606 -2.1086
  362SOL    HW211766   0.999   1.542   0.310  0.9181  2.2489 -1.3230
  363SOL     OW11767   7.960   1.594   4.509 -0.1853  0.1165  0.1512
  363SOL    HW111768   7.947   1.643   4.422 -1.3016  0.8045  0.6972
  363SOL    HW211769   8.052   1.556   4.512  0.6535  2.0613 -0.3546
  364SOL     OW11770   7.869   0.823   3.148  0.1803 -0.1413  0.3027
  364SOL    HW111771   7.933   0.842   3.073 -0.0758  0.2937  0.1997
  364SOL    HW211772   7.827   0.908   3.179  0.9717 -0.2071  1.5571
  365SOL     OW11773   3.204   1.935   3.143  0.0859 -0.2724 -0.0981
  365SOL    HW111774   3.176   2.023   3.182  1.5093 -0.1042  0.5757
  365SOL    HW211775   3.302   1.935   3.126 -0.0523 -1.3912 -1.0163
  366SOL     OW11776   9.970   9.206   2.548  0.2429 -0.4434 -0.2433
  366SOL    HW111777   9.921   9.155   2.618 -0.7381 -0.2143 -0.7510
  366SOL    HW211778   9.925   9.294   2.533  0.6274 -0.3602 -0.9338
  367SOL     OW11779   4.234   8.044   3.864  0.0169 -0.3216 -0.1571
  367SOL    HW111780   4.230   7.950   3.831 -1.5783 -0.3537  0.0834
  367SOL    HW211781   4.224   8.045   3.964 -0.1431  0.1062 -0.1745
  368SOL     OW11782   5.187   9.028   2.547  0.0899 -0.6189  0.0712
  368SOL    HW111783   5.093   9.061   2.557  0.3794 -0.5295  2.6490
  368SOL    HW211784   5.188   8.928   2.554  0.2177 -0.6026  0.2746
  369SOL     OW11785   6.039   9.727   0.661  0.0348 -0.3079 -0.2170
  369SOL    HW111786   6.062   9.777   0.578 -1.0651  2.9582  1.3371
  369SOL    HW211787   6.111   9.741   0.729 -0.0771 -1.2299  0.0913
  370SOL     OW11788   8.728   8.455   2.560 -0.2897  0.0350  0.3353
  370SOL    HW111789   8.779   8.430   2.643 -1.2473  0.9611  1.2193
  370SOL    HW211790   8.764   8.403   2.482  1.8521  0.5008  0.9792
  371SOL     OW11791   8.118   0.410   1.301  0.8494  0.0596  0.2445
  371SOL    HW111792   8.117   0.459   1.213 -0.3255  0.1970  0.3288
  371SOL    HW211793   8.208   0.369   1.315  1.2570  0.6058 -0.7129
  372SOL     OW11794   4.341   2.767   0.447 -0.1997  0.0269 -0.1837
  372SOL    HW111795   4.420   2.707   0.463  1.7367  2.2499 -1.1115
  372SOL    HW211796   4.323   2.772   0.349 -2.7878 -1.9909  0.1283
  373SOL     OW11797   4.080   1.581   2.387  0.5214  0.0513  0.5743
  373SOL    HW111798   4.074   1.643   2.308 -0.6992  0.4819  0.9884
  373SOL    HW211799   4.139   1.504   2.364  2.9692  1.9157  0.4290
  374SOL     OW11800   0.071   3.586   3.536 -0.0194  0.4317 -0.0920
  374SOL    HW111801   0.038   3.668   3.490 -0.0814 -0.9269 -2.6203
  374SOL    HW211802   0.166   3.568   3.509  0.8896  1.1443  2.5732
  375SOL     OW11803   1.040   7.522   3.480 -0.5839  0.4187 -0.3064
  375SOL    HW111804   1.089   7.593   3.530  0.1922  0.0474 -0.5381
  375SOL    HW211805   0.942   7.529   3.500 -0.5720  1.8301 -0.6719
  376SOL     OW11806   8.220   3.571   1.496  0.1713  0.4568  0.5928
  376SOL    HW111807   8.193   3.530   1.583  1.5286 -0.4545  0.6012
  376SOL    HW211808   8.229   3.499   1.426 -0.7455  1.1603 -0.2695
  377SOL     OW11809   7.651   8.912   1.813 -0.1211  0.1021 -0.5992
  377SOL    HW111810   7.582   8.966   1.860 -0.4123 -1.8543  1.3285
  377SOL    HW211811   7.609   8.827   1.779  1.2811 -1.0356  0.4592
  378SOL     OW11812   1.833   8.747   1.578 -0.5873  0.4616 -0.5205
  378SOL    HW111813   1.770   8.697   1.638  0.6643  1.4345  1.6494
  378SOL    HW211814   1.813   8.845   1.585  1.1770  0.7795  0.2174
  379SOL     OW11815   9.923   4.212   0.260 -0.3603  0.4125  0.1284
  379SOL    HW111816   9.929   4.179   0.355 -0.3404  1.9488  0.6801
  379SOL    HW211817   9.980   4.294   0.250  1.8784 -1.3345 -1.9630
  380SOL     OW11818   4.232   2.033   4.756 -0.3795  0.2500 -0.5651
  380SOL    HW111819   4.235   2.083   4.842 -0.5689  0.6962 -0.8155
  380SOL    HW211820   4.164   1.960   4.762  0.6016 -0.6209  0.1413
  381SOL     OW11821   2.967   2.367   3.374 -0.4803  0.3514 -0.2774
  381SOL    HW111822   2.932   2.341   3.463  1.8335 -0.5817  0.3990
  381SOL    HW211823   2.958   2.466   3.362  0.7091  0.7266  1.6966
  382SOL     OW11824   0.456   1.503   4.512  0.0557  0.5257  0.5359
  382SOL    HW111825   0.496   1.426   4.562 -1.2139 -0.4387  0.1241
  382SOL    HW211826   0.523   1.576   4.503  0.5630  0.3868  2.9215
  383SOL     OW11827   6.991   0.362   2.109 -0.2110 -0.2161 -0.1631
  383SOL    HW111828   7.080   0.342   2.069  0.1855  0.4655  0.3719
  383SOL    HW211829   6.954   0.446   2.068  0.1963  0.4861  0.8781
  384SOL     OW11830   2.132   1.632   2.141 -0.4147 -0.4944 -0.1770
  384SOL    HW111831   2.188   1.619   2.223 -0.2292  1.0310 -0.0324
  384SOL    HW211832   2.035   1.629   2.166 -0.3594  0.7568  0.2670
  385SOL     OW11833   9.066   9.658   2.832 -0.5235  0.0933  0.3139
  385SOL    HW111834   9.071   9.742   2.886 -0.3066  1.4399 -1.7229
  385SOL    HW211835   9.002   9.595   2.874 -1.2275  1.5661  1.5078
  386SOL     OW11836   6.229   9.876   4.104 -0.5230 -0.6710 -0.2246
  386SOL    HW111837   6.304   9.840   4.048  1.5021  1.7531  0.8370
  386SOL    HW211838   6.143   9.834   4.076  1.1188 -2.9672 -1.9754
  387SOL     OW11839   0.996   8.351   2.493  0.2443 -0.3602  0.1806
  387SOL    HW111840   0.912   8.394   2.461 -0.3758 -1.1946  0.6762
  387SOL    HW211841   1.073   8.413   2.477 -0.0963 -0.5880 -2.5996
  388SOL     OW11842   1.499   4.600   2.213  0.1737  0.2317 -0.1724
  388SOL    HW111843   1.581   4.657   2.220  0.9331 -0.8730  0.1732
  388SOL    HW211844   1.467   4.577   2.305  0.2421 -0.4212 -0.3120
  389SOL     OW11845   9.581   3.853   3.702 -0.2425  0.7562 -0.0474
  389SOL    HW111846   9.514   3.880   3.771  0.1862  1.8430 -0.0321
  389SOL    HW211847   9.670   3.894   3.724  0.4765 -0.8217  0.0387
  390SOL     OW11848   0.568   3.494   1.705  0.1270  0.7704 -0.4457
  390SOL    HW111849   0.545   3.465   1.798  0.3944  2.7364  0.2714
  390SOL    HW211850   0.631   3.428   1.664  1.2554  0.6772  1.3725
  391SOL     OW11851   8.235   0.941   0.996 -0.4593 -0.1564  0.1797
  391SOL    HW111852   8.163   0.997   0.954  0.9211  1.1401 -0.4971
  391SOL    HW211853   8.293   0.902   0.924 -0.2304 -0.8598  0.7380
  392SOL     OW11854   3.694   3.108   0.456 -0.7352 -0.2742  0.0768
  392SOL    HW111855   3.761   3.179   0.479 -0.1835 -0.8788  0.3735
  392SOL    HW211856   3.616   3.149   0.409  0.0653  0.3738 -0.7051
  393SOL     OW11857   1.148   4.397   0.447 -0.6063  0.2772  0.5621
  393SOL    HW111858   1.050   4.388   0.462 -0.3503 -1.8989  1.2787
  393SOL    HW211859   1.193   4.421   0.534 -0.4075  0.2841  0.4582
  394SOL     OW11860   2.037   2.218   2.052  0.2196 -0.0094  0.0956
  394SOL    HW111861   2.014   2.125   2.023 -2.5569  0.2384  1.3170
  394SOL    HW211862   2.040   2.278   1.973 -0.6434 -0.6345 -0.4214
  395SOL     OW11863   4.840   1.314   2.732  0.0536 -0.3656 -0.2946
  395SOL    HW111864   4.889   1.350   2.811 -0.0152 -1.5108  0.2885
  395SOL    HW211865   4.905   1.297   2.658  0.1263  0.6578 -0.4644
  396SOL     OW11866   9.378   1.867   4.426  0.2381 -0.2329 -0.3133
  396SOL    HW111867   9.310   1.887   4.497  0.5201 -1.0187  0.1742
  396SOL    HW211868   9.467   1.850   4.469  0.3291 -1.0704 -0.8302
  397SOL     OW11869   8.414   2.045   4.672  0.1594 -0.0425 -0.1500
  397SOL    HW111870   8.365   2.088   4.748 -0.0737  0.3447 -0.5168
  397SOL    HW211871   8.463   2.115   4.620 -0.2033 -0.2207 -0.7375
  398SOL     OW11872   0.086   3.785   0.231  0.1637  0.0341  0.1506
  398SOL    HW111873   0.112   3.772   0.135  0.2987  1.0175  0.0519
  398SOL    HW211874  -0.012   3.773   0.241  0.0704  0.5135 -0.2122
  399SOL     OW11875   4.202   9.520   4.069  0.2371  0.3821 -0.0123
  399SOL    HW111876   4.243   9.552   3.983 -0.6686  1.3160 -0.1088
  399SOL    HW211877   4.123   9.463   4.048 -0.0692  0.7303  0.2080
  400SOL     OW11878   6.839   1.305   2.518  0.9363  0.6084 -0.8213
  400SOL    HW111879   6.828   1.206   2.505 -2.1853  0.1818  3.8048
  400SOL    HW211880   6.765   1.353   2.470  0.1581  0.3863  0.1409
  401SOL     OW11881   1.453   7.664   1.668 -0.4684 -0.0666  0.3884
  401SOL    HW111882   1.493   7.597   1.730 -0.1930 -0.4050 -0.1459
  401SOL    HW211883   1.381   7.621   1.614 -0.4697  0.1346  0.2288
  402SOL     OW11884   3.830   8.920   0.550  0.3509  0.2400  0.4784
  402SOL    HW111885   3.838   8.839   0.492 -0.3965 -1.6757  2.9607
  402SOL    HW211886   3.785   8.994   0.498  1.2197 -0.8297 -1.8725
  403SOL     OW11887   0.867   9.719   3.018 -0.1896 -0.3180  0.3304
  403SOL    HW111888   0.820   9.785   3.077 -0.6308 -0.3754  0.0429
  403SOL    HW211889   0.948   9.684   3.066  1.1590  1.8958 -0.2713
  404SOL     OW11890   1.095   4.130   3.082 -0.3497 -0.5685 -0.0625
  404SOL    HW111891   1.133   4.042   3.112  1.5951  0.3674  0.3328
  404SOL    HW211892   1.142   4.160   2.999  1.4867  1.7474  1.7349
  405SOL     OW11893   7.928   0.517   1.498  0.8484  0.2893 -0.2011
  405SOL    HW111894   7.882   0.516   1.409 -0.2908 -3.3273  0.3495
  405SOL    HW211895   8.026   0.502   1.485  1.0941  2.3835 -0.9831
  406SOL     OW11896   3.637   2.578   2.164  0.2975 -0.3558 -0.2579
  406SOL    HW111897   3.620   2.514   2.089 -2.1820 -0.0340 -0.0140
  406SOL    HW211898   3.685   2.658   2.129  3.6755 -2.3675 -0.5272
  407SOL     OW11899   8.859   0.195   1.823 -0.2505  0.5644 -0.0437
  407SOL    HW111900   8.944   0.156   1.787 -1.2662  0.2961 -2.2910
  407SOL    HW211901   8.827   0.267   1.761 -0.3742  2.3957  2.0992
  408SOL     OW11902   8.105   1.276   4.193  0.0327  0.0483  0.0618
  408SOL    HW111903   8.049   1.198   4.163 -0.7187  1.2342 -1.7023
  408SOL    HW211904   8.069   1.360   4.153  1.4953  1.1678  1.0667
  409SOL     OW11905   0.068   8.556   2.494 -0.2490 -0.0972 -0.1255
  409SOL    HW111906   0.060   8.655   2.507  1.8628 -0.1461  1.8100
  409SOL    HW211907   0.123   8.537   2.413  0.0756  0.3223 -0.0023
  410SOL     OW11908   0.841   6.887   3.565 -0.0299  0.0724  0.0265
  410SOL    HW111909   0.816   6.967   3.510  1.6642  0.9856  0.5574
  410SOL    HW211910   0.915   6.911   3.627  0.4233 -1.8905  0.2773
  411SOL     OW11911   2.651   8.310   0.812 -0.8585  0.0230 -0.6244
  411SOL    HW111912   2.682   8.392   0.859 -1.3554 -0.0227 -0.2115
  411SOL    HW211913   2.613   8.245   0.879  0.5159 -0.9932 -0.8059
  412SOL     OW11914   4.683   2.725   2.046 -0.3691 -0.2746  0.1690
  412SOL    HW111915   4.649   2.635   2.075 -0.7699 -0.7638 -1.7747
  412SOL    HW211916   4.606   2.782   2.018  0.0983 -0.1692 -0.9089
  413SOL     OW11917   4.505   9.995   0.259  0.4012 -0.2061 -0.4834
  413SOL    HW111918   4.568  10.068   0.233  0.6168 -0.9451 -2.1295
  413SOL    HW211919   4.460   9.959   0.177 -2.9189  0.9761  0.7494
  414SOL     OW11920   1.978   1.853   4.367  0.0211 -0.1814 -0.2583
  414SOL    HW111921   1.912   1.782   4.393  0.7871 -0.7336  0.1929
  414SOL    HW211922   2.067   1.832   4.407  0.4929  0.5253 -0.9287
  415SOL     OW11923   0.189   3.781   1.456 -0.1862  0.4180  0.3374
  415SOL    HW111924   0.205   3.727   1.539 -0.6430  1.2052  0.9371
  415SOL    HW211925   0.273   3.783   1.401  0.9420  2.1078  2.0717
  416SOL     OW11926   0.611   4.622   2.180  0.2565  0.5536  0.9559
  416SOL    HW111927   0.693   4.678   2.187  0.0777  1.2613 -1.9536
  416SOL    HW211928   0.627   4.534   2.224  2.2722  1.0079  1.1808
  417SOL     OW11929   8.182   4.366   4.263  0.0027 -0.6210  0.3163
  417SOL    HW111930   8.257   4.303   4.278  1.9723  0.9746 -2.2907
  417SOL    HW211931   8.178   4.391   4.166 -0.3639  3.5731  1.2847
  418SOL     OW11932   8.356   1.384   2.115  0.4763 -0.5471  0.3342
  418SOL    HW111933   8.444   1.381   2.163  1.0229  0.0285 -0.6190
  418SOL    HW211934   8.303   1.302   2.137  0.5175 -0.0601  2.3052
  419SOL     OW11935   1.958   5.664   2.021  0.7268 -0.4740  0.0919
  419SOL    HW111936   1.956   5.565   2.033 -3.0903 -0.4756 -0.0037
  419SOL    HW211937   1.866   5.701   2.035  1.7087  2.8335 -1.7761
  420SOL     OW11938   8.059   5.408   1.266  0.5104  0.4246 -0.2440
  420SOL    HW111939   8.024   5.321   1.300 -1.9207  1.5432  0.2391
  420SOL    HW211940   8.116   5.451   1.336 -0.2977  0.3578  0.4566
  421SOL     OW11941   4.171   0.237   4.478  0.0926 -0.4755  0.0545
  421SOL    HW111942   4.214   0.147   4.486  0.3723 -0.2081  1.9505
  421SOL    HW211943   4.078   0.228   4.445  0.3216 -1.4014 -0.3421
  422SOL     OW11944   2.816   5.144   3.348  0.1336 -0.5191  0.0770
  422SOL    HW111945   2.891   5.205   3.371  0.8291 -1.9393  1.7467
  422SOL    HW211946   2.734   5.197   3.326  0.3172  1.0025  2.8903
  423SOL     OW11947   3.729   6.874   3.097 -0.5655  0.2284 -0.7630
  423SOL    HW111948   3.693   6.962   3.127 -1.6739 -1.0119  1.7113
  423SOL    HW211949   3.762   6.823   3.177 -0.9049 -2.0332 -2.0402
  424SOL     OW11950   8.723   3.316   4.276 -0.2883 -0.0712 -0.5468
  424SOL    HW111951   8.690   3.247   4.212  1.3007  0.6499 -2.1905
  424SOL    HW211952   8.699   3.407   4.242  1.0994  0.3432 -0.4261
  425SOL     OW11953   7.199   9.952   1.923 -0.5948  0.8025  0.4395
  425SOL    HW111954   7.275   9.890   1.904 -1.7599 -0.6835  0.5430
  425SOL    HW211955   7.155   9.977   1.837 -0.0491  1.6056  0.3868
  426SOL     OW11956   7.247   9.362   0.485 -0.4020  0.1747 -0.6998
  426SOL    HW111957   7.194   9.292   0.532 -0.1974  0.8882  0.6097
  426SOL    HW211958   7.213   9.372   0.391 -0.1898 -1.9080 -1.0089
  427SOL     OW11959   9.579   7.036   1.296  0.4166  0.3397  0.1691
  427SOL    HW111960   9.487   7.039   1.256  0.4879  1.7143  0.0846
  427SOL    HW211961   9.627   6.955   1.262 -0.9601 -0.7305  0.6789
  428SOL     OW11962   4.122   8.296   3.800 -0.5431  0.0756 -0.1441
  428SOL    HW111963   4.171   8.209   3.793 -0.3521  0.2030 -0.3722
  428SOL    HW211964   4.184   8.368   3.831 -0.8684 -0.0166  0.7322
  429SOL     OW11965   3.154   1.158   3.524 -0.0117  0.2251  0.0876
  429SOL    HW111966   3.056   1.177   3.529 -0.1580 -0.3617 -0.3702
  429SOL    HW211967   3.204   1.220   3.584 -0.8294 -0.7287  1.7689
  430SOL     OW11968   0.649   6.936   4.076 -0.5781 -0.3158  0.4036
  430SOL    HW111969   0.554   6.905   4.070 -0.9629  1.0670 -1.4231
  430SOL    HW211970   0.708   6.859   4.098 -1.8688 -1.6734 -0.7445
  431SOL     OW11971   3.559   6.771   3.736  0.1191  0.0023  0.1661
  431SOL    HW111972   3.462   6.768   3.758  0.1350 -0.5113  0.1673
  431SOL    HW211973   3.613   6.757   3.819  0.1950  0.1288  0.1392
  432SOL     OW11974   0.975   2.020   4.389  0.2515  0.0132  0.3487
  432SOL    HW111975   1.044   2.090   4.375  0.6531 -0.2945  0.7817
  432SOL    HW211976   0.986   1.948   4.320  0.8013 -0.3771  0.8362
  433SOL     OW11977   2.788   4.427   3.787 -0.2243 -0.2287 -0.1302
  433SOL    HW111978   2.841   4.461   3.710  1.8281 -0.4819  1.1339
  433SOL    HW211979   2.722   4.358   3.754  1.9153 -1.7249 -1.4257
  434SOL     OW11980   6.678   9.667   3.842 -0.4143 -0.1974 -0.1961
  434SOL    HW111981   6.657   9.619   3.757 -1.2100 -1.2562  0.5892
  434SOL    HW211982   6.739   9.744   3.823  0.4562 -1.2113 -1.5313
  435SOL     OW11983   9.746   0.519   3.943 -0.5681 -0.1193 -0.2842
  435SOL    HW111984   9.689   0.579   3.886  0.6007  0.6289 -0.7005
  435SOL    HW211985   9.704   0.508   4.033  0.0327  2.7365  0.3961
  436SOL     OW11986   5.194   0.020   2.713  0.2286  0.4567 -0.0306
  436SOL    HW111987   5.127   0.056   2.778 -0.5655 -0.3718 -0.3871
  436SOL    HW211988   5.236   0.096   2.664  1.2610  1.1363  1.8524
  437SOL     OW11989   7.649   5.492   2.483  0.1523  0.4198  0.5826
  437SOL    HW111990   7.677   5.411   2.431 -0.2071  0.9793 -0.5206
  437SOL    HW211991   7.705   5.570   2.455 -0.4298  0.8539  0.6128
  438SOL     OW11992   9.596   3.640   0.668  0.4425 -0.1142  0.0987
  438SOL    HW111993   9.672   3.619   0.606  0.9763  1.6564  0.1186
  438SOL    HW211994   9.558   3.729   0.644 -0.8020 -0.4270  0.9064
  439SOL     OW11995   1.882   4.264   2.647 -0.7304 -0.1516 -0.4291
  439SOL    HW111996   1.800   4.255   2.590 -0.8232  0.1879 -0.3534
  439SOL    HW211997   1.855   4.299   2.737 -0.5339 -0.2974 -0.3142
  440SOL     OW11998   4.223   8.892   3.228 -0.3946  0.5377  0.8195
  440SOL    HW111999   4.320   8.915   3.218 -0.6561  0.9437 -1.0640
  440SOL    HW212000   4.212   8.820   3.296  0.9582  2.3561  3.0257
  441SOL     OW12001   9.057   4.155   4.299  0.0182  0.5015 -0.5306
  441SOL    HW112002   9.122   4.164   4.374 -0.6737  0.2343  0.1055
  441SOL    HW212003   9.107   4.144   4.213  0.8414 -2.0620  0.2221
  442SOL     OW12004   2.092   4.025   2.314 -0.4967 -0.0819  0.0837
  442SOL    HW112005   2.117   4.036   2.410  0.7256  2.1673 -0.4700
  442SOL    HW212006   2.008   4.076   2.296 -0.0794  0.4699 -0.3073
  443SOL     OW12007   8.769   9.168   1.285  0.4542 -0.3786 -0.2167
  443SOL    HW112008   8.782   9.265   1.307 -0.9981  0.0232 -1.0879
  443SOL    HW212009   8.858   9.122   1.287  1.2779  1.1388 -0.6128
  444SOL     OW12010   1.768   7.249   4.515  0.1663  0.0603  0.7450
  444SOL    HW112011   1.829   7.328   4.511 -0.2507  0.3479 -0.1564
  444SOL    HW212012   1.680   7.276   4.554 -0.0236  0.0742  0.3110
  445SOL     OW12013   0.394   5.232   3.453  0.6244  0.1359 -0.1602
  445SOL    HW112014   0.489   5.230   3.422  0.9937 -2.1468  1.0018
  445SOL    HW212015   0.389   5.281   3.541  0.6420  0.6314 -0.4312
  446SOL     OW12016   8.852   3.087   4.477 -0.0488 -0.1360 -0.1866
  446SOL    HW112017   8.759   3.053   4.464  0.1181 -1.1879  1.2458
  446SOL    HW212018   8.849   3.183   4.503 -0.6644  0.1511 -1.2800
  447SOL     OW12019   1.781   5.726   1.645  0.1623  0.5883 -0.1020
  447SOL    HW112020   1.688   5.723   1.680 -0.6460  1.8811 -1.9933
  447SOL    HW212021   1.790   5.665   1.566  1.3651 -0.7165  1.0156
  448SOL     OW12022   8.308   4.746   0.966 -0.2088  0.0576 -0.5158
  448SOL    HW112023   8.343   4.668   1.018  0.1268  0.7755  0.3477
  448SOL    HW212024   8.218   4.772   1.002  0.7178  1.5582  0.7805
  449SOL     OW12025   9.666   3.207   0.606  0.1266  0.1192 -0.5800
  449SOL    HW112026   9.698   3.289   0.654  1.6072 -0.0738 -1.2131
  449SOL    HW212027   9.615   3.150   0.670  1.5555  0.1608  0.6361
  450SOL     OW12028   0.360   6.148   3.008 -0.3517 -0.6196 -0.4091
  450SOL    HW112029   0.351   6.215   3.081 -1.2413 -0.1433 -0.9475
  450SOL    HW212030   0.444   6.166   2.956 -1.1653  0.8061 -1.2685
  451SOL     OW12031   5.703   7.939   1.775  0.2190  0.4483  0.1951
  451SOL    HW112032   5.743   7.851   1.804  0.2924  0.4984  0.2469
  451SOL    HW212033   5.775   7.999   1.741  0.1499  0.4371  0.0294
  452SOL     OW12034   3.047   9.718   4.300 -0.0946  0.0133 -0.1654
  452SOL    HW112035   2.963   9.754   4.339 -0.2792 -0.1998 -0.3677
  452SOL    HW212036   3.122   9.730   4.366 -0.7976 -2.0971  1.0530
  453SOL     OW12037   8.269   1.030   2.658 -0.1502  0.1838  0.1028
  453SOL    HW112038   8.245   1.021   2.754  2.3561  0.1159  0.7485
  453SOL    HW212039   8.297   0.941   2.621  2.8802  0.9391  0.4555
  454SOL     OW12040   2.527   4.612   1.774 -0.5935  0.2368  0.3982
  454SOL    HW112041   2.569   4.582   1.689  0.2852 -1.1272  1.2974
  454SOL    HW212042   2.580   4.688   1.812 -0.6792  0.4948  0.0054
  455SOL     OW12043   2.733   6.116   3.050 -0.7511  0.2874  0.3965
  455SOL    HW112044   2.831   6.102   3.063 -0.8255 -0.0059  0.6459
  455SOL    HW212045   2.706   6.206   3.084 -0.7986 -0.1427  1.5068
  456SOL     OW12046   4.813   0.633   1.070  0.4769  0.4724  0.3995
  456SOL    HW112047   4.735   0.694   1.055 -0.3375 -0.3952  1.0796
  456SOL    HW212048   4.830   0.580   0.987  0.0588  0.3299  0.4079
  457SOL     OW12049   3.032   4.431   1.492  0.2085 -0.1060 -0.4024
  457SOL    HW112050   2.960   4.500   1.497  2.0541  1.8087  1.1459
  457SOL    HW212051   3.017   4.363   1.564  0.5173  0.9085  0.6489
  458SOL     OW12052   1.385   4.158   0.996 -0.1040 -0.2600 -0.3252
  458SOL    HW112053   1.288   4.167   1.017  0.0793 -0.8631  0.8234
  458SOL    HW212054   1.405   4.202   0.909 -1.3311  0.2295 -0.3599
  459SOL     OW12055   3.982   8.497   3.666  0.1833 -0.7961  0.0730
  459SOL    HW112056   4.023   8.493   3.575  0.6699 -0.6177  0.2846
  459SOL    HW212057   4.009   8.416   3.718  1.4462  0.0276  0.7111
  460SOL     OW12058   9.645   9.693   1.672  1.0815 -1.0913  0.2132
  460SOL    HW112059   9.630   9.597   1.649  0.2885 -0.9382  0.0729
  460SOL    HW212060   9.656   9.702   1.771 -3.2418 -0.8107  0.7783
  461SOL     OW12061   8.398   7.384   2.580  0.6478 -0.3956 -0.6561
  461SOL    HW112062   8.309   7.396   2.535  0.9477  0.9854 -0.9177
  461SOL    HW212063   8.465   7.352   2.513  1.2216  2.1821 -1.3480
  462SOL     OW12064   3.344   3.432   3.526  0.0523  0.4642 -0.2725
  462SOL    HW112065   3.352   3.346   3.577  0.4048  0.8864  0.3952
  462SOL    HW212066   3.278   3.492   3.573 -0.0633  0.6231 -0.6382
  463SOL     OW12067   1.481   9.618   1.712 -0.2250 -0.6482 -0.7904
  463SOL    HW112068   1.553   9.550   1.701  0.6047  0.2061 -0.6358
  463SOL    HW212069   1.492   9.665   1.799 -0.8631 -0.3779 -0.8485
  464SOL     OW12070   0.144   7.811   2.188  0.3843  0.0077  0.3269
  464SOL    HW112071   0.053   7.773   2.176 -0.1153  1.6489 -1.3974
  464SOL    HW212072   0.163   7.874   2.113  4.0177 -2.4233 -0.9657
  465SOL     OW12073   3.454   2.881   0.369 -0.2559 -0.5258 -0.0013
  465SOL    HW112074   3.521   2.917   0.433 -1.6642 -0.1559  1.2910
  465SOL    HW212075   3.397   2.956   0.335 -2.3775 -1.3142  1.7264
  466SOL     OW12076   3.721   8.239   0.049  0.0283  0.4226  0.8573
  466SOL    HW112077   3.706   8.145   0.078 -2.5786  0.1418 -1.1301
  466SOL    HW212078   3.771   8.239  -0.038  1.2192  0.9289  1.5423
  467SOL     OW12079   3.170   8.250   1.947 -0.1360  0.4109 -0.5823
  467SOL    HW112080   3.125   8.298   2.022  1.6092  1.1327  0.0315
  467SOL    HW212081   3.131   8.280   1.860 -1.6456  0.1385 -0.0020
  468SOL     OW12082   2.287   2.129   4.271  0.0418  0.1863 -0.3266
  468SOL    HW112083   2.240   2.060   4.217  0.4598  0.4455 -1.0253
  468SOL    HW212084   2.252   2.127   4.365  0.0212 -0.9373 -0.3508
  469SOL     OW12085   4.578   1.881   0.324  0.0233  0.5156 -0.4196
  469SOL    HW112086   4.635   1.803   0.347 -1.3920 -0.4527 -0.1065
  469SOL    HW212087   4.609   1.961   0.374 -0.2155 -0.5042  1.3972
  470SOL     OW12088   3.429   2.740   3.511  0.2649  0.8894  0.2014
  470SOL    HW112089   3.442   2.738   3.610 -0.3930  2.0778  0.3278
  470SOL    HW212090   3.458   2.653   3.471  0.3134  0.3199  1.4615
  471SOL     OW12091   0.154   8.092   0.451 -0.1737 -0.1840 -0.4320
  471SOL    HW112092   0.213   8.133   0.521 -1.2196 -0.4795  0.6240
  471SOL    HW212093   0.195   8.108   0.361  0.5468  1.2974  0.1289
  472SOL     OW12094   2.510   5.386   2.652  0.3109  0.1255  0.0171
  472SOL    HW112095   2.505   5.328   2.733 -2.1740 -0.0051 -0.1878
  472SOL    HW212096   2.567   5.342   2.582  0.6259 -0.8048  0.8526
  473SOL     OW12097   6.364   7.900   2.298  0.2797  0.1396 -0.6238
  473SOL    HW112098   6.462   7.907   2.317  0.0403 -2.1665  1.8950
  473SOL    HW212099   6.344   7.811   2.257 -0.4909  1.5492 -3.4293
  474SOL     OW12100   6.165   6.685   2.295  0.6258  0.3050 -0.2250
  474SOL    HW112101   6.195   6.775   2.261 -0.0933  0.5837 -0.1276
  474SOL    HW212102   6.243   6.638   2.335  1.3392  0.2790 -1.5947
  475SOL     OW12103   6.446   6.790   3.048  0.3209  0.2507  0.3192
  475SOL    HW112104   6.478   6.718   3.108  2.7699  0.3428 -0.7801
  475SOL    HW212105   6.441   6.755   2.954 -1.5207  0.6457  0.2621
  476SOL     OW12106   2.672   3.158   1.140 -0.1841  0.0602 -0.1128
  476SOL    HW112107   2.731   3.086   1.175  1.0589  0.8100 -0.6608
  476SOL    HW212108   2.585   3.118   1.110  0.6191 -1.2391 -0.7204
  477SOL     OW12109   4.342   7.352   0.913  0.4096 -0.3125  0.2139
  477SOL    HW112110   4.293   7.342   0.827  1.1476 -0.5738 -0.1841
  477SOL    HW212111   4.439   7.332   0.898  0.4424 -0.9395  1.2284
  478SOL     OW12112   9.433   0.431   3.627  0.8100  0.1332 -0.2035
  478SOL    HW112113   9.413   0.473   3.716  1.3515 -0.3749  0.1634
  478SOL    HW212114   9.502   0.485   3.579  0.4085  0.4908 -0.3849
  479SOL     OW12115   6.889   9.393   1.606 -0.0591 -0.1243  0.4220
  479SOL    HW112116   6.968   9.391   1.545  1.4595  0.6015  2.3091
  479SOL    HW212117   6.833   9.474   1.586  1.6795  1.3774  1.4691
  480SOL     OW12118   1.260   6.871   4.058  0.7994  0.2396  0.0208
  480SOL    HW112119   1.273   6.902   4.153  2.4166 -2.4108  0.7185
  480SOL    HW212120   1.314   6.928   3.997 -0.2236  1.9556  0.6765
  481SOL     OW12121   1.968   4.644   0.835 -0.7096  0.5594  0.2230
  481SOL    HW112122   1.877   4.630   0.873  0.3516 -1.7207  2.0278
  481SOL    HW212123   1.972   4.732   0.788 -4.2246  0.0843 -1.0809
  482SOL     OW12124   4.912   9.866   2.575 -0.0843 -0.3515 -0.2444
  482SOL    HW112125   4.991   9.813   2.607 -0.3607  0.7174  2.2589
  482SOL    HW212126   4.929   9.897   2.481  1.6446 -1.7160 -0.4168
  483SOL     OW12127   8.908   9.735   4.020  0.2675  0.1786  0.1487
  483SOL    HW112128   8.918   9.667   4.092 -0.7738 -1.5470 -1.2793
  483SOL    HW212129   8.811   9.745   3.996  0.5907  0.7053 -1.0179
  484SOL     OW12130   9.765   6.826   3.820  0.3062  0.1867  0.4819
  484SOL    HW112131   9.726   6.895   3.759 -1.2495 -0.5675  0.5858
  484SOL    HW212132   9.825   6.765   3.768 -1.1441 -0.5574 -0.3408
  485SOL     OW12133   8.056   3.624   3.642 -0.8095  0.0076 -0.4933
  485SOL    HW112134   8.104   3.707   3.670 -1.2576  0.1956 -0.2886
  485SOL    HW212135   8.071   3.609   3.544 -2.0450  1.2175 -0.8868
  486SOL     OW12136   0.934   7.612   3.903 -0.4041 -0.0643 -0.0499
  486SOL    HW112137   0.902   7.545   3.970 -0.9544  1.7400  1.4911
  486SOL    HW212138   1.027   7.587   3.875 -1.0278 -2.1426 -0.3947
  487SOL     OW12139   4.346   0.717   2.969 -0.6716  0.4313  0.2546
  487SOL    HW112140   4.251   0.712   2.999 -0.0633 -0.7639  2.0065
  487SOL    HW212141   4.396   0.783   3.025  0.0865 -0.6172  0.8106
  488SOL     OW12142   7.440   5.503   2.207 -0.3416 -0.3694  0.2181
  488SOL    HW112143   7.503   5.579   2.219  0.7911 -1.4492  1.2842
  488SOL    HW212144   7.414   5.466   2.296 -0.0068 -1.9382 -0.3160
  489SOL     OW12145   2.195   1.920   1.319 -1.1558  0.5705 -0.0353
  489SOL    HW112146   2.281   1.967   1.296 -1.3249  0.6309 -0.5545
  489SOL    HW212147   2.212   1.822   1.325 -0.7805  0.7040  1.1469
  490SOL     OW12148   1.926   6.306   1.799  0.4205 -0.2283  0.7061
  490SOL    HW112149   1.882   6.360   1.728  1.3914  1.3945  1.3090
  490SOL    HW212150   2.023   6.331   1.805  0.0483  0.7271  3.5460
  491SOL     OW12151   6.345   8.995   2.453  0.1842  0.1574  0.2345
  491SOL    HW112152   6.287   9.076   2.456  0.7095  0.4836  1.8111
  491SOL    HW212153   6.310   8.932   2.384 -1.1637  1.0026  0.1288
  492SOL     OW12154   9.020   3.150   3.321 -0.0009 -0.0401 -0.8893
  492SOL    HW112155   9.080   3.229   3.335  1.5506 -0.9185 -2.4461
  492SOL    HW212156   9.064   3.068   3.357 -1.0604 -0.4066 -0.4255
  493SOL     OW12157   6.887   8.765   1.106  0.1573 -0.1344 -0.2781
  493SOL    HW112158   6.971   8.731   1.064  1.1160 -1.2328  2.4307
  493SOL    HW212159   6.809   8.710   1.077  0.9910 -1.6628  0.3607
  494SOL     OW12160   8.553   2.353   1.901 -0.5275  0.2371  0.5057
  494SOL    HW112161   8.463   2.312   1.913 -0.5715 -0.1231 -0.9576
  494SOL    HW212162   8.624   2.285   1.920 -0.6009 -0.7580 -2.5606
  495SOL     OW12163   1.425   3.922   2.248 -0.3827  0.3158 -0.1341
  495SOL    HW112164   1.456   4.009   2.285  1.5064  0.8916 -2.8589
  495SOL    HW212165   1.325   3.920   2.247 -0.4486  2.1090  0.7287
  496SOL     OW12166   1.894   9.878   0.948 -0.0698 -0.1673 -0.2442
  496SOL    HW112167   1.894   9.889   1.048  0.2523  0.7780 -0.3405
  496SOL    HW212168   1.802   9.896   0.913 -0.7200 -2.7219  0.1031
  497SOL     OW12169   6.706   7.239   2.454 -0.1642 -0.0972 -0.5660
  497SOL    HW112170   6.763   7.169   2.410  0.9684 -1.1682  2.4693
  497SOL    HW212171   6.621   7.197   2.485  0.1884  0.0250  0.5867
  498SOL     OW12172   1.679   9.199   2.891  0.0014  0.1778  0.0315
  498SOL    HW112173   1.739   9.276   2.915  0.2341  0.5749 -1.7561
  498SOL    HW212174   1.733   9.127   2.849 -0.6091  0.0748 -0.5756
  499SOL     OW12175   8.671   3.856   4.102  0.3218  0.2259  0.4270
  499SOL    HW112176   8.591   3.890   4.054  0.0308  0.1209  0.8409
  499SOL    HW212177   8.753   3.904   4.068  0.4091 -1.3059 -1.6519
  500SOL     OW12178   1.017   1.821   2.548 -0.2369 -0.0967 -0.3430
  500SOL    HW112179   1.014   1.857   2.642 -0.6247 -2.7237  0.6859
  500SOL    HW212180   0.925   1.795   2.520  0.1873 -1.1722 -0.7248
  501SOL     OW12181   5.909   8.747   1.960 -0.0478 -0.0039 -0.1894
  501SOL    HW112182   5.852   8.714   2.036  0.9592 -1.6235 -0.1085
  501SOL    HW212183   5.894   8.689   1.880  2.6988 -1.5110  0.3312
  502SOL     OW12184   9.324   9.277   1.856  0.7653 -0.6840  0.0663
  502SOL    HW112185   9.358   9.370   1.846  0.1857 -0.3175  1.3374
  502SOL    HW212186   9.395   9.219   1.898  1.5260 -1.0976 -1.7548
  503SOL     OW12187   5.769   9.233   2.250  0.2423  0.7479 -0.3605
  503SOL    HW112188   5.770   9.253   2.152 -0.9109  2.4382 -0.0497
  503SOL    HW212189   5.677   9.203   2.277  1.0805 -1.8116 -0.1700
  504SOL     OW12190   0.672   7.306   0.973  0.0365  0.0837 -0.8086
  504SOL    HW112191   0.736   7.232   0.956 -0.3401 -0.3691 -0.2750
  504SOL    HW212192   0.684   7.340   1.066 -2.5937 -2.1043  0.3991
  505SOL     OW12193   0.489   2.503   1.643  0.2554 -0.5060 -0.8446
  505SOL    HW112194   0.562   2.571   1.638 -0.0814 -0.1645 -1.1839
  505SOL    HW212195   0.400   2.549   1.644  0.0370 -0.9214 -0.5394
  506SOL     OW12196   2.145   0.677   4.343  0.4216 -0.1884  0.3466
  506SOL    HW112197   2.115   0.715   4.256 -0.2150  0.6238  0.9112
  506SOL    HW212198   2.104   0.587   4.356  1.3888 -0.7781 -0.6873
  507SOL     OW12199   2.679   7.206   0.912 -0.6847 -0.1931 -0.3902
  507SOL    HW112200   2.607   7.246   0.968 -0.5468  0.9194 -1.0049
  507SOL    HW212201   2.751   7.169   0.970 -0.8431  0.3881  0.1669
  508SOL     OW12202   9.185   3.923   0.295  0.0436  0.2541  0.0800
  508SOL    HW112203   9.236   3.959   0.216  0.4408 -1.8050 -0.6519
  508SOL    HW212204   9.190   3.823   0.294 -0.0272  0.2032  2.6885
  509SOL     OW12205   2.877   3.567   3.630 -0.3603  0.3017 -0.1266
  509SOL    HW112206   2.824   3.486   3.607 -1.4177  0.8331  0.4003
  509SOL    HW212207   2.814   3.643   3.651  0.6091  1.0322  0.1570
  510SOL     OW12208   1.347   2.924   1.734 -0.0019  0.1998  0.0393
  510SOL    HW112209   1.442   2.932   1.703 -0.1410  0.3411 -0.3559
  510SOL    HW212210   1.309   2.837   1.704 -0.2410  0.4794 -0.4763
  511SOL     OW12211   1.215   7.636   2.792 -0.0245 -0.3474  0.3454
  511SOL    HW112212   1.264   7.570   2.735 -1.8879  0.9554 -2.8934
  511SOL    HW212213   1.269   7.721   2.799 -0.7944  0.3074 -1.4205
  512SOL     OW12214   1.166   8.628   0.696 -0.0258  0.3030 -0.6044
  512SOL    HW112215   1.181   8.620   0.795 -1.6136 -2.0599 -0.4954
  512SOL    HW212216   1.146   8.723   0.673  0.3638  0.8860  1.3602
  513SOL     OW12217   9.233   4.746   1.458  0.4762 -0.6499 -0.4460
  513SOL    HW112218   9.142   4.721   1.492  1.1351 -2.6144 -0.0666
  513SOL    HW212219   9.239   4.722   1.361  0.7398 -0.8995 -0.3655
  514SOL     OW12220   3.296   1.262   2.322 -0.3612 -0.1846 -0.0285
  514SOL    HW112221   3.310   1.163   2.316  0.6947 -0.0617  0.2461
  514SOL    HW212222   3.328   1.305   2.238 -1.4936 -0.1499 -0.4362
  515SOL     OW12223   4.376   9.760   1.415  0.1295 -0.2150 -0.7152
  515SOL    HW112224   4.436   9.703   1.472  0.8330  2.7024  1.6119
  515SOL    HW212225   4.281   9.749   1.444  0.2207 -0.4903 -0.5201
  516SOL     OW12226   3.225   4.926   0.126 -0.1742 -0.1594 -0.3873
  516SOL    HW112227   3.166   4.885   0.197  0.4443  0.0776  0.2685
  516SOL    HW212228   3.220   4.870   0.043 -1.3535 -0.1272 -0.3526
  517SOL     OW12229   2.379   4.839   1.292  0.3343  0.6511  0.6868
  517SOL    HW112230   2.444   4.823   1.218 -0.5900 -1.0155  0.1954
  517SOL    HW212231   2.313   4.764   1.295  0.0709  0.9209  2.9105
  518SOL     OW12232   5.839   0.696   2.721  0.2308  0.2479  0.4238
  518SOL    HW112233   5.923   0.748   2.708  1.8156 -2.1580  0.8666
  518SOL    HW212234   5.861   0.603   2.749 -2.6372  0.3201  3.2122
  519SOL     OW12235   2.652   4.257   3.337 -0.3579  0.0979  0.0413
  519SOL    HW112236   2.610   4.168   3.318 -1.1288  0.5723 -0.5154
  519SOL    HW212237   2.635   4.319   3.261  1.6594  0.2118 -0.3391
  520SOL     OW12238   0.508   0.054   1.761  0.5891  0.1955 -0.1617
  520SOL    HW112239   0.463   0.019   1.679 -1.5650  1.6013  0.3627
  520SOL    HW212240   0.514  -0.018   1.830 -0.1517 -0.2221 -0.5383
  521SOL     OW12241   0.461   2.968   1.112 -0.0964 -0.7896  0.7444
  521SOL    HW112242   0.405   2.999   1.188 -0.4298 -3.3755  1.5954
  521SOL    HW212243   0.535   2.909   1.147  1.9587  0.9461 -0.5551
  522SOL     OW12244   0.284   2.707   2.920  0.3051 -0.0053  0.0730
  522SOL    HW112245   0.218   2.643   2.959  0.8807 -1.3268 -1.0409
  522SOL    HW212246   0.354   2.656   2.870  0.3409  1.5272 -1.5263
  523SOL     OW12247   4.977   0.659   2.147 -0.3003  0.8847  0.0280
  523SOL    HW112248   4.916   0.676   2.070 -0.5391  0.2362  0.0705
  523SOL    HW212249   4.926   0.670   2.233  0.0119  1.7952  0.1048
  524SOL     OW12250   9.415   0.754   0.131  0.2318 -0.0988 -0.1452
  524SOL    HW112251   9.466   0.833   0.165 -0.1988  0.4040 -0.6499
  524SOL    HW212252   9.455   0.670   0.167 -0.1705  0.4164  1.5146
  525SOL     OW12253   1.876   9.051   3.831 -0.1865 -0.2628  0.0117
  525SOL    HW112254   1.818   9.039   3.750 -0.3660  2.2711 -0.2624
  525SOL    HW212255   1.838   8.998   3.907 -2.1434  0.3283 -0.5221
  526SOL     OW12256   0.640   5.461   0.987  0.4446  0.1034 -0.2340
  526SOL    HW112257   0.636   5.362   0.976  0.3992  0.0398  0.3682
  526SOL    HW212258   0.730   5.488   1.022 -0.2553  0.0803  1.6202
  527SOL     OW12259   9.694   5.504   4.366 -0.1507  0.3952 -0.2385
  527SOL    HW112260   9.706   5.601   4.389  1.5769  0.0683  0.2916
  527SOL    HW212261   9.783   5.458   4.368 -0.8261 -0.9874 -1.5085
  528SOL     OW12262   7.489   9.462   0.593  0.0634  0.2130  0.2618
  528SOL    HW112263   7.496   9.545   0.538 -0.6793 -0.0022 -0.1665
  528SOL    HW212264   7.410   9.408   0.562  1.6745 -1.6224 -0.8197
  529SOL     OW12265   2.211   2.381   4.115  0.4657  0.2373  0.5280
  529SOL    HW112266   2.188   2.296   4.069  1.5753 -0.3134  0.9555
  529SOL    HW212267   2.196   2.371   4.214  3.0601 -0.3510  0.8954
  530SOL     OW12268   4.307   0.332   1.345 -0.0671  0.2377 -0.3593
  530SOL    HW112269   4.374   0.385   1.293  0.9119  1.2185  1.8288
  530SOL    HW212270   4.354   0.271   1.409 -1.2201  0.9341  1.2115
  531SOL     OW12271   3.669   1.502   4.191 -0.4986 -0.2032  0.0154
  531SOL    HW112272   3.628   1.553   4.115 -2.4709 -1.7719 -0.0189
  531SOL    HW212273   3.666   1.557   4.274  0.3182  0.9561 -0.7113
  532SOL     OW12274   3.880   3.736   1.270  0.3234 -0.5455  0.2685
  532SOL    HW112275   3.932   3.821   1.279  1.5513 -1.3787  1.1121
  532SOL    HW212276   3.828   3.738   1.184 -1.9833  2.2929  1.6322
  533SOL     OW12277   9.067   5.251   1.437 -0.9079 -0.7045  0.4015
  533SOL    HW112278   9.098   5.182   1.503  0.0501 -0.6000  0.0758
  533SOL    HW212279   9.061   5.340   1.482 -1.5945 -0.8982  0.6860
  534SOL     OW12280   4.458   1.766   1.243  0.4785 -0.4860  0.1173
  534SOL    HW112281   4.365   1.755   1.277  0.4633  2.4405  1.2146
  534SOL    HW212282   4.524   1.738   1.313  0.4241  0.4364  0.5424
  535SOL     OW12283   8.605   8.600   0.881 -0.0028  0.0657  0.1199
  535SOL    HW112284   8.642   8.672   0.822  1.8396  1.0352  2.3622
  535SOL    HW212285   8.679   8.558   0.933 -1.7251  0.3391  2.9106
  536SOL     OW12286   3.000   0.747   4.475 -0.1684 -0.2507 -0.1002
  536SOL    HW112287   2.952   0.724   4.560  0.0156 -1.3901 -0.2939
  536SOL    HW212288   3.092   0.780   4.497 -0.7023  1.0691  0.2224
  537SOL     OW12289   7.578   1.618   0.264  0.1859 -0.2990  0.1269
  537SOL    HW112290   7.644   1.580   0.200  0.3476  0.6784 -0.3013
  537SOL    HW212291   7.619   1.697   0.311 -0.3116 -0.3335  0.6252
  538SOL     OW12292   2.057   6.039   0.812  0.0844  0.6375 -0.3299
  538SOL    HW112293   2.042   5.969   0.742 -1.2953 -2.0710  2.5330
  538SOL    HW212294   2.152   6.037   0.841  0.0808  0.0254 -0.3562
  539SOL     OW12295   9.029   7.284   4.551 -0.3333  0.3453 -0.1175
  539SOL    HW112296   9.089   7.315   4.477  0.4529 -0.0926  0.3224
  539SOL    HW212297   9.033   7.184   4.558  0.3183  0.4420  1.1053
  540SOL     OW12298   1.151   7.889   2.587  0.3878  0.2323  0.3244
  540SOL    HW112299   1.219   7.832   2.542  0.4322  0.0328  0.6382
  540SOL    HW212300   1.098   7.833   2.651 -0.4232  0.2792 -0.3126
  541SOL     OW12301   4.391   1.135   2.908  0.2739  0.2732 -0.4126
  541SOL    HW112302   4.430   1.077   2.836  0.8179  0.9845 -0.6931
  541SOL    HW212303   4.379   1.081   2.991  0.9308 -0.2111 -0.6252
  542SOL     OW12304   6.167   7.391   1.708 -0.1681  0.0510  0.4274
  542SOL    HW112305   6.163   7.444   1.623  0.3713 -0.8103 -0.1400
  542SOL    HW212306   6.220   7.442   1.776  0.7731  0.0371 -0.2790
  543SOL     OW12307   7.691   2.430   1.412  0.2404 -0.7088  0.0461
  543SOL    HW112308   7.659   2.522   1.436  0.4568 -1.1069  1.9285
  543SOL    HW212309   7.774   2.437   1.356  0.3706  0.2380  0.3430
  544SOL     OW12310   1.196   4.503   1.100  0.1202  0.2290 -0.0593
  544SOL    HW112311   1.284   4.546   1.079  0.8043 -1.3484 -0.4890
  544SOL    HW212312   1.150   4.554   1.173 -0.0986  2.9889 -2.0203
  545SOL     OW12313   9.488   1.428   2.415  0.1218 -0.5788  0.0714
  545SOL    HW112314   9.508   1.415   2.512  1.9200  2.5395  0.1979
  545SOL    HW212315   9.412   1.493   2.406  1.1116  0.4834 -0.6193
  546SOL     OW12316   3.604   8.764   3.234 -0.1311  0.0628 -0.3497
  546SOL    HW112317   3.653   8.727   3.156  1.9063  1.9796 -0.0189
  546SOL    HW212318   3.543   8.694   3.272  2.0534 -2.2504 -1.0189
  547SOL     OW12319   8.127   7.203   2.705  0.3821 -0.6316  0.5433
  547SOL    HW112320   8.138   7.202   2.804 -3.1625 -0.6961  1.0210
  547SOL    HW212321   8.082   7.288   2.677  1.1815 -0.6918 -0.9845
  548SOL     OW12322   0.210   9.459   4.614  0.3488  0.5353  0.4360
  548SOL    HW112323   0.300   9.503   4.609  0.3413  0.4761 -0.2244
  548SOL    HW212324   0.160   9.474   4.528  0.1132 -0.2556  0.4334
  549SOL     OW12325   5.368   1.829   1.059  0.2042 -0.2320  0.4232
  549SOL    HW112326   5.438   1.768   1.097  0.0917 -0.0871  0.8669
  549SOL    HW212327   5.327   1.786   0.979 -1.0570 -1.5038  1.7200
  550SOL     OW12328   6.199   9.129   1.097  0.4178  0.6986 -0.0988
  550SOL    HW112329   6.198   9.029   1.098 -0.5308  0.6961 -0.7896
  550SOL    HW212330   6.110   9.163   1.067  1.0092  1.7419 -0.6982
  551SOL     OW12331   8.120   4.899   2.582  0.1583 -0.3911  0.4807
  551SOL    HW112332   8.030   4.867   2.554  0.0672 -1.2600  1.7413
  551SOL    HW212333   8.125   4.903   2.681  0.5709  2.3839  0.3834
  552SOL     OW12334   1.882   5.200   3.042  0.0915  0.1689  0.2728
  552SOL    HW112335   1.889   5.288   2.996 -0.6574 -0.0002 -0.1802
  552SOL    HW212336   1.960   5.143   3.019  0.4074  0.5927  0.2995
  553SOL     OW12337   2.861   9.154   3.752 -0.1984 -0.2218  0.2212
  553SOL    HW112338   2.947   9.168   3.801  0.9980 -1.5398 -1.4532
  553SOL    HW212339   2.824   9.243   3.724  1.1189  0.3018  0.1169
  554SOL     OW12340   4.468   1.753   4.691 -0.5232 -0.4088 -0.2169
  554SOL    HW112341   4.400   1.729   4.760 -0.2216 -0.0214  0.2206
  554SOL    HW212342   4.489   1.672   4.636 -1.2589 -0.5523 -0.2879
  555SOL     OW12343   7.548   0.452   4.754 -0.0550 -0.3379  0.2249
  555SOL    HW112344   7.517   0.547   4.751 -0.9782 -0.6366  0.0379
  555SOL    HW212345   7.470   0.392   4.777  0.5141 -1.0462  0.3295
  556SOL     OW12346   2.313   9.668   0.145  0.6521 -0.5526 -0.1001
  556SOL    HW112347   2.364   9.643   0.227  0.0015  0.9506  0.8024
  556SOL    HW212348   2.284   9.764   0.153  0.0100 -0.6022 -1.7887
  557SOL     OW12349   4.923   9.189   1.752  1.1915 -0.8689  0.3584
  557SOL    HW112350   5.011   9.226   1.722  0.1035  0.2290 -1.5392
  557SOL    HW212351   4.853   9.260   1.747  0.0154 -1.9480  1.0961
  558SOL     OW12352   2.006   9.451   0.401 -0.1132 -0.3881  0.4632
  558SOL    HW112353   2.097   9.424   0.368 -0.4715 -1.0790  0.0334
  558SOL    HW212354   1.985   9.399   0.484 -0.1835 -0.3466  0.4710
  559SOL     OW12355   3.748   0.342   3.214 -0.0466  0.2342  0.1192
  559SOL    HW112356   3.799   0.256   3.208 -0.5623 -0.0080 -0.9241
  559SOL    HW212357   3.697   0.345   3.301  0.2617 -0.3512  0.3212
  560SOL     OW12358   4.999   6.449   2.612 -0.1673  0.5340  0.1800
  560SOL    HW112359   4.999   6.530   2.671  0.5313  0.6186  0.0628
  560SOL    HW212360   4.910   6.442   2.566 -0.1764  1.3315  0.0598
  561SOL     OW12361   9.412   7.142   3.212 -0.4077 -0.2982 -0.2293
  561SOL    HW112362   9.343   7.124   3.142  0.5988 -0.1038 -1.2875
  561SOL    HW212363   9.504   7.130   3.173  0.1653 -1.1651  1.3169
  562SOL     OW12364   8.922   9.639   0.163  0.2635 -0.0617  0.0576
  562SOL    HW112365   9.018   9.664   0.147 -0.0446  0.3935 -1.0964
  562SOL    HW212366   8.877   9.710   0.216  0.4187 -0.0313  0.1512
  563SOL     OW12367   4.565   0.951   1.740  0.4586  0.4333 -0.0960
  563SOL    HW112368   4.652   0.988   1.771  0.9545 -0.5230 -0.3411
  563SOL    HW212369   4.552   0.973   1.643  0.4116  0.5934 -0.0541
  564SOL     OW12370   1.366   8.396   0.284  0.8270  0.0288 -0.1323
  564SOL    HW112371   1.366   8.425   0.380  1.1881 -1.0481  0.2042
  564SOL    HW212372   1.450   8.428   0.240  1.9345 -1.7112  0.6313
  565SOL     OW12373   8.143   2.389   0.118  0.4457  0.1726  0.3908
  565SOL    HW112374   8.198   2.305   0.118 -1.2217 -0.9344 -0.0072
  565SOL    HW212375   8.143   2.429   0.209  2.8118  0.7958  0.1535
  566SOL     OW12376   7.944   2.977   4.546  0.3765  0.1709  0.3917
  566SOL    HW112377   8.032   3.024   4.559  1.2171 -1.1392 -0.3490
  566SOL    HW212378   7.956   2.880   4.568 -1.0909  0.1416  1.0356
  567SOL     OW12379   8.047   0.927   2.954 -0.2671  0.2910 -0.1328
  567SOL    HW112380   8.037   1.027   2.963  0.5825  0.2957  0.8267
  567SOL    HW212381   8.138   0.906   2.920 -1.1649 -0.0751 -2.4240
  568SOL     OW12382   0.578   0.588   1.729  0.3601 -0.6870 -0.1666
  568SOL    HW112383   0.516   0.559   1.802 -0.5833 -0.8190 -1.0070
  568SOL    HW212384   0.535   0.570   1.640  1.7794 -1.1820 -0.7722
  569SOL     OW12385   6.470   8.055   2.655  0.5243 -0.0608  0.3555
  569SOL    HW112386   6.401   8.009   2.600  1.2567  0.3626 -0.9245
  569SOL    HW212387   6.426   8.116   2.721 -0.3128  0.2297 -0.4758
  570SOL     OW12388   8.221   5.506   1.466 -0.1050  0.5147  0.0087
  570SOL    HW112389   8.204   5.501   1.565 -0.2268  0.8941  0.0075
  570SOL    HW212390   8.315   5.535   1.450  0.2859 -0.7170  0.0132
  571SOL     OW12391   8.685   3.698   3.318  0.0917 -0.2067  0.1231
  571SOL    HW112392   8.738   3.617   3.292  0.5021  0.3438 -0.7658
  571SOL    HW212393   8.683   3.705   3.418  3.1314  0.6710  0.1642
  572SOL     OW12394   8.552   5.824   0.467 -0.1723 -0.3018 -0.4338
  572SOL    HW112395   8.617   5.858   0.399 -0.1392 -0.4759 -0.4890
  572SOL    HW212396   8.482   5.770   0.422 -1.3932  1.4020 -0.5993
  573SOL     OW12397   1.407   1.175   2.982  0.8796  0.2067  0.0569
  573SOL    HW112398   1.366   1.250   2.930  2.2337  1.2064  0.4276
  573SOL    HW212399   1.361   1.089   2.957 -0.1173  1.0204 -0.9776
  574SOL     OW12400   3.253   9.329   3.565  0.1647 -0.5128  0.1146
  574SOL    HW112401   3.228   9.233   3.566  1.5005 -0.8795 -0.2380
  574SOL    HW212402   3.279   9.356   3.472 -1.5953  0.5619 -0.0820
  575SOL     OW12403   4.345   8.114   4.377 -0.0553  0.1856 -0.1838
  575SOL    HW112404   4.346   8.014   4.373  0.8507  0.1698  0.4767
  575SOL    HW212405   4.434   8.147   4.407 -0.5690  1.1732  0.2507
  576SOL     OW12406   7.933   1.897   1.723 -0.4640  0.2455 -0.2886
  576SOL    HW112407   7.841   1.886   1.761 -0.9984 -0.0315 -1.6176
  576SOL    HW212408   7.982   1.810   1.727 -0.4340  0.2720 -0.0481
  577SOL     OW12409   0.465   8.644   3.158 -0.1040 -0.1471 -0.2182
  577SOL    HW112410   0.369   8.651   3.131 -0.5986  0.2596  1.5854
  577SOL    HW212411   0.488   8.548   3.174 -0.1240 -0.2761 -0.9529
  578SOL     OW12412   9.246   2.471   2.836 -0.3180  0.2298 -0.3581
  578SOL    HW112413   9.261   2.563   2.800  1.7727 -0.7705 -2.2068
  578SOL    HW212414   9.304   2.457   2.916  0.3340  0.1191 -0.8400
  579SOL     OW12415   6.346   8.380   3.059  0.5067 -0.3197 -0.1480
  579SOL    HW112416   6.420   8.434   3.100  0.3103  0.0022 -0.2105
  579SOL    HW212417   6.381   8.331   2.979  0.5500  0.1724 -0.4314
  580SOL     OW12418   3.323   5.048   1.521 -0.0440 -0.1002  0.1160
  580SOL    HW112419   3.379   5.067   1.602  0.0660  1.6012 -0.3211
  580SOL    HW212420   3.227   5.041   1.548  0.0540 -0.0694  0.4800
  581SOL     OW12421   2.177   2.270   0.878  0.2045  0.3003  0.8010
  581SOL    HW112422   2.197   2.363   0.846 -0.2061  0.6198  1.4749
  581SOL    HW212423   2.084   2.245   0.852 -0.0494  0.4725  1.5235
  582SOL     OW12424   4.309   7.839   0.370  0.2638  0.1202 -0.2746
  582SOL    HW112425   4.254   7.795   0.442  1.1344 -0.4179  0.0741
  582SOL    HW212426   4.249   7.891   0.309 -0.5703 -0.0317  0.4057
  583SOL     OW12427   2.865   3.539   1.059 -0.2236 -0.1346 -0.0056
  583SOL    HW112428   2.863   3.637   1.042 -1.3796 -0.0472  0.5597
  583SOL    HW212429   2.959   3.510   1.077  0.1539  0.8252 -0.3870
  584SOL     OW12430   9.272   7.116   0.799 -0.3404 -0.2509  0.1609
  584SOL    HW112431   9.365   7.104   0.834 -0.2844 -0.5916 -0.0956
  584SOL    HW212432   9.241   7.029   0.759 -0.6110 -0.0217 -0.1234
  585SOL     OW12433   0.810   1.033   0.338 -0.0240 -0.0844 -0.1299
  585SOL    HW112434   0.791   0.958   0.274 -1.4201  0.2829 -0.1489
  585SOL    HW212435   0.830   0.996   0.428  0.8557 -0.5548 -0.5163
  586SOL     OW12436   1.823   6.036   3.261 -0.7836  0.0422  0.2115
  586SOL    HW112437   1.746   6.006   3.205 -0.6687  1.7678 -0.9203
  586SOL    HW212438   1.812   6.133   3.283 -0.0356 -0.2410  1.8734
  587SOL     OW12439   9.948   3.778   1.833 -0.4642  0.1404 -0.5543
  587SOL    HW112440   9.939   3.723   1.915  0.1073  1.5331  0.4561
  587SOL    HW212441   9.861   3.823   1.814  0.0281  1.5932  0.5762
  588SOL     OW12442   5.803   7.503   3.125  0.3391  0.4883  0.0083
  588SOL    HW112443   5.703   7.495   3.125  0.3212  0.5249 -1.1161
  588SOL    HW212444   5.843   7.412   3.115  0.3759  0.6256 -1.1844
  589SOL     OW12445   1.229   0.909   0.819  0.3627 -0.1225 -0.3357
  589SOL    HW112446   1.132   0.921   0.801 -0.0971  0.1120  2.0541
  589SOL    HW212447   1.253   0.812   0.810 -0.2103 -0.2579 -0.4257
  590SOL     OW12448   1.353   9.049   3.798  0.1215 -0.0312 -0.1148
  590SOL    HW112449   1.384   9.011   3.711  0.6664  2.3590 -0.9854
  590SOL    HW212450   1.420   9.027   3.869  1.0898  0.4203 -0.8799
  591SOL     OW12451   2.774   2.127   1.584  0.4059  0.0871  0.3840
  591SOL    HW112452   2.682   2.165   1.576  0.7359  0.5837 -1.4681
  591SOL    HW212453   2.841   2.201   1.587  0.7656 -0.2756  1.5667
  592SOL     OW12454   1.724   2.950   3.286  0.5916 -0.1708  0.3496
  592SOL    HW112455   1.637   2.907   3.308 -0.0821  0.8506 -0.2600
  592SOL    HW212456   1.732   2.960   3.187 -0.5965  3.7139  0.5499
  593SOL     OW12457   9.422   8.353   0.718  0.5450  0.3442  0.2858
  593SOL    HW112458   9.375   8.279   0.767  1.3672  0.7685  1.7436
  593SOL    HW212459   9.366   8.382   0.640  0.2292 -1.8360 -0.3491
  594SOL     OW12460   8.427   3.581   2.950  0.1571  0.1283  0.4825
  594SOL    HW112461   8.465   3.495   2.914  0.0474 -0.1799  1.0998
  594SOL    HW212462   8.500   3.631   2.997 -0.0716 -0.2019  1.1859
  595SOL     OW12463   4.550   5.429   1.551  0.2947 -0.2549 -0.3664
  595SOL    HW112464   4.529   5.527   1.546  0.8919 -0.1199 -0.2108
  595SOL    HW212465   4.464   5.378   1.555 -0.0335  0.2246 -1.0562
  596SOL     OW12466   0.167   6.510   3.625  0.3880  0.7633 -0.4581
  596SOL    HW112467   0.248   6.568   3.613  0.1723  0.8905 -1.2773
  596SOL    HW212468   0.191   6.415   3.604  1.0669  0.3304  2.0739
  597SOL     OW12469   1.766   1.051   1.813 -0.1597 -0.5264  0.1156
  597SOL    HW112470   1.753   1.095   1.724  1.4872  0.1704  0.2043
  597SOL    HW212471   1.685   0.996   1.834 -0.0906 -1.6463 -2.3328
  598SOL     OW12472   9.214   9.994   3.552 -0.1099  0.9506  0.1169
  598SOL    HW112473   9.139   9.940   3.591  0.9488 -0.0844  0.7464
  598SOL    HW212474   9.270   9.935   3.494  0.8564  1.4457  0.5370
  599SOL     OW12475   8.630   3.656   4.496  0.7299  0.0367 -0.5574
  599SOL    HW112476   8.555   3.600   4.460  0.6108  0.4042 -0.8863
  599SOL    HW212477   8.592   3.735   4.544  0.9031  0.0548 -0.4516
  600SOL     OW12478   7.172   9.069   2.348  0.1651 -0.7329 -0.0204
  600SOL    HW112479   7.222   9.148   2.313 -0.0180 -0.7999 -0.4256
  600SOL    HW212480   7.191   8.990   2.290  0.4233 -1.0099  0.4378
  601SOL     OW12481   8.441   1.258   1.179  0.1291 -0.2414  0.1975
  601SOL    HW112482   8.473   1.351   1.160 -1.3384  0.0862 -0.7452
  601SOL    HW212483   8.517   1.194   1.169  0.6376  0.5879 -1.4704
  602SOL     OW12484   0.580   4.188   3.421  0.6267 -0.2217 -0.0141
  602SOL    HW112485   0.612   4.098   3.391 -0.8840 -0.7566 -0.1068
  602SOL    HW212486   0.517   4.225   3.353  0.8380  0.6749  0.2738
  603SOL     OW12487   3.271   0.745   0.810  0.3493 -0.1750 -0.4920
  603SOL    HW112488   3.267   0.693   0.895 -2.4913 -2.1797 -1.7802
  603SOL    HW212489   3.190   0.726   0.755  1.0071  2.8707 -2.6532
  604SOL     OW12490   1.754   4.094   1.143 -0.5600 -0.8114  0.0509
  604SOL    HW112491   1.846   4.126   1.117 -1.0274  0.4073 -0.1026
  604SOL    HW212492   1.738   4.005   1.100 -0.0656 -0.2983 -1.2451
  605SOL     OW12493   2.411   3.463   0.994 -0.4159 -0.2675 -0.3577
  605SOL    HW112494   2.480   3.463   0.922 -0.9870 -2.0547 -0.9320
  605SOL    HW212495   2.455   3.458   1.083  0.2304 -0.4436 -0.6866
  606SOL     OW12496   2.136   8.315   3.453  0.0283 -0.5411  0.3743
  606SOL    HW112497   2.228   8.316   3.415 -0.2684 -0.4893 -0.3545
  606SOL    HW212498   2.141   8.300   3.552  0.7951 -0.9585  0.2782
  607SOL     OW12499   9.719   1.902   0.324  0.1513 -0.3814 -0.1745
  607SOL    HW112500   9.719   1.810   0.286 -2.4469 -1.2980  1.8640
  607SOL    HW212501   9.652   1.908   0.399  1.0240  2.8643  0.4675
  608SOL     OW12502   9.771   8.516   3.690 -0.0915  0.2383  0.1230
  608SOL    HW112503   9.758   8.592   3.626 -1.0498 -0.9214 -1.1017
  608SOL    HW212504   9.700   8.519   3.760 -0.1793  0.4480  0.0248
  609SOL     OW12505   8.135   8.951   1.475  0.2174 -0.8198 -0.2819
  609SOL    HW112506   8.234   8.968   1.474  0.2801 -1.1948 -0.4485
  609SOL    HW212507   8.091   9.014   1.539  0.6205 -0.9715  0.1464
  610SOL     OW12508   4.298   5.190   1.000  0.3846 -0.4134 -0.6177
  610SOL    HW112509   4.235   5.251   1.049  0.7802 -0.0532 -0.5586
  610SOL    HW212510   4.268   5.096   1.013 -1.2593 -0.1316 -2.1775
  611SOL     OW12511   1.930   2.706   1.348  0.2603 -0.0663 -0.4010
  611SOL    HW112512   1.926   2.639   1.422  0.2983  2.4211  1.9132
  611SOL    HW212513   1.836   2.726   1.318  0.0371  1.0168  0.9556
  612SOL     OW12514   9.213   2.673   3.556  0.1804 -0.1290  0.1012
  612SOL    HW112515   9.165   2.602   3.607  0.0503 -1.8327 -2.2643
  612SOL    HW212516   9.312   2.659   3.565  0.2429  1.4357  2.3275
  613SOL     OW12517   3.082   9.332   4.067 -0.3379 -0.0761 -0.3620
  613SOL    HW112518   3.093   9.292   3.976  0.1877 -0.7321 -0.0168
  613SOL    HW212519   3.090   9.260   4.136 -0.3411  0.4796  0.2223
  614SOL     OW12520   8.173   1.144   1.955 -0.2723  0.4419 -0.4165
  614SOL    HW112521   8.221   1.227   1.929  1.2172 -0.2297  0.1162
  614SOL    HW212522   8.115   1.162   2.035  0.6966  0.7822  0.2234
  615SOL     OW12523   5.530   0.076   2.832  0.2984 -0.1532 -0.5276
  615SOL    HW112524   5.589   0.156   2.841  0.0684  0.0748 -1.0263
  615SOL    HW212525   5.587  -0.006   2.827  0.4818 -0.1789  1.5205
  616SOL     OW12526   9.077   7.264   4.112 -0.3562 -0.1233 -0.0822
  616SOL    HW112527   9.038   7.177   4.081  0.7630 -1.1472  1.3194
  616SOL    HW212528   9.136   7.301   4.039 -0.8845 -0.4956 -0.7048
  617SOL     OW12529   8.230   1.124   3.315 -0.6984 -0.6350  0.0525
  617SOL    HW112530   8.238   1.046   3.254 -0.2137 -0.4879 -0.0728
  617SOL    HW212531   8.208   1.206   3.263 -0.8981 -0.6263  0.1482
  618SOL     OW12532   3.995   3.987   1.139  0.2888  0.1369  0.6021
  618SOL    HW112533   3.932   4.037   1.198  0.0171  0.0894  0.3536
  618SOL    HW212534   3.944   3.922   1.082  0.6256 -0.3113  0.8096
  619SOL     OW12535   8.402   2.242   3.407 -0.2084 -0.2065  0.8196
  619SOL    HW112536   8.422   2.207   3.498 -0.2311  1.4566  1.4761
  619SOL    HW212537   8.304   2.233   3.388 -0.6936  2.0683  2.1113
  620SOL     OW12538   8.252   6.565   4.040  0.0194 -0.0006  0.1747
  620SOL    HW112539   8.310   6.496   3.996  1.4432  0.9347  0.5375
  620SOL    HW212540   8.217   6.629   3.970 -0.7710 -0.6983 -0.0748
  621SOL     OW12541   7.633   0.631   2.159 -0.1569 -0.3222  0.0208
  621SOL    HW112542   7.634   0.592   2.251 -2.4049 -1.9341 -0.5908
  621SOL    HW212543   7.685   0.572   2.097  0.1780  0.0168 -0.0210
  622SOL     OW12544   9.976   4.150   3.077  0.6638 -0.2066  0.2006
  622SOL    HW112545   9.926   4.226   3.119 -0.2807 -0.6399 -0.1034
  622SOL    HW212546   9.969   4.069   3.136  4.5704  0.8381  2.2146
  623SOL     OW12547   2.445   2.270   2.611 -0.1557 -0.2242  0.2972
  623SOL    HW112548   2.365   2.318   2.575 -0.4399 -2.2155 -1.8550
  623SOL    HW212549   2.421   2.224   2.696 -0.3509  1.9151  1.4398
  624SOL     OW12550   5.126   8.441   2.114  0.4151  0.5753  0.0005
  624SOL    HW112551   5.174   8.527   2.095  2.7209  0.2178  3.6904
  624SOL    HW212552   5.194   8.371   2.137 -1.4747 -2.0927 -2.3069
  625SOL     OW12553   6.169   8.386   2.636 -0.2999  0.0251  0.1155
  625SOL    HW112554   6.191   8.476   2.675  0.4289 -0.9402  2.0137
  625SOL    HW212555   6.215   8.375   2.548  2.7304  0.0606  1.6195
  626SOL     OW12556   2.684   7.658   0.818 -0.1867 -0.3233  0.4964
  626SOL    HW112557   2.694   7.737   0.757 -0.5927 -0.8779 -0.2999
  626SOL    HW212558   2.739   7.583   0.783 -0.1968 -0.5559  0.9817
  627SOL     OW12559   2.206   7.383   3.322 -0.2354  1.0375  0.1294
  627SOL    HW112560   2.162   7.473   3.327 -0.6620  0.8594 -0.3571
  627SOL    HW212561   2.277   7.377   3.392 -1.0252  1.3091  0.9700
  628SOL     OW12562   9.442   2.219   3.870 -0.1654  0.1646  0.3429
  628SOL    HW112563   9.363   2.235   3.810 -0.5606 -1.0718  0.5174
  628SOL    HW212564   9.505   2.155   3.825  0.2163  0.3211  0.6559
  629SOL     OW12565   2.952   7.844   4.381  0.9260  0.4297 -0.2796
  629SOL    HW112566   3.046   7.821   4.356  0.9482 -0.1490  0.3081
  629SOL    HW212567   2.897   7.760   4.383  0.2819  0.8238 -1.0839
  630SOL     OW12568   0.290   5.731   1.292  1.0806  0.2954  0.0226
  630SOL    HW112569   0.267   5.677   1.211  1.1522  0.5199 -0.1473
  630SOL    HW212570   0.389   5.730   1.305  1.0136 -0.3041  0.4986
  631SOL     OW12571   4.928   9.843   0.805 -0.9880 -0.2527  0.3783
  631SOL    HW112572   4.942   9.775   0.733  2.0657  1.9180 -1.1567
  631SOL    HW212573   4.878   9.921   0.768  0.6785  0.9181  0.5493
  632SOL     OW12574   5.103   1.398   1.188 -0.3402  0.5212 -0.1319
  632SOL    HW112575   5.072   1.347   1.269  0.6849 -0.5409 -0.3891
  632SOL    HW212576   5.028   1.406   1.123 -0.4273 -1.0544 -0.2601
  633SOL     OW12577   8.684   7.246   2.564 -0.3685  0.1285  0.0803
  633SOL    HW112578   8.754   7.237   2.494  1.4721 -0.4012  1.9520
  633SOL    HW212579   8.692   7.336   2.608 -0.7644  0.0095  0.4024
  634SOL     OW12580   2.116   5.328   2.370  0.0139 -0.3697  0.0082
  634SOL    HW112581   2.126   5.310   2.272  1.0397  0.4243 -0.0517
  634SOL    HW212582   2.033   5.381   2.387 -0.2803 -0.7007 -0.4016
  635SOL     OW12583   4.817   8.379   0.066 -0.3104 -0.2899 -0.0140
  635SOL    HW112584   4.897   8.322   0.078  0.4081  0.8367  0.6341
  635SOL    HW212585   4.758   8.373   0.147 -0.3489 -0.2847 -0.0413
  636SOL     OW12586   9.135   4.649   0.869  0.1813  0.2914  0.2418
  636SOL    HW112587   9.088   4.736   0.857  1.6062  0.7671 -2.3027
  636SOL    HW212588   9.092   4.597   0.943 -1.7141  2.4357  0.6850
  637SOL     OW12589   8.074   9.171   0.216  0.0137 -0.1956 -1.1910
  637SOL    HW112590   8.026   9.101   0.269  0.2759  0.2583 -0.3495
  637SOL    HW212591   8.025   9.258   0.224  1.3238  0.4268  0.1905
  638SOL     OW12592   8.272   7.029   0.407  0.0221 -0.6477  0.3267
  638SOL    HW112593   8.223   7.108   0.372  0.1112  0.2574  2.1610
  638SOL    HW212594   8.235   6.945   0.368 -0.8419  0.2290 -0.7389
  639SOL     OW12595   8.702   6.536   4.487  0.6944 -0.4568 -0.6612
  639SOL    HW112596   8.784   6.592   4.491  0.5413 -0.1991 -1.1775
  639SOL    HW212597   8.654   6.552   4.401 -1.3756  1.4953  0.7585
  640SOL     OW12598   9.677   2.610   1.934 -0.2124 -0.4568 -0.1035
  640SOL    HW112599   9.644   2.702   1.953  0.5127 -0.3490  0.6800
  640SOL    HW212600   9.616   2.543   1.978  0.9799 -0.2338  1.9596
  641SOL     OW12601   9.951   8.943   0.910 -0.0737  0.9824  0.1120
  641SOL    HW112602   9.910   9.012   0.971 -2.8620  0.2373 -0.8523
  641SOL    HW212603   9.955   8.979   0.817  1.8237  1.1605  0.2493
  642SOL     OW12604   8.706   5.112   2.568  0.4711  0.0610 -0.0368
  642SOL    HW112605   8.663   5.161   2.644  2.6569  1.2184  0.4739
  642SOL    HW212606   8.637   5.091   2.499 -0.9773  1.6009  0.9018
  643SOL     OW12607   8.193   3.330   3.337 -0.0737 -0.2892  0.2766
  643SOL    HW112608   8.278   3.382   3.337  0.5506 -1.2899 -0.1582
  643SOL    HW212609   8.124   3.380   3.285  0.0143  0.8938  1.2739
  644SOL     OW12610   8.182   2.447   1.013  0.3622  1.1027 -0.2871
  644SOL    HW112611   8.085   2.449   0.989  0.5389  0.2167 -1.1217
  644SOL    HW212612   8.219   2.540   1.009 -0.4888  1.4695  0.2065
  645SOL     OW12613   0.261   5.889   2.074  0.4413  0.5203 -0.4918
  645SOL    HW112614   0.281   5.909   2.170 -0.7947  0.7371 -0.2766
  645SOL    HW212615   0.163   5.875   2.062  0.5747  0.5625 -1.7413
  646SOL     OW12616   2.841   4.498   1.059  0.1737  0.2290  0.1427
  646SOL    HW112617   2.747   4.529   1.072  0.0947 -0.2416  0.6892
  646SOL    HW212618   2.842   4.400   1.041  0.5821  0.1855  0.4095
  647SOL     OW12619   8.098   4.006   4.141 -0.5127  0.8331  0.3753
  647SOL    HW112620   8.149   4.017   4.227  1.2774 -0.6649 -0.4741
  647SOL    HW212621   8.071   3.911   4.130 -1.9587  1.2838 -0.0716
  648SOL     OW12622   7.745   1.907   2.763 -0.6638 -0.0686 -0.5071
  648SOL    HW112623   7.664   1.941   2.714 -0.7986  0.2986 -0.0371
  648SOL    HW212624   7.720   1.827   2.817 -0.6450 -0.1357 -0.5984
  649SOL     OW12625   3.712   3.234   3.661 -0.5256 -0.3937 -0.3390
  649SOL    HW112626   3.790   3.290   3.689 -1.0932  0.0783  0.3108
  649SOL    HW212627   3.671   3.191   3.741 -0.7085 -0.9399 -0.7218
  650SOL     OW12628   1.646   1.297   2.938  0.0412 -0.3390  0.1057
  650SOL    HW112629   1.569   1.253   2.984 -0.7114  0.5477 -0.2870
  650SOL    HW212630   1.625   1.309   2.841 -0.1725  1.7350  0.3765
  651SOL     OW12631   0.678   4.462   4.361  0.7197 -0.5658 -0.1612
  651SOL    HW112632   0.653   4.377   4.315 -1.0438 -0.3133  0.2938
  651SOL    HW212633   0.660   4.539   4.299 -1.0050 -0.2791  0.6641
  652SOL     OW12634   5.708   0.278   2.765  0.6288  0.1083  0.1870
  652SOL    HW112635   5.754   0.204   2.717 -1.7629 -1.7321  0.5774
  652SOL    HW212636   5.753   0.295   2.853  0.7900 -1.4164  0.4096
  653SOL     OW12637   8.989   2.929   2.373 -0.4498  0.7190 -0.3270
  653SOL    HW112638   8.968   2.895   2.465  0.3782 -0.3711 -0.5331
  653SOL    HW212639   9.079   2.972   2.373  0.8343 -1.9151 -1.2807
  654SOL     OW12640   8.924   8.614   3.981 -0.6481 -0.3796  0.1714
  654SOL    HW112641   8.976   8.553   3.920  0.6507  0.0629  0.8235
  654SOL    HW212642   8.875   8.559   4.049 -1.9256 -0.8630 -1.1055
  655SOL     OW12643   4.365   2.430   3.601 -0.5359  0.5978 -0.3911
  655SOL    HW112644   4.289   2.480   3.643 -1.6943 -1.3057 -0.1151
  655SOL    HW212645   4.413   2.379   3.672 -0.6275 -0.2507 -0.9310
  656SOL     OW12646   4.516   2.813   1.718  0.3044 -0.2937 -0.1193
  656SOL    HW112647   4.421   2.841   1.732  0.2006 -0.4825 -0.4309
  656SOL    HW212648   4.575   2.893   1.723  0.1195 -0.1615 -0.0211
  657SOL     OW12649   8.311   0.915   2.901 -0.1232  0.6096 -0.3656
  657SOL    HW112650   8.328   0.914   3.000 -2.3060 -0.7742  0.0302
  657SOL    HW212651   8.394   0.944   2.853  1.1777  0.6077  1.8242
  658SOL     OW12652   3.611   6.727   2.866 -0.3228 -0.1362 -0.0417
  658SOL    HW112653   3.627   6.771   2.955 -1.2824 -1.7628  0.9716
  658SOL    HW212654   3.698   6.694   2.829  0.0310  0.1534  0.5188
  659SOL     OW12655   9.660   1.192   4.447  0.1657  0.3816  0.3115
  659SOL    HW112656   9.629   1.249   4.371 -0.2012 -0.2438 -0.0104
  659SOL    HW212657   9.599   1.205   4.526  1.8989  2.8430  1.3333
  660SOL     OW12658   1.237   9.853   3.080 -0.8169 -0.7645 -0.2451
  660SOL    HW112659   1.310   9.907   3.121 -1.9117 -0.2830  1.1202
  660SOL    HW212660   1.270   9.761   3.062  0.1548 -0.5241  0.2615
  661SOL     OW12661   8.950   7.161   0.958  0.1963  0.3146  0.1777
  661SOL    HW112662   8.909   7.250   0.978 -1.5387 -0.2719 -0.6923
  661SOL    HW212663   8.935   7.138   0.861 -0.6107 -1.5630  0.7336
  662SOL     OW12664   1.753   0.398   3.103  0.4744 -0.0531 -0.0083
  662SOL    HW112665   1.701   0.327   3.151 -0.2043 -0.0056 -0.6651
  662SOL    HW212666   1.851   0.380   3.114  0.4145  1.6056  3.8511
  663SOL     OW12667   4.748   9.375   1.695 -0.2372 -0.2336 -0.0874
  663SOL    HW112668   4.651   9.382   1.670 -0.0307 -1.6530 -1.3721
  663SOL    HW212669   4.804   9.414   1.622  0.1657  0.6492  0.6857
  664SOL     OW12670   9.428   6.629   2.491  0.1443 -0.2482 -0.5021
  664SOL    HW112671   9.467   6.720   2.475 -2.4108  1.2431  1.3943
  664SOL    HW212672   9.363   6.608   2.418 -0.5064  0.1634 -0.0394
  665SOL     OW12673   1.512   2.656   0.599 -0.4386 -0.1636  0.6633
  665SOL    HW112674   1.512   2.665   0.500 -3.9401 -0.1938  0.5998
  665SOL    HW212675   1.603   2.676   0.634  1.0284 -0.8402 -2.5974
  666SOL     OW12676   1.749   4.250   4.655 -0.4382  0.2887  0.2689
  666SOL    HW112677   1.841   4.220   4.681 -0.2914  0.2228 -0.3384
  666SOL    HW212678   1.690   4.171   4.644 -0.7535  0.3653  1.3551
  667SOL     OW12679   6.938   8.974   1.441 -0.1516  0.1584 -0.3564
  667SOL    HW112680   6.892   9.025   1.514  0.5389  1.7415 -0.9958
  667SOL    HW212681   6.871   8.946   1.372 -0.7537 -1.0520  0.7113
  668SOL     OW12682   8.272   3.399   0.194 -0.2953  0.2430 -0.4629
  668SOL    HW112683   8.308   3.492   0.209  1.7795 -0.6828  0.5973
  668SOL    HW212684   8.180   3.393   0.232  0.6356  1.1055  2.0463
  669SOL     OW12685   1.671   4.495   4.563  0.6415 -1.0734 -0.1614
  669SOL    HW112686   1.613   4.540   4.630 -1.1763 -0.7371 -1.9150
  669SOL    HW212687   1.691   4.401   4.593  0.1904 -0.7968  1.0140
  670SOL     OW12688   8.083   0.286   2.139  0.8304  0.1480 -0.1236
  670SOL    HW112689   8.110   0.382   2.134  2.1961 -0.1470  1.1640
  670SOL    HW212690   8.110   0.240   2.055  1.4771  0.5759 -0.1535
  671SOL     OW12691   8.275   8.576   0.651 -0.1989  0.6983 -0.1637
  671SOL    HW112692   8.308   8.662   0.612 -1.1998  0.0189 -2.6052
  671SOL    HW212693   8.259   8.510   0.578 -0.2112 -1.3202  1.6014
  672SOL     OW12694   1.921   3.080   3.563 -0.0322  0.0762 -0.1969
  672SOL    HW112695   1.940   3.082   3.465 -0.9533 -0.6332 -0.3937
  672SOL    HW212696   1.823   3.070   3.578  0.1006  0.2064  0.7979
  673SOL     OW12697   1.872   1.578   2.832 -0.2416  0.0714 -0.1832
  673SOL    HW112698   1.880   1.589   2.733  0.0163 -1.4451 -0.3312
  673SOL    HW212699   1.860   1.482   2.855  3.8990 -0.1095  1.5581
  674SOL     OW12700   1.420   9.920   1.659  0.3493 -0.2242 -0.1749
  674SOL    HW112701   1.454  10.012   1.679 -0.3991  0.2196 -0.8742
  674SOL    HW212702   1.326   9.911   1.693  0.5013 -0.8115  0.1023
  675SOL     OW12703   0.612   4.506   4.067  0.7457 -0.2365 -0.5138
  675SOL    HW112704   0.551   4.517   3.989 -0.1107 -0.2736  0.1450
  675SOL    HW212705   0.643   4.411   4.072 -0.2744 -0.5428 -0.0188
  676SOL     OW12706   8.276   7.034   2.103 -0.4043  0.4189  0.5787
  676SOL    HW112707   8.262   6.950   2.049 -0.9890  0.5009  0.5946
  676SOL    HW212708   8.233   7.111   2.056 -0.8374  0.5081  1.1213
  677SOL     OW12709   7.669   1.050   3.535 -0.6320 -0.3315 -0.4081
  677SOL    HW112710   7.602   1.116   3.501 -0.0437 -0.2909 -1.5158
  677SOL    HW212711   7.751   1.053   3.478 -0.0622 -1.0621  0.3535
  678SOL     OW12712   2.323   0.981   3.821  0.0100 -0.4143  0.6343
  678SOL    HW112713   2.264   0.961   3.742  0.0718 -1.6703  0.8852
  678SOL    HW212714   2.274   1.039   3.886  0.7611  2.5523 -1.3700
  679SOL     OW12715   4.425   0.971   3.822  0.3788 -0.6313  0.5955
  679SOL    HW112716   4.478   0.905   3.768  0.6520  0.3834 -0.3945
  679SOL    HW212717   4.328   0.949   3.814  0.4225 -0.5302 -0.2604
  680SOL     OW12718   2.404   2.331   3.618 -0.3118 -0.5772 -0.0600
  680SOL    HW112719   2.461   2.364   3.542 -1.8465  0.1641 -0.9262
  680SOL    HW212720   2.351   2.407   3.655 -0.8651 -1.2771  0.6085
  681SOL     OW12721   2.884   2.559   4.717 -0.4026  0.1242  0.1349
  681SOL    HW112722   2.910   2.647   4.757  0.3919  0.0339 -0.1655
  681SOL    HW212723   2.920   2.553   4.624  1.0469 -1.2228  0.7638
  682SOL     OW12724   4.012   3.869   2.789  0.1851 -0.4852 -0.2672
  682SOL    HW112725   3.921   3.909   2.803 -0.1864 -1.5301  0.4369
  682SOL    HW212726   4.049   3.900   2.702  0.5179  2.4581  0.8574
  683SOL     OW12727   1.307   7.202   4.202  0.0977  0.0560  0.7416
  683SOL    HW112728   1.225   7.259   4.200 -0.9714 -1.5214 -0.9496
  683SOL    HW212729   1.291   7.123   4.260  0.9666  0.5206  1.6310
  684SOL     OW12730   4.362   8.708   2.330 -0.1154 -0.3798 -0.0696
  684SOL    HW112731   4.312   8.646   2.269  0.6297 -1.4128  0.3622
  684SOL    HW212732   4.306   8.790   2.346 -1.1342 -0.9556 -0.5925
  685SOL     OW12733   9.829   9.045   2.353  0.2161 -0.1600 -0.0493
  685SOL    HW112734   9.911   9.069   2.404 -0.2866  0.7460  0.3436
  685SOL    HW212735   9.753   9.029   2.416  0.0369 -0.7895 -0.4175
  686SOL     OW12736   2.345   8.318   1.713  0.0968 -0.0999 -0.0482
  686SOL    HW112737   2.431   8.328   1.663  0.4527  1.1145  0.7603
  686SOL    HW212738   2.363   8.272   1.800 -0.0134  0.4038  0.2445
  687SOL     OW12739   4.339   2.961   1.879 -0.2830  0.3539  0.5305
  687SOL    HW112740   4.393   3.024   1.934  1.6500 -0.7059 -0.0915
  687SOL    HW212741   4.336   2.871   1.923  1.0054 -0.4103 -0.8986
  688SOL     OW12742   2.114   3.109   1.734  0.1517  0.0362 -0.2522
  688SOL    HW112743   2.084   3.145   1.645  0.1677 -0.1568 -0.3358
  688SOL    HW212744   2.049   3.042   1.767  0.8434 -0.9092 -0.7733
  689SOL     OW12745   8.762   6.977   2.705  0.5098  0.2203 -0.0595
  689SOL    HW112746   8.756   6.983   2.805 -0.4928 -0.5246 -0.0691
  689SOL    HW212747   8.705   7.049   2.664  0.4799  0.1789 -0.0932
  690SOL     OW12748   0.188   7.735   1.332  0.4992  0.1095 -0.6845
  690SOL    HW112749   0.108   7.795   1.337  0.9197  0.8094 -2.0528
  690SOL    HW212750   0.262   7.774   1.387 -0.0132 -0.4227  0.3974
  691SOL     OW12751   2.067   4.415   4.134  0.0726 -0.4424 -0.3056
  691SOL    HW112752   2.043   4.378   4.223  1.4353  0.2958  0.3928
  691SOL    HW212753   2.097   4.342   4.074 -0.6845 -0.9212 -0.1006
  692SOL     OW12754   1.768   5.222   0.933 -0.4527  0.6787 -0.4668
  692SOL    HW112755   1.698   5.269   0.987 -0.9400  0.4928 -0.9376
  692SOL    HW212756   1.728   5.189   0.847 -0.1698 -0.7703 -0.0618
  693SOL     OW12757   7.286   0.425   3.838  0.2841 -0.3190  0.4866
  693SOL    HW112758   7.304   0.362   3.913  0.5481 -0.6233  0.1714
  693SOL    HW212759   7.188   0.440   3.830  0.1254 -1.6099 -0.1691
  694SOL     OW12760   5.948   7.768   1.567 -0.0205 -0.0230 -0.0099
  694SOL    HW112761   5.953   7.861   1.531  0.2904 -0.6453 -1.6085
  694SOL    HW212762   5.875   7.718   1.520 -0.4645 -0.4716  1.1319
  695SOL     OW12763   4.023   1.802   3.457  0.4488 -0.4295 -0.3036
  695SOL    HW112764   4.109   1.810   3.507  0.4183  3.3775 -0.6562
  695SOL    HW212765   3.967   1.884   3.475 -1.9619 -1.6032 -2.1743
  696SOL     OW12766   9.329   7.454   3.709 -0.4059  0.1896  0.3679
  696SOL    HW112767   9.359   7.542   3.747 -3.0570  1.3831 -0.2027
  696SOL    HW212768   9.270   7.471   3.630  1.3074 -2.1804 -1.4879
  697SOL     OW12769   8.091   5.029   2.286 -0.3430  0.1782  0.2092
  697SOL    HW112770   8.096   5.104   2.351 -1.0231  0.2849  0.1379
  697SOL    HW212771   7.996   4.998   2.277 -0.1868 -0.1366 -0.3857
  698SOL     OW12772   4.904   9.476   1.150 -0.0302  0.3793  0.8198
  698SOL    HW112773   4.974   9.499   1.082  0.1835  1.6950  1.4730
  698SOL    HW212774   4.944   9.419   1.222  0.0119 -0.0763  0.4384
  699SOL     OW12775   1.482   2.802   3.287 -0.3437  0.2231  0.1576
  699SOL    HW112776   1.393   2.833   3.321 -0.5201  1.1345 -1.1045
  699SOL    HW212777   1.480   2.798   3.188  1.0123  0.1651  0.1287
  700SOL     OW12778   4.326   1.431   0.907 -0.2604  0.2414 -0.1512
  700SOL    HW112779   4.333   1.332   0.893 -0.1176  0.4708 -1.8732
  700SOL    HW212780   4.323   1.477   0.818 -0.4825  1.7794  0.6297
  701SOL     OW12781   1.643   9.545   0.524  0.6268 -0.0546  0.2733
  701SOL    HW112782   1.601   9.617   0.468  1.2269  0.4393  0.4586
  701SOL    HW212783   1.707   9.493   0.469  0.1512 -0.4789  0.1252
  702SOL     OW12784   2.971   7.745   3.979 -0.4352 -0.2177 -0.0415
  702SOL    HW112785   2.949   7.841   3.992 -1.1862 -0.4079  0.1341
  702SOL    HW212786   2.927   7.691   4.051 -3.0778 -1.0913 -2.2468
  703SOL     OW12787   4.453   6.359   2.120 -0.2346  0.2069 -0.3069
  703SOL    HW112788   4.459   6.261   2.139 -0.4089  0.4006  0.7839
  703SOL    HW212789   4.494   6.379   2.031 -1.3066 -1.0318 -1.0958
  704SOL     OW12790   1.548   5.470   2.374  0.9523  0.2486 -0.0419
  704SOL    HW112791   1.582   5.376   2.378  1.7933  0.4361 -2.1887
  704SOL    HW212792   1.613   5.528   2.326  1.1074  2.2810  2.5362
  705SOL     OW12793   0.161   3.943   0.801  0.2071 -0.3061  0.3173
  705SOL    HW112794   0.186   3.924   0.897  0.6702  0.3388  0.3268
  705SOL    HW212795   0.065   3.967   0.796 -0.0076 -1.0952  0.5169
  706SOL     OW12796   2.084   3.524   0.252 -0.4718 -0.5286 -0.2733
  706SOL    HW112797   2.144   3.519   0.171  0.0410 -1.5301  0.1611
  706SOL    HW212798   1.995   3.484   0.230 -0.3883 -0.6499 -0.3919
  707SOL     OW12799   9.782   5.766   4.328  0.2412  0.2564  0.2940
  707SOL    HW112800   9.776   5.862   4.299  2.3444 -0.3192 -2.2958
  707SOL    HW212801   9.878   5.737   4.325 -0.1952 -1.5054  2.5359
  708SOL     OW12802   0.575   4.465   0.262  0.4770  0.1808  0.0704
  708SOL    HW112803   0.521   4.394   0.217  0.5358  0.7685 -0.9337
  708SOL    HW212804   0.657   4.483   0.209  0.2097  1.3648  0.0635
  709SOL     OW12805   8.707   1.072   2.548  0.2949  0.1147  0.5101
  709SOL    HW112806   8.789   1.123   2.574 -0.5719  1.2464  1.0959
  709SOL    HW212807   8.733   0.993   2.492  1.7794  0.4187  0.7442
  710SOL     OW12808   9.663   8.077   0.965 -0.1910 -0.3559 -0.1958
  710SOL    HW112809   9.640   8.143   1.036  1.0738  1.3574 -1.3179
  710SOL    HW212810   9.669   8.125   0.877  1.7432 -1.7965 -0.8670
  711SOL     OW12811   2.463   5.125   3.570 -0.3806  0.1820 -0.4684
  711SOL    HW112812   2.421   5.044   3.531 -1.0335 -0.1778  0.9441
  711SOL    HW212813   2.559   5.106   3.590 -0.7366 -0.5425  0.6348
  712SOL     OW12814   0.899   9.066   3.536 -0.1332  0.1562  0.3973
  712SOL    HW112815   0.944   9.107   3.615  0.4336 -0.0526  0.1932
  712SOL    HW212816   0.884   8.968   3.554 -1.4455  0.4453  0.8699
  713SOL     OW12817   4.683   0.778   2.762  0.1535 -0.2166 -0.4117
  713SOL    HW112818   4.617   0.721   2.713  0.3632 -0.9460  0.1605
  713SOL    HW212819   4.700   0.740   2.853  0.3591  0.7056 -0.0605
  714SOL     OW12820   2.387   8.872   3.029  0.3968 -0.1667  0.1851
  714SOL    HW112821   2.291   8.899   3.037 -0.0952 -1.8404 -0.0356
  714SOL    HW212822   2.442   8.929   3.091 -0.9929 -0.5603  1.8380
  715SOL     OW12823   9.203   3.352   3.333 -0.2135 -0.5232  0.6142
  715SOL    HW112824   9.295   3.378   3.304 -0.1171  0.3345  1.6646
  715SOL    HW212825   9.178   3.403   3.415 -2.4357  0.7876 -0.8390
  716SOL     OW12826   2.564   1.029   3.686 -0.0640  0.9389 -0.0114
  716SOL    HW112827   2.489   0.999   3.745  0.9098 -3.0943 -0.6443
  716SOL    HW212828   2.530   1.049   3.595 -0.7079  1.4906  0.3479
  717SOL     OW12829   3.213   6.576   1.561 -0.0067 -0.6724 -0.0324
  717SOL    HW112830   3.309   6.571   1.589 -0.5588 -2.6138  1.6395
  717SOL    HW212831   3.156   6.601   1.640 -0.8315  0.9972 -1.1301
  718SOL     OW12832   4.147   3.102   3.263 -0.0280  0.3630 -0.4797
  718SOL    HW112833   4.187   3.171   3.323  1.6264  0.1597 -1.3105
  718SOL    HW212834   4.175   3.011   3.294 -1.8617  0.0699  0.3632
  719SOL     OW12835   3.672   3.056   2.713 -0.1440  0.9075  0.1916
  719SOL    HW112836   3.608   3.081   2.640  0.5264 -1.7812 -1.3895
  719SOL    HW212837   3.623   3.056   2.801 -2.1174 -0.2589 -0.8614
  720SOL     OW12838   7.980   4.016   4.604  0.5443 -0.5137  0.2382
  720SOL    HW112839   8.018   4.104   4.575  1.5608 -0.9467  0.2040
  720SOL    HW212840   7.900   4.031   4.662 -0.4955  0.3876 -1.4019
  721SOL     OW12841   3.078   7.903   4.627 -0.8137 -0.3027 -0.3357
  721SOL    HW112842   3.020   7.908   4.547 -0.2963 -2.6246 -0.8983
  721SOL    HW212843   3.085   7.808   4.658 -0.2693  0.4218  1.9126
  722SOL     OW12844   2.167   3.061   2.993  0.5925  0.0635  0.5544
  722SOL    HW112845   2.218   2.985   3.033  1.8320  0.7217  0.2521
  722SOL    HW212846   2.231   3.126   2.952 -0.5853  0.2142 -1.0581
  723SOL     OW12847   1.574   9.736   0.775  0.1703 -0.7908 -0.4832
  723SOL    HW112848   1.599   9.663   0.711  1.1905 -0.4651 -0.4508
  723SOL    HW212849   1.608   9.714   0.866 -0.6904 -0.9217 -0.1895
  724SOL     OW12850   8.501   5.155   4.246  0.1855  0.0242 -0.1712
  724SOL    HW112851   8.550   5.087   4.301 -0.5424  0.1618  0.6452
  724SOL    HW212852   8.419   5.113   4.206 -1.4315  0.9752  2.0754
  725SOL     OW12853   1.333   8.375   0.897  0.1964  0.0657  0.0770
  725SOL    HW112854   1.282   8.313   0.838  1.4735 -0.7418 -0.1972
  725SOL    HW212855   1.275   8.453   0.922 -0.6884 -0.1072 -1.3873
  726SOL     OW12856   9.067   7.105   2.756 -0.1396  0.3579  0.4542
  726SOL    HW112857   9.022   7.133   2.840 -0.3362  1.1159  0.0998
  726SOL    HW212858   9.023   7.149   2.678 -0.8392 -1.4163 -0.1702
  727SOL     OW12859   9.477   5.640   1.605 -0.0891 -1.0144 -0.0009
  727SOL    HW112860   9.556   5.673   1.655 -0.9584  1.6894 -0.3267
  727SOL    HW212861   9.408   5.608   1.670 -0.3729  0.5243  0.4932
  728SOL     OW12862   2.380   7.621   1.127  0.2560  0.0405  0.0253
  728SOL    HW112863   2.475   7.592   1.115  0.5469  0.8880  0.2684
  728SOL    HW212864   2.370   7.717   1.100 -0.3133  0.2462  0.9223
  729SOL     OW12865   9.954   1.804   3.258 -0.3245  0.4220 -0.4498
  729SOL    HW112866  10.022   1.731   3.255  1.2181  1.8596 -1.2272
  729SOL    HW212867   9.982   1.879   3.198 -1.4568  2.0199  0.9432
  730SOL     OW12868   5.133   0.917   2.098 -0.5762 -0.5452  0.3658
  730SOL    HW112869   5.069   0.854   2.142 -0.9735 -0.5762 -0.2507
  730SOL    HW212870   5.226   0.895   2.127 -0.8449 -0.5025  1.2638
  731SOL     OW12871   2.476   2.395   3.040 -0.5233  0.0475 -0.0577
  731SOL    HW112872   2.404   2.356   3.098  0.2975 -0.1429  0.8569
  731SOL    HW212873   2.518   2.321   2.987 -2.6270  0.5045 -2.4579
  732SOL     OW12874   0.147   8.265   1.663  0.4654  0.5438  0.4952
  732SOL    HW112875   0.102   8.350   1.692  2.1567  1.4491  0.5519
  732SOL    HW212876   0.220   8.242   1.727  0.8561 -0.2643 -0.2283
  733SOL     OW12877   7.765   2.076   0.927  0.4325 -0.9332 -0.1162
  733SOL    HW112878   7.852   2.120   0.951 -0.7511  2.4112 -1.6258
  733SOL    HW212879   7.703   2.081   1.005 -0.0924  1.2462 -0.6298
  734SOL     OW12880   3.779   0.673   3.339  0.0007  0.0830  0.4086
  734SOL    HW112881   3.800   0.579   3.313 -0.1955  0.3810 -0.8663
  734SOL    HW212882   3.680   0.690   3.328  0.1988  0.7485 -0.4242
  735SOL     OW12883   3.380   3.230   3.729  0.2222 -0.4116 -0.2116
  735SOL    HW112884   3.471   3.248   3.768  0.8560  1.3602 -2.4376
  735SOL    HW212885   3.384   3.147   3.673  0.7070  0.1527 -1.0245
  736SOL     OW12886   9.087   3.204   1.494 -0.1962 -0.4395  0.1885
  736SOL    HW112887   9.155   3.275   1.473 -0.2956  0.2152  1.9854
  736SOL    HW212888   9.111   3.161   1.581 -0.4934 -2.1976 -0.5921
  737SOL     OW12889   8.404   3.467   1.105  0.2894  0.0787 -0.2082
  737SOL    HW112890   8.500   3.492   1.118  0.2339  0.0221  0.3502
  737SOL    HW212891   8.363   3.445   1.194 -0.8198  2.1392 -0.1757
  738SOL     OW12892   4.991   0.100   3.964 -0.2885 -0.3325  0.1481
  738SOL    HW112893   4.962   0.192   3.937  0.6866  0.0545  0.4070
  738SOL    HW212894   5.064   0.107   4.032 -2.0068 -1.3079  2.1166
  739SOL     OW12895   1.151   0.282   2.232  0.0008 -0.2912 -0.1571
  739SOL    HW112896   1.093   0.307   2.309  0.0613 -0.5811 -0.0145
  739SOL    HW212897   1.138   0.347   2.157 -0.0862 -0.0326  0.0834
  740SOL     OW12898   0.763   2.429   3.369  0.2731 -0.5780  0.3747
  740SOL    HW112899   0.689   2.442   3.304 -0.5682  0.2747  1.4899
  740SOL    HW212900   0.731   2.448   3.461  1.6695 -0.9782  0.9650
  741SOL     OW12901   2.945   6.252   2.702  0.1487 -0.1478 -0.1398
  741SOL    HW112902   2.933   6.342   2.745  1.3595 -0.8609  1.7590
  741SOL    HW212903   2.926   6.181   2.769  0.7843 -1.3097 -1.1792
  742SOL     OW12904   6.327   9.936   3.541 -0.4009  0.0871 -0.1645
  742SOL    HW112905   6.359   9.960   3.450  1.7064  0.2510  0.6009
  742SOL    HW212906   6.325   9.836   3.551  0.3076  0.0769 -0.0830
  743SOL     OW12907   8.703   0.056   4.577 -0.3542  0.2915  0.1019
  743SOL    HW112908   8.642   0.127   4.613 -0.3712  1.1682 -1.5814
  743SOL    HW212909   8.653  -0.031   4.573 -0.8984  0.5774  0.5087
  744SOL     OW12910   8.837   1.659   1.562 -0.2042  0.0530  0.0667
  744SOL    HW112911   8.771   1.610   1.618  0.5279 -0.5749  0.3987
  744SOL    HW212912   8.907   1.700   1.621  0.8221 -0.9891 -0.3892
  745SOL     OW12913   9.106   7.624   4.280  0.6660 -0.1926  0.4948
  745SOL    HW112914   9.025   7.672   4.245 -0.4865 -2.1969  0.3726
  745SOL    HW212915   9.166   7.690   4.326 -0.0237  1.6600 -1.2170
  746SOL     OW12916   2.020   6.508   4.596  0.3070  0.1845 -0.1434
  746SOL    HW112917   2.058   6.572   4.530  2.7369 -0.0801  0.9209
  746SOL    HW212918   2.094   6.469   4.651 -1.2550 -2.3823  0.2595
  747SOL     OW12919   3.794   2.733   4.315 -0.2573  0.3212  0.1009
  747SOL    HW112920   3.774   2.649   4.264 -0.2673 -0.1411  0.8644
  747SOL    HW212921   3.834   2.801   4.253  0.6898 -0.5979 -0.3088
  748SOL     OW12922   9.983   8.984   3.500  0.4777 -0.4817  0.3889
  748SOL    HW112923  10.071   9.029   3.518  0.1771  0.5094 -0.5940
  748SOL    HW212924   9.999   8.897   3.453  0.7588  1.8442 -4.0827
  749SOL     OW12925   9.296   6.398   1.042 -0.1108  0.2027  0.2025
  749SOL    HW112926   9.371   6.333   1.045  0.3885  0.7131 -1.0875
  749SOL    HW212927   9.331   6.491   1.051 -0.8861  0.2837  2.8417
  750SOL     OW12928   0.334   4.898   1.245 -0.2324  0.3664  0.1450
  750SOL    HW112929   0.249   4.917   1.196 -1.2995 -1.3695  1.2295
  750SOL    HW212930   0.368   4.808   1.217  0.4241  0.3987  0.8411
  751SOL     OW12931   1.365   9.864   2.087  0.0509  0.0114  0.2292
  751SOL    HW112932   1.266   9.878   2.092 -0.0694 -0.6950 -0.0365
  751SOL    HW212933   1.402   9.855   2.180  0.1008  1.7810  0.3896
  752SOL     OW12934   8.867   3.159   1.820  0.5605  0.2371  0.2082
  752SOL    HW112935   8.879   3.067   1.783  0.9380  0.8100 -1.1214
  752SOL    HW212936   8.775   3.168   1.858  0.0784 -0.2943 -0.8171
  753SOL     OW12937   8.492   7.357   1.981 -0.1879 -0.5837 -0.0759
  753SOL    HW112938   8.492   7.282   2.048  0.2479  0.0351  0.6222
  753SOL    HW212939   8.462   7.441   2.026  2.7231  0.4481  0.0254
  754SOL     OW12940   8.292   5.796   3.220  0.4471  0.5046  0.0234
  754SOL    HW112941   8.373   5.737   3.229  0.7423  0.9659  0.3995
  754SOL    HW212942   8.212   5.747   3.255  0.8734  0.7206  1.3568
  755SOL     OW12943   5.890   8.637   3.131 -0.0935 -0.2973  0.6430
  755SOL    HW112944   5.966   8.693   3.098 -0.1569 -0.3679  0.3751
  755SOL    HW212945   5.871   8.660   3.226  0.2463 -0.2609  0.7031
  756SOL     OW12946   4.631   9.465   1.398 -0.7106 -0.1500  0.3680
  756SOL    HW112947   4.639   9.371   1.365 -0.9957 -0.2610  0.6102
  756SOL    HW212948   4.609   9.526   1.322 -0.6747 -0.3005  0.2382
  757SOL     OW12949   4.107   7.433   4.613 -0.1260 -0.1995 -0.3982
  757SOL    HW112950   4.095   7.524   4.652 -0.7917  0.0363 -1.1412
  757SOL    HW212951   4.202   7.420   4.586  0.0826  0.0743  0.2012
  758SOL     OW12952   4.958   8.943   1.667 -0.2205 -0.2970 -0.4817
  758SOL    HW112953   4.937   8.866   1.726  0.8531  0.3668  0.7961
  758SOL    HW212954   4.933   9.029   1.712  0.5794  0.2164 -0.9882
  759SOL     OW12955   7.803   8.682   3.818 -0.1615 -0.0526  0.3886
  759SOL    HW112956   7.716   8.730   3.833 -0.2467 -0.2777  0.6225
  759SOL    HW212957   7.867   8.743   3.770 -1.0595 -0.5025 -1.4124
  760SOL     OW12958   4.058   8.509   2.384 -0.0379 -0.0493  0.1952
  760SOL    HW112959   4.140   8.485   2.332 -0.4876  0.2948 -0.6914
  760SOL    HW212960   4.070   8.599   2.426  0.0326  0.0112  0.0470
  761SOL     OW12961   1.702   5.655   2.283 -0.2279  0.2480  0.3307
  761SOL    HW112962   1.663   5.639   2.192 -2.3282 -0.1626  1.2582
  761SOL    HW212963   1.715   5.753   2.296 -0.6718  0.3741 -0.1367
  762SOL     OW12964   9.958   9.716   3.251 -0.5455 -0.0282  0.4371
  762SOL    HW112965  10.040   9.749   3.204  0.0770  0.5358  1.8680
  762SOL    HW212966   9.976   9.625   3.289 -1.3193 -0.8330 -1.1018
  763SOL     OW12967   9.974   0.021   1.071  0.0217 -0.2023  0.8802
  763SOL    HW112968  10.004  -0.063   1.116  0.3203 -0.9222 -0.6118
  763SOL    HW212969   9.895   0.000   1.013 -0.3787  0.7077  1.1007
  764SOL     OW12970   8.939   4.238   4.607 -0.1345 -0.3908  0.0880
  764SOL    HW112971   8.996   4.157   4.611  0.8335  0.3255  1.2121
  764SOL    HW212972   8.843   4.213   4.618  0.1023 -1.4455 -0.2744
  765SOL     OW12973   2.798   7.994   0.942  0.2574  0.0135 -0.2319
  765SOL    HW112974   2.783   7.948   0.855  0.4394 -0.2882 -0.1038
  765SOL    HW212975   2.711   8.017   0.984  0.1166  2.6527 -1.8055
  766SOL     OW12976   2.012   4.964   2.282  0.4389  0.3675  0.0693
  766SOL    HW112977   2.101   4.932   2.250  0.4555  0.0123  0.4538
  766SOL    HW212978   1.973   4.895   2.343  0.1135  0.7343  0.2753
  767SOL     OW12979   2.895   6.135   4.613 -0.4985 -0.1828  0.4810
  767SOL    HW112980   2.992   6.109   4.616 -0.5444 -0.4924 -0.6383
  767SOL    HW212981   2.839   6.053   4.610 -0.8534 -0.0269  2.2064
  768SOL     OW12982   0.648   4.284   1.751  0.0922 -1.0866  0.6152
  768SOL    HW112983   0.572   4.286   1.816 -0.0919 -0.2461  0.3783
  768SOL    HW212984   0.716   4.219   1.783  0.4188 -0.0392  2.1274
  769SOL     OW12985   4.251   7.163   2.024  0.2087 -0.2595 -0.3484
  769SOL    HW112986   4.213   7.179   2.115  2.0152 -1.4893  0.6480
  769SOL    HW212987   4.343   7.202   2.019 -0.2231  0.5915 -1.9536
  770SOL     OW12988   4.676   8.866   1.543 -0.7613 -0.0193  0.2568
  770SOL    HW112989   4.765   8.900   1.575 -0.7752  0.8924 -0.6660
  770SOL    HW212990   4.611   8.941   1.538 -1.7231 -0.7724  1.3686
  771SOL     OW12991   1.481   0.240   3.056 -0.4424  0.1362  0.2610
  771SOL    HW112992   1.389   0.204   3.070 -0.3599 -0.6019 -0.9986
  771SOL    HW212993   1.530   0.181   2.992  1.0516  0.2861  1.2524
  772SOL     OW12994   2.292   5.694   1.704 -0.0430 -0.2882 -0.0461
  772SOL    HW112995   2.192   5.682   1.707  0.0736 -1.2695  0.0742
  772SOL    HW212996   2.315   5.768   1.640 -0.7878 -0.7655 -0.8676
  773SOL     OW12997   2.096   6.273   3.072 -0.2219 -0.5629  0.8742
  773SOL    HW112998   2.028   6.320   3.128  0.0255  1.7240 -0.6765
  773SOL    HW212999   2.051   6.228   2.995 -0.1715 -0.6602  0.9014
  774SOL     OW13000   1.461   6.451   4.013 -0.0239 -0.0914  0.0826
  774SOL    HW113001   1.412   6.383   4.068 -1.1193 -0.7197 -1.6331
  774SOL    HW213002   1.555   6.458   4.046 -0.1715 -1.7105  0.9336
  775SOL     OW13003   7.096   0.141   0.128  0.0537  0.2063 -0.2218
  775SOL    HW113004   7.004   0.181   0.131  0.7092  1.7656 -0.1801
  775SOL    HW213005   7.100   0.064   0.191 -2.0137 -1.6638 -2.2719
  776SOL     OW13006   9.070   8.227   3.141 -0.0735 -0.1878  0.2655
  776SOL    HW113007   9.082   8.140   3.094 -0.1175 -1.2041  2.0963
  776SOL    HW213008   9.016   8.213   3.223 -1.2782  1.8241 -0.1571
  777SOL     OW13009   1.823   4.828   1.967 -0.5567  0.1624 -0.2467
  777SOL    HW113010   1.767   4.904   2.001  0.7481  1.4665 -0.9497
  777SOL    HW213011   1.812   4.821   1.868  0.9034  0.7525 -0.4572
  778SOL     OW13012   8.195   6.256   3.701 -0.0918  0.2319  0.2237
  778SOL    HW113013   8.136   6.187   3.661  1.8438 -0.9285 -0.7184
  778SOL    HW213014   8.140   6.322   3.752 -2.3371  0.1997 -2.0814
  779SOL     OW13015   0.563   2.917   2.760 -0.0154 -0.0156  0.4677
  779SOL    HW113016   0.475   2.891   2.722  0.0395 -0.1134  0.4071
  779SOL    HW213017   0.574   2.875   2.850 -1.4705  2.7191  1.9639
  780SOL     OW13018   9.508   3.127   1.308  0.0980  0.6028  0.2983
  780SOL    HW113019   9.557   3.170   1.232 -2.0739  1.1307 -0.8381
  780SOL    HW213020   9.488   3.032   1.284  1.1637  0.1690  1.0673
  781SOL     OW13021   2.981   3.949   1.784 -0.2643 -0.0721  0.1563
  781SOL    HW113022   3.050   3.883   1.815 -3.1517 -2.3277  2.0580
  781SOL    HW213023   2.936   3.990   1.863 -0.8157  1.7088 -1.0462
  782SOL     OW13024   4.145   6.005   2.093 -0.2308  0.4129 -0.8394
  782SOL    HW113025   4.090   6.043   2.167 -1.4757 -1.1067 -0.9525
  782SOL    HW213026   4.172   5.912   2.116 -1.5555 -0.4813 -2.7057
  783SOL     OW13027   8.275   8.456   2.580  0.4528 -0.1370  0.7016
  783SOL    HW113028   8.207   8.511   2.628  0.0417 -0.1814  0.1746
  783SOL    HW213029   8.350   8.514   2.550 -1.5453  0.8388 -2.8219
  784SOL     OW13030   5.869   0.085   2.608  0.5652 -0.1693  0.2468
  784SOL    HW113031   5.925   0.143   2.549 -0.9257  2.3766  1.2085
  784SOL    HW213032   5.784   0.061   2.560  1.7650 -2.7327 -0.6455
  785SOL     OW13033   9.642   2.761   0.814 -0.3480 -0.5468 -0.1603
  785SOL    HW113034   9.719   2.781   0.874 -0.0615 -0.3475 -0.5941
  785SOL    HW213035   9.675   2.723   0.728 -0.7191 -0.2539 -0.4342
  786SOL     OW13036   4.550   7.594   3.380 -0.0457 -0.5204 -0.4591
  786SOL    HW113037   4.590   7.515   3.426 -0.7559 -0.6011  0.0096
  786SOL    HW213038   4.544   7.670   3.443  0.6099 -0.0919 -0.9036
  787SOL     OW13039   9.217   1.208   2.131 -0.4167  0.2911 -0.2247
  787SOL    HW113040   9.295   1.147   2.114 -1.2444 -0.7556 -0.3499
  787SOL    HW213041   9.222   1.286   2.068 -0.2194 -0.4830 -1.1899
  788SOL     OW13042   3.877   1.226   1.320  0.9243 -0.5629  0.3269
  788SOL    HW113043   3.796   1.237   1.378  0.3182 -2.0975 -0.1869
  788SOL    HW213044   3.864   1.276   1.234  1.0384  0.1880  0.7462
  789SOL     OW13045   3.447   2.220   2.500 -0.5796 -0.1542 -0.1385
  789SOL    HW113046   3.364   2.228   2.556 -1.0309  0.7276 -0.9206
  789SOL    HW213047   3.438   2.142   2.438 -0.9325  0.0811 -0.3872
  790SOL     OW13048   4.210   2.203   0.780 -0.1919 -0.0437 -0.2181
  790SOL    HW113049   4.306   2.191   0.754  0.4648 -0.1736  2.2206
  790SOL    HW213050   4.201   2.201   0.879 -2.4776  1.9415 -0.3351
  791SOL     OW13051   7.972   8.476   3.953 -0.2514 -0.1934 -0.1366
  791SOL    HW113052   7.890   8.506   3.904  0.2876 -1.2885 -1.7596
  791SOL    HW213053   8.038   8.551   3.956  0.0643 -0.3596 -1.9158
  792SOL     OW13054   1.477   3.350   1.497  0.2337  0.6474 -0.0790
  792SOL    HW113055   1.432   3.288   1.562 -2.0646  0.6428 -1.6269
  792SOL    HW213056   1.571   3.367   1.527  0.6563 -2.8869  0.8514
  793SOL     OW13057   4.208   8.675   1.605  0.0212  0.2772 -0.0839
  793SOL    HW113058   4.199   8.715   1.696  1.4755  0.0942  0.1616
  793SOL    HW213059   4.253   8.585   1.613  0.0167  0.1944 -0.9583
  794SOL     OW13060   1.428   0.142   0.261 -0.2697  0.2214  0.4170
  794SOL    HW113061   1.386   0.232   0.262  0.7582  0.7223 -0.0439
  794SOL    HW213062   1.381   0.082   0.326 -0.7292  1.1912  0.9950
  795SOL     OW13063   8.670   3.655   2.327 -0.2332  0.0275  0.2981
  795SOL    HW113064   8.634   3.684   2.416 -0.6270  1.6947 -0.3844
  795SOL    HW213065   8.596   3.614   2.274 -0.0931 -0.6006  0.5917
  796SOL     OW13066   9.271   1.198   2.406  0.2391  0.1486  0.0890
  796SOL    HW113067   9.238   1.280   2.452 -0.3281 -1.1610  2.1124
  796SOL    HW213068   9.233   1.193   2.314 -0.2796  1.7671  0.2065
  797SOL     OW13069   2.577   0.713   3.438 -0.5252  0.0310  0.1875
  797SOL    HW113070   2.591   0.655   3.357  0.4527 -0.0465  0.4096
  797SOL    HW213071   2.635   0.795   3.431 -2.0777  1.1209 -0.2455
  798SOL     OW13072   7.752   0.574   1.294 -0.0198 -0.5754  0.4004
  798SOL    HW113073   7.672   0.518   1.314 -1.0573  0.1023 -1.6784
  798SOL    HW213074   7.795   0.542   1.209  0.0736  0.9691 -0.1633
  799SOL     OW13075   4.213   1.930   1.844 -0.0287  0.2953  0.0752
  799SOL    HW113076   4.280   1.896   1.778 -0.3438 -1.5784  0.6681
  799SOL    HW213077   4.190   2.025   1.824 -1.8565 -0.8901 -3.9514
  800SOL     OW13078   9.151   4.675   3.830 -0.0620 -0.1729 -0.0176
  800SOL    HW113079   9.237   4.658   3.783 -0.2644 -1.2381 -0.0201
  800SOL    HW213080   9.111   4.761   3.797  0.4880 -0.2032 -0.7665
  801SOL     OW13081   1.181   1.835   0.171 -0.4878 -0.5165 -0.1664
  801SOL    HW113082   1.084   1.824   0.148 -0.7516  0.0586  0.6230
  801SOL    HW213083   1.199   1.795   0.260 -0.0720 -0.3157 -0.1580
  802SOL     OW13084   8.104   0.375   3.958  0.3491  0.3423 -0.0062
  802SOL    HW113085   8.192   0.331   3.944  0.1583  0.0252 -0.2226
  802SOL    HW213086   8.061   0.393   3.869  0.5814  1.2796  0.0656
  803SOL     OW13087   4.387   1.210   0.147 -0.4532  0.4239 -0.0459
  803SOL    HW113088   4.455   1.154   0.101 -0.8918  0.1667 -0.3868
  803SOL    HW213089   4.378   1.298   0.098  0.4563  0.9212  0.6689
  804SOL     OW13090   0.719   4.002   0.989  0.1064  0.0017 -0.6568
  804SOL    HW113091   0.679   3.915   0.958 -0.1710  0.2469 -0.9951
  804SOL    HW213092   0.655   4.047   1.051  0.8224 -0.6681  0.5901
  805SOL     OW13093   9.004   2.157   0.083  0.6454 -0.0043 -0.4474
  805SOL    HW113094   8.994   2.066   0.044  1.3305  0.4164 -1.6132
  805SOL    HW213095   9.093   2.165   0.128  0.1272 -0.2703  0.6633
  806SOL     OW13096   0.069   6.762   1.515  0.2066  0.2105 -0.0105
  806SOL    HW113097  -0.001   6.832   1.528 -0.7358 -0.7677  0.2889
  806SOL    HW213098   0.158   6.796   1.546 -0.1618  1.4060 -0.2534
  807SOL     OW13099   4.583   0.482   2.250  0.2919  0.5868 -0.3412
  807SOL    HW113100   4.560   0.573   2.215 -0.5416 -0.1029 -1.6238
  807SOL    HW213101   4.505   0.444   2.300  1.1356  1.1533  1.4462
  808SOL     OW13102   8.162   1.080   2.403  0.1595  0.6267 -0.3198
  808SOL    HW113103   8.232   1.030   2.352 -0.9355 -2.8421  1.4191
  808SOL    HW213104   8.192   1.092   2.498 -0.7549  0.9323 -0.0689
  809SOL     OW13105   4.438   4.359   0.662  0.2836  0.5320 -1.2587
  809SOL    HW113106   4.484   4.273   0.639  2.3259  0.6454  1.9657
  809SOL    HW213107   4.505   4.423   0.700 -2.1710  1.4946  1.6490
  810SOL     OW13108   1.751   8.271   3.464 -0.1147 -0.3923 -0.1887
  810SOL    HW113109   1.769   8.232   3.554  0.3948 -2.1093 -1.0182
  810SOL    HW213110   1.745   8.371   3.472  0.5868 -0.4712  1.6341
  811SOL     OW13111   0.632   4.687   1.911  0.4913  0.3163 -0.2631
  811SOL    HW113112   0.663   4.781   1.918  3.3723 -0.5306 -0.8461
  811SOL    HW213113   0.644   4.641   1.999 -0.7888  0.4614 -0.0114
  812SOL     OW13114   8.729   9.673   3.202 -0.0117  0.3386  0.9053
  812SOL    HW113115   8.678   9.720   3.129 -1.4225 -0.6497  1.2269
  812SOL    HW213116   8.804   9.731   3.233 -0.6053  1.6026  0.0245
  813SOL     OW13117   9.213   0.646   1.605  0.3512 -0.4139 -0.1048
  813SOL    HW113118   9.178   0.712   1.672 -0.3722  0.3913 -1.2386
  813SOL    HW213119   9.284   0.690   1.550  1.1952 -1.1824  0.3821
  814SOL     OW13120   6.991   9.748   1.922 -0.0670 -0.3455 -0.3580
  814SOL    HW113121   6.904   9.796   1.911 -0.1783 -0.0069  1.6784
  814SOL    HW213122   7.063   9.814   1.940  0.2663 -0.7465 -0.2136
  815SOL     OW13123   6.898   8.656   1.391  0.0286 -0.0303 -0.2102
  815SOL    HW113124   6.983   8.643   1.443 -0.5213 -1.9206  0.2772
  815SOL    HW213125   6.919   8.684   1.298  1.1781 -0.2451 -0.0174
  816SOL     OW13126   6.200   6.950   2.241  0.0916 -0.1528  0.2604
  816SOL    HW113127   6.212   7.047   2.263  1.7932 -0.3199  0.1429
  816SOL    HW213128   6.237   6.932   2.149 -1.4300 -0.6549 -0.2681
  817SOL     OW13129   0.284   2.041   3.336 -0.2911  0.1250 -0.8080
  817SOL    HW113130   0.313   2.013   3.244 -0.3412 -1.6542 -0.2877
  817SOL    HW213131   0.365   2.056   3.393 -0.2972 -0.6037 -0.6055
  818SOL     OW13132   4.157   6.302   2.471  0.1535  0.4667 -0.2564
  818SOL    HW113133   4.178   6.234   2.401  1.1164  0.0593  0.4179
  818SOL    HW213134   4.072   6.350   2.447 -0.8351 -1.3418 -0.4519
  819SOL     OW13135   9.925   1.120   4.394  0.3476 -0.1687 -0.6134
  819SOL    HW113136   9.827   1.138   4.402  0.4229  0.2362 -0.5743
  819SOL    HW213137   9.955   1.063   4.470  0.8105  2.5786  1.3397
  820SOL     OW13138   0.876   3.877   1.354  0.0642 -0.7892  0.2187
  820SOL    HW113139   0.923   3.858   1.440  0.2391 -0.8127  0.1176
  820SOL    HW213140   0.804   3.809   1.340 -0.3732 -0.4172  0.6508
  821SOL     OW13141   7.598   6.433   3.411 -0.3642 -0.4292  0.7803
  821SOL    HW113142   7.650   6.479   3.339  0.6062  0.8033  2.2298
  821SOL    HW213143   7.502   6.427   3.384 -0.0806  0.3721 -0.4436
  822SOL     OW13144   4.914   1.725   1.378  0.3683  0.6791  0.6204
  822SOL    HW113145   4.969   1.774   1.310  1.2467  1.1594  1.6621
  822SOL    HW213146   4.963   1.642   1.407  0.4279  0.9684  1.3520
  823SOL     OW13147   9.663   2.000   0.977  0.1784 -0.2396  0.2494
  823SOL    HW113148   9.755   2.018   1.010  0.7053 -0.2519 -1.1641
  823SOL    HW213149   9.598   2.005   1.053  1.3963 -0.6809  1.3330
  824SOL     OW13150   7.668   2.284   2.452  0.4965 -0.8050 -0.3133
  824SOL    HW113151   7.707   2.232   2.376  1.5428  0.3072 -0.5529
  824SOL    HW213152   7.742   2.327   2.503 -0.2411 -1.1498  1.0561
  825SOL     OW13153   1.723   9.910   1.871 -0.0455 -0.6726 -0.1965
  825SOL    HW113154   1.655   9.840   1.891 -0.1138 -0.0240  1.9468
  825SOL    HW213155   1.687   9.974   1.803 -0.4689 -1.9435 -1.2012
  826SOL     OW13156   0.943   6.362   2.439  0.2730  0.5171 -0.0650
  826SOL    HW113157   0.956   6.266   2.414  1.1221 -0.0655  2.4339
  826SOL    HW213158   1.031   6.410   2.436 -0.0690  1.1065 -0.8473
  827SOL     OW13159   9.578   3.055   0.838 -0.0728  0.3677  0.5341
  827SOL    HW113160   9.483   3.033   0.859 -0.2872  0.7602 -0.0214
  827SOL    HW213161   9.633   2.971   0.839 -0.2837  0.2366  1.5721
  828SOL     OW13162   7.829   0.154   2.668  0.6013 -1.1338 -0.1246
  828SOL    HW113163   7.916   0.193   2.637  0.1612 -0.2474 -0.2361
  828SOL    HW213164   7.793   0.093   2.598  0.2629 -0.1510 -0.8062
  829SOL     OW13165   9.444   3.678   3.960  0.2769 -0.5325 -0.1518
  829SOL    HW113166   9.424   3.757   4.018  1.1576 -0.3486 -0.0930
  829SOL    HW213167   9.524   3.630   3.996  0.0035 -1.2041 -0.4329
  830SOL     OW13168   9.567   3.421   4.571 -0.2673 -0.2557 -0.0591
  830SOL    HW113169   9.513   3.353   4.621  0.5998  0.3415  1.7642
  830SOL    HW213170   9.599   3.383   4.485 -1.6223 -1.4113 -0.0594
  831SOL     OW13171   7.754   6.773   2.843 -0.1061  0.1741  0.1185
  831SOL    HW113172   7.820   6.835   2.800  0.6465 -1.3809 -1.0296
  831SOL    HW213173   7.742   6.799   2.939  2.2421  0.4801  0.3773
  832SOL     OW13174   7.956   6.023   3.504  0.1907 -0.1748  0.3019
  832SOL    HW113175   8.038   6.053   3.456  0.6805 -0.1832  1.1242
  832SOL    HW213176   7.949   5.923   3.500 -0.3373 -0.1118 -0.6517
  833SOL     OW13177   2.301   3.261   0.335 -0.0082 -0.0601 -0.1531
  833SOL    HW113178   2.294   3.351   0.293  0.0174  0.2332  0.4634
  833SOL    HW213179   2.381   3.258   0.395 -0.0798 -0.4512 -0.0763
  834SOL     OW13180   0.822   4.074   4.588 -0.2113 -0.5312  0.6165
  834SOL    HW113181   0.774   4.100   4.671 -0.7872  0.7505 -0.1055
  834SOL    HW213182   0.853   4.156   4.540  1.5051 -1.2909  0.3652
  835SOL     OW13183   9.408   4.307   1.535  0.0213  0.0627  0.0047
  835SOL    HW113184   9.335   4.240   1.526 -1.0836  0.6423  3.5643
  835SOL    HW213185   9.369   4.395   1.563  1.9419  0.8239  0.4030
  836SOL     OW13186   1.445   3.162   4.433 -0.5190  0.2245  0.0658
  836SOL    HW113187   1.456   3.202   4.342 -0.4258  1.8410  0.7691
  836SOL    HW213188   1.491   3.073   4.437  0.3907  0.6370 -1.1473
  837SOL     OW13189   9.125   6.978   1.992  0.3495  0.0410  0.1331
  837SOL    HW113190   9.107   7.001   1.896  0.9480  1.2624  0.3033
  837SOL    HW213191   9.078   6.893   2.015  0.7365 -0.6163 -1.4244
  838SOL     OW13192   2.789   6.736   1.633 -0.4183  0.2732  0.2641
  838SOL    HW113193   2.769   6.673   1.558 -0.6469  0.8412 -0.1496
  838SOL    HW213194   2.706   6.785   1.659 -0.2792  0.2769  0.7107
  839SOL     OW13195   9.668   9.285   2.659 -0.1060  0.4921  0.4738
  839SOL    HW113196   9.724   9.367   2.674  1.5667 -0.9208  2.1538
  839SOL    HW213197   9.599   9.279   2.731 -0.1929  0.3926  0.3814
  840SOL     OW13198   1.414   1.545   2.528  0.0627 -0.3406  0.0775
  840SOL    HW113199   1.333   1.486   2.529 -0.2040  0.0279  0.6307
  840SOL    HW213200   1.407   1.612   2.602  1.5326 -1.1891  1.0275
  841SOL     OW13201   9.763   7.460   0.176 -0.1716  0.1888 -0.4071
  841SOL    HW113202   9.787   7.364   0.166 -0.2303  0.2799 -1.4630
  841SOL    HW213203   9.824   7.515   0.119 -0.7459  0.6986 -0.5284
  842SOL     OW13204   7.626   7.534   1.653  0.4160  0.1300 -0.5031
  842SOL    HW113205   7.685   7.513   1.575  0.6233  1.1472 -0.6176
  842SOL    HW213206   7.539   7.571   1.620  0.4720  0.4830 -0.2571
  843SOL     OW13207   1.949   1.064   0.213  0.1699 -0.0139 -0.6284
  843SOL    HW113208   1.933   0.965   0.215 -2.7583  0.4002 -0.5981
  843SOL    HW213209   1.975   1.095   0.305  0.1210 -0.6241 -0.4030
  844SOL     OW13210   0.282   0.633   0.742 -0.2610 -0.1043  0.8248
  844SOL    HW113211   0.349   0.661   0.811 -0.0358  0.7769  0.2519
  844SOL    HW213212   0.213   0.575   0.785  0.2974 -0.1867  1.6322
  845SOL     OW13213   1.753   8.022   2.259  0.6986  0.0161  0.4894
  845SOL    HW113214   1.805   8.023   2.174  1.7808 -1.7036  1.1039
  845SOL    HW213215   1.815   8.029   2.337 -0.0630 -0.8940  1.1961
  846SOL     OW13216   2.209   6.919   3.132  0.1592 -0.1064  0.6773
  846SOL    HW113217   2.130   6.900   3.190  0.4277  3.4812  2.3295
  846SOL    HW213218   2.179   6.935   3.038 -1.3855  3.2926  1.6898
  847SOL     OW13219   1.217   9.024   0.301 -0.0357 -0.1934 -0.0833
  847SOL    HW113220   1.258   9.113   0.278 -0.5715  0.2962  0.8057
  847SOL    HW213221   1.135   9.010   0.246  0.3362 -0.3655 -0.5918
  848SOL     OW13222   9.944   5.809   2.985 -0.2056 -0.2291 -0.0723
  848SOL    HW113223  10.031   5.858   2.986  0.0638 -0.6296 -1.7500
  848SOL    HW213224   9.881   5.853   2.922 -1.9229  1.1765  2.5512
  849SOL     OW13225   3.290   1.729   3.001 -0.6569  0.6115 -0.1924
  849SOL    HW113226   3.379   1.773   2.994  0.2683 -0.5925  3.0249
  849SOL    HW213227   3.229   1.784   3.059 -1.2562  0.3504 -0.5675
  850SOL     OW13228   8.570   4.887   1.163 -0.3112 -0.0962 -0.0419
  850SOL    HW113229   8.539   4.928   1.077 -1.3382 -0.9984 -0.1186
  850SOL    HW213230   8.515   4.924   1.239  0.8645  1.0102  0.3060
  851SOL     OW13231   3.506   0.126   1.104 -0.3684  0.0430  0.2664
  851SOL    HW113232   3.557   0.041   1.118 -0.2021  0.2281  0.7975
  851SOL    HW213233   3.450   0.118   1.022  1.6340  0.3703 -1.1509
  852SOL     OW13234   1.755   4.124   2.964 -0.3430 -0.9082  0.0542
  852SOL    HW113235   1.682   4.142   3.030  0.6543  0.6795  0.7731
  852SOL    HW213236   1.786   4.211   2.925  0.8635 -1.6076 -0.5583
  853SOL     OW13237   1.539   6.562   3.663  0.4009 -0.6072 -0.4286
  853SOL    HW113238   1.633   6.593   3.680  0.0480 -0.5005  1.3779
  853SOL    HW213239   1.475   6.622   3.710 -0.5319 -1.3110 -0.7923
  854SOL     OW13240   8.050   7.395   1.668 -0.3303  0.4110 -0.1303
  854SOL    HW113241   7.954   7.366   1.677 -0.0841  0.4505  3.0586
  854SOL    HW213242   8.085   7.421   1.758  2.2884  1.6947 -1.4924
  855SOL     OW13243   4.090   7.142   2.691 -0.0007  0.0970  0.1433
  855SOL    HW113244   4.094   7.231   2.646 -0.9203  0.6202  1.0490
  855SOL    HW213245   3.997   7.126   2.725 -0.0846 -1.6342 -0.8364
  856SOL     OW13246   2.279   4.437   0.553 -0.3906 -0.3953  0.4817
  856SOL    HW113247   2.221   4.356   0.542 -0.8969 -0.2029  1.6326
  856SOL    HW213248   2.322   4.459   0.466 -1.9550 -0.6012 -0.3676
  857SOL     OW13249   3.218   3.640   3.151 -0.7409  0.2932 -0.1768
  857SOL    HW113250   3.296   3.688   3.191 -0.6474  1.1807 -1.3952
  857SOL    HW213251   3.219   3.544   3.181  1.1066  0.1639 -0.5846
  858SOL     OW13252   7.639   3.755   3.631  0.7798 -0.5989 -0.6335
  858SOL    HW113253   7.569   3.736   3.561  0.9658 -3.5080 -0.1074
  858SOL    HW213254   7.699   3.828   3.599 -1.5436  0.8705 -1.7725
  859SOL     OW13255   3.113   6.061   3.838 -0.1713 -0.0585  0.0759
  859SOL    HW113256   3.132   6.134   3.772 -0.1689  0.7704  0.9889
  859SOL    HW213257   3.091   6.100   3.927 -0.2830 -1.1708  0.5549
  860SOL     OW13258   7.600   7.699   1.255  0.3154  0.1432  0.2427
  860SOL    HW113259   7.509   7.730   1.230  0.7402  0.6182 -0.7502
  860SOL    HW213260   7.654   7.776   1.288  0.4759 -0.0630  0.4642
  861SOL     OW13261   0.062   8.843   2.125  0.2013  0.3506  0.1088
  861SOL    HW113262   0.017   8.893   2.051  0.3926  1.7531  0.9401
  861SOL    HW213263   0.133   8.899   2.166 -1.7326  0.6723  3.1950
  862SOL     OW13264   0.752   0.690   3.231  0.2047 -0.1451  0.6390
  862SOL    HW113265   0.699   0.722   3.310 -1.3740 -0.2180 -0.3527
  862SOL    HW213266   0.751   0.590   3.228  0.4686 -0.1489  0.6615
  863SOL     OW13267   0.953   8.460   1.582  0.0664  0.0678  0.0013
  863SOL    HW113268   0.928   8.514   1.502 -0.1525 -0.9042 -0.5976
  863SOL    HW213269   1.043   8.418   1.567 -1.0547 -2.1139 -0.7864
  864SOL     OW13270   4.830   0.595   0.289  0.2797 -0.4527 -0.0845
  864SOL    HW113271   4.756   0.527   0.291  0.3202 -0.5135 -0.6291
  864SOL    HW213272   4.802   0.672   0.231 -0.2120  0.5131  1.3657
  865SOL     OW13273   1.597   4.979   0.200  0.1604  0.3806 -0.0154
  865SOL    HW113274   1.609   5.064   0.149  0.6586  0.5396  0.3630
  865SOL    HW213275   1.661   4.910   0.163  0.7926  0.6096  0.6445
  866SOL     OW13276   1.221   2.439   3.585 -0.5765 -0.3074  0.0715
  866SOL    HW113277   1.247   2.348   3.552 -2.4670 -0.7617 -0.2120
  866SOL    HW213278   1.255   2.509   3.522 -0.9043 -0.9526 -0.8336
  867SOL     OW13279   9.576   0.692   3.837 -0.1638  0.2092 -0.2713
  867SOL    HW113280   9.622   0.766   3.788  2.1303 -1.7287 -1.0967
  867SOL    HW213281   9.483   0.681   3.801 -0.1670  1.9363 -0.8568
  868SOL     OW13282   1.359   0.880   3.188 -0.2747  0.2720 -0.2493
  868SOL    HW113283   1.446   0.876   3.138  0.3067 -0.6463  0.8116
  868SOL    HW213284   1.366   0.949   3.260 -1.1291  1.6300 -1.4494
  869SOL     OW13285   0.256   3.321   4.366  0.4965  0.4288  0.1578
  869SOL    HW113286   0.231   3.226   4.380 -1.4651  0.9415  0.2293
  869SOL    HW213287   0.350   3.336   4.397  1.4999 -1.8894 -1.5895
  870SOL     OW13288   1.417   7.564   3.889 -0.3835  0.8421 -0.2776
  870SOL    HW113289   1.432   7.519   3.977 -3.9542 -0.5471 -0.2978
  870SOL    HW213290   1.460   7.510   3.817 -2.3434 -1.1897  0.0118
  871SOL     OW13291   4.028   4.161   0.900 -0.3966 -0.1551 -0.0809
  871SOL    HW113292   4.090   4.159   0.822  1.0004 -0.2666  1.0206
  871SOL    HW213293   4.042   4.081   0.957 -0.3858  0.6598  1.0783
  872SOL     OW13294   1.782   8.988   3.526 -0.2505 -0.0054 -0.5103
  872SOL    HW113295   1.842   8.999   3.447 -1.8152  0.0280 -1.7168
  872SOL    HW213296   1.687   8.983   3.495 -0.8797  0.0118  1.3719
  873SOL     OW13297   2.953   6.107   3.232  0.6762 -0.1753  0.0059
  873SOL    HW113298   2.866   6.140   3.269  1.0243  1.0735 -0.2533
  873SOL    HW213299   3.013   6.078   3.307  0.1483 -0.7624  0.2006
  874SOL     OW13300   7.780   5.368   3.173  0.1564  0.5739  0.2198
  874SOL    HW113301   7.699   5.425   3.159 -1.0725 -1.1485  0.0448
  874SOL    HW213302   7.767   5.281   3.125  1.6667 -0.1442  1.0891
  875SOL     OW13303   3.067   8.405   2.138 -0.5354  0.0019 -0.0056
  875SOL    HW113304   3.084   8.497   2.173  1.3596 -0.3166 -0.0267
  875SOL    HW213305   3.017   8.351   2.206  1.5187 -0.0584  1.4849
  876SOL     OW13306   1.708   8.211   1.822 -0.3304 -0.0697  0.0525
  876SOL    HW113307   1.804   8.204   1.848 -0.8722 -0.7500  1.9749
  876SOL    HW213308   1.677   8.305   1.833 -0.3699 -0.2189  1.2328
  877SOL     OW13309   0.099   3.442   2.627  0.2700  0.2141  0.2816
  877SOL    HW113310   0.086   3.419   2.724 -0.1311  1.2353  0.4795
  877SOL    HW213311   0.148   3.368   2.581  0.8732 -0.0762  1.3744
  878SOL     OW13312   1.782   2.669   0.371 -0.0555  0.4932 -0.0025
  878SOL    HW113313   1.691   2.697   0.340 -0.7352 -1.6712 -0.0778
  878SOL    HW213314   1.830   2.747   0.411 -1.4977  1.9218 -1.0192
  879SOL     OW13315   2.473   7.632   3.409 -0.4168 -0.3172 -0.1620
  879SOL    HW113316   2.537   7.659   3.481  0.2402  0.2119 -0.9385
  879SOL    HW213317   2.459   7.533   3.413 -2.1314 -0.0298  2.1212
  880SOL     OW13318   1.730   7.762   3.052 -0.5813 -0.2423  0.4002
  880SOL    HW113319   1.687   7.696   2.990  1.0474 -0.7086 -0.2504
  880SOL    HW213320   1.752   7.845   3.002 -0.7361  0.0000  0.7367
  881SOL     OW13321   3.293   5.864   3.887 -0.2377 -0.4715  0.2752
  881SOL    HW113322   3.380   5.898   3.923 -0.5719 -0.0336  0.6967
  881SOL    HW213323   3.224   5.936   3.896 -1.0356 -1.3585  1.4500
  882SOL     OW13324   0.996   5.448   1.648  0.5189  0.2448  0.1181
  882SOL    HW113325   0.989   5.408   1.739  2.2633 -1.3025 -0.3970
  882SOL    HW213326   0.908   5.485   1.621  0.0077  0.7983  2.4689
  883SOL     OW13327   8.834   8.191   1.743 -0.0540  0.4214  0.2656
  883SOL    HW113328   8.880   8.178   1.831 -1.2382 -1.1693  0.6671
  883SOL    HW213329   8.742   8.151   1.746 -0.7769  1.8965 -1.1346
  884SOL     OW13330   1.790   7.764   0.724  0.3047  0.0177  0.6295
  884SOL    HW113331   1.772   7.767   0.625 -0.2080 -0.5576  0.7033
  884SOL    HW213332   1.851   7.840   0.749 -0.5130  0.8710  0.0746
  885SOL     OW13333   7.268   0.183   4.542 -0.4674  0.1762 -0.3817
  885SOL    HW113334   7.212   0.101   4.532  0.3922 -0.3206 -1.1329
  885SOL    HW213335   7.364   0.160   4.528 -0.2949  1.4527 -1.4349
  886SOL     OW13336   4.776   8.655   4.748  0.1737 -0.3331  0.0147
  886SOL    HW113337   4.745   8.670   4.654  0.1451 -0.0733  0.0634
  886SOL    HW213338   4.797   8.559   4.761  1.8589 -0.0775 -0.7582
  887SOL     OW13339   0.851   1.396   4.711 -0.4761  0.1623  0.0380
  887SOL    HW113340   0.794   1.478   4.709  1.1594  1.2933 -2.6099
  887SOL    HW213341   0.821   1.336   4.785 -2.7705  2.3705  0.9488
  888SOL     OW13342   9.484   0.286   2.554  0.5487 -0.2764  0.5443
  888SOL    HW113343   9.490   0.222   2.477 -0.9893  0.1988  0.0210
  888SOL    HW213344   9.495   0.235   2.639 -1.2617 -1.3429  0.1621
  889SOL     OW13345   1.727   6.693   0.746  0.0506  0.3357  0.0684
  889SOL    HW113346   1.760   6.757   0.815  1.1349  1.0119 -1.0641
  889SOL    HW213347   1.804   6.650   0.700 -0.6631 -2.1995  1.1584
  890SOL     OW13348   4.911   7.670   3.524 -0.5658  0.0208 -0.4205
  890SOL    HW113349   4.901   7.664   3.623  1.8630  0.6883 -0.0897
  890SOL    HW213350   4.863   7.750   3.490  0.0289  0.7606  0.4657
  891SOL     OW13351   1.800   8.656   1.313  0.7357 -0.0259  0.3317
  891SOL    HW113352   1.857   8.712   1.253 -0.1743 -1.1803 -1.6596
  891SOL    HW213353   1.825   8.673   1.409  0.9146  3.2799 -0.2481
  892SOL     OW13354   0.839   1.051   2.767 -0.0183  0.3055  0.1755
  892SOL    HW113355   0.814   0.960   2.800 -0.0598  0.4572  0.5721
  892SOL    HW213356   0.804   1.120   2.831 -0.8877  0.6550 -0.6695
  893SOL     OW13357   7.492   1.608   2.658 -0.6884  0.3698  0.4336
  893SOL    HW113358   7.495   1.694   2.607 -0.9741 -0.3469 -0.8075
  893SOL    HW213359   7.403   1.600   2.703 -0.9377  0.3737 -0.0577
  894SOL     OW13360   0.567   3.995   1.417  0.5737 -0.0197  0.0726
  894SOL    HW113361   0.520   4.067   1.468 -0.7139  1.0990 -2.5654
  894SOL    HW213362   0.664   3.995   1.440  0.4401  2.0475  0.7432
  895SOL     OW13363   7.446   0.979   3.099  0.0054 -0.1161 -0.1462
  895SOL    HW113364   7.453   0.964   3.198 -1.0716  0.4412  0.0099
  895SOL    HW213365   7.380   0.914   3.060  0.9109 -0.7762 -0.6074
  896SOL     OW13366   0.636   8.886   0.342  0.2129  0.4100  0.2266
  896SOL    HW113367   0.672   8.854   0.254 -0.8227  0.8323 -0.3682
  896SOL    HW213368   0.650   8.985   0.350  0.3627  0.3620  0.5664
  897SOL     OW13369   1.825   7.022   4.354  0.1559  0.4020  0.4724
  897SOL    HW113370   1.761   6.954   4.388  0.8924 -1.2370 -1.3152
  897SOL    HW213371   1.819   7.105   4.409 -1.9650 -0.4989  1.6281
  898SOL     OW13372   8.768   9.909   1.203  0.1715 -0.1245  0.5166
  898SOL    HW113373   8.746   9.950   1.291 -1.3157 -3.9192  2.0090
  898SOL    HW213374   8.802   9.816   1.216 -1.6485 -1.3964 -2.9575
  899SOL     OW13375   2.816   3.468   0.737  0.1027  0.2133 -0.3485
  899SOL    HW113376   2.866   3.417   0.806 -1.4474 -0.3645  0.3726
  899SOL    HW213377   2.858   3.559   0.726 -0.4054  0.8262  2.3234
  900SOL     OW13378   4.793   8.738   1.071  0.1693  0.1104 -0.2359
  900SOL    HW113379   4.781   8.824   1.021 -0.9250  0.6814  0.9765
  900SOL    HW213380   4.722   8.673   1.043  0.8600 -0.3478 -0.9839
  901SOL     OW13381   9.673   4.597   1.291 -0.2006 -0.6849  0.1271
  901SOL    HW113382   9.622   4.632   1.212  0.9698  0.8477  0.0242
  901SOL    HW213383   9.663   4.498   1.296 -3.7822 -0.3522  0.5400
  902SOL     OW13384   3.711   0.973   3.940  0.1730 -0.4081 -0.4364
  902SOL    HW113385   3.630   1.025   3.912  0.3990  0.9643  1.4063
  902SOL    HW213386   3.780   0.978   3.867 -0.3874  0.6286 -0.9079
  903SOL     OW13387   6.647   8.799   2.706 -0.2004 -0.2622 -0.9170
  903SOL    HW113388   6.583   8.869   2.675  0.1633 -0.2350 -1.6175
  903SOL    HW213389   6.738   8.840   2.718  0.0997 -0.6873 -1.6908
  904SOL     OW13390   7.149   9.468   0.211 -0.1430  0.1468 -0.0437
  904SOL    HW113391   7.059   9.445   0.174  0.5278  0.4665 -1.9555
  904SOL    HW213392   7.184   9.549   0.164  0.7519  0.5821  1.3390
  905SOL     OW13393   2.014   3.583   4.171 -0.8191  0.3517  0.3855
  905SOL    HW113394   2.113   3.601   4.176 -0.2908 -1.4591 -2.1265
  905SOL    HW213395   1.968   3.660   4.129 -0.0883  0.1860 -0.7396
  906SOL     OW13396   9.686   1.432   3.331 -0.3341 -0.2641  0.1225
  906SOL    HW113397   9.629   1.393   3.259  0.5193 -0.8135 -0.2666
  906SOL    HW213398   9.782   1.433   3.300 -0.0834  0.3099  0.9048
  907SOL     OW13399   4.745   7.390   3.474 -0.1540  0.2425  0.1426
  907SOL    HW113400   4.776   7.433   3.389 -0.8889 -0.3171 -0.4114
  907SOL    HW213401   4.778   7.297   3.480 -0.5532  0.1020  0.2138
  908SOL     OW13402   7.107   9.080   4.411 -0.6633 -0.0178  0.0339
  908SOL    HW113403   7.128   9.155   4.474  0.8334  1.9109 -2.6471
  908SOL    HW213404   7.036   9.109   4.347 -0.2619 -0.9807 -0.8611
  909SOL     OW13405   3.638   1.478   0.762  0.3975  0.4396 -0.0586
  909SOL    HW113406   3.587   1.402   0.722 -2.3204  1.9510  0.4338
  909SOL    HW213407   3.724   1.491   0.712  1.4918 -3.6718  0.5947
  910SOL     OW13408   0.979   7.671   4.617 -0.3089  0.3067  0.4369
  910SOL    HW113409   1.046   7.598   4.624 -0.3672  0.3831  1.9045
  910SOL    HW213410   0.979   7.725   4.701 -0.2525  2.0081 -0.6332
  911SOL     OW13411   6.958   7.434   2.346  0.2332 -0.1406  0.2295
  911SOL    HW113412   6.919   7.518   2.383  1.4757  0.4496  0.2349
  911SOL    HW213413   7.054   7.427   2.375 -0.2670 -2.3036  1.4729
  912SOL     OW13414   9.142   5.880   2.591  0.1837  0.6311 -0.2904
  912SOL    HW113415   9.153   5.968   2.638 -0.7106 -0.0686  1.2676
  912SOL    HW213416   9.071   5.889   2.520  1.7085  1.7523 -1.6999
  913SOL     OW13417   0.446   1.013   4.181 -0.1218 -0.3394 -0.7807
  913SOL    HW113418   0.532   0.980   4.142 -0.1973 -0.1240 -1.1305
  913SOL    HW213419   0.373   0.948   4.159 -0.4503  0.5181 -2.2608
  914SOL     OW13420   3.341   4.862   0.760 -0.1305 -0.5303 -0.3273
  914SOL    HW113421   3.345   4.870   0.859 -1.8446  0.0689 -0.2922
  914SOL    HW213422   3.403   4.929   0.719  0.4478 -0.6568  0.3169
  915SOL     OW13423   8.727   8.697   4.321 -0.4184 -0.4773  0.2308
  915SOL    HW113424   8.713   8.608   4.278  0.6775 -0.9144  0.7674
  915SOL    HW213425   8.781   8.686   4.404  1.3102  0.8886 -0.6653
  916SOL     OW13426   5.205   1.127   1.957  0.4642  0.2467 -0.5938
  916SOL    HW113427   5.161   1.048   2.001  0.4073 -0.1254 -1.3026
  916SOL    HW213428   5.299   1.102   1.931  0.6246  0.5859 -0.3449
  917SOL     OW13429   3.077   2.328   4.208 -0.1737  0.3008  0.0129
  917SOL    HW113430   3.166   2.287   4.185  0.5482 -0.2705  3.6346
  917SOL    HW213431   3.053   2.395   4.138  3.1454  0.5230 -1.0047
  918SOL     OW13432   4.030   0.579   1.327  0.4303 -0.3717  0.2322
  918SOL    HW113433   4.094   0.603   1.400 -1.3151  1.2778  1.2848
  918SOL    HW213434   3.977   0.499   1.354  0.8192 -0.6633  0.1289
  919SOL     OW13435   5.508   8.099   2.709  0.1244  0.1164  0.3178
  919SOL    HW113436   5.519   8.014   2.659 -2.2777 -0.0023 -0.0560
  919SOL    HW213437   5.564   8.170   2.667 -0.3024 -0.4950 -1.3163
  920SOL     OW13438   1.743   5.409   2.677  0.4720 -0.3526  0.3179
  920SOL    HW113439   1.784   5.325   2.713  0.4538 -0.6075 -0.2464
  920SOL    HW213440   1.649   5.391   2.651  0.4173 -0.1114  0.3538
  921SOL     OW13441   0.384   0.200   2.048  0.0323 -0.0659  0.0569
  921SOL    HW113442   0.311   0.206   1.979 -0.1866  1.2392  0.3973
  921SOL    HW213443   0.344   0.211   2.139  0.5463 -0.2305  0.3023
  922SOL     OW13444   9.228   9.211   1.463  0.5282  0.0263  0.1218
  922SOL    HW113445   9.300   9.169   1.408 -0.1178 -1.0401  0.0891
  922SOL    HW213446   9.248   9.198   1.560  1.3177  1.3289  0.1488
  923SOL     OW13447   1.843   1.039   2.678 -0.1582 -0.0262  0.5487
  923SOL    HW113448   1.759   1.036   2.732 -1.1708  1.8261 -0.8519
  923SOL    HW213449   1.869   0.947   2.652 -1.4207 -0.6720  1.4934
  924SOL     OW13450   0.413   9.827   2.980  0.0444 -0.4398 -0.7424
  924SOL    HW113451   0.464   9.911   2.995 -0.7537  0.2464 -1.7845
  924SOL    HW213452   0.339   9.820   3.047  1.0837 -1.1198  0.3601
  925SOL     OW13453   9.140   0.840   1.760 -0.6238 -0.4186 -0.3078
  925SOL    HW113454   9.217   0.903   1.747 -1.2940  0.7869  1.3534
  925SOL    HW213455   9.055   0.892   1.758 -1.3627 -1.6598 -1.4885
  926SOL     OW13456   0.492   3.405   0.211 -0.3755 -0.0580  0.6230
  926SOL    HW113457   0.539   3.492   0.225 -1.0645  0.0952  2.1427
  926SOL    HW213458   0.393   3.418   0.223 -0.5925 -0.8290 -0.2651
  927SOL     OW13459   5.413   1.081   2.850 -0.0563 -0.1830 -0.6104
  927SOL    HW113460   5.459   1.056   2.766  0.5675  0.6952 -0.5367
  927SOL    HW213461   5.406   1.181   2.856 -0.7981 -0.2649 -0.0003
  928SOL     OW13462   2.555   5.623   2.444 -1.0154 -0.0651 -0.4022
  928SOL    HW113463   2.467   5.580   2.462 -1.1903 -0.2441 -1.6128
  928SOL    HW213464   2.628   5.556   2.455 -1.1037 -0.1220 -0.1725
  929SOL     OW13465   0.258   8.610   1.344  0.2233 -0.1394  0.2835
  929SOL    HW113466   0.261   8.559   1.430  1.7083 -1.2666 -0.4227
  929SOL    HW213467   0.321   8.569   1.278 -0.4664  1.0641 -1.1620
  930SOL     OW13468   9.772   3.110   0.137 -0.4273  0.4805 -0.7043
  930SOL    HW113469   9.755   3.050   0.215 -0.5949  0.5730 -0.6681
  930SOL    HW213470   9.757   3.060   0.052  0.6648  0.1227 -0.6855
  931SOL     OW13471   8.679   9.823   2.464 -0.2605  0.4022 -0.4166
  931SOL    HW113472   8.757   9.819   2.526 -1.1627 -1.5392  0.6387
  931SOL    HW213473   8.710   9.850   2.373  1.2068  2.4899  0.6515
  932SOL     OW13474   3.282   2.302   4.576  0.5369  0.0792 -0.2999
  932SOL    HW113475   3.183   2.292   4.586  0.7265 -0.6788  0.8837
  932SOL    HW213476   3.327   2.216   4.600  1.2849 -0.7905 -4.4727
  933SOL     OW13477   2.168   2.156   3.703  0.6211 -0.1174 -0.4730
  933SOL    HW113478   2.241   2.209   3.660  1.7037 -3.3024 -2.7261
  933SOL    HW213479   2.084   2.166   3.650  0.2658  0.9669  0.2822
  934SOL     OW13480   9.492   1.859   2.724  0.1721 -0.6292 -0.3781
  934SOL    HW113481   9.531   1.904   2.643  0.2227 -0.7510 -0.4215
  934SOL    HW213482   9.433   1.784   2.694 -0.1973 -0.3652 -0.3183
  935SOL     OW13483   3.427   5.564   0.942  0.1573 -0.0531 -0.1935
  935SOL    HW113484   3.392   5.557   1.035 -1.1074 -0.7431 -0.7048
  935SOL    HW213485   3.503   5.500   0.931 -0.3445 -0.7141  0.0863
  936SOL     OW13486   1.115   9.957   0.157 -0.0616  0.0805  0.6105
  936SOL    HW113487   1.070   9.876   0.119 -0.0581  0.1700  0.4181
  936SOL    HW213488   1.192   9.928   0.215  1.2218  0.0040 -1.1004
  937SOL     OW13489   1.102   3.500   1.981 -0.1839 -0.6820  0.1861
  937SOL    HW113490   1.157   3.468   2.058 -1.4451 -0.6149  1.1294
  937SOL    HW213491   1.155   3.491   1.897  1.2268 -0.7323  1.0507
  938SOL     OW13492   2.743   6.733   4.067  0.2975  0.2807  0.8597
  938SOL    HW113493   2.710   6.656   4.011 -0.1455 -0.1872  1.7466
  938SOL    HW213494   2.721   6.819   4.022  0.6068 -0.1081 -0.0450
  939SOL     OW13495   1.618   5.677   0.037  0.2332 -0.3170  0.0679
  939SOL    HW113496   1.549   5.607   0.057 -0.3587  0.5751  1.1467
  939SOL    HW213497   1.669   5.699   0.120  0.0954  0.8810 -0.1591
  940SOL     OW13498   7.855   1.981   0.097 -0.0947 -0.2882  0.3445
  940SOL    HW113499   7.849   1.936   0.008  0.9168  0.3446 -0.0448
  940SOL    HW213500   7.825   2.076   0.088  2.3990  0.4959  0.1444
  941SOL     OW13501   2.360   3.710   1.530 -0.4209  0.0435  0.4342
  941SOL    HW113502   2.368   3.636   1.464  1.2273  1.3293 -0.8528
  941SOL    HW213503   2.345   3.673   1.621 -0.5675 -1.8217 -0.3365
  942SOL     OW13504   2.641   0.777   3.078 -0.0534  0.3607 -0.1065
  942SOL    HW113505   2.667   0.865   3.038  0.1706 -0.2700 -1.3721
  942SOL    HW213506   2.703   0.706   3.045 -1.6763 -0.6791 -0.9437
  943SOL     OW13507   8.821   6.537   3.625 -0.2841  0.4704 -0.2173
  943SOL    HW113508   8.915   6.520   3.597  0.7779  1.0750  2.7610
  943SOL    HW213509   8.762   6.543   3.544  1.8225 -2.0982 -2.0448
  944SOL     OW13510   0.706   0.404   0.314  0.2230 -0.6589 -0.3790
  944SOL    HW113511   0.719   0.472   0.386  0.8171 -3.1255  1.9068
  944SOL    HW213512   0.775   0.332   0.322  0.1324 -1.1356 -3.2661
  945SOL     OW13513   0.580   5.632   4.068  0.1425  0.6804  0.2964
  945SOL    HW113514   0.602   5.559   4.133  1.1432  0.9647  0.2783
  945SOL    HW213515   0.587   5.596   3.975 -1.7400  0.1466  0.3370
  946SOL     OW13516   4.100   3.975   4.407 -0.0010  0.1814 -0.0396
  946SOL    HW113517   4.094   3.923   4.321 -1.1009  0.5036 -0.1709
  946SOL    HW213518   4.138   4.065   4.388  2.4546 -0.7448  0.2803
  947SOL     OW13519   1.631   2.403   3.430  0.5078 -0.0789 -0.0760
  947SOL    HW113520   1.677   2.413   3.518 -0.6813 -0.0893  0.5554
  947SOL    HW213521   1.655   2.315   3.389  3.3528  1.0899 -1.1380
  948SOL     OW13522   6.077   7.125   2.615 -0.0711  0.0164  0.0256
  948SOL    HW113523   6.044   7.212   2.578 -0.0092  1.0383  2.2444
  948SOL    HW213524   6.175   7.117   2.599 -0.1089  0.2963 -0.3353
  949SOL     OW13525   0.343   4.399   4.457  0.3512 -0.4093  0.5768
  949SOL    HW113526   0.321   4.419   4.361  1.4595 -1.2990  0.1225
  949SOL    HW213527   0.266   4.352   4.500  0.5997 -1.8145 -0.4555
  950SOL     OW13528   0.427   0.850   3.744 -0.4913 -0.0603 -0.0907
  950SOL    HW113529   0.405   0.936   3.789  0.1625  0.3894 -0.6178
  950SOL    HW213530   0.358   0.781   3.768 -1.3023  0.7441 -0.0759
  951SOL     OW13531   3.073   9.524   3.645  0.2885 -0.3980  0.1615
  951SOL    HW113532   3.053   9.548   3.550  1.4647  2.4778  0.5886
  951SOL    HW213533   3.142   9.451   3.647  1.1160  0.3246 -1.2189
  952SOL     OW13534   3.161   9.856   2.179  0.6540  0.0403  0.1561
  952SOL    HW113535   3.240   9.900   2.136  1.2510 -0.2283  0.9698
  952SOL    HW213536   3.190   9.772   2.223 -0.4937 -1.2582 -1.4770
  953SOL     OW13537   3.918   3.314   0.419 -0.6940 -0.5292 -0.5130
  953SOL    HW113538   3.981   3.364   0.479 -1.2523 -1.2910  0.7177
  953SOL    HW213539   3.862   3.379   0.369  0.5710  0.1434 -1.0881
  954SOL     OW13540   1.791   4.386   1.763  0.0700 -0.3902 -0.0620
  954SOL    HW113541   1.747   4.388   1.852  1.2906  0.8935  0.5375
  954SOL    HW213542   1.875   4.332   1.768  0.4663  0.1991 -0.2677
  955SOL     OW13543   2.820   5.674   1.567 -0.2146 -0.5488 -0.3583
  955SOL    HW113544   2.738   5.622   1.590  0.2111 -1.2878 -0.5029
  955SOL    HW213545   2.852   5.724   1.648 -1.3011  0.4457 -0.5231
  956SOL     OW13546   4.566   3.243   0.512  0.1472 -0.1047 -0.1896
  956SOL    HW113547   4.473   3.234   0.478 -0.3432 -1.1596  1.3699
  956SOL    HW213548   4.618   3.160   0.489 -0.5994 -1.4845  2.7518
  957SOL     OW13549   0.119   7.869   4.238  0.2938 -0.2020 -0.1926
  957SOL    HW113550   0.065   7.935   4.186 -1.2083  0.4173  2.0726
  957SOL    HW213551   0.204   7.913   4.268 -0.0878  0.2919  0.1752
  958SOL     OW13552   4.078   7.711   2.471  0.1054 -0.1794 -0.2293
  958SOL    HW113553   4.176   7.714   2.454  0.1064  2.2710  0.0127
  958SOL    HW213554   4.058   7.757   2.558 -1.2822 -0.3817 -0.4332
  959SOL     OW13555   4.237   6.944   2.423 -0.6861  0.2371 -0.1666
  959SOL    HW113556   4.174   6.866   2.415  2.6400 -2.4810 -1.2232
  959SOL    HW213557   4.261   6.958   2.519 -1.8144  0.3791  0.0934
  960SOL     OW13558   7.872   9.300   4.714 -0.4771  0.3395  0.1412
  960SOL    HW113559   7.808   9.360   4.763 -0.9057  0.3336 -0.4104
  960SOL    HW213560   7.965   9.334   4.726 -0.6957  0.9721  0.0479
  961SOL     OW13561   9.818   6.532   3.419  0.2962  0.1804  0.4198
  961SOL    HW113562   9.910   6.566   3.400  0.3540 -0.6072 -0.7811
  961SOL    HW213563   9.753   6.571   3.353 -0.1362  0.2539  0.8786
  962SOL     OW13564   3.421   2.599   0.327 -0.1679  0.1848  0.1344
  962SOL    HW113565   3.426   2.694   0.357  1.9444 -0.0983  0.8014
  962SOL    HW213566   3.466   2.588   0.239  1.2260 -0.4982  0.9094
  963SOL     OW13567   8.973   9.319   4.010 -0.4011 -0.2601  0.3213
  963SOL    HW113568   8.940   9.249   4.074  0.1702 -0.9292 -0.1066
  963SOL    HW213569   9.044   9.279   3.952 -0.2182  0.6260 -0.0599
  964SOL     OW13570   4.599   4.801   1.249 -0.3496 -0.4725 -0.1941
  964SOL    HW113571   4.601   4.899   1.269  2.3437 -0.5864  0.2664
  964SOL    HW213572   4.617   4.749   1.333  1.4234 -1.2439 -1.0199
  965SOL     OW13573   6.769   0.292   2.281  0.2469  0.0975 -0.4312
  965SOL    HW113574   6.765   0.355   2.358 -0.2834 -1.8851  1.2061
  965SOL    HW213575   6.856   0.302   2.234  1.1074  0.4534  1.2104
  966SOL     OW13576   2.044   0.707   3.469  0.0159 -0.3710  0.1804
  966SOL    HW113577   1.950   0.729   3.444  0.1239 -0.2870 -0.1432
  966SOL    HW213578   2.048   0.613   3.505  0.0133 -0.7905 -0.9149
  967SOL     OW13579   9.922   8.547   0.054  0.1856  0.1557  0.3593
  967SOL    HW113580   9.879   8.551   0.144  0.5242  2.0040  0.4569
  967SOL    HW213581   9.963   8.636   0.032 -0.7359  0.0371 -2.0251
  968SOL     OW13582   5.584   0.775   2.760  0.1746 -0.2088 -0.2263
  968SOL    HW113583   5.570   0.864   2.717 -1.5902 -0.3987 -0.0828
  968SOL    HW213584   5.678   0.744   2.744  0.2502  0.8269 -1.8572
  969SOL     OW13585   2.301   0.433   1.870 -0.9386  0.1723  0.3970
  969SOL    HW113586   2.285   0.412   1.967 -0.2492 -0.7689  0.3141
  969SOL    HW213587   2.230   0.494   1.837 -1.7415 -0.2971  1.2442
  970SOL     OW13588   0.992   8.488   3.016  0.2781  0.0363  0.2801
  970SOL    HW113589   0.922   8.473   2.947  1.3438 -1.1790 -0.5653
  970SOL    HW213590   1.069   8.426   3.000  1.3153  0.9629  1.5052
  971SOL     OW13591   0.275   4.908   3.132  0.2705  0.1261 -0.0131
  971SOL    HW113592   0.280   4.813   3.099  0.4111  0.5062 -1.1012
  971SOL    HW213593   0.189   4.922   3.180  0.4375 -0.6703  0.5363
  972SOL     OW13594   8.227   0.971   1.265 -0.4008 -0.0693  0.4289
  972SOL    HW113595   8.255   1.002   1.174  1.3102  0.3674  1.0879
  972SOL    HW213596   8.186   0.880   1.257 -0.9149  0.2615 -0.8681
  973SOL     OW13597   8.516   4.209   1.420  0.4675 -0.6213 -0.0528
  973SOL    HW113598   8.590   4.191   1.355 -0.8714 -1.2647 -1.4232
  973SOL    HW213599   8.469   4.123   1.440  0.3934 -0.2968  1.1983
  974SOL     OW13600   4.675   7.140   3.086  0.3387 -0.2526  0.5493
  974SOL    HW113601   4.715   7.061   3.041  0.4044 -0.7345  1.4402
  974SOL    HW213602   4.749   7.199   3.120  0.2960  0.8993 -1.3241
  975SOL     OW13603   5.502   7.900   1.499  0.3507 -0.0383  0.1643
  975SOL    HW113604   5.501   7.988   1.451  0.8368  0.6774  1.4467
  975SOL    HW213605   5.596   7.877   1.523 -0.0232  0.3223  2.0423
  976SOL     OW13606   7.085   0.856   3.285  0.1815  0.0870 -0.1691
  976SOL    HW113607   7.046   0.765   3.291  0.7604 -0.1405  0.1834
  976SOL    HW213608   7.176   0.856   3.326 -0.0598  0.9633  0.3838
  977SOL     OW13609   0.936   8.012   3.266 -0.0593 -0.3542  1.0708
  977SOL    HW113610   0.979   8.103   3.266 -1.6025  0.4004  2.6977
  977SOL    HW213611   0.935   7.976   3.173  1.7742  0.7132  0.6092
  978SOL     OW13612   7.189   8.788   3.251 -0.0043  0.0781 -0.2987
  978SOL    HW113613   7.130   8.821   3.324  0.2454  0.7238 -0.3875
  978SOL    HW213614   7.257   8.726   3.289  1.1271  1.6302  0.2893
  979SOL     OW13615   3.407   0.734   1.336  0.1197 -0.2397  0.8302
  979SOL    HW113616   3.467   0.682   1.396  0.1897 -1.3366 -0.1750
  979SOL    HW213617   3.442   0.732   1.243 -3.1541 -3.6765 -0.4458
  980SOL     OW13618   9.707   2.802   2.726  0.6768  0.3828 -0.2631
  980SOL    HW113619   9.696   2.836   2.632  1.5847 -0.2202 -0.6001
  980SOL    HW213620   9.637   2.843   2.785  1.0262  1.9429 -0.8929
  981SOL     OW13621   9.186   2.616   4.591 -0.5499 -0.2393 -0.5275
  981SOL    HW113622   9.138   2.703   4.604  0.1184  0.1750 -0.8074
  981SOL    HW213623   9.277   2.633   4.555 -0.6361 -1.1028 -1.1848
  982SOL     OW13624   3.338   8.916   3.269  0.2518  0.3261 -0.6601
  982SOL    HW113625   3.252   8.875   3.239 -0.0426  2.0364 -2.2790
  982SOL    HW213626   3.410   8.847   3.268 -0.3793 -0.3385 -2.5992
  983SOL     OW13627   3.765   1.931   4.224 -0.0636  0.3104 -0.1780
  983SOL    HW113628   3.818   2.010   4.194  1.1092 -0.0699  0.8174
  983SOL    HW213629   3.685   1.962   4.276  0.2489  0.8536 -0.0132
  984SOL     OW13630   4.435   1.516   0.332 -0.0147 -0.5823  0.6004
  984SOL    HW113631   4.517   1.518   0.389  0.4173  1.4658 -0.0502
  984SOL    HW213632   4.450   1.452   0.256  1.3968  0.5316 -0.0881
  985SOL     OW13633   4.214   0.651   2.229 -0.0019 -0.3029 -0.2815
  985SOL    HW113634   4.213   0.628   2.327  0.5792  0.2357 -0.1440
  985SOL    HW213635   4.132   0.613   2.185 -0.9112  0.4981  0.6643
  986SOL     OW13636   1.444   8.791   4.325 -0.0049  0.0621 -0.1148
  986SOL    HW113637   1.345   8.795   4.313  0.0751 -1.9890 -1.7652
  986SOL    HW213638   1.468   8.714   4.383  0.7523 -0.8608 -1.6248
  987SOL     OW13639   7.575   0.300   1.702  0.0777 -0.5314 -0.1268
  987SOL    HW113640   7.511   0.376   1.689  1.5432  0.5606 -1.2459
  987SOL    HW213641   7.622   0.281   1.616 -0.7319 -3.1805 -0.0273
  988SOL     OW13642   8.510   3.415   1.489  0.0881  0.5697 -0.1576
  988SOL    HW113643   8.523   3.511   1.515  0.6696  0.8887 -1.5333
  988SOL    HW213644   8.592   3.363   1.511  1.2241  1.1788 -2.7313
  989SOL     OW13645   7.797   0.453   2.011  0.2927 -0.2819 -0.1404
  989SOL    HW113646   7.801   0.436   1.912  1.3806 -0.1528 -0.1240
  989SOL    HW213647   7.794   0.366   2.060  0.7281 -0.3526 -0.2448
  990SOL     OW13648   9.426   2.411   3.019  0.3013 -0.4293  0.3871
  990SOL    HW113649   9.431   2.504   2.981 -0.5230 -0.7835 -0.6151
  990SOL    HW213650   9.490   2.403   3.095  1.7345  0.4048 -0.7044
  991SOL     OW13651   9.023   3.920   3.075 -0.8563 -0.5440  0.2651
  991SOL    HW113652   9.043   3.884   3.166 -2.2396 -1.4013  0.2469
  991SOL    HW213653   9.103   3.967   3.039 -0.2039 -0.4753  1.7974
  992SOL     OW13654   8.323   4.635   3.436 -0.0575 -0.0085 -0.6810
  992SOL    HW113655   8.376   4.559   3.474  0.0756 -0.4014 -1.6460
  992SOL    HW213656   8.250   4.661   3.500  1.3808  0.6401  0.7322
  993SOL     OW13657   4.249   2.273   4.607 -0.0458 -0.1363 -0.0945
  993SOL    HW113658   4.239   2.186   4.656 -2.7957  1.4380  2.3910
  993SOL    HW213659   4.341   2.309   4.621  0.0187 -0.9771  1.8179
  994SOL     OW13660   9.977   3.434   1.496  0.1593 -0.2329  0.0771
  994SOL    HW113661   9.919   3.512   1.474  2.6654  1.5231 -0.5700
  994SOL    HW213662  10.005   3.438   1.592  1.2109  0.3056 -0.2475
  995SOL     OW13663   7.782   8.263   3.613 -0.6636 -0.0307  0.8579
  995SOL    HW113664   7.765   8.351   3.658  0.0217 -0.0602  1.1762
  995SOL    HW213665   7.771   8.189   3.679 -0.8193 -0.1606  0.6886
  996SOL     OW13666   4.978   7.713   1.767  0.5923 -0.1046  0.2483
  996SOL    HW113667   4.959   7.615   1.775 -0.6002  0.0938 -0.0411
  996SOL    HW213668   4.922   7.752   1.693  1.2523  0.7456  0.1838
  997SOL     OW13669   7.905   2.257   2.966  0.3278  0.2319 -0.0221
  997SOL    HW113670   7.915   2.310   2.882  3.9680 -2.0820 -1.2011
  997SOL    HW213671   7.818   2.208   2.965  1.2729 -1.5151 -3.5832
  998SOL     OW13672   0.703   4.351   2.268 -0.0788 -0.1946  0.4930
  998SOL    HW113673   0.628   4.286   2.256  0.3399 -0.5985  0.0164
  998SOL    HW213674   0.695   4.396   2.357  0.0555 -1.4601  1.1548
  999SOL     OW13675   4.616   2.671   0.778  0.0232  0.8659  0.3139
  999SOL    HW113676   4.561   2.623   0.847  0.9697 -0.6984  0.0153
  999SOL    HW213677   4.602   2.770   0.787 -2.1061  0.5551  0.8384
 1000SOL     OW13678   6.609   6.934   2.388 -0.2638 -0.1748  0.3709
 1000SOL    HW113679   6.704   6.930   2.359 -0.9968  1.2001 -2.3331
 1000SOL    HW213680   6.566   6.845   2.374 -0.6979  0.5333 -3.2647
 1001SOL     OW13681   3.302   6.904   3.891 -0.5444 -0.3279  0.3340
 1001SOL    HW113682   3.275   6.912   3.795  0.9900  1.1839  0.0093
 1001SOL    HW213683   3.234   6.949   3.949 -0.5036  0.4011 -0.1857
 1002SOL     OW13684   9.772   6.351   1.606 -0.0448 -0.3357 -0.5830
 1002SOL    HW113685   9.856   6.403   1.592  1.7896 -2.0472  3.2640
 1002SOL    HW213686   9.774   6.269   1.548  1.1664 -0.5846 -0.2118
 1003SOL     OW13687   0.653   1.821   3.062  0.4312 -0.2241  0.4017
 1003SOL    HW113688   0.570   1.800   3.012  1.4612 -2.7313 -0.3526
 1003SOL    HW213689   0.630   1.856   3.153 -1.4290  0.1646 -0.2084
 1004SOL     OW13690   8.495   5.831   1.503  0.1225 -0.0461  0.0899
 1004SOL    HW113691   8.466   5.879   1.420 -2.9316  1.0632  1.7308
 1004SOL    HW213692   8.512   5.735   1.481  0.6333  0.5190 -2.0795
 1005SOL     OW13693   2.135   8.212   1.148  0.1725  0.2503 -0.1775
 1005SOL    HW113694   2.172   8.207   1.055  2.8194  0.6886  0.7878
 1005SOL    HW213695   2.206   8.184   1.213 -1.7732 -0.4474  1.6864
 1006SOL     OW13696   1.728   2.372   2.803  0.1662  0.1628  0.1083
 1006SOL    HW113697   1.690   2.435   2.735  0.6469  1.1381  0.7324
 1006SOL    HW213698   1.662   2.300   2.822 -0.5141  0.6433 -0.4074
 1007SOL     OW13699   3.850   0.304   2.538 -0.7744 -0.2448 -0.0992
 1007SOL    HW113700   3.886   0.397   2.545 -0.4412 -0.3917  0.1277
 1007SOL    HW213701   3.869   0.254   2.622 -2.8571  0.1480  0.6555
 1008SOL     OW13702   7.521   8.066   1.787 -0.3627 -0.8838 -0.2188
 1008SOL    HW113703   7.501   8.164   1.787 -0.8400 -0.9625 -1.5901
 1008SOL    HW213704   7.598   8.048   1.725  1.2988 -1.0969  1.8424
 1009SOL     OW13705   7.013   0.321   0.869 -0.3037 -0.0898 -0.0040
 1009SOL    HW113706   7.102   0.286   0.896 -0.4621 -0.4121  0.1112
 1009SOL    HW213707   6.944   0.288   0.934 -0.0843  2.6679  1.7396
 1010SOL     OW13708   6.186   7.675   2.763 -0.2091 -0.2557 -0.3751
 1010SOL    HW113709   6.145   7.755   2.807  2.2898  1.6623 -1.3603
 1010SOL    HW213710   6.181   7.684   2.664  1.0568 -0.7940 -0.5012
 1011SOL     OW13711   1.126   9.198   4.321 -0.1276  0.2870 -0.3762
 1011SOL    HW113712   1.217   9.209   4.359  0.0496  0.2246 -0.7783
 1011SOL    HW213713   1.125   9.119   4.259 -0.3351  0.5683 -0.7325
 1012SOL     OW13714   1.447   5.270   4.273  0.8483 -0.1681  0.0992
 1012SOL    HW113715   1.546   5.280   4.285  0.8155 -0.0706  0.2921
 1012SOL    HW213716   1.412   5.349   4.222  0.6747  0.4398  1.1447
 1013SOL     OW13717   8.099   9.849   2.058 -0.1182 -0.1948  0.1929
 1013SOL    HW113718   8.002   9.875   2.048  0.2263  1.1932  0.3178
 1013SOL    HW213719   8.155   9.905   1.997  0.7393 -0.0332  1.1113
 1014SOL     OW13720   5.698   0.467   1.750 -0.5016 -0.5049 -0.1223
 1014SOL    HW113721   5.742   0.473   1.661  0.1471  3.6309  0.3798
 1014SOL    HW213722   5.616   0.409   1.743 -0.3672 -0.4004 -3.3105
 1015SOL     OW13723   3.912   3.664   0.307 -0.0157 -0.5757  0.4648
 1015SOL    HW113724   4.011   3.682   0.308  0.1805 -1.3280 -2.1551
 1015SOL    HW213725   3.879   3.668   0.213 -2.2024 -1.9537  1.1542
 1016SOL     OW13726   7.611   1.125   1.931  0.0875 -0.4971 -0.2209
 1016SOL    HW113727   7.584   1.196   1.997  0.3302 -0.1187 -0.5290
 1016SOL    HW213728   7.602   1.035   1.974 -0.4672 -0.2994  0.0893
 1017SOL     OW13729   9.111   3.419   3.036 -0.4726 -0.1910  0.4253
 1017SOL    HW113730   9.090   3.322   3.035 -2.2832  0.1862  0.0398
 1017SOL    HW213731   9.139   3.446   3.129  0.6556 -1.1767  0.3893
 1018SOL     OW13732   3.827   2.700   1.703 -0.0182 -0.0007  0.4877
 1018SOL    HW113733   3.740   2.715   1.655  0.4666  0.1065 -0.3647
 1018SOL    HW213734   3.883   2.636   1.651  0.1432 -0.5885  1.3758
 1019SOL     OW13735   6.176   0.653   2.136 -0.2993  0.6083  0.2120
 1019SOL    HW113736   6.115   0.579   2.109  0.2096  0.5865 -0.9193
 1019SOL    HW213737   6.179   0.722   2.064  0.0640  1.2125  0.7922
 1020SOL     OW13738   8.167   2.698   1.907 -0.5600  0.0100  0.2597
 1020SOL    HW113739   8.104   2.759   1.858 -1.0741 -0.1971  0.6709
 1020SOL    HW213740   8.115   2.633   1.962  0.0185  0.5504  1.4667
 1021SOL     OW13741   6.718   1.180   2.925  0.3189 -0.0123 -0.3736
 1021SOL    HW113742   6.634   1.148   2.967  1.0668 -1.1884  0.2728
 1021SOL    HW213743   6.779   1.218   2.995  1.0014 -0.7145 -0.5687
 1022SOL     OW13744   8.200   3.922   0.017 -0.0201 -0.5945 -0.3473
 1022SOL    HW113745   8.273   3.986  -0.006 -1.0382 -0.6606 -4.0342
 1022SOL    HW213746   8.115   3.952  -0.026 -0.8782 -3.5880 -0.8683
 1023SOL     OW13747   0.344   8.092   4.161  0.0778 -0.3344  0.2726
 1023SOL    HW113748   0.345   8.051   4.070 -0.3663  1.3056 -0.4886
 1023SOL    HW213749   0.438   8.102   4.194  0.3033  0.0866 -0.4817
 1024SOL     OW13750   7.265   8.001   1.714  0.4691 -0.1734  0.4222
 1024SOL    HW113751   7.347   8.046   1.748  0.9359  0.1267 -1.0971
 1024SOL    HW213752   7.290   7.921   1.659 -0.2657 -0.3309  0.3023
 1025SOL     OW13753   0.828   3.321   1.918 -0.1331  0.3414 -0.2983
 1025SOL    HW113754   0.826   3.372   2.004  0.5695  1.4468 -0.9273
 1025SOL    HW213755   0.781   3.233   1.930  0.8805  0.0232  1.4977
 1026SOL     OW13756   6.016   6.166   2.272  0.3871  0.0640 -0.0332
 1026SOL    HW113757   6.070   6.197   2.193  2.1011 -0.5584  0.8554
 1026SOL    HW213758   5.949   6.098   2.242  1.6252 -0.8305 -0.8422
 1027SOL     OW13759   8.969   6.752   3.915 -0.1476  0.1404  0.3527
 1027SOL    HW113760   8.979   6.774   4.012  0.5593  0.1854  0.2757
 1027SOL    HW213761   8.902   6.678   3.905  0.3440 -0.4005  0.9457
 1028SOL     OW13762   5.221   6.846   2.640 -0.2395  0.0510 -0.4703
 1028SOL    HW113763   5.192   6.926   2.587 -1.2820 -0.9504 -1.4385
 1028SOL    HW213764   5.311   6.864   2.681 -1.2038  2.3829  0.7790
 1029SOL     OW13765   8.048   6.495   1.094 -0.0886 -0.1521 -0.2656
 1029SOL    HW113766   8.072   6.475   0.999  0.8679  1.8899 -0.4733
 1029SOL    HW213767   8.015   6.412   1.138 -0.6372 -1.1029 -2.4100
 1030SOL     OW13768   8.607   8.744   3.638  1.0230  0.1081 -0.1393
 1030SOL    HW113769   8.595   8.666   3.577  0.2236 -0.8958  1.2558
 1030SOL    HW213770   8.699   8.743   3.677  1.0208 -0.1316 -0.1394
 1031SOL     OW13771   4.637   9.603   3.176 -0.0667  0.6035 -0.9221
 1031SOL    HW113772   4.618   9.505   3.183 -0.5143  0.6181 -1.7986
 1031SOL    HW213773   4.587   9.641   3.098  0.8864  1.3352 -1.1909
 1032SOL     OW13774   2.339   8.659   0.320 -0.0969 -0.2371  0.3146
 1032SOL    HW113775   2.312   8.630   0.228 -0.4766 -2.1030  0.9949
 1032SOL    HW213776   2.283   8.737   0.349 -0.1920  0.1504 -0.8928
 1033SOL     OW13777   7.095   8.898   4.200 -0.6807  0.1848 -0.2545
 1033SOL    HW113778   7.079   8.910   4.298 -0.2348  0.4808 -0.2164
 1033SOL    HW213779   7.040   8.964   4.149 -0.2500  0.6170 -0.1630
 1034SOL     OW13780   3.868   2.372   2.922  0.2237 -0.2027  0.4772
 1034SOL    HW113781   3.915   2.306   2.980  0.7706  0.6180  0.9830
 1034SOL    HW213782   3.930   2.448   2.901 -1.2364  1.5182  2.1927
 1035SOL     OW13783   1.562   5.440   3.345  0.3610 -0.1323 -0.2577
 1035SOL    HW113784   1.635   5.396   3.398  1.6289 -0.0242 -1.8609
 1035SOL    HW213785   1.543   5.531   3.382  0.6104 -0.4034  0.5428
 1036SOL     OW13786   1.355   0.777   3.511  0.3363 -0.2594 -0.4473
 1036SOL    HW113787   1.370   0.703   3.445  1.2920  0.3188 -0.8874
 1036SOL    HW213788   1.423   0.772   3.583  1.4796  1.2048 -1.3976
 1037SOL     OW13789   1.142   1.730   1.056  0.2952 -0.2692  0.1384
 1037SOL    HW113790   1.179   1.823   1.059 -1.0921  0.2529  1.9121
 1037SOL    HW213791   1.216   1.664   1.071  1.1483  0.5709 -0.3126
 1038SOL     OW13792   3.809   2.110   2.019  0.4945  0.3443 -0.1540
 1038SOL    HW113793   3.899   2.134   2.056  0.9178 -0.8516 -0.3936
 1038SOL    HW213794   3.796   2.011   2.024 -0.5059  0.4318 -0.8258
 1039SOL     OW13795   8.713   6.872   4.099 -0.0395 -0.0410 -0.5878
 1039SOL    HW113796   8.777   6.821   4.156  0.1030  0.5507 -0.2166
 1039SOL    HW213797   8.632   6.816   4.082 -0.5217  0.1390  1.0167
 1040SOL     OW13798   1.487   9.678   1.216  0.3708  0.5029 -0.6345
 1040SOL    HW113799   1.466   9.763   1.169  0.3766  0.1466 -1.2944
 1040SOL    HW213800   1.406   9.620   1.219  0.5595  0.2225 -0.8534
 1041SOL     OW13801   2.520   0.740   1.520 -0.0830  0.3870 -0.2360
 1041SOL    HW113802   2.491   0.768   1.612  1.8545  1.2268  0.1552
 1041SOL    HW213803   2.446   0.756   1.456 -0.8322  1.5691  0.8832
 1042SOL     OW13804   0.877   0.275   2.036 -0.3314 -0.3218  0.6774
 1042SOL    HW113805   0.862   0.282   1.937 -0.3631 -1.4318  0.5919
 1042SOL    HW213806   0.897   0.365   2.073  0.4160  0.0016 -0.4717
 1043SOL     OW13807   8.184   6.645   1.457 -0.2266 -0.6828 -0.3270
 1043SOL    HW113808   8.110   6.630   1.523  1.4408  1.9527  2.3039
 1043SOL    HW213809   8.271   6.616   1.498  0.6841 -0.1193 -1.8203
 1044SOL     OW13810   4.793   7.239   1.353  0.9744  0.3363 -0.2669
 1044SOL    HW113811   4.709   7.198   1.318 -0.1545  1.1000  1.4965
 1044SOL    HW213812   4.833   7.298   1.283 -1.2363  1.8324 -0.3102
 1045SOL     OW13813   0.374   4.320   1.185  0.1979  0.2887  0.1348
 1045SOL    HW113814   0.451   4.364   1.232  0.0351  0.5475  0.1582
 1045SOL    HW213815   0.299   4.306   1.250 -0.3099  1.3225 -0.2179
 1046SOL     OW13816   1.827   2.968   4.556 -0.0482 -0.4571 -0.3299
 1046SOL    HW113817   1.838   3.067   4.568  0.1234 -0.4476 -0.5774
 1046SOL    HW213818   1.731   2.948   4.536 -0.4305 -0.5079  1.4214
 1047SOL     OW13819   1.173   6.380   2.013  0.1345  0.1220  1.0074
 1047SOL    HW113820   1.084   6.422   2.000  0.0247  0.2739  2.1245
 1047SOL    HW213821   1.212   6.354   1.925 -0.6738  0.7523  0.4584
 1048SOL     OW13822   0.146   1.634   4.065 -0.6445 -0.0176 -0.0723
 1048SOL    HW113823   0.185   1.616   4.155  0.8107  1.1647 -0.4429
 1048SOL    HW213824   0.113   1.548   4.025  1.7829 -1.0982  0.1685
 1049SOL     OW13825   3.138   0.079   1.831  0.1647  0.3491 -0.1349
 1049SOL    HW113826   3.046   0.040   1.839  0.2511 -0.0330 -0.9261
 1049SOL    HW213827   3.137   0.175   1.859 -0.6385  0.5663 -0.8938
 1050SOL     OW13828   4.339   0.274   3.880 -0.3153 -1.1621  0.3365
 1050SOL    HW113829   4.368   0.295   3.973 -4.1274  3.8461  0.6550
 1050SOL    HW213830   4.253   0.223   3.882 -0.3580 -1.1379 -0.4527
 1051SOL     OW13831   4.654   8.835   3.925 -0.0340  0.0725 -0.4509
 1051SOL    HW113832   4.645   8.930   3.954 -0.9648 -0.2187  0.2338
 1051SOL    HW213833   4.736   8.796   3.967 -2.0547 -0.7332  2.9955
 1052SOL     OW13834   4.319   3.895   3.657  0.0033 -0.2089 -0.5798
 1052SOL    HW113835   4.338   3.986   3.620  1.9571 -1.8698 -3.9995
 1052SOL    HW213836   4.245   3.853   3.605  0.6767 -1.4384 -0.5537
 1053SOL     OW13837   9.511   2.014   1.210 -0.0619 -0.4112  0.0438
 1053SOL    HW113838   9.536   1.975   1.299 -2.2113  2.2565  1.8797
 1053SOL    HW213839   9.431   1.965   1.174  0.9426 -1.6369 -0.5416
 1054SOL     OW13840   0.083   9.198   1.473 -0.4797 -0.4749 -0.5659
 1054SOL    HW113841   0.182   9.211   1.467 -0.5977 -0.2543 -2.4490
 1054SOL    HW213842   0.063   9.102   1.491  0.0774 -0.5782 -0.5004
 1055SOL     OW13843   3.061   0.833   1.636 -0.1725  0.1587  0.4744
 1055SOL    HW113844   3.043   0.806   1.542 -1.8469  0.1957  0.7768
 1055SOL    HW213845   3.043   0.931   1.647  1.8871  0.5768  0.3856
 1056SOL     OW13846   8.413   9.525   1.850 -0.2323 -0.1951 -0.0306
 1056SOL    HW113847   8.439   9.476   1.767  2.1199  0.6233  0.1899
 1056SOL    HW213848   8.320   9.560   1.840 -0.4890 -1.2900 -1.7466
 1057SOL     OW13849   8.452   6.257   4.369 -0.2323 -0.3903 -0.3074
 1057SOL    HW113850   8.431   6.339   4.316  2.6291  0.2441 -0.5245
 1057SOL    HW213851   8.401   6.259   4.455 -1.7683  0.5794 -1.2172
 1058SOL     OW13852   9.555   3.058   4.470 -0.1668  0.1276 -0.0647
 1058SOL    HW113853   9.560   3.146   4.423  0.1055 -0.5840 -1.3854
 1058SOL    HW213854   9.574   2.984   4.406 -0.5284 -0.9155  0.9986
 1059SOL     OW13855   7.684   1.090   4.391  0.5125  0.4391  0.1948
 1059SOL    HW113856   7.657   1.036   4.471  2.1322 -0.6966 -0.0175
 1059SOL    HW213857   7.754   1.157   4.418 -1.6765  2.7043  0.5225
 1060SOL     OW13858   5.504   8.984   1.226 -0.4449 -0.3027 -0.0564
 1060SOL    HW113859   5.426   9.034   1.187 -0.1928 -1.4739 -2.1414
 1060SOL    HW213860   5.478   8.947   1.315 -1.6452  0.9061  0.1237
 1061SOL     OW13861   3.182   8.180   1.492 -0.3900  0.2045  0.0633
 1061SOL    HW113862   3.178   8.268   1.445 -0.6150 -0.0284 -0.3459
 1061SOL    HW213863   3.276   8.146   1.491 -0.4588  0.0361 -0.5058
 1062SOL     OW13864   2.802   4.496   0.168  0.4262  0.4310 -0.3157
 1062SOL    HW113865   2.807   4.504   0.267 -2.1790 -0.1001 -0.1028
 1062SOL    HW213866   2.863   4.423   0.137  0.7750  0.1800  0.9506
 1063SOL     OW13867   8.770   4.525   1.501  0.6733  0.4218 -0.3808
 1063SOL    HW113868   8.692   4.520   1.438 -0.3489 -1.6769  0.9859
 1063SOL    HW213869   8.763   4.608   1.556  0.6640  1.4106 -1.8420
 1064SOL     OW13870   9.427   3.073   2.674 -0.4055  0.1003 -0.3016
 1064SOL    HW113871   9.436   3.107   2.580 -1.4259  1.6344  0.1230
 1064SOL    HW213872   9.378   3.141   2.729 -0.7745 -1.2518  1.0839
 1065SOL     OW13873   0.435   5.215   4.168  0.3104  0.4883  0.3451
 1065SOL    HW113874   0.340   5.222   4.198  0.0304 -0.6426 -0.2494
 1065SOL    HW213875   0.494   5.265   4.232 -0.4732 -0.3162  1.7230
 1066SOL     OW13876   5.247   0.571   3.657 -0.4836  0.0716  0.3833
 1066SOL    HW113877   5.182   0.525   3.717  2.2168 -0.7740  2.8431
 1066SOL    HW213878   5.285   0.506   3.592 -0.4726  0.0198  0.4413
 1067SOL     OW13879   3.399   8.924   0.945  0.4082  0.6023 -0.1369
 1067SOL    HW113880   3.465   8.902   1.017  0.0733  1.8911  0.5726
 1067SOL    HW213881   3.307   8.924   0.983 -0.0549 -1.4396 -1.1831
 1068SOL     OW13882   1.639   0.977   2.163  0.9139 -1.1440 -0.3890
 1068SOL    HW113883   1.641   0.997   2.065  0.1782 -0.2119 -0.2266
 1068SOL    HW213884   1.565   1.029   2.205  2.3865 -0.1032  0.9747
 1069SOL     OW13885   9.357   7.039   1.125 -0.2422  0.1109 -0.5535
 1069SOL    HW113886   9.263   7.013   1.103 -0.6077  1.1569 -0.2413
 1069SOL    HW213887   9.407   7.058   1.041 -0.8075  1.2450 -0.6412
 1070SOL     OW13888   9.890   7.720   2.161 -0.3603  0.4150  0.3248
 1070SOL    HW113889   9.808   7.696   2.110 -0.7518 -0.2055  1.2311
 1070SOL    HW213890   9.875   7.701   2.258  1.0586 -0.2663  0.4227
 1071SOL     OW13891   4.018   8.278   3.193  0.0434  0.5438  0.0768
 1071SOL    HW113892   4.117   8.271   3.178 -0.2933 -2.0580 -1.0419
 1071SOL    HW213893   3.978   8.337   3.123  0.4078 -0.6882 -1.1802
 1072SOL     OW13894   1.235   0.643   0.790 -0.6960 -0.6295 -0.1258
 1072SOL    HW113895   1.154   0.596   0.754 -0.0527 -1.4076 -0.5898
 1072SOL    HW213896   1.281   0.583   0.856  0.7465 -1.1076 -1.5387
 1073SOL     OW13897   1.668   2.754   2.778 -0.1156  0.9317 -0.2769
 1073SOL    HW113898   1.656   2.674   2.719  1.7667  1.5487 -1.5538
 1073SOL    HW213899   1.717   2.728   2.861 -0.1596  0.6138 -0.3501
 1074SOL     OW13900   2.261   2.140   4.542 -0.3879  0.4692 -0.0543
 1074SOL    HW113901   2.349   2.185   4.556  0.3098 -0.4802 -1.2918
 1074SOL    HW213902   2.215   2.131   4.630  0.9783  0.5346  0.6919
 1075SOL     OW13903   5.209   9.135   1.430  0.6051 -0.2090  0.2888
 1075SOL    HW113904   5.292   9.156   1.379  0.7436 -1.0064  0.1665
 1075SOL    HW213905   5.233   9.087   1.514  0.3164  0.2502  0.6352
 1076SOL     OW13906   7.702   0.399   0.231 -0.1056 -0.1128  0.1325
 1076SOL    HW113907   7.773   0.461   0.263 -2.2393  2.3268  0.2949
 1076SOL    HW213908   7.655   0.439   0.153 -1.1759 -1.7881 -0.1132
 1077SOL     OW13909   0.643   3.805   0.661  0.2409 -0.1524 -0.2605
 1077SOL    HW113910   0.613   3.818   0.756 -0.0655  1.6939 -0.5849
 1077SOL    HW213911   0.652   3.707   0.642 -0.5037 -0.5713  1.4224
 1078SOL     OW13912   0.929   2.716   1.032  0.7899  0.3654  0.4094
 1078SOL    HW113913   0.831   2.720   1.050  0.6676  1.4606 -0.4511
 1078SOL    HW213914   0.974   2.795   1.073  1.2565  0.0833  0.4448
 1079SOL     OW13915   3.418   6.972   0.323 -0.1477 -0.8464  0.1264
 1079SOL    HW113916   3.426   6.922   0.409  0.4084 -0.2077  0.4465
 1079SOL    HW213917   3.406   6.906   0.248 -0.4819 -1.4069  0.6698
 1080SOL     OW13918   7.117   9.333   1.740 -0.7976 -0.6121  0.2615
 1080SOL    HW113919   7.019   9.313   1.741 -0.9582  0.1795  0.4933
 1080SOL    HW213920   7.131   9.431   1.729 -0.0125 -0.8286 -0.7754
 1081SOL     OW13921   1.296   6.882   0.959 -0.0998 -0.0933 -0.0451
 1081SOL    HW113922   1.207   6.928   0.951 -0.6125 -0.7840  1.5555
 1081SOL    HW213923   1.285   6.795   1.007  1.2058 -0.9244 -1.1925
 1082SOL     OW13924   5.089   8.955   2.929  0.0678  0.6083  0.1277
 1082SOL    HW113925   5.032   8.977   2.850  0.2821  0.0059 -0.1992
 1082SOL    HW213926   5.175   9.005   2.923 -0.2320  1.1578  0.3791
 1083SOL     OW13927   1.775   1.648   1.187 -0.6742  0.0920 -0.1851
 1083SOL    HW113928   1.830   1.730   1.203  0.2499 -0.4244 -0.6540
 1083SOL    HW213929   1.767   1.632   1.089 -2.9579  1.0111 -0.1664
 1084SOL     OW13930   4.232   7.062   3.903 -0.3105  0.2015 -0.0027
 1084SOL    HW113931   4.234   7.019   3.813  0.1700 -0.2472  0.2203
 1084SOL    HW213932   4.261   7.158   3.895 -0.1161  0.1160 -0.3023
 1085SOL     OW13933   4.063   2.183   2.113  0.2323  0.2543  0.8431
 1085SOL    HW113934   4.027   2.210   2.202  1.3676  1.4851  0.9538
 1085SOL    HW213935   4.139   2.120   2.125  1.0948  1.2824  0.7895
 1086SOL     OW13936   9.576   3.922   1.177  0.1222 -0.5295 -0.3220
 1086SOL    HW113937   9.503   3.986   1.201  1.2455  0.7213 -0.1685
 1086SOL    HW213938   9.628   3.899   1.258 -0.8220 -2.3689 -0.2137
 1087SOL     OW13939   0.409   8.741   3.533  0.0605  0.0426 -0.0738
 1087SOL    HW113940   0.405   8.682   3.453  0.6512 -0.1281  0.0224
 1087SOL    HW213941   0.410   8.685   3.616 -0.2327  0.2104  0.0481
 1088SOL     OW13942   0.908   0.856   2.390  0.0941 -0.1669  0.2784
 1088SOL    HW113943   0.972   0.857   2.313  2.0944 -0.5056  1.8759
 1088SOL    HW213944   0.950   0.807   2.466 -2.7254 -1.7092  0.8687
 1089SOL     OW13945   2.585   1.201   1.123  0.0597  0.4068  0.5001
 1089SOL    HW113946   2.583   1.298   1.100  0.0428  0.1841 -0.5059
 1089SOL    HW213947   2.646   1.185   1.200 -1.3773  1.4473  1.8783
 1090SOL     OW13948   8.668   1.845   1.753  0.2802 -0.5962 -0.4902
 1090SOL    HW113949   8.584   1.900   1.755  0.3032 -0.5312 -1.1812
 1090SOL    HW213950   8.744   1.902   1.721  0.2682 -1.0723 -1.3864
 1091SOL     OW13951   8.894   2.251   0.795 -0.4332  0.1584 -0.3988
 1091SOL    HW113952   8.949   2.314   0.741  1.8101  0.2241  1.8971
 1091SOL    HW213953   8.888   2.283   0.889 -2.3113 -1.1966 -0.0139
 1092SOL     OW13954   1.952   0.217   2.194 -0.5973 -0.3273  0.4207
 1092SOL    HW113955   1.941   0.133   2.140 -2.9775  0.3465 -0.1757
 1092SOL    HW213956   1.921   0.295   2.140  0.6227  0.8237  1.3759
 1093SOL     OW13957   4.250   7.457   4.023  0.2156  0.1013 -0.2190
 1093SOL    HW113958   4.186   7.532   4.041  0.5902  0.3820 -0.0587
 1093SOL    HW213959   4.243   7.389   4.096  1.0132  0.7525  0.4718
 1094SOL     OW13960   4.671   9.363   0.999  0.0454  0.2410 -0.6264
 1094SOL    HW113961   4.756   9.395   1.041  1.3941 -2.4454 -1.2540
 1094SOL    HW213962   4.680   9.363   0.900 -0.8912  0.4292 -0.7230
 1095SOL     OW13963   8.245   7.947   2.918  0.3022  0.0299  0.0369
 1095SOL    HW113964   8.206   8.025   2.966  0.8746  0.0537  0.4618
 1095SOL    HW213965   8.238   7.962   2.819 -0.3389  0.2438  0.1145
 1096SOL     OW13966   8.763   0.024   1.455  0.0515 -0.8666  0.0783
 1096SOL    HW113967   8.691   0.017   1.525  1.1063 -1.6295  1.1071
 1096SOL    HW213968   8.843  -0.027   1.485  0.8345 -0.4664 -1.3114
 1097SOL     OW13969   6.190   0.254   2.165 -0.6577 -0.2083 -0.3982
 1097SOL    HW113970   6.200   0.236   2.263 -0.6795 -0.4860 -0.4482
 1097SOL    HW213971   6.280   0.264   2.123 -0.6610  0.6860 -0.2040
 1098SOL     OW13972   9.957   2.506   0.788  0.5400  0.5543  0.1418
 1098SOL    HW113973   9.994   2.469   0.702 -0.3649  0.4166 -0.1992
 1098SOL    HW213974  10.019   2.484   0.863  0.3061 -1.1961 -0.1431
 1099SOL     OW13975   3.871   9.783   1.279 -0.7218 -0.4175  0.0811
 1099SOL    HW113976   3.849   9.844   1.203  0.1701  0.1985  0.2939
 1099SOL    HW213977   3.850   9.689   1.254  1.1017 -0.4206 -1.5594
 1100SOL     OW13978   0.307   3.195   2.823 -0.2283  0.5081  0.1816
 1100SOL    HW113979   0.370   3.242   2.761 -1.5067 -1.1889 -2.4691
 1100SOL    HW213980   0.242   3.262   2.861  0.1142  1.4588 -0.8709
 1101SOL     OW13981   1.106   4.876   3.144 -0.0661  0.1554  0.5388
 1101SOL    HW113982   1.010   4.859   3.121 -0.1122  0.8967  0.1891
 1101SOL    HW213983   1.153   4.919   3.067  0.5407 -0.1685  0.7219
 1102SOL     OW13984   7.217   6.467   2.755  0.0651 -0.1741 -0.1366
 1102SOL    HW113985   7.244   6.562   2.765 -0.1333 -0.2858  1.6425
 1102SOL    HW213986   7.295   6.413   2.724  0.6647  0.2657  0.5884
 1103SOL     OW13987   4.926   1.028   2.341 -0.3868  0.1727 -0.2798
 1103SOL    HW113988   4.894   0.978   2.421 -0.8247  3.0476  1.4176
 1103SOL    HW213989   5.025   1.044   2.349 -0.5269  0.9336 -0.0217
 1104SOL     OW13990   2.812   2.180   3.905 -0.2988 -0.4620 -1.0358
 1104SOL    HW113991   2.813   2.274   3.938 -0.6843 -0.7782 -0.0977
 1104SOL    HW213992   2.727   2.164   3.854 -0.0990 -0.2152 -1.4424
 1105SOL     OW13993   8.879   9.616   2.113  0.3814 -0.2208 -0.5903
 1105SOL    HW113994   8.917   9.524   2.101  1.3616  0.0363  0.5248
 1105SOL    HW213995   8.810   9.632   2.042  0.6284 -1.5862 -1.1657
 1106SOL     OW13996   1.197   6.276   0.070 -0.3510  0.6843  0.4899
 1106SOL    HW113997   1.246   6.215   0.008  0.2949  0.3356  1.3339
 1106SOL    HW213998   1.110   6.303   0.028  0.4193  1.0764 -0.8899
 1107SOL     OW13999   9.468   2.487   2.604  0.7874 -0.4136  0.0145
 1107SOL    HW114000   9.421   2.571   2.576  1.7561  0.2898  0.4947
 1107SOL    HW214001   9.401   2.412   2.609 -0.1314  0.3850 -0.1394
 1108SOL     OW14002   0.805   3.852   3.939  0.4687  0.3604 -0.3315
 1108SOL    HW114003   0.844   3.943   3.948  0.0398  0.5341 -0.2158
 1108SOL    HW214004   0.717   3.858   3.893 -0.7270  0.3008  1.8990
 1109SOL     OW14005   7.513   7.887   1.999 -0.1486  0.1966  0.4399
 1109SOL    HW114006   7.505   7.944   1.917  0.7481 -1.1681 -0.5987
 1109SOL    HW214007   7.586   7.821   1.987 -0.5370 -0.5428  2.0392
 1110SOL     OW14008   1.828   5.914   0.531 -0.0649  0.0006  0.3335
 1110SOL    HW114009   1.922   5.882   0.534  0.2903  1.1037  0.7719
 1110SOL    HW214010   1.794   5.929   0.624 -0.1720  1.0883  0.1212
 1111SOL     OW14011   0.953   5.404   1.922 -0.2031  0.2552  0.4313
 1111SOL    HW114012   1.011   5.421   2.002 -2.0581  0.9214  1.6694
 1111SOL    HW214013   0.861   5.381   1.953 -0.8872  0.3307 -1.5355
 1112SOL     OW14014   2.066   5.485   0.978 -0.5421  0.3223 -0.4920
 1112SOL    HW114015   1.974   5.524   0.971 -0.7719 -0.1243 -0.0390
 1112SOL    HW214016   2.065   5.392   0.942  0.3880  1.3072 -3.1537
 1113SOL     OW14017   4.810   7.093   2.077  0.1184 -0.4317 -0.1076
 1113SOL    HW114018   4.866   7.122   1.999  0.5034 -0.7250  0.0525
 1113SOL    HW214019   4.857   7.117   2.162 -1.5655  2.3337  0.0749
 1114SOL     OW14020   7.493   9.792   1.192 -0.2511  0.0809  0.2863
 1114SOL    HW114021   7.540   9.831   1.271 -0.1512 -2.1408  1.3698
 1114SOL    HW214022   7.552   9.726   1.146 -0.9872 -0.0365 -0.5126
 1115SOL     OW14023   5.803   1.286   2.929 -0.5869 -0.4778  0.0475
 1115SOL    HW114024   5.875   1.297   2.998 -0.5372 -0.5114  0.0007
 1115SOL    HW214025   5.718   1.260   2.974 -0.5258 -0.6159  0.0844
 1116SOL     OW14026   8.868   7.642   1.941  0.3291  0.0829  0.1355
 1116SOL    HW114027   8.852   7.555   1.988  1.2862 -0.4665 -0.5457
 1116SOL    HW214028   8.947   7.633   1.880  0.3462  1.3871 -0.0451
 1117SOL     OW14029   2.618   0.368   3.315  0.0252 -0.1299  0.4376
 1117SOL    HW114030   2.705   0.417   3.309 -0.5028  0.8994  1.0253
 1117SOL    HW214031   2.590   0.360   3.410 -1.1384  0.6609  0.1766
 1118SOL     OW14032   1.782   6.187   0.367 -0.7698 -0.6075 -0.1580
 1118SOL    HW114033   1.734   6.137   0.295 -0.8247 -0.9515  0.1132
 1118SOL    HW214034   1.779   6.134   0.452  0.0716 -0.6263 -0.1299
 1119SOL     OW14035   0.782   8.268   1.598  0.3988 -0.7100  0.7566
 1119SOL    HW114036   0.711   8.293   1.532 -0.2866 -0.3021  1.6347
 1119SOL    HW214037   0.849   8.342   1.604  1.3416 -1.4496 -0.6769
 1120SOL     OW14038   5.608   9.303   2.607 -0.0008  0.1152 -0.1930
 1120SOL    HW114039   5.590   9.281   2.511  1.7097 -0.8744 -0.3089
 1120SOL    HW214040   5.562   9.236   2.666  0.6155 -0.4954 -0.3942
 1121SOL     OW14041   1.051   9.648   3.912  0.0492  0.8941 -0.0887
 1121SOL    HW114042   0.978   9.709   3.945 -0.6014  0.7290 -1.2088
 1121SOL    HW214043   1.128   9.703   3.879 -0.0776  1.0813 -0.0739
 1122SOL     OW14044   2.874   8.269   2.319 -0.6266 -0.4715  0.2086
 1122SOL    HW114045   2.841   8.295   2.410 -1.0715 -0.4832  0.0543
 1122SOL    HW214046   2.864   8.170   2.308 -1.4289 -0.3550 -0.1855
 1123SOL     OW14047   1.061   0.484   3.857  0.1197 -0.8856  0.2405
 1123SOL    HW114048   1.126   0.420   3.899  0.7015  1.2460  2.7211
 1123SOL    HW214049   1.109   0.569   3.834 -1.3052 -0.1379 -0.0059
 1124SOL     OW14050   3.529   7.798   0.801 -0.5370 -0.2592  0.0550
 1124SOL    HW114051   3.608   7.740   0.780 -1.3482 -1.1831 -0.4642
 1124SOL    HW214052   3.467   7.749   0.862 -0.9841  0.2614  0.0186
 1125SOL     OW14053   7.610   0.426   3.102  0.7799 -0.4260 -0.4887
 1125SOL    HW114054   7.651   0.376   3.178 -1.3059 -2.3658 -0.6007
 1125SOL    HW214055   7.593   0.363   3.026 -1.6783  0.5067 -0.7421
 1126SOL     OW14056   1.546   2.889   4.477 -0.5956 -0.4428  0.3118
 1126SOL    HW114057   1.533   2.831   4.558 -0.6799 -0.7319  0.0921
 1126SOL    HW214058   1.477   2.865   4.408 -0.9305  0.2366  0.4014
 1127SOL     OW14059   7.038   0.613   1.936  0.0679  0.0018  0.4620
 1127SOL    HW114060   6.999   0.666   2.012 -0.9252 -3.5827  2.5462
 1127SOL    HW214061   7.122   0.569   1.966 -0.3870 -1.5282 -0.4824
 1128SOL     OW14062   2.341   1.634   3.608 -0.3002  0.5540  0.5597
 1128SOL    HW114063   2.323   1.652   3.705  0.1402  0.2431  0.7008
 1128SOL    HW214064   2.427   1.677   3.581 -0.0039 -0.0475  0.5211
 1129SOL     OW14065   9.725   8.952   2.105  0.3095 -0.5456  0.0605
 1129SOL    HW114066   9.757   8.974   2.197 -0.0723  0.3721 -0.0246
 1129SOL    HW214067   9.672   8.867   2.107  3.8862 -2.8808 -0.0205
 1130SOL     OW14068   2.051   2.889   1.921 -0.3141 -0.7583  0.0997
 1130SOL    HW114069   2.133   2.915   1.972  0.0390 -1.6720  0.0043
 1130SOL    HW214070   1.977   2.870   1.986 -0.8932  1.4718  0.1411
 1131SOL     OW14071   3.297   5.209   3.361  0.8081 -0.0681  0.2406
 1131SOL    HW114072   3.332   5.243   3.273 -1.2263  2.1086  0.2075
 1131SOL    HW214073   3.235   5.277   3.401 -0.1225 -2.0124  2.2571
 1132SOL     OW14074   6.823   0.200   0.030 -0.3410 -0.1654  0.1971
 1132SOL    HW114075   6.823   0.131  -0.043  0.9600  1.1688 -1.0890
 1132SOL    HW214076   6.786   0.286  -0.005  0.6469  0.5945  0.9990
 1133SOL     OW14077   4.081   4.595   1.565 -0.6085  0.1874  0.2940
 1133SOL    HW114078   4.068   4.502   1.530  1.8170 -0.7633  1.7874
 1133SOL    HW214079   4.175   4.624   1.548 -1.6094  2.8226 -1.0804
 1134SOL     OW14080   2.204   3.572   3.143 -0.2042  1.0340 -0.3923
 1134SOL    HW114081   2.141   3.495   3.130 -1.1191  1.4087  1.6898
 1134SOL    HW214082   2.274   3.547   3.210 -0.6250  2.0772  0.4401
 1135SOL     OW14083   8.208   0.234   3.429 -0.1219 -0.2154 -0.9984
 1135SOL    HW114084   8.143   0.226   3.505 -0.8313 -0.0829 -1.5921
 1135SOL    HW214085   8.301   0.221   3.464 -0.4062  0.2915 -0.0224
 1136SOL     OW14086   8.370   8.863   3.495  0.3800 -0.1303  0.4350
 1136SOL    HW114087   8.429   8.870   3.415 -0.4676  1.3200 -0.0828
 1136SOL    HW214088   8.410   8.800   3.562  1.8670 -0.1224 -0.4487
 1137SOL     OW14089   1.250   3.083   1.377  0.0770  0.0852  0.7420
 1137SOL    HW114090   1.255   3.078   1.477 -0.2108  0.7814  0.7930
 1137SOL    HW214091   1.341   3.069   1.338  0.1099 -0.6427  1.0835
 1138SOL     OW14092   9.236   1.405   3.872  0.3173  0.1674 -0.4707
 1138SOL    HW114093   9.268   1.497   3.849 -1.4472  0.9836  0.2178
 1138SOL    HW214094   9.170   1.375   3.804 -1.3743  0.6648  0.9130
 1139SOL     OW14095   3.534   4.655   0.828 -0.0718  0.2597 -0.3831
 1139SOL    HW114096   3.461   4.698   0.776 -0.9175 -0.8289 -0.1186
 1139SOL    HW214097   3.560   4.714   0.905 -1.8905 -0.1284  0.5507
 1140SOL     OW14098   0.896   2.942   1.674  0.0153  0.0663 -0.1117
 1140SOL    HW114099   0.906   2.853   1.718 -0.4112  0.1941  0.2394
 1140SOL    HW214100   0.827   2.936   1.602  1.5846 -0.4602 -1.6135
 1141SOL     OW14101   0.202   9.500   2.101  0.1017 -0.4938  0.0965
 1141SOL    HW114102   0.119   9.517   2.047  0.0742  0.3479  0.3831
 1141SOL    HW214103   0.184   9.428   2.168 -0.8570  0.6905  1.1368
 1142SOL     OW14104   6.975   0.351   1.689  0.3970  0.3679 -0.1909
 1142SOL    HW114105   6.934   0.377   1.776  0.4696  1.2944 -0.4252
 1142SOL    HW214106   7.041   0.421   1.661 -0.1162  0.4105 -1.3129
 1143SOL     OW14107   3.964   3.340   2.782  0.1070  0.1873 -0.6484
 1143SOL    HW114108   3.924   3.249   2.772 -0.9627  0.5506  0.1963
 1143SOL    HW214109   3.891   3.409   2.777  1.0182  1.0757 -2.3140
 1144SOL     OW14110   0.884   9.127   2.224 -0.4234  0.2573  0.3414
 1144SOL    HW114111   0.967   9.122   2.281 -1.3335  2.7198  1.9749
 1144SOL    HW214112   0.811   9.076   2.268 -0.2551 -0.5278 -0.2726
 1145SOL     OW14113   9.985   4.399   3.670  0.3097 -0.2035  0.1452
 1145SOL    HW114114   9.960   4.491   3.638  0.3140 -0.6707 -1.2337
 1145SOL    HW214115  10.017   4.404   3.764  0.1887  1.1972  0.1213
 1146SOL     OW14116   0.605   2.111   2.557  0.1812  0.2438  0.0729
 1146SOL    HW114117   0.599   2.053   2.476 -1.1888 -0.8402  0.9231
 1146SOL    HW214118   0.585   2.206   2.531  0.7874  0.0706 -1.0368
 1147SOL     OW14119   9.351   8.987   3.190 -0.1164  0.0666 -0.5519
 1147SOL    HW114120   9.356   8.897   3.147  0.6952 -0.5233  0.7750
 1147SOL    HW214121   9.439   9.008   3.233 -0.8586  0.7528  0.6373
 1148SOL     OW14122   0.975   9.966   4.012 -0.0191 -0.0552 -0.4083
 1148SOL    HW114123   1.072   9.989   4.019  0.2392 -1.0731 -0.4436
 1148SOL    HW214124   0.928   9.993   4.096  0.5939 -0.8746  0.2129
 1149SOL     OW14125   3.129   2.160   0.707 -0.1085 -0.0148  0.5049
 1149SOL    HW114126   3.169   2.245   0.674 -0.4485  0.3833  1.1043
 1149SOL    HW214127   3.161   2.143   0.801 -0.0330 -0.5492  0.3817
 1150SOL     OW14128   2.423   8.014   1.219  0.2084 -0.0736 -0.4306
 1150SOL    HW114129   2.496   7.947   1.236 -0.6219 -1.3583 -1.7497
 1150SOL    HW214130   2.396   8.056   1.305  1.6572 -0.4766  0.2456
 1151SOL     OW14131   8.300   8.035   2.431 -0.0836 -0.2458  0.4869
 1151SOL    HW114132   8.259   8.125   2.416  1.5912  0.5592  0.5360
 1151SOL    HW214133   8.308   7.987   2.344 -1.1543 -0.4226  0.4856
 1152SOL     OW14134   2.391   2.025   0.646 -0.0634 -0.1210  0.1583
 1152SOL    HW114135   2.385   2.079   0.730  0.9931 -0.9172  0.7547
 1152SOL    HW214136   2.391   1.927   0.670 -1.9444 -0.4021 -0.8984
 1153SOL     OW14137   1.085   4.830   4.726  0.1354  0.4174 -0.2908
 1153SOL    HW114138   1.061   4.759   4.792  0.8685 -0.0270 -0.4993
 1153SOL    HW214139   1.027   4.911   4.741 -0.7468 -0.2460 -0.1048
 1154SOL     OW14140   9.401   0.805   1.485 -0.0604 -0.1138 -0.0780
 1154SOL    HW114141   9.453   0.750   1.420 -0.0456 -0.3541  0.1357
 1154SOL    HW214142   9.380   0.894   1.445 -0.0708 -0.2705 -0.4176
 1155SOL     OW14143   0.693   5.137   3.040  0.0535 -0.1762  0.1552
 1155SOL    HW114144   0.698   5.068   3.112  0.7789  0.1880  0.4677
 1155SOL    HW214145   0.609   5.126   2.988 -0.0373 -1.0167  0.4817
 1156SOL     OW14146   3.495   5.246   3.582 -0.3021 -0.0456  0.3860
 1156SOL    HW114147   3.462   5.166   3.633 -0.5823  0.5787  1.1938
 1156SOL    HW214148   3.452   5.247   3.492  0.6194 -1.4638 -0.0997
 1157SOL     OW14149   3.514   7.955   2.860 -0.4499  0.4612 -0.4160
 1157SOL    HW114150   3.541   8.042   2.901  2.0524 -1.1490  1.5063
 1157SOL    HW214151   3.552   7.948   2.768 -0.6171  1.3459 -0.5592
 1158SOL     OW14152   2.339   0.627   0.563 -0.1035  0.2529 -0.2942
 1158SOL    HW114153   2.292   0.539   0.553  0.9704 -0.2233 -1.4075
 1158SOL    HW214154   2.438   0.611   0.557  0.0378  1.7710 -2.4630
 1159SOL     OW14155   8.529   3.874   4.634  0.1262 -0.5079 -0.2456
 1159SOL    HW114156   8.563   3.918   4.550  0.5187 -0.7672 -0.2240
 1159SOL    HW214157   8.590   3.896   4.710 -1.2527  1.2761  0.3898
 1160SOL     OW14158   0.212   8.600   3.070  0.4511  0.3810  0.0739
 1160SOL    HW114159   0.163   8.561   3.147  0.5408 -0.4998 -0.3046
 1160SOL    HW214160   0.214   8.534   2.995 -0.3507  1.5451 -0.9812
 1161SOL     OW14161   0.156   0.555   3.238  0.3649 -0.2599 -0.0876
 1161SOL    HW114162   0.091   0.574   3.165 -0.0375  1.6100  0.7168
 1161SOL    HW214163   0.233   0.504   3.201 -0.9286 -1.3560 -1.3251
 1162SOL     OW14164   8.711   3.024   3.116 -0.0172 -0.0176  0.1462
 1162SOL    HW114165   8.690   2.936   3.159 -1.0724 -0.4874 -1.2903
 1162SOL    HW214166   8.665   3.097   3.167  0.8653 -0.2817  1.3489
 1163SOL     OW14167   2.242   3.817   3.046  0.0200  0.1488 -0.3509
 1163SOL    HW114168   2.256   3.863   3.133  0.4364 -0.3937 -0.1289
 1163SOL    HW214169   2.223   3.720   3.062 -0.8478  0.2356 -0.8135
 1164SOL     OW14170   2.687   6.164   3.766 -0.6386  0.4600 -0.3911
 1164SOL    HW114171   2.742   6.151   3.683 -0.2659  1.2241 -0.2635
 1164SOL    HW214172   2.595   6.194   3.742 -1.0577 -0.9289 -0.6128
 1165SOL     OW14173   9.533   5.770   2.612  0.1314  0.8439 -0.2051
 1165SOL    HW114174   9.465   5.766   2.539 -0.6419 -0.4297  0.5605
 1165SOL    HW214175   9.535   5.682   2.661  1.0355  1.4802  0.9407
 1166SOL     OW14176   5.901   0.554   2.377 -0.2823 -0.1390  0.3140
 1166SOL    HW114177   5.881   0.544   2.279  3.8427 -0.1492 -0.5836
 1166SOL    HW214178   5.952   0.638   2.392 -0.4176 -0.4167  2.4270
 1167SOL     OW14179   3.115   7.377   1.309 -0.2195 -0.0456  0.5380
 1167SOL    HW114180   3.165   7.460   1.332  1.6362 -1.0444  0.1866
 1167SOL    HW214181   3.150   7.338   1.224 -2.5849  0.0079 -0.5227
 1168SOL     OW14182   3.493   9.641   1.196 -0.0240 -0.1125  0.1350
 1168SOL    HW114183   3.441   9.630   1.281 -0.0054 -0.1781  0.1386
 1168SOL    HW214184   3.532   9.552   1.171  2.3101  0.4663  1.5673
 1169SOL     OW14185   3.127   8.722   1.502  0.0436 -0.1031  0.2268
 1169SOL    HW114186   3.143   8.803   1.558  0.2520 -0.4070  0.6180
 1169SOL    HW214187   3.064   8.743   1.427  1.0929  0.7399 -0.4250
 1170SOL     OW14188   2.937   2.756   3.893  0.0978  0.2554  0.1871
 1170SOL    HW114189   2.955   2.772   3.796 -2.1433  0.4377 -0.2347
 1170SOL    HW214190   2.923   2.843   3.939 -1.0663  0.0840  0.1844
 1171SOL     OW14191   9.861   3.767   0.571 -0.4774  0.1888  0.0711
 1171SOL    HW114192   9.904   3.678   0.584 -0.5955  0.1370  0.0987
 1171SOL    HW214193   9.884   3.826   0.649 -1.8418 -0.3739  0.9001
 1172SOL     OW14194   7.630   6.384   2.406  0.1695  0.1020 -0.3492
 1172SOL    HW114195   7.582   6.344   2.327  1.0407  0.0934 -0.8768
 1172SOL    HW214196   7.647   6.480   2.389  2.7451 -0.5047 -1.3348
 1173SOL     OW14197   9.101   4.442   0.676  0.0328  0.5636  0.5447
 1173SOL    HW114198   9.019   4.387   0.694 -1.4072  2.0675 -1.2348
 1173SOL    HW214199   9.130   4.486   0.762 -1.8651  1.1174  0.9344
 1174SOL     OW14200   0.526   0.730   3.438  0.0304 -0.0182 -0.4476
 1174SOL    HW114201   0.478   0.751   3.353 -1.5446  0.2109  0.4792
 1174SOL    HW214202   0.571   0.812   3.472  0.9482 -0.1937 -1.2441
 1175SOL     OW14203   1.474   3.511   0.047 -0.3378 -0.2929 -0.1492
 1175SOL    HW114204   1.398   3.559   0.004 -0.7433 -0.0134  0.8728
 1175SOL    HW214205   1.537   3.577   0.088  0.5348 -0.5130 -1.1067
 1176SOL     OW14206   2.469   7.902   0.292 -0.6022 -0.5387 -0.0982
 1176SOL    HW114207   2.481   7.988   0.342 -1.2088 -0.9617  0.7962
 1176SOL    HW214208   2.371   7.881   0.286 -0.4841 -0.8870 -0.7823
 1177SOL     OW14209   0.664   7.054   3.791 -0.2760 -0.1679 -0.1087
 1177SOL    HW114210   0.705   7.050   3.882 -0.7087 -2.0590  0.0303
 1177SOL    HW214211   0.723   7.007   3.725  0.5616  2.1206 -1.0389
 1178SOL     OW14212   0.951   5.963   2.717  0.0155 -0.0804 -0.3071
 1178SOL    HW114213   0.934   5.882   2.774 -0.0506 -0.1989 -0.4969
 1178SOL    HW214214   0.949   6.044   2.775  1.8724 -0.3677  0.1917
 1179SOL     OW14215   2.225   1.189   2.599 -0.0641  0.0583  0.1953
 1179SOL    HW114216   2.277   1.208   2.682  0.7466 -0.1937 -0.2540
 1179SOL    HW214217   2.189   1.096   2.601  0.9242 -0.3311 -0.2557
 1180SOL     OW14218   2.246   4.678   1.749 -0.4333 -0.4803  0.6361
 1180SOL    HW114219   2.340   4.648   1.764 -0.4141 -0.6845  0.1026
 1180SOL    HW214220   2.204   4.625   1.676 -0.8686 -0.1893  0.6663
 1181SOL     OW14221   8.280   7.716   2.168  0.2511  0.4996 -0.1902
 1181SOL    HW114222   8.274   7.815   2.153  0.3586  0.4142 -0.7944
 1181SOL    HW214223   8.343   7.676   2.101 -1.6091 -0.3178 -1.4666
 1182SOL     OW14224   4.814   2.583   2.353 -0.0093  0.4496 -0.3348
 1182SOL    HW114225   4.872   2.661   2.332  0.9490 -0.2787 -0.4322
 1182SOL    HW214226   4.760   2.558   2.273  1.0618 -0.1429 -0.8881
 1183SOL     OW14227   0.986   8.936   0.080 -0.0025  0.1647  0.3292
 1183SOL    HW114228   0.964   8.916  -0.015  0.7856  0.2527  0.1242
 1183SOL    HW214229   0.945   8.866   0.139  1.2138 -1.0566 -0.2370
 1184SOL     OW14230   0.013   9.578   1.630 -0.2125  0.0508  0.1701
 1184SOL    HW114231  -0.020   9.517   1.703 -1.5102  0.0295 -0.4097
 1184SOL    HW214232   0.072   9.526   1.568 -1.4808 -0.7000 -0.4385
 1185SOL     OW14233   2.656   2.209   2.885  0.6701 -0.2207 -0.1182
 1185SOL    HW114234   2.671   2.187   2.981 -2.8655  1.3078  0.8592
 1185SOL    HW214235   2.637   2.125   2.834 -2.1668 -0.6273  1.4953
 1186SOL     OW14236   1.504   4.202   2.717 -0.4454 -0.2365 -0.6952
 1186SOL    HW114237   1.568   4.246   2.654  1.7928 -2.3564  0.0180
 1186SOL    HW214238   1.477   4.113   2.680 -0.4203 -0.7748  0.5547
 1187SOL     OW14239   2.269   5.865   0.380  0.2265  0.2821 -0.6648
 1187SOL    HW114240   2.267   5.786   0.319 -1.5177  1.5972 -2.3619
 1187SOL    HW214241   2.359   5.909   0.374  0.8839 -1.0004 -0.4235
 1188SOL     OW14242   0.216   5.840   0.149  0.3247  0.4060  0.1152
 1188SOL    HW114243   0.253   5.889   0.228 -1.7746  2.3924 -0.0700
 1188SOL    HW214244   0.126   5.804   0.172  0.8196 -1.2963 -0.5510
 1189SOL     OW14245   9.506   2.202   0.915  0.5487 -0.2779  0.3842
 1189SOL    HW114246   9.559   2.117   0.916 -0.5933 -0.9914  1.7247
 1189SOL    HW214247   9.456   2.208   0.828  0.9755 -0.7482  0.0965
 1190SOL     OW14248   3.255   1.509   2.103  0.0609 -0.1656 -0.4606
 1190SOL    HW114249   3.218   1.446   2.035 -1.2199 -0.1689  0.2230
 1190SOL    HW214250   3.200   1.593   2.104 -0.3714 -0.4491  1.0552
 1191SOL     OW14251   9.076   0.417   3.817  0.3924 -0.0582 -0.0696
 1191SOL    HW114252   9.125   0.331   3.802 -0.3855 -0.1512 -2.1228
 1191SOL    HW214253   9.098   0.482   3.745 -2.0428  0.0971 -0.7214
 1192SOL     OW14254   4.382   4.241   1.514 -0.0240 -0.5206  0.6819
 1192SOL    HW114255   4.298   4.245   1.459  0.3676 -0.3666  0.0866
 1192SOL    HW214256   4.359   4.228   1.610 -0.7627  0.5561  0.6530
 1193SOL     OW14257   8.185   3.150   1.465  0.3385 -0.4111  0.4107
 1193SOL    HW114258   8.096   3.139   1.421  1.2306 -0.2422 -1.5076
 1193SOL    HW214259   8.178   3.123   1.561 -1.8748  0.0347  0.4147
 1194SOL     OW14260   6.769   8.094   1.628  0.3572  0.8418  0.7177
 1194SOL    HW114261   6.741   8.107   1.723  1.0863  0.2896  1.0176
 1194SOL    HW214262   6.841   8.024   1.624 -0.2415  0.2778 -0.3311
 1195SOL     OW14263   0.359   0.823   1.624 -0.4102 -0.2998  0.1854
 1195SOL    HW114264   0.410   0.819   1.710  0.5615  1.3126 -0.2995
 1195SOL    HW214265   0.302   0.741   1.615 -0.7035 -0.3747  2.4800
 1196SOL     OW14266   0.191   4.259   1.416 -0.0087 -0.3249 -0.6516
 1196SOL    HW114267   0.239   4.239   1.501 -1.7618  0.9854  0.6826
 1196SOL    HW214268   0.154   4.174   1.378  0.4327 -0.8553  0.1030
 1197SOL     OW14269   8.992   2.423   1.871 -0.1430  0.2926  0.3496
 1197SOL    HW114270   8.987   2.364   1.790 -1.7248 -0.0619  0.6852
 1197SOL    HW214271   8.969   2.517   1.845 -0.4028  0.2249  0.3293
 1198SOL     OW14272   4.437   0.422   4.744 -0.3073 -0.4578 -0.8650
 1198SOL    HW114273   4.349   0.380   4.766 -0.6474  0.2854 -0.7849
 1198SOL    HW214274   4.427   0.521   4.745  1.1850 -0.2939  1.7980
 1199SOL     OW14275   4.644   8.280   1.088 -0.1260  0.4712  0.5901
 1199SOL    HW114276   4.612   8.267   1.182  0.0119 -0.9311  0.4596
 1199SOL    HW214277   4.585   8.228   1.026 -0.1820  1.3481 -0.0896
 1200SOL     OW14278   3.601   1.734   4.581 -0.4019 -0.0612 -0.4084
 1200SOL    HW114279   3.636   1.724   4.487  1.6253  2.4035  0.0240
 1200SOL    HW214280   3.525   1.798   4.582 -1.3010 -1.1049 -0.5265
 1201SOL     OW14281   0.763   2.174   2.803  0.4056  0.5970  0.2897
 1201SOL    HW114282   0.824   2.128   2.739 -1.8280 -1.0145 -0.7227
 1201SOL    HW214283   0.801   2.170   2.895  2.4567  0.8056 -0.5262
 1202SOL     OW14284   1.246   3.418   0.370  0.0205 -0.4263  0.6719
 1202SOL    HW114285   1.331   3.431   0.421 -0.0056  2.1971  0.0757
 1202SOL    HW214286   1.263   3.352   0.296  1.2419 -0.7238  1.1900
 1203SOL     OW14287   0.965   1.696   1.438  0.1227 -0.2863  0.4203
 1203SOL    HW114288   1.039   1.723   1.499  0.4348 -3.3838  1.4850
 1203SOL    HW214289   0.903   1.633   1.485 -2.8652  1.7347 -0.6594
 1204SOL     OW14290   8.508   8.140   2.081 -0.4343 -0.5056 -0.7629
 1204SOL    HW114291   8.564   8.059   2.098  1.1335  0.8387  0.6975
 1204SOL    HW214292   8.545   8.190   2.003  0.0126  0.0225 -0.2198
 1205SOL     OW14293   0.847   3.967   0.572 -0.3779  0.3609 -0.3532
 1205SOL    HW114294   0.811   4.036   0.509  0.5333  1.1383 -0.0326
 1205SOL    HW214295   0.771   3.913   0.609 -0.8763 -0.3908 -2.4426
 1206SOL     OW14296   1.924   8.327   2.547 -0.3397  0.0446  0.0126
 1206SOL    HW114297   1.858   8.323   2.622  0.8199  2.0139  1.2044
 1206SOL    HW214298   1.965   8.418   2.544  2.3915 -1.1388 -0.6191
 1207SOL     OW14299   1.367   2.167   3.173 -0.3870 -0.2903  0.1638
 1207SOL    HW114300   1.456   2.185   3.129 -0.5332 -0.5239 -0.2325
 1207SOL    HW214301   1.328   2.083   3.135 -0.6216 -0.3676  0.5820
 1208SOL     OW14302   5.919   8.283   1.616  0.3057  0.6184 -0.7285
 1208SOL    HW114303   5.822   8.307   1.628  0.1272  1.1042 -2.9731
 1208SOL    HW214304   5.976   8.357   1.651 -0.1347  0.5785  0.0912
 1209SOL     OW14305   7.521   0.392   1.307  0.0284 -0.1187  0.0936
 1209SOL    HW114306   7.426   0.404   1.337 -0.0947 -0.6558 -0.0835
 1209SOL    HW214307   7.564   0.320   1.361  0.7304  1.0093  1.0611
 1210SOL     OW14308   2.368   7.095   2.274  0.1207  0.3394 -0.1312
 1210SOL    HW114309   2.403   7.006   2.303 -1.5079  0.6282  2.8703
 1210SOL    HW214310   2.440   7.164   2.282  0.0111  0.2036  2.2635
 1211SOL     OW14311   2.424   6.242   2.171 -0.3513 -0.1584 -0.5308
 1211SOL    HW114312   2.517   6.230   2.137 -0.0680  2.0566 -0.6007
 1211SOL    HW214313   2.416   6.202   2.263  0.4696 -0.9748 -0.8117
 1212SOL     OW14314   4.471   9.636   0.738 -0.2441 -0.1654  0.2406
 1212SOL    HW114315   4.525   9.626   0.654 -1.1548  2.6484 -0.7330
 1212SOL    HW214316   4.403   9.563   0.743  0.3913 -0.8533 -1.0250
 1213SOL     OW14317   3.049   2.593   2.170  0.2635 -0.1996 -0.3577
 1213SOL    HW114318   3.021   2.628   2.081  0.7062  2.9225  0.6834
 1213SOL    HW214319   3.083   2.499   2.159 -1.2172 -0.4776 -3.1781
 1214SOL     OW14320   9.806   2.010   4.487 -0.4641 -0.2536  0.2183
 1214SOL    HW114321   9.734   2.067   4.448  0.2818 -0.8578 -2.1432
 1214SOL    HW214322   9.806   2.020   4.586 -2.9740  0.7022  0.1629
 1215SOL     OW14323   3.382   8.888   0.594  0.1521 -0.6708 -0.2870
 1215SOL    HW114324   3.376   8.820   0.667  0.3562  0.3054  0.6519
 1215SOL    HW214325   3.293   8.900   0.551 -0.4922  0.3730  1.3037
 1216SOL     OW14326   8.567   7.905   0.253 -0.6997 -0.2596 -0.2207
 1216SOL    HW114327   8.600   7.960   0.176 -0.2173 -1.5532 -0.9669
 1216SOL    HW214328   8.544   7.813   0.220  3.3283 -2.1457  1.8358
 1217SOL     OW14329   8.262   3.937   4.390 -0.1778 -0.0288 -0.2375
 1217SOL    HW114330   8.329   3.880   4.343 -0.1755 -0.5141  0.3435
 1217SOL    HW214331   8.190   3.879   4.428  0.1410  0.2829  0.8763
 1218SOL     OW14332   8.709   4.780   1.667 -0.1680  0.1769 -0.0086
 1218SOL    HW114333   8.681   4.803   1.760  1.2984  0.0323  0.4840
 1218SOL    HW214334   8.632   4.793   1.604 -0.8914  1.1755  1.0757
 1219SOL     OW14335   6.956   9.842   3.411  0.3453 -0.1817 -0.1034
 1219SOL    HW114336   7.009   9.891   3.341 -1.2673 -0.1979 -1.3573
 1219SOL    HW214337   7.011   9.834   3.494  1.3429  2.1050 -0.4909
 1220SOL     OW14338   0.364   6.065   4.157 -0.0891  0.2293  0.5206
 1220SOL    HW114339   0.370   6.133   4.231  2.4431 -0.2675  0.8133
 1220SOL    HW214340   0.435   5.996   4.169 -0.1197 -0.2886 -1.9824
 1221SOL     OW14341   8.981   9.720   4.547 -0.1606  0.4536  0.4581
 1221SOL    HW114342   9.062   9.718   4.489 -0.9445 -0.3791 -0.6171
 1221SOL    HW214343   8.994   9.788   4.619  1.8650 -0.3215  0.8545
 1222SOL     OW14344   1.429   1.126   2.262 -0.0820 -0.1872  0.4161
 1222SOL    HW114345   1.338   1.140   2.301  0.1426  0.1861  0.8131
 1222SOL    HW214346   1.454   1.204   2.206 -0.3796 -0.6996 -0.4338
 1223SOL     OW14347   0.752   8.615   0.917 -0.0150 -0.4345  0.7702
 1223SOL    HW114348   0.770   8.562   0.834 -1.2481  0.1688  0.1016
 1223SOL    HW214349   0.774   8.560   0.997  2.3911 -0.5855  0.0508
 1224SOL     OW14350   6.704   8.474   1.351  0.4828  0.3512 -0.5842
 1224SOL    HW114351   6.777   8.541   1.363 -0.3678  0.9185  1.6525
 1224SOL    HW214352   6.621   8.506   1.397 -0.6010 -1.2022 -1.3996
 1225SOL     OW14353   3.176   5.137   0.497 -0.4644 -0.7276  0.7043
 1225SOL    HW114354   3.154   5.123   0.593 -0.8774 -0.2686  0.6770
 1225SOL    HW214355   3.270   5.108   0.480 -0.2255 -0.3475  1.3528
 1226SOL     OW14356   1.453   2.791   2.541  0.2451 -0.3722  0.5392
 1226SOL    HW114357   1.494   2.715   2.591 -0.2170 -1.0416 -0.1046
 1226SOL    HW214358   1.502   2.806   2.456  0.9360  0.6744  1.0998
 1227SOL     OW14359   1.942   1.865   2.229  0.0247  0.2600 -0.5915
 1227SOL    HW114360   1.960   1.921   2.149 -0.1124  3.4410  1.4969
 1227SOL    HW214361   1.989   1.904   2.308  0.0805 -2.7299  0.9000
 1228SOL     OW14362   7.277   9.486   4.157  0.4669  0.2189  0.4537
 1228SOL    HW114363   7.264   9.424   4.080  0.5564  0.6520  0.0909
 1228SOL    HW214364   7.342   9.445   4.222  2.5047  1.0547 -1.0243
 1229SOL     OW14365   3.765   1.475   1.747 -0.2116 -0.1734 -0.5675
 1229SOL    HW114366   3.809   1.390   1.777 -0.7339 -0.1637  0.2437
 1229SOL    HW214367   3.765   1.479   1.647  0.2023 -0.9241 -0.6045
 1230SOL     OW14368   8.439   6.814   2.766  0.4878  0.0066  0.2366
 1230SOL    HW114369   8.403   6.740   2.709  1.4261 -0.2070 -0.0951
 1230SOL    HW214370   8.531   6.838   2.734  0.4402  0.8812  0.7476
 1231SOL     OW14371   8.179   8.379   1.022  0.2760  0.4129 -0.1236
 1231SOL    HW114372   8.206   8.445   1.092 -1.0860  0.8949 -0.0498
 1231SOL    HW214373   8.247   8.379   0.949  2.8209 -1.5361  2.1108
 1232SOL     OW14374   7.920   1.155   3.450 -0.3739  0.0272 -0.1062
 1232SOL    HW114375   7.935   1.180   3.546 -0.3065 -1.0696  0.1752
 1232SOL    HW214376   8.006   1.165   3.399 -0.2819  0.0902  0.0593
 1233SOL     OW14377   3.236   3.456   4.754  0.4437  0.2557 -0.0529
 1233SOL    HW114378   3.141   3.427   4.740  0.7393  0.5554 -2.8475
 1233SOL    HW214379   3.263   3.521   4.683  3.7739 -2.3544 -1.3168
 1234SOL     OW14380   4.274   9.415   0.848 -0.2436 -0.0626  0.4063
 1234SOL    HW114381   4.313   9.445   0.935  1.4309 -1.4737  0.1793
 1234SOL    HW214382   4.231   9.325   0.860  2.5495 -1.6290 -0.8102
 1235SOL     OW14383   8.745   9.444   1.106  0.9708 -0.1025 -0.7399
 1235SOL    HW114384   8.716   9.351   1.081 -0.4751 -0.6024  2.5310
 1235SOL    HW214385   8.670   9.508   1.089  1.4935  0.2723 -1.6917
 1236SOL     OW14386   6.721   9.465   0.340  0.1346  0.4749 -0.2369
 1236SOL    HW114387   6.649   9.481   0.273 -1.2256  5.0920  2.1608
 1236SOL    HW214388   6.681   9.443   0.429  1.8228 -0.9455  0.2226
 1237SOL     OW14389   1.842   7.932   1.589  0.1337 -0.2011  0.2110
 1237SOL    HW114390   1.836   7.934   1.688  0.2151  2.6612  0.2009
 1237SOL    HW214391   1.778   7.864   1.552 -1.7015  0.4924  2.0831
 1238SOL     OW14392   7.990   6.161   4.094  0.2785  0.3763  0.6313
 1238SOL    HW114393   7.950   6.230   4.033  1.2047  0.4137  0.0483
 1238SOL    HW214394   7.991   6.072   4.048 -1.4566 -0.1579  1.6049
 1239SOL     OW14395   2.413   0.675   3.170 -0.3582 -0.0670  0.3432
 1239SOL    HW114396   2.390   0.714   3.259 -2.0056 -0.1383 -0.0394
 1239SOL    HW214397   2.475   0.737   3.121 -1.2869  1.0639  0.5913
 1240SOL     OW14398   7.441   9.702   4.106 -0.5870 -0.5230 -0.4209
 1240SOL    HW114399   7.387   9.618   4.096  1.4029 -1.7581 -0.9841
 1240SOL    HW214400   7.481   9.705   4.197 -1.3943  0.2626 -0.0941
 1241SOL     OW14401   1.452   7.942   3.059  0.1010 -0.1242  0.5713
 1241SOL    HW114402   1.499   7.978   3.139 -1.4983  0.6682  1.1894
 1241SOL    HW214403   1.518   7.921   2.987  1.3756  0.9917  1.4039
 1242SOL     OW14404   3.710   5.416   2.201  0.1379  0.3661 -1.1164
 1242SOL    HW114405   3.718   5.318   2.219 -0.6393  0.1926 -1.7011
 1242SOL    HW214406   3.692   5.465   2.287 -0.6295 -0.1312 -0.9946
 1243SOL     OW14407   3.639   4.926   1.940  0.0371  0.2397  0.4596
 1243SOL    HW114408   3.737   4.919   1.926  0.0795  2.0361 -0.2309
 1243SOL    HW214409   3.613   4.870   2.019  1.4044 -1.2136 -0.0816
 1244SOL     OW14410   5.111   0.204   4.204 -0.0065  0.2595 -0.0879
 1244SOL    HW114411   5.020   0.213   4.245 -0.0776  0.6683 -0.3320
 1244SOL    HW214412   5.164   0.287   4.222 -0.4262  0.9008 -1.7910
 1245SOL     OW14413   2.989   6.201   4.038  0.1745 -0.1679  0.4950
 1245SOL    HW114414   3.022   6.244   4.121  1.8833 -2.5984  1.1313
 1245SOL    HW214415   2.897   6.164   4.053 -1.1943  2.8487  0.0246
 1246SOL     OW14416   2.475   7.909   2.979  0.0230  0.1490  0.4304
 1246SOL    HW114417   2.562   7.959   2.978  0.5711 -0.6657  2.8025
 1246SOL    HW214418   2.487   7.823   3.028 -1.7053 -0.8118 -0.7917
 1247SOL     OW14419   9.752   5.373   1.546 -0.0395 -0.1732 -0.5112
 1247SOL    HW114420   9.698   5.381   1.463  0.9258 -0.8370 -1.2121
 1247SOL    HW214421   9.691   5.370   1.625 -0.9999 -0.4250 -1.2511
 1248SOL     OW14422   4.177   8.632   3.382 -0.9154  0.5145 -0.3533
 1248SOL    HW114423   4.088   8.641   3.337 -1.5147  1.4129  0.9905
 1248SOL    HW214424   4.237   8.577   3.325 -2.7346 -1.1822 -0.7001
 1249SOL     OW14425   3.403   8.673   0.781  0.2262  0.3342  0.2852
 1249SOL    HW114426   3.440   8.734   0.850  1.0305 -0.3603  0.4678
 1249SOL    HW214427   3.405   8.579   0.814  0.9710 -0.0548 -0.8178
 1250SOL     OW14428   1.115   4.802   0.321  0.0216  0.2104 -0.3975
 1250SOL    HW114429   1.151   4.800   0.414 -0.4993 -2.3354 -0.2240
 1250SOL    HW214430   1.025   4.844   0.321  0.7133  1.7416 -0.0322
 1251SOL     OW14431   8.271   9.528   0.395  0.1227 -1.1551  0.2185
 1251SOL    HW114432   8.285   9.429   0.391 -0.0512 -1.2125  0.9881
 1251SOL    HW214433   8.257   9.556   0.490  1.2109 -0.2508  0.1202
 1252SOL     OW14434   5.016   1.843   1.803  0.1843  0.2658 -0.1130
 1252SOL    HW114435   5.028   1.814   1.898 -1.0115  0.0766 -0.0157
 1252SOL    HW214436   4.986   1.766   1.748  2.1654  0.0482 -0.9343
 1253SOL     OW14437   8.713   5.374   0.850  0.4079  0.0868 -0.5200
 1253SOL    HW114438   8.712   5.394   0.752 -0.8715 -0.1871 -0.5790
 1253SOL    HW214439   8.631   5.321   0.874  0.2800  0.8740  0.8501
 1254SOL     OW14440   9.181   4.695   1.191  0.1333 -0.9832  0.4548
 1254SOL    HW114441   9.102   4.744   1.154  0.2491 -1.8072 -0.9051
 1254SOL    HW214442   9.153   4.604   1.221  0.5783 -1.3054 -0.1016
 1255SOL     OW14443   7.801   1.078   3.913  0.3774  0.1920  0.6750
 1255SOL    HW114444   7.747   0.994   3.916  0.3867  0.1957  1.0244
 1255SOL    HW214445   7.855   1.086   3.997  1.0332  0.1140  0.2713
 1256SOL     OW14446   0.143   2.159   0.262 -0.0391  0.2420  0.0872
 1256SOL    HW114447   0.235   2.142   0.225 -0.9685 -1.0020 -1.7126
 1256SOL    HW214448   0.125   2.095   0.336  0.0971 -0.2681 -0.3208
 1257SOL     OW14449   1.000   3.212   4.298  0.1088  0.3829  0.0390
 1257SOL    HW114450   1.005   3.157   4.382 -2.8403 -1.5458 -0.9535
 1257SOL    HW214451   1.002   3.309   4.321  1.1685 -0.1222  2.1794
 1258SOL     OW14452   9.427   8.398   4.072 -0.1543 -0.4596  0.3071
 1258SOL    HW114453   9.472   8.321   4.028 -0.5761 -0.1772 -0.6263
 1258SOL    HW214454   9.454   8.402   4.168  0.3757 -1.3767  0.1989
 1259SOL     OW14455   1.485   3.953   0.831 -0.7294 -0.1876 -0.3416
 1259SOL    HW114456   1.462   4.040   0.874  1.6453  0.3140  0.0106
 1259SOL    HW214457   1.421   3.934   0.757 -1.2020  1.9220 -0.4970
 1260SOL     OW14458   3.061   8.785   0.051 -0.3090 -0.0079  0.6045
 1260SOL    HW114459   2.978   8.830   0.084  0.3455  1.1262  0.7021
 1260SOL    HW214460   3.038   8.728  -0.028 -1.0664  0.8357  0.2081
 1261SOL     OW14461   3.521   9.204   2.402  0.2251 -0.4047 -0.8672
 1261SOL    HW114462   3.577   9.285   2.388  2.2955 -1.7107 -0.3819
 1261SOL    HW214463   3.432   9.230   2.440  0.9804  1.5829 -0.4433
 1262SOL     OW14464   2.061   5.710   2.579 -0.0537 -0.2830  0.1138
 1262SOL    HW114465   1.996   5.658   2.524 -1.7378 -0.4272  2.1697
 1262SOL    HW214466   2.151   5.666   2.576  0.2460  0.4696 -3.5567
 1263SOL     OW14467   9.293   6.208   0.335 -0.1323  0.2592  0.1036
 1263SOL    HW114468   9.255   6.298   0.315 -3.2996 -0.3920  2.6112
 1263SOL    HW214469   9.385   6.217   0.371  0.2848  2.3396 -1.4263
 1264SOL     OW14470   8.463   1.232   4.655 -0.4029 -0.8424  0.3999
 1264SOL    HW114471   8.438   1.281   4.738 -0.2425  3.6903 -2.1009
 1264SOL    HW214472   8.393   1.245   4.585  1.2547 -1.4056 -1.4174
 1265SOL     OW14473   3.959   1.677   3.252 -0.4313 -0.3126  0.2229
 1265SOL    HW114474   4.026   1.604   3.239 -1.2273 -0.7249 -1.6307
 1265SOL    HW214475   3.978   1.724   3.338  1.1410 -1.5817  0.5912
 1266SOL     OW14476   3.383   7.691   1.646 -0.2060 -0.2576  0.0095
 1266SOL    HW114477   3.437   7.611   1.620  0.6137  0.7534 -1.5019
 1266SOL    HW214478   3.444   7.768   1.664 -1.0239  0.2357  0.6787
 1267SOL     OW14479   2.066   4.043   2.577  0.1917 -0.3201 -0.0978
 1267SOL    HW114480   1.989   4.100   2.606  0.2524 -1.5926  2.6892
 1267SOL    HW214481   2.110   4.002   2.657  3.4866 -0.0287 -1.6453
 1268SOL     OW14482   1.167   1.695   1.635 -0.4875 -0.3243  0.4358
 1268SOL    HW114483   1.109   1.766   1.675  0.5630  0.2676  0.9256
 1268SOL    HW214484   1.253   1.689   1.686  0.2262 -0.6315 -0.7834
 1269SOL     OW14485   1.418   4.640   2.682 -0.5090 -0.2067  0.1147
 1269SOL    HW114486   1.339   4.700   2.672 -1.1679 -1.1417 -0.3140
 1269SOL    HW214487   1.443   4.634   2.779 -0.6747  0.4507  0.1998
 1270SOL     OW14488   4.315   9.173   3.351  0.3295  0.6945  0.2326
 1270SOL    HW114489   4.252   9.116   3.298  0.9257  1.8123 -1.7160
 1270SOL    HW214490   4.347   9.121   3.431 -0.6680 -0.9668 -0.4185
 1271SOL     OW14491   1.904   5.858   4.720  0.6687  0.7787 -0.7742
 1271SOL    HW114492   1.907   5.848   4.819  0.6311 -2.2060 -1.0409
 1271SOL    HW214493   1.814   5.893   4.693 -1.2329 -3.3097 -0.0829
 1272SOL     OW14494   2.218   5.752   3.523  0.3941 -0.0666  0.0412
 1272SOL    HW114495   2.183   5.772   3.614  0.3928 -1.3739  0.3410
 1272SOL    HW214496   2.163   5.799   3.454 -0.1235  0.2471  0.6738
 1273SOL     OW14497   9.161   2.142   1.776  0.2232 -0.4728  0.8284
 1273SOL    HW114498   9.094   2.177   1.711  1.9987  2.3255  0.4015
 1273SOL    HW214499   9.125   2.150   1.869 -0.9179 -1.1479  0.4481
 1274SOL     OW14500   3.277   6.229   2.721 -0.5800 -0.1295  0.0968
 1274SOL    HW114501   3.193   6.197   2.764 -0.8487 -0.7433 -0.8565
 1274SOL    HW214502   3.356   6.193   2.770 -0.8712  0.4927  1.0264
 1275SOL     OW14503   2.076   6.270   0.661  0.2489 -0.4078  0.6228
 1275SOL    HW114504   2.004   6.216   0.705 -0.2969 -1.2882 -1.2754
 1275SOL    HW214505   2.137   6.209   0.611  1.0864  0.5262  0.4915
 1276SOL     OW14506   4.115   1.702   2.856  0.2639  0.3051 -0.7547
 1276SOL    HW114507   4.053   1.733   2.784  0.9206  2.5709 -0.3978
 1276SOL    HW214508   4.209   1.725   2.831  0.6967 -0.7246 -0.0998
 1277SOL     OW14509   8.942   1.089   0.452  0.2753 -0.6422  0.0293
 1277SOL    HW114510   8.884   1.011   0.428  1.1524 -1.5629  0.8816
 1277SOL    HW214511   8.886   1.161   0.494 -0.3928 -1.1633  0.0317
 1278SOL     OW14512   2.458   2.828   4.561 -0.4676 -0.9146 -0.1076
 1278SOL    HW114513   2.454   2.849   4.659 -1.9471  1.2261 -0.6054
 1278SOL    HW214514   2.548   2.791   4.539  1.1894  2.0475  1.3957
 1279SOL     OW14515   9.933   7.660   2.882 -0.3141 -0.1986  0.2526
 1279SOL    HW114516   9.918   7.714   2.964 -1.6735 -0.5310  0.2331
 1279SOL    HW214517   9.941   7.563   2.906 -0.4806 -0.2703  0.0205
 1280SOL     OW14518   9.977   2.591   1.263 -0.0049 -0.3954 -0.1956
 1280SOL    HW114519  10.001   2.512   1.206 -1.0055 -0.4520 -0.5476
 1280SOL    HW214520   9.902   2.641   1.220 -2.2886 -1.6968  2.1431
 1281SOL     OW14521   0.827   8.525   3.274  0.1981 -0.5814  0.2676
 1281SOL    HW114522   0.902   8.519   3.208  0.1484 -0.6016  0.2127
 1281SOL    HW214523   0.803   8.621   3.288 -0.0733 -0.5971 -0.0657
 1282SOL     OW14524   3.024   0.674   1.418 -0.2566  0.0596 -0.5932
 1282SOL    HW114525   2.999   0.660   1.322  0.5544  2.5580 -1.2234
 1282SOL    HW214526   3.113   0.632   1.436 -0.9955 -1.5133 -0.5968
 1283SOL     OW14527   3.309   7.582   2.464  0.1182  0.1476  0.8856
 1283SOL    HW114528   3.252   7.545   2.537 -0.8958  2.1595  1.1511
 1283SOL    HW214529   3.392   7.622   2.503 -1.0390  2.3850  1.0801
 1284SOL     OW14530   1.554   4.860   1.825 -0.0418  0.1946  0.1015
 1284SOL    HW114531   1.472   4.828   1.872  0.4231 -0.6776  0.3277
 1284SOL    HW214532   1.528   4.909   1.742 -0.7566 -1.0313 -0.4055
 1285SOL     OW14533   8.337   6.967   2.975  0.3219  0.0227  0.3661
 1285SOL    HW114534   8.280   6.904   3.028  1.3237  1.3799  3.0976
 1285SOL    HW214535   8.383   6.916   2.902  0.2148 -2.2046  1.8049
 1286SOL     OW14536   8.698   8.221   4.433 -0.0421  0.2230  0.2400
 1286SOL    HW114537   8.690   8.125   4.457  0.3299 -0.0236 -0.6513
 1286SOL    HW214538   8.624   8.247   4.371  0.6890  0.1556 -0.6723
 1287SOL     OW14539   2.565   5.322   2.246 -0.0886  0.1389  0.2122
 1287SOL    HW114540   2.621   5.240   2.234 -0.9067 -0.5282  0.9601
 1287SOL    HW214541   2.604   5.379   2.319  0.0538  0.0582  0.1986
 1288SOL     OW14542   0.223   7.452   3.757  0.3645 -0.0532 -0.0338
 1288SOL    HW114543   0.124   7.434   3.755 -0.3494  3.6673 -2.7161
 1288SOL    HW214544   0.265   7.412   3.675  0.7200  0.2312  0.0130
 1289SOL     OW14545   6.681   8.841   1.351 -0.7377  0.3485  0.2209
 1289SOL    HW114546   6.641   8.812   1.264 -0.3931 -0.0537  0.1928
 1289SOL    HW214547   6.737   8.766   1.388  1.6552  1.5840 -0.7533
 1290SOL     OW14548   9.797   4.739   4.448  0.5469 -0.5679 -0.4421
 1290SOL    HW114549   9.858   4.660   4.450  0.6316 -0.4923  0.1857
 1290SOL    HW214550   9.844   4.817   4.406  0.8190 -0.5665 -0.1401
 1291SOL     OW14551   2.598   0.706   2.724 -0.1311 -0.0024 -0.4633
 1291SOL    HW114552   2.659   0.664   2.792 -2.0164 -0.9093  0.6973
 1291SOL    HW214553   2.572   0.798   2.755 -0.1665 -0.0108 -0.4680
 1292SOL     OW14554   9.062   3.139   0.886 -0.3840 -0.1984  0.4956
 1292SOL    HW114555   9.063   3.189   0.973  1.2345 -0.8759  0.8856
 1292SOL    HW214556   9.052   3.041   0.904 -1.2004 -0.2418 -0.1481
 1293SOL     OW14557   0.341   7.262   0.851 -0.4788  0.1446 -0.4024
 1293SOL    HW114558   0.314   7.185   0.907 -1.4499  0.5481 -0.3000
 1293SOL    HW214559   0.319   7.348   0.898  2.4539  0.5096  0.3772
 1294SOL     OW14560   8.854   4.789   4.149 -0.4764  0.3201  0.0232
 1294SOL    HW114561   8.909   4.854   4.096  0.6246 -0.2825  0.4158
 1294SOL    HW214562   8.888   4.696   4.133 -2.1528 -0.1978 -0.6747
 1295SOL     OW14563   4.170   3.762   0.301 -0.2424 -0.8664  0.2825
 1295SOL    HW114564   4.181   3.759   0.400  0.8177 -1.3377  0.1593
 1295SOL    HW214565   4.234   3.698   0.258 -0.8112 -0.7926 -0.6970
 1296SOL     OW14566   9.272   3.772   1.977  0.1204  0.0463  0.3863
 1296SOL    HW114567   9.339   3.723   1.921  1.1120  1.8916 -0.0485
 1296SOL    HW214568   9.185   3.778   1.927 -0.4850 -2.5037  1.0242
 1297SOL     OW14569   4.334   5.649   1.963 -0.0012  0.1552 -0.3035
 1297SOL    HW114570   4.316   5.556   1.994  1.9736  0.1153  0.8111
 1297SOL    HW214571   4.326   5.712   2.040  1.5581  0.5136 -0.4097
 1298SOL     OW14572   0.801   0.496   0.009 -0.3934  0.1518 -0.1827
 1298SOL    HW114573   0.856   0.467  -0.069 -2.3923  0.0800 -1.6204
 1298SOL    HW214574   0.743   0.420   0.039  0.8982 -0.0470  1.8682
 1299SOL     OW14575   0.123   7.945   4.584 -0.3829  0.4788 -0.8679
 1299SOL    HW114576   0.045   7.896   4.622  0.2980  0.4985  0.5854
 1299SOL    HW214577   0.141   8.027   4.639  0.9769  0.2080 -0.8978
 1300SOL     OW14578   8.947   1.999   1.124  0.6154 -0.1782  0.0002
 1300SOL    HW114579   8.902   1.910   1.132  0.3939  0.0261  1.0109
 1300SOL    HW214580   8.879   2.069   1.102  0.4855  0.0702  1.1675
 1301SOL     OW14581   1.377   7.924   1.680 -0.3702 -0.2490 -0.2443
 1301SOL    HW114582   1.315   7.962   1.611 -0.4972  1.0629  0.5745
 1301SOL    HW214583   1.405   7.832   1.652 -1.0964 -0.0745 -1.6140
 1302SOL     OW14584   8.119   2.024   1.890 -0.1329  0.2359 -0.2223
 1302SOL    HW114585   8.048   2.007   1.822 -1.3249 -2.8881  1.6798
 1302SOL    HW214586   8.077   2.044   1.979  1.3637  0.5979  0.4204
 1303SOL     OW14587   0.169   9.278   2.234  0.3339  0.0601 -0.0314
 1303SOL    HW114588   0.185   9.259   2.331 -0.6717 -0.7036 -0.0123
 1303SOL    HW214589   0.071   9.270   2.214  0.1513  2.9379 -0.5109
 1304SOL     OW14590   2.846   7.486   0.684  0.2005  0.1132 -0.3605
 1304SOL    HW114591   2.810   7.394   0.697 -0.9197  0.6275  0.2571
 1304SOL    HW214592   2.885   7.494   0.593  1.5600 -1.3823  0.0733
 1305SOL     OW14593   1.232   7.418   2.343  0.4093  0.2952  0.5023
 1305SOL    HW114594   1.166   7.471   2.290 -1.4475 -1.3109  1.1103
 1305SOL    HW214595   1.252   7.332   2.294  0.3228 -0.2286  1.3780
 1306SOL     OW14596   9.067   0.417   0.677  0.4616  0.5465 -0.1836
 1306SOL    HW114597   9.062   0.338   0.737 -1.2348  1.3229  0.7246
 1306SOL    HW214598   9.013   0.492   0.715  0.1429  1.3732 -2.1696
 1307SOL     OW14599   2.901   8.034   3.134  0.2427  0.6742  0.4954
 1307SOL    HW114600   2.943   8.096   3.201  0.3060  0.1861  0.9186
 1307SOL    HW214601   2.892   7.943   3.175 -0.2558  0.5153  0.0345
 1308SOL     OW14602   0.019   2.387   1.074 -0.2557 -0.3882 -0.1642
 1308SOL    HW114603   0.116   2.409   1.060 -0.1852 -0.0390  0.8533
 1308SOL    HW214604   0.007   2.288   1.077  0.1518 -0.4247  0.2606
 1309SOL     OW14605   8.427   8.553   4.722 -0.6934 -0.6223 -0.1341
 1309SOL    HW114606   8.496   8.486   4.695 -0.0952  0.3386 -1.0464
 1309SOL    HW214607   8.338   8.525   4.686 -0.1871 -0.1889 -1.7731
 1310SOL     OW14608   9.267   8.507   4.457  0.1355  0.1095  0.3554
 1310SOL    HW114609   9.231   8.595   4.427 -4.9392 -1.9862 -0.1684
 1310SOL    HW214610   9.280   8.508   4.556  0.6427  1.5815  0.2856
 1311SOL     OW14611   7.078   9.214   1.284 -0.4243 -0.0793 -0.2391
 1311SOL    HW114612   7.029   9.128   1.292  0.8607 -0.7340  0.9327
 1311SOL    HW214613   7.068   9.266   1.369  1.5949 -0.6213  0.3723
 1312SOL     OW14614   4.263   2.150   0.235  0.2162  0.1387  0.1360
 1312SOL    HW114615   4.233   2.235   0.277 -0.9134 -0.1154 -0.1508
 1312SOL    HW214616   4.268   2.078   0.304 -0.2374  0.0815  0.1118
 1313SOL     OW14617   9.087   4.150   3.860 -0.3898 -0.3980 -0.0705
 1313SOL    HW114618   9.103   4.239   3.904 -0.5095 -0.7491  0.6866
 1313SOL    HW214619   9.087   4.162   3.760 -0.8406  0.5206  0.0364
 1314SOL     OW14620   3.534   3.328   0.359 -0.0248  0.3558 -0.1806
 1314SOL    HW114621   3.600   3.402   0.370  0.8062 -0.1714 -1.5057
 1314SOL    HW214622   3.459   3.358   0.301  0.3465  0.1377 -0.7735
 1315SOL     OW14623   7.068   9.062   2.611 -0.0770 -0.0029 -0.3003
 1315SOL    HW114624   7.070   9.149   2.661 -1.4995  0.0052 -0.2293
 1315SOL    HW214625   7.116   9.071   2.525  0.4834  0.6268  0.0779
 1316SOL     OW14626   1.199   0.324   4.755  0.0956 -0.0254  0.0383
 1316SOL    HW114627   1.252   0.364   4.681  1.2594 -0.5695  0.5685
 1316SOL    HW214628   1.147   0.246   4.720 -0.7813  0.8274 -0.5963
 1317SOL     OW14629   3.213   0.876   0.190 -0.3215 -0.3450  0.2426
 1317SOL    HW114630   3.135   0.932   0.164  0.6996  0.0105 -2.1854
 1317SOL    HW214631   3.270   0.858   0.110  2.3193 -0.2398  2.0100
 1318SOL     OW14632   8.133   4.375   3.556  0.4907 -0.3871 -0.0354
 1318SOL    HW114633   8.059   4.432   3.520  0.0424 -0.7995  0.2159
 1318SOL    HW214634   8.219   4.399   3.511  0.5285  1.3101  0.9165
 1319SOL     OW14635   8.114   5.234   4.678  0.0189  0.0819 -0.1528
 1319SOL    HW114636   8.084   5.310   4.621  0.2920  0.0598 -0.3261
 1319SOL    HW214637   8.214   5.238   4.689  0.0991 -0.6020 -0.6589
 1320SOL     OW14638   3.461   3.640   2.950  0.1999 -0.0721 -0.6950
 1320SOL    HW114639   3.436   3.574   3.021 -0.9518  1.1722  0.0968
 1320SOL    HW214640   3.553   3.620   2.917  0.1976 -1.5451  0.1350
 1321SOL     OW14641   9.579   7.816   4.213 -0.1170 -0.1265 -0.0299
 1321SOL    HW114642   9.519   7.736   4.222 -0.1419 -0.0942  0.0857
 1321SOL    HW214643   9.532   7.896   4.250 -0.5110  0.1436 -1.0846
 1322SOL     OW14644   7.091   9.581   1.051 -0.3326 -0.2595  0.1391
 1322SOL    HW114645   7.170   9.540   1.006  0.2209  1.9421 -0.9313
 1322SOL    HW214646   7.121   9.630   1.133 -0.6854 -0.0851  0.1646
 1323SOL     OW14647   9.179   0.537   1.355  0.0014 -0.0943  0.2070
 1323SOL    HW114648   9.193   0.529   1.454 -2.5155  1.8853  0.7631
 1323SOL    HW214649   9.088   0.572   1.337  0.6167  0.0545 -2.8339
 1324SOL     OW14650   0.031   5.980   4.357 -0.3985 -0.6538  0.6593
 1324SOL    HW114651  -0.040   6.006   4.291 -2.2392 -0.4465  2.6270
 1324SOL    HW214652   0.048   6.057   4.419  2.1888 -0.4157 -0.3111
 1325SOL     OW14653   9.469   7.576   1.354  0.4447  0.0323 -0.4684
 1325SOL    HW114654   9.464   7.549   1.258 -0.9632 -1.4340 -0.0167
 1325SOL    HW214655   9.451   7.674   1.363  0.3274  0.1213 -1.6713
 1326SOL     OW14656   9.453   8.494   1.712 -0.0065  0.6340 -0.0621
 1326SOL    HW114657   9.390   8.552   1.764  0.3163 -0.5219  1.6566
 1326SOL    HW214658   9.407   8.460   1.630 -0.4372  2.6923 -0.7026
 1327SOL     OW14659   8.789   1.073   0.140  0.0991  0.2027 -0.3548
 1327SOL    HW114660   8.740   0.986   0.131 -1.0758  0.9677 -1.4876
 1327SOL    HW214661   8.733   1.138   0.191  0.3348  0.7820 -0.8297
 1328SOL     OW14662   4.951   7.884   2.668 -0.3272  0.0352  0.5744
 1328SOL    HW114663   5.007   7.930   2.736 -0.1330  1.2478 -0.3814
 1328SOL    HW214664   4.989   7.794   2.648 -0.8550 -0.6588  2.6527
 1329SOL     OW14665   4.205   0.640   3.286 -0.1580 -0.1938 -0.1234
 1329SOL    HW114666   4.150   0.564   3.252  0.6791 -0.3129 -1.2604
 1329SOL    HW214667   4.216   0.708   3.213 -0.6546  0.8836  0.7922
 1330SOL     OW14668   0.489   1.522   0.809  0.1315  0.1262 -0.1795
 1330SOL    HW114669   0.532   1.580   0.878 -0.3904 -1.5197  1.5583
 1330SOL    HW214670   0.559   1.476   0.755  0.5348  0.1325  0.3387
 1331SOL     OW14671   6.695   8.104   3.008 -0.6523  0.2087 -0.3272
 1331SOL    HW114672   6.782   8.150   3.026 -0.1604 -0.5824 -0.6416
 1331SOL    HW214673   6.621   8.154   3.052  0.3154 -0.7415  2.4662
 1332SOL     OW14674   0.441   3.014   4.166 -0.3121  0.1290 -0.2265
 1332SOL    HW114675   0.436   3.077   4.244 -1.5827  0.8609 -0.8974
 1332SOL    HW214676   0.370   2.944   4.175  0.0116 -0.2156 -0.3513
 1333SOL     OW14677   4.857   3.174   0.336  0.1450  0.3646 -0.2246
 1333SOL    HW114678   4.916   3.157   0.257  1.0838 -0.2059  0.5803
 1333SOL    HW214679   4.784   3.106   0.339  1.7124 -1.3378  0.8985
 1334SOL     OW14680   8.457   9.963   1.651  0.4116 -0.3466  0.0582
 1334SOL    HW114681   8.363   9.957   1.618  0.2357 -1.4455  0.7586
 1334SOL    HW214682   8.517   9.913   1.588  0.3067 -1.0245  0.5034
 1335SOL     OW14683   7.530   7.303   2.271  0.4985 -0.1525  0.8899
 1335SOL    HW114684   7.541   7.308   2.172 -2.3523 -0.6391  0.5296
 1335SOL    HW214685   7.570   7.217   2.304  0.8281 -0.3236  0.0697
 1336SOL     OW14686   8.139   7.689   3.750  0.1940  0.1678  0.7237
 1336SOL    HW114687   8.083   7.769   3.774  1.7559  1.5744 -0.2003
 1336SOL    HW214688   8.193   7.661   3.829  0.5871  0.8295  0.6969
 1337SOL     OW14689   3.499   5.509   0.637 -0.2404 -0.5019 -0.3006
 1337SOL    HW114690   3.464   5.441   0.701 -1.1115  1.2189  1.1090
 1337SOL    HW214691   3.551   5.464   0.564 -3.3612 -2.9468 -1.1216
 1338SOL     OW14692   6.444   9.857   3.024  0.2540 -0.4274  0.0376
 1338SOL    HW114693   6.415   9.775   3.075  1.5915 -0.9423  0.0128
 1338SOL    HW214694   6.477   9.830   2.934 -1.5136  0.4225 -0.8658
 1339SOL     OW14695   1.220   9.550   2.052 -0.0288  0.0416 -0.3868
 1339SOL    HW114696   1.175   9.624   2.002 -0.3613 -0.7464 -1.2548
 1339SOL    HW214697   1.225   9.469   1.995  0.2087 -0.6611  0.6157
 1340SOL     OW14698   4.606   0.168   1.251  0.0712 -0.4360 -0.3713
 1340SOL    HW114699   4.561   0.079   1.240  0.2373 -0.5852  0.1340
 1340SOL    HW214700   4.625   0.207   1.161  1.0858 -1.4672 -0.6157
 1341SOL     OW14701   0.613   8.648   2.919 -0.4792  0.2732 -0.0970
 1341SOL    HW114702   0.651   8.561   2.887  1.0623  1.1925 -0.8606
 1341SOL    HW214703   0.621   8.654   3.018  2.6334  0.9616 -0.3257
 1342SOL     OW14704   0.689   1.565   1.455  0.4333 -0.3525  0.0833
 1342SOL    HW114705   0.677   1.543   1.552  0.4285 -3.3247 -0.5405
 1342SOL    HW214706   0.601   1.559   1.408  0.5740  0.2687 -0.2686
 1343SOL     OW14707   0.270   7.737   3.509  0.0493 -0.4043 -0.1596
 1343SOL    HW114708   0.328   7.812   3.478  0.7780 -0.1704  1.7002
 1343SOL    HW214709   0.198   7.772   3.569  1.6981 -1.3883  2.4933
 1344SOL     OW14710   9.132   7.578   2.095 -0.4833  0.5700  0.1308
 1344SOL    HW114711   9.146   7.479   2.089  2.3767  0.8686  1.2935
 1344SOL    HW214712   9.125   7.616   2.002 -1.3924 -0.6775 -0.3269
 1345SOL     OW14713   1.225   8.060   3.038 -0.0697 -0.5803  0.5460
 1345SOL    HW114714   1.174   7.976   3.054 -0.6930 -0.2459  0.3253
 1345SOL    HW214715   1.321   8.046   3.062  0.2563 -1.9992 -1.5609
 1346SOL     OW14716   3.621   1.149   2.519 -0.3644  0.0046  0.2126
 1346SOL    HW114717   3.533   1.185   2.550  0.7155  2.7956  0.2370
 1346SOL    HW214718   3.611   1.111   2.427 -1.6994 -0.1297  0.4101
 1347SOL     OW14719   3.084   1.264   3.829 -0.0410  0.0975 -0.4176
 1347SOL    HW114720   3.014   1.277   3.759  0.4419  1.5728 -0.6414
 1347SOL    HW214721   3.054   1.309   3.913  0.6876  0.8182 -0.5461
 1348SOL     OW14722   4.465   2.724   2.584  0.7460  0.1435  0.0809
 1348SOL    HW114723   4.376   2.687   2.556 -0.2427  3.4201 -1.3316
 1348SOL    HW214724   4.537   2.660   2.558 -0.9846 -1.3956 -1.0847
 1349SOL     OW14725   0.687   2.725   1.139 -0.0416 -0.8111 -0.6434
 1349SOL    HW114726   0.709   2.664   1.215  1.1422  0.7272  0.2784
 1349SOL    HW214727   0.590   2.716   1.116 -0.7277 -0.2843  1.9484
 1350SOL     OW14728   9.175   7.262   0.268  0.0601 -0.1323 -0.1551
 1350SOL    HW114729   9.155   7.299   0.178  0.3245 -0.8081 -0.4926
 1350SOL    HW214730   9.104   7.292   0.333 -0.6039 -0.3650 -0.7692
 1351SOL     OW14731   3.131   4.187   3.827  0.2828 -0.6010  0.2902
 1351SOL    HW114732   3.043   4.140   3.837 -0.6380  1.1321  0.6232
 1351SOL    HW214733   3.178   4.152   3.747 -0.8327 -1.3723 -0.0516
 1352SOL     OW14734   3.193   7.398   4.239  0.1257  0.0107 -0.2043
 1352SOL    HW114735   3.167   7.446   4.323  0.8352 -0.9372  0.5758
 1352SOL    HW214736   3.162   7.303   4.244  0.6237 -0.1855 -0.7834
 1353SOL     OW14737   9.075   9.274   4.661 -0.1211  0.3064 -1.0244
 1353SOL    HW114738   9.010   9.200   4.682  0.9757  0.6106  4.1715
 1353SOL    HW214739   9.027   9.361   4.662 -0.5675  0.0889 -2.5198
 1354SOL     OW14740   8.074   2.892   0.635  0.0585 -0.1772  0.2368
 1354SOL    HW114741   8.158   2.931   0.673  0.8036 -1.1089 -0.4278
 1354SOL    HW214742   8.078   2.792   0.641 -0.0837 -0.3193 -1.6750
 1355SOL     OW14743   8.220   1.640   3.793  0.0479  0.0516 -0.1146
 1355SOL    HW114744   8.218   1.713   3.724 -0.7605  0.1970  0.0547
 1355SOL    HW214745   8.267   1.672   3.875  0.4217  0.1018 -0.3465
 1356SOL     OW14746   8.518   7.130   0.427 -0.4261  0.0114  0.4000
 1356SOL    HW114747   8.423   7.099   0.423 -0.6423  0.9052 -3.9253
 1356SOL    HW214748   8.574   7.074   0.365  1.2197  1.5580  0.4609
 1357SOL     OW14749   5.034   7.755   4.351  0.4414 -0.2627 -0.9412
 1357SOL    HW114750   4.998   7.664   4.331 -1.1455  0.0494  0.3287
 1357SOL    HW214751   4.987   7.823   4.295  0.9401 -0.1255 -1.1944
 1358SOL     OW14752   9.409   5.173   2.589 -0.6642  0.1915 -0.2752
 1358SOL    HW114753   9.344   5.171   2.514 -0.9125  0.2202 -0.0595
 1358SOL    HW214754   9.501   5.151   2.554 -0.8434 -0.1802 -0.5142
 1359SOL     OW14755   0.517   8.997   0.797 -0.7596  0.1919  0.0764
 1359SOL    HW114756   0.538   9.030   0.889 -2.3521  2.6119 -0.3764
 1359SOL    HW214757   0.565   9.053   0.730  1.4228 -2.3742 -0.5671
 1360SOL     OW14758   2.080   2.662   0.724  0.0509 -0.6751 -0.3353
 1360SOL    HW114759   2.092   2.736   0.791  0.1505 -1.2158  0.2496
 1360SOL    HW214760   2.169   2.622   0.701 -0.0264 -0.7751 -0.4644
 1361SOL     OW14761   9.889   3.456   2.279 -0.6347  0.6566 -0.2813
 1361SOL    HW114762   9.838   3.506   2.348  1.1210  0.9372  0.8239
 1361SOL    HW214763   9.895   3.360   2.305  2.5629  1.2782  1.5257
 1362SOL     OW14764   4.970   3.717   0.551  0.1325 -0.3172  1.1687
 1362SOL    HW114765   5.026   3.650   0.503 -1.4799 -1.0346  0.2762
 1362SOL    HW214766   5.002   3.810   0.528 -0.7607 -0.6286 -1.5058
 1363SOL     OW14767   8.110   8.907   2.973  0.5717 -0.4126 -0.4818
 1363SOL    HW114768   8.077   8.838   3.037 -1.6450  0.1900 -0.9446
 1363SOL    HW214769   8.142   8.862   2.889  0.4517 -0.9792 -0.2219
 1364SOL     OW14770   3.685   6.366   3.117 -0.3123  0.2244 -0.0513
 1364SOL    HW114771   3.733   6.433   3.060  0.7953 -0.2901  0.2565
 1364SOL    HW214772   3.679   6.279   3.068  1.0037 -0.3374  0.7552
 1365SOL     OW14773   8.321   5.142   3.759  0.9657 -0.0009 -0.4793
 1365SOL    HW114774   8.352   5.163   3.852  3.1067 -0.6889 -1.0100
 1365SOL    HW214775   8.327   5.224   3.702  0.3560  0.2393 -0.2000
 1366SOL     OW14776   9.572   8.680   2.121 -0.1420  0.1241  0.4350
 1366SOL    HW114777   9.575   8.645   2.214  1.1588 -1.7735 -0.2849
 1366SOL    HW214778   9.485   8.655   2.078  0.4336 -1.5370  0.2091
 1367SOL     OW14779   7.275   8.260   3.257 -0.1859 -0.2865 -0.0531
 1367SOL    HW114780   7.223   8.175   3.254 -0.8138  0.0054  1.8664
 1367SOL    HW214781   7.213   8.337   3.244  0.3141 -0.0975 -1.3534
 1368SOL     OW14782   0.028   1.811   1.973  0.5616 -0.5848  0.2227
 1368SOL    HW114783   0.081   1.833   2.055 -0.0636  1.2127  0.1754
 1368SOL    HW214784  -0.001   1.896   1.929 -2.4170 -1.5252  0.2758
 1369SOL     OW14785   4.352   7.478   0.484  0.0161  0.4100 -0.3426
 1369SOL    HW114786   4.361   7.520   0.394  1.0854 -2.0947 -1.4441
 1369SOL    HW214787   4.432   7.501   0.539  0.4650  0.0249 -0.8367
 1370SOL     OW14788   1.107   3.058   0.905 -0.5595 -0.3383  0.4730
 1370SOL    HW114789   1.085   2.984   0.841 -0.5568 -0.4039  0.5482
 1370SOL    HW214790   1.082   3.031   0.998 -1.4374  0.1293  0.3739
 1371SOL     OW14791   4.481   9.179   2.356 -0.2221  0.0946 -0.0652
 1371SOL    HW114792   4.562   9.151   2.408  0.8947  0.4582 -1.5537
 1371SOL    HW214793   4.462   9.112   2.285  0.7934  1.6616 -1.8491
 1372SOL     OW14794   7.740   6.387   3.633  0.3152  0.0810 -0.0156
 1372SOL    HW114795   7.778   6.298   3.658  1.0210 -0.4879 -2.8869
 1372SOL    HW214796   7.679   6.376   3.554 -1.4649  1.8295  1.0554
 1373SOL     OW14797   2.257   7.874   2.413 -0.2538  0.3122 -0.4318
 1373SOL    HW114798   2.256   7.886   2.512  0.7640 -1.4004 -0.2019
 1373SOL    HW214799   2.169   7.836   2.383 -1.5213  3.1533 -0.5372
 1374SOL     OW14800   0.754   1.929   0.585  0.0322 -0.0629  0.5814
 1374SOL    HW114801   0.827   1.993   0.611 -0.1826  0.7282 -0.7041
 1374SOL    HW214802   0.760   1.847   0.641  0.7065  0.8267  1.8252
 1375SOL     OW14803   1.291   5.002   2.954 -0.1059  0.1474  0.1157
 1375SOL    HW114804   1.325   5.059   3.029  1.4038  0.8816 -1.1005
 1375SOL    HW214805   1.294   5.054   2.869 -2.2806 -0.5096 -0.3858
 1376SOL     OW14806   0.618   1.194   2.338 -0.0259  0.3245 -0.2233
 1376SOL    HW114807   0.673   1.153   2.411 -0.3429 -0.0576 -0.1926
 1376SOL    HW214808   0.607   1.291   2.356  0.9289  0.4732 -0.4177
 1377SOL     OW14809   8.479   0.485   3.054  0.1724 -0.4411  0.4001
 1377SOL    HW114810   8.514   0.395   3.082  0.9841 -0.1805  0.2250
 1377SOL    HW214811   8.483   0.548   3.131  1.0190 -0.1371  0.1128
 1378SOL     OW14812   2.935   5.732   3.335 -0.5687 -0.3381  0.8361
 1378SOL    HW114813   2.996   5.809   3.317 -1.9982  1.0665  1.8902
 1378SOL    HW214814   2.971   5.678   3.411 -0.3680  0.1766  1.1087
 1379SOL     OW14815   9.684   2.626   4.343 -0.1120  0.1325 -0.6156
 1379SOL    HW114816   9.593   2.592   4.319 -0.3572  0.2665  0.1074
 1379SOL    HW214817   9.709   2.593   4.434 -0.6448  2.4297  0.3814
 1380SOL     OW14818   8.961   1.310   3.613 -0.5102  0.3088 -0.7149
 1380SOL    HW114819   8.915   1.321   3.701  0.4803 -0.4681 -0.0865
 1380SOL    HW214820   8.903   1.255   3.552 -0.4490 -0.6188  0.0510
 1381SOL     OW14821   4.023   3.840   3.918 -0.2144  0.5912 -0.0613
 1381SOL    HW114822   3.996   3.936   3.924 -1.6399  0.2148 -0.1867
 1381SOL    HW214823   4.032   3.813   3.822  0.1738  0.5994 -0.0270
 1382SOL     OW14824   9.621   6.937   3.565  0.1927 -0.8364 -0.8170
 1382SOL    HW114825   9.559   6.956   3.488 -0.3468 -1.9510 -0.6705
 1382SOL    HW214826   9.569   6.935   3.650  0.9023  1.1097 -0.3091
 1383SOL     OW14827   3.877   8.062   3.259  0.0754 -0.2680 -0.0048
 1383SOL    HW114828   3.824   8.071   3.343  0.6402  1.9411  0.1454
 1383SOL    HW214829   3.934   8.143   3.247  1.0251 -1.1773 -1.8182
 1384SOL     OW14830   8.135   5.410   0.982 -0.3830  0.0237  0.0461
 1384SOL    HW114831   8.116   5.401   1.080  0.1731 -1.8496 -0.0061
 1384SOL    HW214832   8.197   5.487   0.968 -1.1837  0.8835  1.0644
 1385SOL     OW14833   8.595   1.501   2.986  0.0308 -0.5555  0.7231
 1385SOL    HW114834   8.549   1.589   2.973 -3.1677 -1.8951  2.5734
 1385SOL    HW214835   8.587   1.447   2.903  1.5313  0.6102 -0.2284
 1386SOL     OW14836   9.996   0.486   0.275  0.2240 -0.2881  0.4556
 1386SOL    HW114837  10.029   0.468   0.183  0.8733  1.8703  0.2475
 1386SOL    HW214838   9.899   0.512   0.271  0.2112 -0.3425  0.4148
 1387SOL     OW14839   4.012   6.539   1.655 -0.6640  0.0444  0.1380
 1387SOL    HW114840   3.992   6.619   1.713 -0.8963 -0.8796  1.3536
 1387SOL    HW214841   3.967   6.550   1.567 -0.4043  1.4239  0.1679
 1388SOL     OW14842   1.936   0.085   4.493  0.2593  0.1725  0.1122
 1388SOL    HW114843   2.016   0.029   4.512  0.3836  0.5271  0.6243
 1388SOL    HW214844   1.860   0.055   4.549  0.6270  1.2157  1.1753
 1389SOL     OW14845   5.991   6.720   3.338 -0.0749  0.1696  0.2884
 1389SOL    HW114846   5.900   6.682   3.323  0.3251 -0.7005  0.0589
 1389SOL    HW214847   6.059   6.662   3.294  0.4652  1.6138 -0.8333
 1390SOL     OW14848   8.767   8.021   1.403  0.4816 -0.2970 -0.1571
 1390SOL    HW114849   8.755   7.934   1.354  1.3917  0.9647 -2.7122
 1390SOL    HW214850   8.682   8.073   1.399  0.0072 -0.9552  1.1744
 1391SOL     OW14851   9.847   9.464   3.836 -0.0015  0.6502  0.0708
 1391SOL    HW114852   9.787   9.514   3.774  1.0098  0.0760 -1.4125
 1391SOL    HW214853   9.941   9.495   3.823  0.3801 -0.3170  0.4565
 1392SOL     OW14854   4.623   8.263   3.299  0.4006  0.2818 -0.2376
 1392SOL    HW114855   4.638   8.269   3.398  0.7630 -0.3822 -0.2466
 1392SOL    HW214856   4.668   8.181   3.264 -0.9660 -0.2880 -0.7127
 1393SOL     OW14857   9.888   0.919   3.075  0.4452 -0.3455 -0.0197
 1393SOL    HW114858   9.951   0.895   3.148 -0.9993  1.3907  1.8323
 1393SOL    HW214859   9.802   0.870   3.088  1.3721 -2.7648 -2.5745
 1394SOL     OW14860   2.303   9.595   0.567  0.1049 -0.3524 -0.1792
 1394SOL    HW114861   2.247   9.534   0.623  0.9564 -1.1418 -0.1720
 1394SOL    HW214862   2.346   9.543   0.493 -2.8153  1.1021 -3.0045
 1395SOL     OW14863   8.949   8.064   0.491 -0.0083 -0.1310 -0.1471
 1395SOL    HW114864   9.024   8.030   0.548  0.8046  1.1622 -0.4118
 1395SOL    HW214865   8.872   8.000   0.494 -0.0197 -0.0257  2.4642
 1396SOL     OW14866   3.520   1.296   4.509  0.4258 -0.2319 -0.0412
 1396SOL    HW114867   3.619   1.301   4.524  0.3871  0.9610 -0.1777
 1396SOL    HW214868   3.498   1.212   4.458  1.0677 -1.8776  2.2923
 1397SOL     OW14869   4.111   3.902   1.937 -0.3223  0.6501  0.5263
 1397SOL    HW114870   4.152   3.874   1.850 -1.2001  0.4649  0.1629
 1397SOL    HW214871   4.161   3.860   2.012  0.0810  0.3355  0.0853
 1398SOL     OW14872   9.786   7.309   1.666 -0.2705  0.3356  0.3961
 1398SOL    HW114873   9.754   7.393   1.621 -1.6481  0.0461  0.7994
 1398SOL    HW214874   9.765   7.314   1.763 -0.5041 -0.5336  0.3927
 1399SOL     OW14875   6.461   9.756   1.595  0.5748 -0.9288 -0.4906
 1399SOL    HW114876   6.441   9.846   1.557  0.1599 -0.8321 -0.0537
 1399SOL    HW214877   6.461   9.688   1.522 -1.5858 -0.9669 -0.4963
 1400SOL     OW14878   6.859   8.775   3.227 -0.5979 -0.3109  0.3946
 1400SOL    HW114879   6.878   8.784   3.324  0.9881 -0.1467  0.0807
 1400SOL    HW214880   6.765   8.805   3.208 -1.1124 -0.9370  1.9510
 1401SOL     OW14881   0.407   1.792   2.923  0.1411 -0.3489  0.1834
 1401SOL    HW114882   0.444   1.829   2.838  0.2016  0.6026  0.6199
 1401SOL    HW214883   0.334   1.727   2.902 -0.6690  0.7913 -0.5672
 1402SOL     OW14884   1.549   2.773   3.744  0.2510 -0.2745  0.1740
 1402SOL    HW114885   1.546   2.840   3.818 -0.8603 -0.5325  0.3743
 1402SOL    HW214886   1.637   2.725   3.746  0.2117 -0.3231  1.3687
 1403SOL     OW14887   9.101   8.066   3.529  0.2618  0.0233 -0.7203
 1403SOL    HW114888   9.105   7.989   3.465  0.4373 -1.1046  0.6169
 1403SOL    HW214889   9.016   8.116   3.516 -0.5238 -1.2653 -0.6459
 1404SOL     OW14890   6.330   0.627   1.830  0.3816 -0.3870 -0.1297
 1404SOL    HW114891   6.230   0.623   1.826  0.2209  2.2009  0.6802
 1404SOL    HW214892   6.368   0.556   1.771 -1.9391 -0.0672 -2.0869
 1405SOL     OW14893   1.263   3.463   4.301 -0.0848 -0.0956  1.5006
 1405SOL    HW114894   1.188   3.504   4.249  1.6279  2.4825  0.9403
 1405SOL    HW214895   1.329   3.421   4.238  0.8767  1.0865  1.6936
 1406SOL     OW14896   0.114   2.728   2.282  0.2364 -0.9024 -0.0422
 1406SOL    HW114897   0.081   2.747   2.189 -1.5620 -1.2237  0.5034
 1406SOL    HW214898   0.146   2.633   2.286  0.4230 -0.8542 -0.3666
 1407SOL     OW14899   6.563   7.893   1.531  0.5845  0.5503  0.3846
 1407SOL    HW114900   6.521   7.956   1.596 -0.5200  0.1251  0.1094
 1407SOL    HW214901   6.662   7.890   1.545  0.2690 -0.1462  2.5658
 1408SOL     OW14902   3.808   9.519   1.200  0.5240  0.1487 -0.1341
 1408SOL    HW114903   3.721   9.492   1.159  2.0149 -1.7867 -2.1137
 1408SOL    HW214904   3.833   9.453   1.272  0.8861  0.0859 -0.3185
 1409SOL     OW14905   9.341   7.221   4.538 -0.0651 -0.3340  0.6611
 1409SOL    HW114906   9.319   7.250   4.445 -0.3978 -1.4321  0.3900
 1409SOL    HW214907   9.270   7.159   4.572  0.1624 -0.1134  1.5608
 1410SOL     OW14908   1.577   5.711   3.412 -0.4850  0.0677  0.5995
 1410SOL    HW114909   1.508   5.779   3.386  0.2325 -0.0994 -1.8807
 1410SOL    HW214910   1.668   5.750   3.400 -0.0476 -1.5227 -1.5550
 1411SOL     OW14911   7.373   9.676   4.554  0.3007 -0.0004 -0.0506
 1411SOL    HW114912   7.402   9.765   4.519  1.5691 -0.3356  0.1186
 1411SOL    HW214913   7.453   9.624   4.582 -0.6187 -0.0576  2.6189
 1412SOL     OW14914   8.423   0.770   0.857  0.1328 -0.1280  0.2343
 1412SOL    HW114915   8.421   0.721   0.769  2.6062  0.3657 -0.1569
 1412SOL    HW214916   8.512   0.756   0.900 -0.7677  0.3345  2.2757
 1413SOL     OW14917   0.241   7.663   2.398  0.0823 -0.0653 -0.1989
 1413SOL    HW114918   0.224   7.716   2.315  0.5145  1.2774  0.5474
 1413SOL    HW214919   0.192   7.576   2.393 -1.2631  0.7292 -1.1240
 1414SOL     OW14920   2.791   7.305   3.059  0.2042 -0.3796 -0.1599
 1414SOL    HW114921   2.821   7.265   3.146 -0.2758 -1.7211 -0.6100
 1414SOL    HW214922   2.792   7.235   2.988  0.5760  0.7096 -1.2396
 1415SOL     OW14923   3.303   7.851   0.301  0.3756 -0.5716 -0.4957
 1415SOL    HW114924   3.284   7.798   0.384 -1.1427 -0.0217 -0.4621
 1415SOL    HW214925   3.345   7.792   0.233 -0.7121 -1.6774 -0.2354
 1416SOL     OW14926   9.851   6.000   2.466 -0.1281  0.1743  0.6445
 1416SOL    HW114927   9.752   5.994   2.480 -0.4471  0.9568 -1.1251
 1416SOL    HW214928   9.876   6.095   2.445  1.0942  0.0968  1.6839
 1417SOL     OW14929   8.256   4.234   0.276 -0.2399 -0.5835 -0.1125
 1417SOL    HW114930   8.213   4.144   0.287 -0.6065 -0.3921  0.0052
 1417SOL    HW214931   8.350   4.221   0.244  0.0212 -1.0499  0.8154
 1418SOL     OW14932   2.264   0.590   3.826 -0.0248  0.4479  0.7994
 1418SOL    HW114933   2.283   0.493   3.841  1.9854  0.7368  0.2035
 1418SOL    HW214934   2.171   0.611   3.857 -0.7385 -1.8141  0.2203
 1419SOL     OW14935   3.587   3.678   2.573  0.4670 -0.2312  0.2915
 1419SOL    HW114936   3.560   3.696   2.478 -2.4699 -0.9011  0.9547
 1419SOL    HW214937   3.582   3.763   2.626  0.7967 -0.1333  0.1698
 1420SOL     OW14938   3.508   6.187   0.853 -0.3615 -0.2922  0.7288
 1420SOL    HW114939   3.433   6.129   0.821  0.7246 -1.0414 -0.5005
 1420SOL    HW214940   3.595   6.144   0.831  0.4337  0.1362  2.9610
 1421SOL     OW14941   0.070   6.100   1.714 -0.2990 -0.1972  0.5095
 1421SOL    HW114942   0.131   6.034   1.757 -1.4052 -1.0945  0.7312
 1421SOL    HW214943   0.008   6.139   1.782 -0.8150 -0.2323  0.0665
 1422SOL     OW14944   1.655   4.003   2.085 -0.0082 -0.2380 -0.1986
 1422SOL    HW114945   1.569   3.952   2.086  0.2940 -0.7599 -0.8771
 1422SOL    HW214946   1.660   4.060   2.003  0.3478 -0.3047 -0.2259
 1423SOL     OW14947   8.959   7.004   4.090 -0.4575 -0.0542  0.1286
 1423SOL    HW114948   8.962   6.986   4.188 -1.0167 -1.1834 -0.0615
 1423SOL    HW214949   8.878   6.962   4.050  0.4071 -0.6664 -1.0285
 1424SOL     OW14950   1.518   5.840   1.120 -0.8495 -0.3667 -0.2386
 1424SOL    HW114951   1.578   5.906   1.165 -2.3102  1.2220 -0.5524
 1424SOL    HW214952   1.424   5.853   1.152 -1.4641 -1.0134 -1.7340
 1425SOL     OW14953   1.749   3.924   2.802  0.5527 -0.0871 -0.3634
 1425SOL    HW114954   1.772   4.007   2.854 -0.6904 -0.1617  0.3189
 1425SOL    HW214955   1.665   3.884   2.838  1.1063 -1.6237 -0.7330
 1426SOL     OW14956   1.171   7.789   1.873 -0.1629 -0.2834  0.0946
 1426SOL    HW114957   1.213   7.792   1.783 -0.5049 -0.7471 -0.0817
 1426SOL    HW214958   1.221   7.725   1.931  0.1889  0.1780  0.3033
 1427SOL     OW14959   3.988   1.194   3.280 -0.0183  0.3864  0.0150
 1427SOL    HW114960   4.039   1.123   3.329 -1.7065  0.2931  1.6863
 1427SOL    HW214961   3.960   1.158   3.191  1.8138  0.0506 -0.4467
 1428SOL     OW14962   8.334   7.486   0.504 -0.1152  0.1648  0.3400
 1428SOL    HW114963   8.277   7.416   0.460 -1.1105  1.1066  0.1380
 1428SOL    HW214964   8.369   7.450   0.591 -0.8727 -0.4789  0.3839
 1429SOL     OW14965   8.065   5.195   3.902  0.0391 -0.0631  0.3866
 1429SOL    HW114966   8.119   5.182   3.819  0.2417 -0.2611  0.5467
 1429SOL    HW214967   8.124   5.187   3.982 -0.3825 -1.2289  0.5962
 1430SOL     OW14968   3.785   4.043   2.279 -0.2978 -0.1281 -0.0816
 1430SOL    HW114969   3.841   4.035   2.196 -1.4660 -1.3049 -0.7673
 1430SOL    HW214970   3.697   3.997   2.264 -0.9929  0.7141  1.3876
 1431SOL     OW14971   4.757   4.290   0.802 -0.6973 -0.5427 -0.5470
 1431SOL    HW114972   4.701   4.338   0.870 -0.6626 -0.5584 -0.5070
 1431SOL    HW214973   4.838   4.252   0.847 -1.2584 -1.5425 -0.3882
 1432SOL     OW14974   2.512   1.704   2.062 -0.5658  0.1204  0.1663
 1432SOL    HW114975   2.585   1.732   1.999  0.9083  1.7124  2.4861
 1432SOL    HW214976   2.466   1.785   2.098 -2.4841 -0.8260 -0.0889
 1433SOL     OW14977   3.861   5.822   1.264  0.4867  0.0489  0.0476
 1433SOL    HW114978   3.789   5.767   1.223 -0.5471  1.8377 -0.6099
 1433SOL    HW214979   3.820   5.899   1.313  1.9189  1.0530 -0.2854
 1434SOL     OW14980   9.521   4.492   3.121  0.5264  0.0955  0.2067
 1434SOL    HW114981   9.479   4.579   3.096  2.6916  1.6501  1.8379
 1434SOL    HW214982   9.617   4.492   3.095  0.9462 -1.1996  1.6366
 1435SOL     OW14983   9.139   4.831   4.062 -0.6225 -0.8274 -0.4863
 1435SOL    HW114984   9.165   4.781   3.980 -1.8752 -1.4718 -0.5017
 1435SOL    HW214985   9.212   4.824   4.130  0.2522 -0.6165 -1.3895
 1436SOL     OW14986   3.956   4.104   3.882 -0.3604  0.1572 -0.6479
 1436SOL    HW114987   3.920   4.155   3.961 -0.0811  1.1696 -1.1727
 1436SOL    HW214988   3.906   4.130   3.800 -0.1484 -0.3412 -0.9356
 1437SOL     OW14989   0.086   2.948   0.998 -0.1648 -0.4692  0.2206
 1437SOL    HW114990   0.111   3.023   0.936 -0.3895 -0.0776  0.5995
 1437SOL    HW214991   0.137   2.956   1.083 -0.6157 -0.4157  0.4883
 1438SOL     OW14992   4.017   2.650   0.063 -0.6250  0.3374  0.5035
 1438SOL    HW114993   3.994   2.664  -0.033  0.7648 -1.3908 -0.0902
 1438SOL    HW214994   3.935   2.622   0.113 -1.3169  1.0950 -0.1807
 1439SOL     OW14995   9.357   9.563   1.070  0.1912 -0.2619 -0.0554
 1439SOL    HW114996   9.261   9.560   1.044  0.1301 -1.0257  0.2649
 1439SOL    HW214997   9.368   9.527   1.162  0.8154 -0.3666 -0.1693
 1440SOL     OW14998   5.597   9.242   3.375 -0.1412 -0.5361  0.5313
 1440SOL    HW114999   5.570   9.148   3.393 -1.5523 -0.1869  0.3309
 1440SOL    HW215000   5.515   9.297   3.355  0.5567  0.9018  1.4759
 1441SOL     OW15001   6.279   0.316   0.896 -0.2724 -0.0776 -0.0807
 1441SOL    HW115002   6.245   0.400   0.852 -0.7481  0.0978  0.6077
 1441SOL    HW215003   6.232   0.303   0.983 -0.2889 -1.1340 -0.2419
 1442SOL     OW15004   1.397   7.743   0.436  0.3854  0.2778 -0.0511
 1442SOL    HW115005   1.422   7.656   0.477 -0.7243 -0.5924 -1.1858
 1442SOL    HW215006   1.441   7.818   0.486  0.8138 -0.8865  1.3275
 1443SOL     OW15007   7.775   5.529   3.808 -0.3771 -0.0882 -0.3485
 1443SOL    HW115008   7.858   5.512   3.860  0.6393 -0.0074 -1.9204
 1443SOL    HW215009   7.745   5.444   3.764 -1.6359 -0.3221  0.9047
 1444SOL     OW15010   2.734   8.445   1.115 -0.7184  0.1384  0.1450
 1444SOL    HW115011   2.712   8.441   1.212 -3.1065 -2.9637 -0.4568
 1444SOL    HW215012   2.671   8.509   1.069 -0.3344  0.7229  0.4220
 1445SOL     OW15013   0.784   6.804   2.155 -0.0090  0.2746  0.1911
 1445SOL    HW115014   0.748   6.794   2.248 -1.4238  1.9563 -0.1447
 1445SOL    HW215015   0.724   6.863   2.102  2.0738  1.3100 -1.0938
 1446SOL     OW15016   6.177   1.079   2.723 -1.0593 -0.3037 -0.7996
 1446SOL    HW115017   6.222   1.158   2.682 -0.2425 -0.3774 -0.0489
 1446SOL    HW215018   6.106   1.111   2.785 -0.9731 -0.1638 -0.7708
 1447SOL     OW15019   1.889   5.517   2.447 -0.1112  0.4011 -0.3048
 1447SOL    HW115020   1.858   5.488   2.537  1.3390 -0.1585  0.0231
 1447SOL    HW215021   1.813   5.559   2.397 -0.8197  1.0600  1.3161
 1448SOL     OW15022   9.397   4.792   3.277 -0.1631 -0.2627 -0.1245
 1448SOL    HW115023   9.496   4.794   3.267 -0.0685  0.5886  0.8340
 1448SOL    HW215024   9.354   4.774   3.188  0.7789  1.6778 -1.0110
 1449SOL     OW15025   0.355   5.441   3.144 -0.0216  0.7503  0.0620
 1449SOL    HW115026   0.380   5.538   3.144  0.1938  0.7003 -0.5877
 1449SOL    HW215027   0.438   5.386   3.148 -0.2023  0.5968  1.7526
 1450SOL     OW15028   9.543   8.257   1.815 -0.0163 -0.3220 -0.1599
 1450SOL    HW115029   9.615   8.256   1.884 -0.5127 -1.2640  0.3521
 1450SOL    HW215030   9.516   8.352   1.798  0.3135 -0.0561  0.7247
 1451SOL     OW15031   8.941   9.071   1.024 -0.2693 -0.5711 -0.2481
 1451SOL    HW115032   8.888   8.987   1.029 -0.0556 -0.7837 -1.3177
 1451SOL    HW215033   8.975   9.095   1.115 -2.1527 -0.4412  0.4361
 1452SOL     OW15034   0.977   1.538   4.449 -0.1086  0.3110 -0.1072
 1452SOL    HW115035   0.985   1.637   4.440  1.3832  0.3077  1.0051
 1452SOL    HW215036   0.920   1.516   4.529 -0.9364  0.2611 -0.7008
 1453SOL     OW15037   3.565   4.298   3.115 -0.1719 -0.2052 -0.3899
 1453SOL    HW115038   3.641   4.355   3.146 -0.5842  0.0520  0.1700
 1453SOL    HW215039   3.558   4.217   3.174 -0.8352  0.1847  0.0818
 1454SOL     OW15040   5.857   9.938   3.903 -0.9238 -0.7513 -0.8007
 1454SOL    HW115041   5.834   9.994   3.824 -0.0599  0.7088 -0.0357
 1454SOL    HW215042   5.855   9.994   3.986 -2.2457 -2.3341  0.3071
 1455SOL     OW15043   7.740   3.225   4.146  0.3804 -0.0619  0.4830
 1455SOL    HW115044   7.707   3.223   4.052 -0.7284 -0.9103  0.8778
 1455SOL    HW215045   7.680   3.169   4.204  0.9098  0.6434  1.7364
 1456SOL     OW15046   3.388   3.045   2.261  0.1178  0.4201  0.1003
 1456SOL    HW115047   3.377   3.145   2.259 -1.3969  0.2594 -0.3274
 1456SOL    HW215048   3.303   3.004   2.292  0.5612 -0.7796 -0.2746
 1457SOL     OW15049   2.577   9.221   1.114 -0.7447 -0.5118 -0.4420
 1457SOL    HW115050   2.479   9.237   1.111 -0.8436 -0.9666  0.5219
 1457SOL    HW215051   2.614   9.255   1.200  0.3779  2.1336 -1.8772
 1458SOL     OW15052   0.841   2.172   3.057  0.1549 -0.6219 -0.4306
 1458SOL    HW115053   0.914   2.152   3.122  0.5008  1.1820 -0.2328
 1458SOL    HW215054   0.795   2.257   3.084  1.8377  1.4636 -3.8045
 1459SOL     OW15055   9.651   1.423   1.495  0.0185  0.6292 -0.1166
 1459SOL    HW115056   9.706   1.350   1.454  0.6241  0.1408  1.5153
 1459SOL    HW215057   9.554   1.398   1.492  0.0720  0.5207 -1.0758
 1460SOL     OW15058   3.176   7.736   0.634  0.7732  0.2520 -0.5760
 1460SOL    HW115059   3.159   7.713   0.730 -0.6881 -1.9178 -1.3039
 1460SOL    HW215060   3.116   7.811   0.606 -0.0698 -0.2921 -0.2501
 1461SOL     OW15061   7.982   1.264   3.817 -0.1672  0.5262 -0.3517
 1461SOL    HW115062   7.920   1.207   3.871  0.4245  0.8859  0.7133
 1461SOL    HW215063   8.072   1.222   3.815  0.3265  1.5450  0.6160
 1462SOL     OW15064   8.100   4.258   0.863  0.7923 -0.2079  0.0456
 1462SOL    HW115065   8.137   4.335   0.811  0.9487  0.2609  0.8255
 1462SOL    HW215066   8.061   4.293   0.949 -0.1609 -0.8680 -0.1199
 1463SOL     OW15067   2.988   0.209   0.915 -0.3474  0.1628 -0.7612
 1463SOL    HW115068   2.890   0.207   0.899 -0.0882  0.6840 -2.4435
 1463SOL    HW215069   3.035   0.245   0.835  1.2498 -0.3958 -0.1041
 1464SOL     OW15070   0.850   4.215   3.166  0.3879  0.1996  0.6298
 1464SOL    HW115071   0.938   4.178   3.136 -0.3298  1.1378 -2.7969
 1464SOL    HW215072   0.804   4.147   3.223  1.0621 -2.4308 -1.8418
 1465SOL     OW15073   9.597   6.869   4.367 -0.0770 -0.2363  0.1189
 1465SOL    HW115074   9.687   6.911   4.353 -0.5733  0.5571 -0.7851
 1465SOL    HW215075   9.572   6.816   4.285 -1.5785  1.7364 -0.7573
 1466SOL     OW15076   6.544   0.019   0.755 -0.0284  0.7733 -0.3794
 1466SOL    HW115077   6.489   0.032   0.838  0.8290  0.6150  0.2215
 1466SOL    HW215078   6.641   0.023   0.779  0.2484  2.7326 -1.6735
 1467SOL     OW15079   0.423   3.076   3.062 -0.4111  0.3959  0.1716
 1467SOL    HW115080   0.345   3.045   3.117  0.5930 -1.9247  0.3697
 1467SOL    HW215081   0.390   3.110   2.974 -1.5776 -2.0075 -0.3641
 1468SOL     OW15082   5.693   9.866   2.853 -0.3774 -0.0411 -0.5030
 1468SOL    HW115083   5.785   9.884   2.817 -0.2258 -1.6226 -0.9443
 1468SOL    HW215084   5.701   9.825   2.944 -0.5583 -2.4758 -1.5566
 1469SOL     OW15085   8.403   1.901   1.933 -0.1700 -0.3720  0.8793
 1469SOL    HW115086   8.437   1.974   1.993 -1.3435  0.7272  0.2374
 1469SOL    HW215087   8.314   1.869   1.967  0.1725 -1.2725  0.9504
 1470SOL     OW15088   8.328   8.383   3.288  0.4080 -0.2516 -0.1736
 1470SOL    HW115089   8.312   8.482   3.291  0.9959 -0.0701 -2.0666
 1470SOL    HW215090   8.280   8.339   3.364  0.9703  1.5878  1.2774
 1471SOL     OW15091   9.004   0.935   0.842 -0.3868  0.4521 -0.2555
 1471SOL    HW115092   9.029   1.022   0.884  0.6216 -0.0344  0.1631
 1471SOL    HW215093   9.075   0.867   0.861 -0.5191 -0.1086 -1.6881
 1472SOL     OW15094   1.614   2.065   3.535 -0.4440 -0.6429 -0.3577
 1472SOL    HW115095   1.584   2.113   3.617 -1.1956 -0.1136 -0.9284
 1472SOL    HW215096   1.575   1.973   3.534 -0.3804 -0.6724 -0.0911
 1473SOL     OW15097   4.142   9.696   0.841  0.0131  0.1020  0.0781
 1473SOL    HW115098   4.136   9.795   0.845 -0.4038  0.0053  3.0244
 1473SOL    HW215099   4.199   9.663   0.916  0.0941 -1.8874 -0.8257
 1474SOL     OW15100   2.854   2.807   2.675 -0.3778 -0.1930 -0.2861
 1474SOL    HW115101   2.769   2.858   2.682 -1.2534 -1.6509  0.0443
 1474SOL    HW215102   2.841   2.729   2.614  0.4825 -0.8841  0.4044
 1475SOL     OW15103   0.369   7.244   4.170  0.0026 -0.2574  0.2618
 1475SOL    HW115104   0.274   7.272   4.170  0.7053  2.2383  0.8681
 1475SOL    HW215105   0.391   7.202   4.082 -1.8249 -1.5941  0.4079
 1476SOL     OW15106   2.998   9.995   4.187 -0.9303  0.2244 -0.1208
 1476SOL    HW115107   3.004   9.896   4.205  1.1855  0.3968  0.1984
 1476SOL    HW215108   3.085  10.028   4.152 -1.4923  2.0743  0.1790
 1477SOL     OW15109   8.483   1.409   4.079 -0.2350  0.5076  0.0849
 1477SOL    HW115110   8.436   1.329   4.116  1.4925 -1.1261 -1.1459
 1477SOL    HW215111   8.463   1.417   3.981  2.5469 -0.6838 -0.6504
 1478SOL     OW15112   2.798   6.416   3.024 -0.0518  0.2229  0.1845
 1478SOL    HW115113   2.890   6.434   2.988 -0.0839 -1.0627 -0.5411
 1478SOL    HW215114   2.730   6.433   2.953 -0.1456 -1.8806 -0.2655
 1479SOL     OW15115   9.153   8.729   4.407  0.7846 -0.1465 -0.3396
 1479SOL    HW115116   9.225   8.777   4.357  0.3443 -0.0178 -0.8570
 1479SOL    HW215117   9.066   8.740   4.359  0.8089 -2.1017 -0.9107
 1480SOL     OW15118   1.355   4.238   4.578  0.1842  0.0966  0.5942
 1480SOL    HW115119   1.274   4.287   4.545 -1.2001 -2.2986  0.2832
 1480SOL    HW215120   1.409   4.298   4.637 -1.2809  2.0610 -0.0153
 1481SOL     OW15121   5.491   0.258   3.916 -0.0686  0.7265  0.0122
 1481SOL    HW115122   5.419   0.202   3.957  2.3953 -2.9756 -0.5354
 1481SOL    HW215123   5.550   0.294   3.989 -0.3774  0.8058  0.2245
 1482SOL     OW15124   3.293   3.841   0.867 -0.0723 -0.4412 -1.0734
 1482SOL    HW115125   3.299   3.920   0.929 -2.4882 -0.6857 -0.4798
 1482SOL    HW215126   3.383   3.822   0.829  0.6272  2.4370 -1.0135
 1483SOL     OW15127   1.622   7.916   3.615 -0.0910  0.1441 -0.0812
 1483SOL    HW115128   1.646   8.010   3.638  1.0855  0.3015 -1.9035
 1483SOL    HW215129   1.705   7.866   3.588 -0.8013 -1.2430  0.2548
 1484SOL     OW15130   0.843   5.194   4.412  0.1237 -0.0199 -0.2365
 1484SOL    HW115131   0.867   5.103   4.377 -1.0660  0.1429 -1.5207
 1484SOL    HW215132   0.925   5.237   4.449  0.6307 -1.7629  0.7612
 1485SOL     OW15133   4.639   7.019   2.697 -0.3285 -0.2950  0.0779
 1485SOL    HW115134   4.678   7.110   2.713 -1.7384  0.1126  1.3293
 1485SOL    HW215135   4.640   6.999   2.599  0.2055  0.9608 -0.1919
 1486SOL     OW15136   0.972   4.011   1.633 -0.1859  0.6194  0.1900
 1486SOL    HW115137   0.908   4.042   1.703  0.9193  0.3524  1.3420
 1486SOL    HW215138   0.995   3.915   1.650  0.1345  0.5733 -0.4946
 1487SOL     OW15139   2.853   3.553   2.164 -0.1035  0.4121 -0.2005
 1487SOL    HW115140   2.898   3.522   2.081  0.3205  3.2058 -1.0546
 1487SOL    HW215141   2.905   3.522   2.244 -0.4599 -2.1861 -0.9380
 1488SOL     OW15142   1.225   0.723   3.782  0.4542  0.4543 -0.3663
 1488SOL    HW115143   1.294   0.665   3.825 -0.6348 -1.0577 -0.6132
 1488SOL    HW215144   1.249   0.738   3.686  1.0458  0.8944 -0.1485
 1489SOL     OW15145   0.253   7.569   4.714 -0.3378  0.4473 -0.2031
 1489SOL    HW115146   0.222   7.478   4.741 -1.7505  0.6165 -1.1706
 1489SOL    HW215147   0.335   7.561   4.658  0.1439 -0.1561  0.5774
 1490SOL     OW15148   7.701   7.563   2.449  0.4757  0.1955 -0.1184
 1490SOL    HW115149   7.761   7.639   2.424 -0.2642  1.3335  1.4893
 1490SOL    HW215150   7.622   7.561   2.388  0.5219  0.6835 -0.1927
 1491SOL     OW15151   3.066   5.616   3.942 -0.1620  0.0455 -0.4279
 1491SOL    HW115152   3.092   5.689   3.879 -0.9752 -0.2688 -1.1445
 1491SOL    HW215153   2.970   5.626   3.968  0.1707  0.1791  0.7882
 1492SOL     OW15154   6.727   0.128   1.790  0.1164  0.8568  0.2594
 1492SOL    HW115155   6.771   0.212   1.821  0.2719  1.0279 -0.4227
 1492SOL    HW215156   6.774   0.093   1.709 -0.4672  0.5697  0.0395
 1493SOL     OW15157   9.342   8.879   1.721 -0.3881 -0.2020 -0.0984
 1493SOL    HW115158   9.407   8.928   1.779 -0.6911  1.0199 -0.7805
 1493SOL    HW215159   9.382   8.867   1.630 -1.4084  1.2584 -0.7601
 1494SOL     OW15160   2.101   9.290   1.487  0.1875  0.3996 -0.2189
 1494SOL    HW115161   2.171   9.219   1.479 -0.1194  0.2380 -1.5499
 1494SOL    HW215162   2.010   9.250   1.473 -0.0534  0.8879 -0.0682
 1495SOL     OW15163   4.670   9.798   2.971 -0.0724 -0.3567  0.3548
 1495SOL    HW115164   4.764   9.767   2.982 -0.6349 -1.5380  1.9722
 1495SOL    HW215165   4.642   9.788   2.875  2.0061  1.7016 -0.5152
 1496SOL     OW15166   3.723   3.539   2.937 -0.1727 -0.0630  0.7146
 1496SOL    HW115167   3.774   3.551   3.022  1.2537 -0.8349 -0.0098
 1496SOL    HW215168   3.685   3.447   2.933 -1.3530  0.3934  1.0889
 1497SOL     OW15169   3.210   6.201   1.222  0.0397  0.1823  0.6024
 1497SOL    HW115170   3.133   6.211   1.159 -0.1786 -0.3428  0.7837
 1497SOL    HW215171   3.180   6.225   1.315 -0.3605 -1.6193  0.9599
 1498SOL     OW15172   4.269   1.761   0.609  0.3058  0.7996  0.6478
 1498SOL    HW115173   4.172   1.781   0.623  0.2460  0.4579  0.7203
 1498SOL    HW215174   4.310   1.730   0.695  0.4755  0.9152  0.6113
 1499SOL     OW15175   8.172   6.240   1.905  0.1266  0.3296 -0.1138
 1499SOL    HW115176   8.213   6.225   1.995 -0.5752  0.5994  0.2549
 1499SOL    HW215177   8.187   6.334   1.877 -2.9545  1.3711  1.4510
 1500SOL     OW15178   1.539   3.111   1.369 -0.1910 -0.2197  0.4948
 1500SOL    HW115179   1.598   3.097   1.290  0.0074  0.3313  0.5473
 1500SOL    HW215180   1.507   3.206   1.371 -1.4558 -0.6323  0.2037
 1501SOL     OW15181   8.642   2.377   4.109  0.8085  0.2807  0.4686
 1501SOL    HW115182   8.614   2.420   4.195  2.1284 -1.7136  1.9367
 1501SOL    HW215183   8.705   2.302   4.128 -0.1810 -1.2712 -2.1499
 1502SOL     OW15184   1.695   9.192   0.146  0.3708 -0.3330 -0.2776
 1502SOL    HW115185   1.629   9.118   0.154  0.5372 -0.3519  1.1826
 1502SOL    HW215186   1.702   9.222   0.051 -0.7596 -1.2106 -0.6392
 1503SOL     OW15187   9.778   9.803   3.727  0.4266 -1.4208 -0.3770
 1503SOL    HW115188   9.786   9.795   3.628 -2.1859  1.1670 -0.8513
 1503SOL    HW215189   9.868   9.823   3.766  0.8918  1.2608 -2.6640
 1504SOL     OW15190   9.937   4.904   3.050 -0.2717  0.0979  0.0426
 1504SOL    HW115191   9.986   4.927   2.966 -0.9721  0.6375 -0.2204
 1504SOL    HW215192   9.872   4.976   3.072  0.3331  0.2626  1.3921
 1505SOL     OW15193   1.731   2.974   2.995  0.1535  0.0165  0.4305
 1505SOL    HW115194   1.664   3.047   2.984 -0.7749 -0.5522  2.0309
 1505SOL    HW215195   1.797   2.977   2.920 -0.9979  1.2920 -0.5591
 1506SOL     OW15196   6.488   8.577   2.738 -0.5297  0.0745 -0.1763
 1506SOL    HW115197   6.406   8.585   2.681 -1.7703 -0.7371  1.4399
 1506SOL    HW215198   6.536   8.665   2.740 -2.7930  1.3147  0.9504
 1507SOL     OW15199   3.912   3.401   3.741 -0.0582  0.1597 -0.0661
 1507SOL    HW115200   3.996   3.362   3.779 -0.8395 -0.0756  1.4124
 1507SOL    HW215201   3.884   3.480   3.795 -1.4659 -0.4999  0.1811
 1508SOL     OW15202   4.128   7.703   4.267  0.1683  0.1875 -0.4453
 1508SOL    HW115203   4.096   7.609   4.280  0.4187 -0.0441 -1.4382
 1508SOL    HW215204   4.052   7.766   4.278 -0.0541 -0.1589 -0.0229
 1509SOL     OW15205   3.756   2.717   0.222 -0.3496  0.2092  0.9024
 1509SOL    HW115206   3.779   2.658   0.300 -0.3184 -1.3437 -0.2455
 1509SOL    HW215207   3.779   2.812   0.244  1.5485 -0.4693  2.0423
 1510SOL     OW15208   2.071   3.283   4.303 -0.1209 -0.3968  0.2605
 1510SOL    HW115209   2.140   3.334   4.252 -0.9060 -0.8193 -1.2850
 1510SOL    HW215210   2.113   3.203   4.347  0.1136 -1.6063 -2.0741
 1511SOL     OW15211   8.199   8.092   3.707 -0.2036  0.0772  0.0631
 1511SOL    HW115212   8.173   8.010   3.656  0.6356  0.3939 -0.8813
 1511SOL    HW215213   8.255   8.066   3.785 -0.7848 -0.3348  0.3455
 1512SOL     OW15214   9.903   0.479   1.087 -0.6027  0.1329  0.5299
 1512SOL    HW115215   9.877   0.467   1.183  0.5619  2.3419  1.1807
 1512SOL    HW215216   9.992   0.437   1.072  0.2400  1.6671  1.0267
 1513SOL     OW15217   2.914   9.075   1.993 -0.1394 -0.0909 -0.2869
 1513SOL    HW115218   2.836   9.012   1.994  0.2935 -0.6719  2.8136
 1513SOL    HW215219   2.895   9.152   2.054  1.5390  0.0119  0.1216
 1514SOL     OW15220   0.201   1.516   4.647 -0.6152  0.4423 -0.5164
 1514SOL    HW115221   0.292   1.519   4.606 -0.4548 -0.1791 -0.2032
 1514SOL    HW215222   0.167   1.610   4.657 -0.7206  0.5934 -2.1846
 1515SOL     OW15223   5.507   8.659   2.277  0.6008  0.3053 -0.2129
 1515SOL    HW115224   5.524   8.563   2.300 -0.5947  0.2421  0.4881
 1515SOL    HW215225   5.429   8.692   2.331  0.5038  1.4349 -1.0360
 1516SOL     OW15226   5.326   7.375   1.758  0.0750 -0.3684  0.0362
 1516SOL    HW115227   5.282   7.369   1.848  0.0533  0.4622  0.0827
 1516SOL    HW215228   5.350   7.283   1.727 -0.5376 -0.7175  0.5827
 1517SOL     OW15229   7.249   2.780   4.432 -0.0762 -0.1379 -0.8218
 1517SOL    HW115230   7.324   2.808   4.492  2.2466 -1.0740 -3.2112
 1517SOL    HW215231   7.286   2.751   4.344 -3.4132  1.3066 -2.7877
 1518SOL     OW15232   3.207   5.704   2.238  0.2095 -0.2142  0.1122
 1518SOL    HW115233   3.211   5.797   2.202  0.4573 -0.0636  0.5205
 1518SOL    HW215234   3.154   5.646   2.176  1.8008 -0.3011 -1.2076
 1519SOL     OW15235   6.943   7.163   2.235  0.2671  0.0281  0.0036
 1519SOL    HW115236   6.864   7.115   2.197 -0.1115  0.7347 -0.1085
 1519SOL    HW215237   6.912   7.244   2.286  0.9074  0.2684  0.0184
 1520SOL     OW15238   7.948   3.521   0.780  0.5362 -0.0864  0.0067
 1520SOL    HW115239   8.007   3.487   0.707  0.5224 -0.1851  0.0405
 1520SOL    HW215240   7.975   3.614   0.805  0.8969 -0.2551  0.2542
 1521SOL     OW15241   3.817   2.378   0.625 -0.4289  0.0575  0.0840
 1521SOL    HW115242   3.807   2.309   0.554 -2.4938  0.0373  0.3636
 1521SOL    HW215243   3.791   2.339   0.714 -2.3633  1.3726  0.1268
 1522SOL     OW15244   1.011   8.793   2.380  0.2852 -0.0623 -0.0775
 1522SOL    HW115245   1.098   8.755   2.350  1.0732  0.3867  1.5396
 1522SOL    HW215246   1.027   8.884   2.419 -1.1776  0.7906 -1.4065
 1523SOL     OW15247   4.556   2.635   2.922  0.3370 -0.5531 -0.4767
 1523SOL    HW115248   4.572   2.631   2.824 -0.3534  1.6900 -0.7199
 1523SOL    HW215249   4.629   2.687   2.966  1.3587 -2.6768  0.4105
 1524SOL     OW15250   3.880   9.267   1.378 -0.1405 -0.4472  0.2333
 1524SOL    HW115251   3.840   9.176   1.381 -0.6865 -0.2190 -0.0323
 1524SOL    HW215252   3.979   9.260   1.392 -0.1744 -1.0792  0.1867
 1525SOL     OW15253   1.395   7.149   3.951 -0.2562 -0.3073 -0.1677
 1525SOL    HW115254   1.319   7.178   3.893 -0.7566 -1.2131  0.0198
 1525SOL    HW215255   1.368   7.155   4.047  0.0069 -0.3523 -0.0909
 1526SOL     OW15256   0.879   5.056   2.729 -0.4715  0.6283 -0.3502
 1526SOL    HW115257   0.893   4.957   2.726 -0.5561  0.6278 -0.7221
 1526SOL    HW215258   0.951   5.097   2.784 -1.2075  0.2214  0.9277
 1527SOL     OW15259   4.526   0.984   4.499  0.1018 -0.1552 -0.4094
 1527SOL    HW115260   4.448   1.016   4.552 -0.1665 -3.2440  1.1580
 1527SOL    HW215261   4.503   0.984   4.401 -0.3575  2.8996 -0.3379
 1528SOL     OW15262   8.234   1.555   3.077  0.4236 -0.0456 -0.3400
 1528SOL    HW115263   8.148   1.591   3.039  0.8302  1.1577 -0.1171
 1528SOL    HW215264   8.275   1.492   3.011 -2.7645 -3.9891  1.2525
 1529SOL     OW15265   2.669   6.151   2.712 -0.1623 -0.3407 -0.1262
 1529SOL    HW115266   2.668   6.247   2.742  2.3531 -0.4364  0.3561
 1529SOL    HW215267   2.700   6.146   2.617  1.7082 -0.8128  0.4910
 1530SOL     OW15268   1.107   6.743   3.736 -0.0535 -0.4152  0.0564
 1530SOL    HW115269   1.069   6.798   3.810 -0.9144 -1.3238  0.3038
 1530SOL    HW215270   1.205   6.761   3.729 -0.0727  0.1430  1.0155
 1531SOL     OW15271   8.078   8.721   0.877  0.4445 -0.0334 -0.2401
 1531SOL    HW115272   8.050   8.716   0.973  0.6188  1.4255 -0.1000
 1531SOL    HW215273   8.122   8.635   0.851  1.4109 -0.0280  1.3089
 1532SOL     OW15274   8.889   9.046   4.624  0.2568 -0.1168 -0.8953
 1532SOL    HW115275   8.888   8.952   4.657 -0.4117  0.4612  0.8350
 1532SOL    HW215276   8.819   9.058   4.554 -0.1551 -0.7314 -0.5873
 1533SOL     OW15277   7.626   6.777   3.105 -0.1069 -0.4260 -0.3545
 1533SOL    HW115278   7.542   6.757   3.055 -0.5085 -0.6225  0.3884
 1533SOL    HW215279   7.668   6.691   3.136 -0.2243 -0.2808  0.2262
 1534SOL     OW15280   1.530   9.082   1.762  0.1434 -0.1144  0.3188
 1534SOL    HW115281   1.494   9.161   1.713  2.1394  1.0513  0.6886
 1534SOL    HW215282   1.527   9.099   1.860  1.5223 -0.0640  0.3654
 1535SOL     OW15283   8.819   6.349   1.849  0.3233 -0.7876 -0.1096
 1535SOL    HW115284   8.731   6.302   1.838  0.4747 -1.4759  1.5119
 1535SOL    HW215285   8.893   6.290   1.817  0.4223 -1.2802  0.9998
 1536SOL     OW15286   3.393   0.776   3.038 -0.3594 -0.0631  0.2249
 1536SOL    HW115287   3.372   0.762   2.941  0.9122 -0.0144 -0.0775
 1536SOL    HW215288   3.312   0.758   3.093 -1.8231  2.4112 -1.0291
 1537SOL     OW15289   4.076   3.284   0.163  0.2160  0.6395  0.2299
 1537SOL    HW115290   4.118   3.291   0.254  0.9155 -1.4222  0.0853
 1537SOL    HW215291   4.144   3.310   0.094  1.0334 -1.7906  0.0587
 1538SOL     OW15292   3.290   2.191   4.065 -0.7667 -0.1642 -0.0385
 1538SOL    HW115293   3.368   2.131   4.045 -1.3867 -0.4940 -1.5362
 1538SOL    HW215294   3.260   2.235   3.981 -3.2534 -1.3358  0.2101
 1539SOL     OW15295   0.195   5.907   2.964  0.5949 -0.3890  0.3745
 1539SOL    HW115296   0.223   5.851   2.886  0.1529 -0.3368  0.1782
 1539SOL    HW215297   0.271   5.968   2.989  1.6235 -2.1351  1.5682
 1540SOL     OW15298   8.336   0.844   4.402 -0.2596 -0.0493 -0.2447
 1540SOL    HW115299   8.344   0.769   4.337 -0.4378 -1.0916  0.9125
 1540SOL    HW215300   8.423   0.893   4.408 -0.2418  0.0430 -1.2486
 1541SOL     OW15301   0.472   4.177   3.719 -0.0448  0.7614  0.1006
 1541SOL    HW115302   0.551   4.195   3.662 -0.6153  1.6304 -0.4327
 1541SOL    HW215303   0.491   4.100   3.780  1.9672  2.2464  1.4405
 1542SOL     OW15304   9.618   5.349   1.319 -0.2988  0.1392  0.2685
 1542SOL    HW115305   9.542   5.407   1.289 -0.6888 -1.4554 -1.9303
 1542SOL    HW215306   9.602   5.255   1.291  2.5028 -0.2219 -0.3483
 1543SOL     OW15307   9.245   1.413   4.300 -0.1285 -0.4862  0.3917
 1543SOL    HW115308   9.212   1.319   4.303  0.6594 -0.7287  1.6793
 1543SOL    HW215309   9.271   1.442   4.392 -0.4248  1.0129  0.0118
 1544SOL     OW15310   9.317   6.766   1.942  0.0221 -0.7181  0.3593
 1544SOL    HW115311   9.238   6.825   1.962  0.3111 -0.0403 -0.4387
 1544SOL    HW215312   9.356   6.733   2.028 -0.0939  0.3366  0.8348
 1545SOL     OW15313   2.254   1.358   0.531 -0.5919 -0.7546 -0.5779
 1545SOL    HW115314   2.343   1.316   0.515  0.1899  0.4442  0.4958
 1545SOL    HW215315   2.267   1.445   0.579 -2.2088  0.3907 -2.1670
 1546SOL     OW15316   9.804   1.140   1.710 -0.3584  0.7526  0.0160
 1546SOL    HW115317   9.851   1.109   1.793  1.5159 -0.9402 -1.6287
 1546SOL    HW215318   9.872   1.172   1.644 -1.8747  2.5284 -0.7202
 1547SOL     OW15319   1.032   4.438   2.751  0.0188 -0.1076  0.3360
 1547SOL    HW115320   0.967   4.402   2.818  0.1360 -0.4725  0.2523
 1547SOL    HW215321   1.058   4.366   2.687 -0.7351  0.4507 -0.6159
 1548SOL     OW15322   8.412   5.666   4.472 -0.1281 -0.0717  0.3972
 1548SOL    HW115323   8.354   5.719   4.411 -1.4241  0.5516  2.1285
 1548SOL    HW215324   8.392   5.569   4.461 -1.5995  0.1542  1.0829
 1549SOL     OW15325   5.851   9.779   2.373 -0.2678  0.1950 -0.6532
 1549SOL    HW115326   5.841   9.682   2.393 -1.0130  0.5751  0.9108
 1549SOL    HW215327   5.940   9.795   2.329 -0.0041 -1.1351 -0.6219
 1550SOL     OW15328   0.395   0.106   3.916  0.1361 -0.0468  0.0276
 1550SOL    HW115329   0.460   0.170   3.957 -0.7047  1.3500 -0.8176
 1550SOL    HW215330   0.445   0.042   3.857  0.9299  0.0341  0.6055
 1551SOL     OW15331   9.211   2.799   1.151 -0.0941  0.0775  0.8762
 1551SOL    HW115332   9.143   2.761   1.088  0.2110  1.1062 -0.0830
 1551SOL    HW215333   9.167   2.866   1.211  0.1380  1.0728 -0.0403
 1552SOL     OW15334   5.218   0.401   0.794 -0.4083  0.2869  0.3964
 1552SOL    HW115335   5.144   0.354   0.842 -1.5765  0.6916 -0.9735
 1552SOL    HW215336   5.187   0.428   0.703  1.8347 -0.7011 -0.7188
 1553SOL     OW15337   2.192   8.891   3.312  0.9558 -0.1263  0.0986
 1553SOL    HW115338   2.179   8.840   3.227 -0.1137 -2.3618  1.5407
 1553SOL    HW215339   2.110   8.943   3.333  0.8713 -0.3126  0.2318
 1554SOL     OW15340   8.378   6.159   1.748 -0.4860  0.5468  0.3605
 1554SOL    HW115341   8.307   6.185   1.813 -0.7675  0.6855 -0.0005
 1554SOL    HW215342   8.353   6.191   1.656  0.1521  0.7997  0.2727
 1555SOL     OW15343   0.355   5.095   4.455  0.2069 -0.4289  0.5836
 1555SOL    HW115344   0.353   5.083   4.555 -5.0733 -2.3694  0.3891
 1555SOL    HW215345   0.340   5.191   4.433 -1.4485 -0.4242  1.6500
 1556SOL     OW15346   9.937   7.256   2.248  0.1593 -0.0599  0.2761
 1556SOL    HW115347   9.942   7.301   2.159  1.3204 -0.9522 -0.1193
 1556SOL    HW215348   9.846   7.271   2.287 -0.1610  0.8468 -0.7835
 1557SOL     OW15349   0.734   3.053   1.903  0.4290 -0.0647  0.0897
 1557SOL    HW115350   0.731   2.989   1.980 -0.3632  0.8423  0.8217
 1557SOL    HW215351   0.787   3.012   1.828  2.1519 -0.4904  1.5066
 1558SOL     OW15352   3.514   8.179   3.937  0.3810  0.0234 -0.5693
 1558SOL    HW115353   3.607   8.179   3.899  0.7429  1.1296  0.2816
 1558SOL    HW215354   3.454   8.234   3.879  0.3700 -0.2968 -0.8606
 1559SOL     OW15355   7.662   8.497   3.678 -0.0363  0.5182 -0.1058
 1559SOL    HW115356   7.701   8.512   3.587  1.8316 -0.0226  0.5814
 1559SOL    HW215357   7.694   8.569   3.740 -1.0445  0.7007  0.2063
 1560SOL     OW15358   0.664   8.582   3.745  0.2990  0.3941  0.7876
 1560SOL    HW115359   0.694   8.673   3.715  0.6307 -0.4926 -1.6498
 1560SOL    HW215360   0.744   8.525   3.763  0.0882 -0.1965 -0.1404
 1561SOL     OW15361   2.792   5.658   0.229 -0.6578 -0.2831  0.0857
 1561SOL    HW115362   2.762   5.577   0.180  0.7618  0.5483 -2.2827
 1561SOL    HW215363   2.883   5.642   0.268 -0.4437  0.0655 -0.2490
 1562SOL     OW15364   0.253   6.841   1.889  0.1726 -0.0286 -0.0513
 1562SOL    HW115365   0.220   6.755   1.850 -1.7086  0.8411 -0.4228
 1562SOL    HW215366   0.195   6.867   1.966 -1.5408  2.7208 -2.1672
 1563SOL     OW15367   3.336   7.625   3.640  0.4403  0.1470 -0.6165
 1563SOL    HW115368   3.320   7.678   3.557 -0.5754  0.8989  0.0444
 1563SOL    HW215369   3.263   7.644   3.706  1.1397 -0.5791  0.3764
 1564SOL     OW15370   8.258   8.379   0.462 -0.2654 -0.0762  0.3232
 1564SOL    HW115371   8.328   8.320   0.422  0.0985 -0.4180  1.4614
 1564SOL    HW215372   8.171   8.330   0.465 -0.9229  0.8442 -2.4241
 1565SOL     OW15373   3.835   7.961   1.132  0.0265  0.0687  0.4561
 1565SOL    HW115374   3.774   7.998   1.062  0.8153  0.7917  0.1392
 1565SOL    HW215375   3.930   7.969   1.100  0.1634 -3.0638 -0.0035
 1566SOL     OW15376   3.936   1.845   3.035 -0.1791 -0.1041  0.5945
 1566SOL    HW115377   3.947   1.793   3.120  0.6762 -1.1105 -0.1199
 1566SOL    HW215378   3.983   1.797   2.961 -0.9222  0.7736 -0.4449
 1567SOL     OW15379   8.283   5.541   2.721  0.5557  0.2232 -0.1228
 1567SOL    HW115380   8.336   5.601   2.782  0.9975 -0.1570 -0.1307
 1567SOL    HW215381   8.186   5.546   2.745  0.6199  0.7738  0.0209
 1568SOL     OW15382   4.262   3.689   0.981  0.0454  0.4282 -0.0970
 1568SOL    HW115383   4.296   3.773   0.940  1.2535 -0.6646 -1.3581
 1568SOL    HW215384   4.238   3.707   1.077  0.5796  2.1234 -0.2565
 1569SOL     OW15385   4.961   2.810   2.238  0.3546 -0.0504  0.3792
 1569SOL    HW115386   4.976   2.894   2.292  1.3137 -0.9273  1.5125
 1569SOL    HW215387   5.023   2.809   2.160  0.5423  0.1605  0.5251
 1570SOL     OW15388   1.252   3.016   2.916  0.5133 -0.0589 -0.1465
 1570SOL    HW115389   1.285   2.930   2.954  0.5787 -0.1258 -0.3560
 1570SOL    HW215390   1.221   3.001   2.822 -0.6945 -0.1303  0.2535
 1571SOL     OW15391   8.587   4.010   3.365  0.0709 -0.1372  0.4024
 1571SOL    HW115392   8.558   4.084   3.304 -1.3317 -0.7145  0.3560
 1571SOL    HW215393   8.563   3.922   3.325  0.0029 -0.5596  1.3559
 1572SOL     OW15394   1.694   6.922   4.062 -0.1352 -0.4058  0.4481
 1572SOL    HW115395   1.722   6.923   4.158  1.1616 -0.0889  0.0819
 1572SOL    HW215396   1.773   6.900   4.005 -0.9426 -0.7767 -0.5321
 1573SOL     OW15397   0.163   5.942   1.008  0.3922  0.0637 -0.1543
 1573SOL    HW115398   0.225   5.887   0.951 -0.9075 -1.9374  0.3199
 1573SOL    HW215399   0.142   6.028   0.960  0.0968 -1.1518 -2.2954
 1574SOL     OW15400   4.874   8.347   2.153 -0.3084 -0.1256 -0.4254
 1574SOL    HW115401   4.959   8.398   2.138 -0.8881  1.2945  0.8971
 1574SOL    HW215402   4.796   8.407   2.134 -1.0061 -0.8068  0.2637
 1575SOL     OW15403   9.854   0.585   2.692  0.3196 -0.0398  0.0439
 1575SOL    HW115404   9.891   0.516   2.630 -0.3159  1.2914 -1.8738
 1575SOL    HW215405   9.855   0.550   2.786 -0.7804 -2.9598 -0.9758
 1576SOL     OW15406   0.917   7.597   0.697  0.4509  0.3280  0.3624
 1576SOL    HW115407   0.894   7.502   0.678  1.1928  0.0561  0.8304
 1576SOL    HW215408   0.842   7.640   0.748  1.0166 -0.5834  1.9853
 1577SOL     OW15409   9.067   1.016   1.312 -0.0153  0.3418  0.2081
 1577SOL    HW115410   9.156   1.015   1.357  0.1291  0.9320 -0.0563
 1577SOL    HW215411   8.995   1.015   1.382  0.2061  1.2272  0.4616
 1578SOL     OW15412   7.841   9.474   1.272 -0.3121 -0.0494 -0.1961
 1578SOL    HW115413   7.763   9.450   1.330  0.9977 -1.1374  1.1694
 1578SOL    HW215414   7.836   9.422   1.187 -0.5498 -0.8864  0.3185
 1579SOL     OW15415   7.975   3.910   3.376 -0.2574  1.2309 -0.2637
 1579SOL    HW115416   7.890   3.913   3.428  0.3805  1.9652  0.7592
 1579SOL    HW215417   7.955   3.911   3.278 -1.5178 -1.3198 -0.0627
 1580SOL     OW15418   7.820   6.241   2.112  0.1988 -0.0509  0.0400
 1580SOL    HW115419   7.828   6.241   2.211 -1.9257  0.9144  0.2306
 1580SOL    HW215420   7.879   6.312   2.074 -0.1577  0.6055  0.7119
 1581SOL     OW15421   8.391   0.600   4.269 -0.0076 -0.4334  0.4084
 1581SOL    HW115422   8.429   0.586   4.177  1.9918 -1.1026  1.3161
 1581SOL    HW215423   8.462   0.585   4.337 -1.6526 -0.6358  2.1148
 1582SOL     OW15424   3.473   8.344   4.691 -0.1053  0.1455  0.0967
 1582SOL    HW115425   3.421   8.325   4.775 -1.0833 -2.6710 -1.0949
 1582SOL    HW215426   3.568   8.318   4.705 -0.3874 -0.8717  0.1433
 1583SOL     OW15427   7.464   0.721   2.844  0.5122  0.0671 -0.1740
 1583SOL    HW115428   7.396   0.760   2.906 -0.3460 -0.3597 -0.8445
 1583SOL    HW215429   7.544   0.692   2.896 -0.0070  0.1474  0.6736
 1584SOL     OW15430   7.711   9.532   4.111 -0.4173 -0.3248 -0.1673
 1584SOL    HW115431   7.714   9.440   4.150  0.7568 -0.8271 -1.3947
 1584SOL    HW215432   7.619   9.551   4.076 -0.8348 -0.7759  0.6850
 1585SOL     OW15433   2.006   1.693   3.032  0.2641  0.3209  0.1947
 1585SOL    HW115434   2.004   1.628   3.108  2.6172  0.6851  0.6193
 1585SOL    HW215435   1.975   1.648   2.949 -2.0744 -0.1647  1.2881
 1586SOL     OW15436   2.539   4.516   0.426  0.1686 -0.5336  0.3881
 1586SOL    HW115437   2.567   4.427   0.459  4.3060  0.5649  0.0978
 1586SOL    HW215438   2.537   4.515   0.326 -1.0551 -0.6148  0.3991
 1587SOL     OW15439   8.176   4.857   0.291 -0.2306 -0.2014 -0.0984
 1587SOL    HW115440   8.130   4.806   0.364 -0.3856  0.7316  0.4602
 1587SOL    HW215441   8.271   4.872   0.315  0.1958 -1.4590 -0.9109
 1588SOL     OW15442   2.387   3.495   3.319  0.1491 -0.4832 -0.4668
 1588SOL    HW115443   2.409   3.430   3.246 -1.5485 -0.6614 -0.8568
 1588SOL    HW215444   2.378   3.445   3.406 -0.1528 -0.6288 -0.5793
 1589SOL     OW15445   8.975   5.106   2.493  0.5043 -0.4867  0.2809
 1589SOL    HW115446   9.006   5.201   2.496  1.0107 -0.6855  1.7053
 1589SOL    HW215447   8.876   5.103   2.511  0.4911 -0.2452  0.2491
 1590SOL     OW15448   9.037   2.199   1.315  0.2870  0.1961 -0.3191
 1590SOL    HW115449   9.083   2.121   1.273  0.7923  0.7410 -0.7971
 1590SOL    HW215450   8.965   2.167   1.376  2.0130 -0.7437  1.2895
 1591SOL     OW15451   2.866   7.014   1.012 -0.4603  0.0732  0.0228
 1591SOL    HW115452   2.822   6.930   0.979  1.3223  0.0296 -2.3990
 1591SOL    HW215453   2.964   6.997   1.024 -0.2822  1.4957  0.6229
 1592SOL     OW15454   9.002   1.505   2.558  0.4056  0.1898  0.3982
 1592SOL    HW115455   9.007   1.480   2.655 -0.2470 -3.0478 -0.3371
 1592SOL    HW215456   8.933   1.448   2.513  1.4662  0.9037 -2.2143
 1593SOL     OW15457   4.796   8.654   3.483 -0.0585 -0.3369 -0.3326
 1593SOL    HW115458   4.749   8.602   3.411 -1.6551 -0.1850  0.5918
 1593SOL    HW215459   4.729   8.701   3.540  1.3630  3.0705 -1.3608
 1594SOL     OW15460   0.717   1.849   1.422  0.3875 -0.3385  0.8010
 1594SOL    HW115461   0.669   1.778   1.370 -0.0012  0.2466  0.3552
 1594SOL    HW215462   0.804   1.812   1.456 -0.1263 -1.2392  1.1620
 1595SOL     OW15463   0.139   0.622   4.660  0.2978  0.2373  0.1332
 1595SOL    HW115464   0.071   0.555   4.689  0.9823  0.2742  1.8518
 1595SOL    HW215465   0.092   0.705   4.630 -0.4792 -0.3686 -0.3538
 1596SOL     OW15466   3.377   9.219   4.385 -0.6307  0.4812 -0.2894
 1596SOL    HW115467   3.407   9.282   4.314 -1.2563 -0.1418 -1.1199
 1596SOL    HW215468   3.280   9.196   4.371 -0.0133 -1.8958 -0.9478
 1597SOL     OW15469   1.602   3.394   2.284  0.6985 -0.1076  0.1033
 1597SOL    HW115470   1.593   3.494   2.280 -0.2232 -0.2150 -0.5392
 1597SOL    HW215471   1.599   3.357   2.191  1.0958 -0.7285  0.3403
 1598SOL     OW15472   2.288   4.225   1.183  0.2342  0.0649  0.2371
 1598SOL    HW115473   2.286   4.129   1.211  0.1087  0.0938  0.3252
 1598SOL    HW215474   2.231   4.238   1.102 -0.6488  0.2784  0.8844
 1599SOL     OW15475   6.128   9.944   3.292 -0.1265 -0.4886 -0.6040
 1599SOL    HW115476   6.168  10.000   3.220 -0.2634 -0.0648 -0.3541
 1599SOL    HW215477   6.161   9.850   3.284 -0.0378 -0.4100 -1.1333
 1600SOL     OW15478   2.097   2.865   0.941  0.0519 -0.0466  0.2617
 1600SOL    HW115479   2.173   2.846   1.003  1.4890  1.4557 -0.9763
 1600SOL    HW215480   2.068   2.960   0.953 -2.7677 -1.0394  1.8726
 1601SOL     OW15481   9.870   3.464   4.431 -0.3779 -0.2340 -0.1937
 1601SOL    HW115482   9.965   3.478   4.458 -0.4824 -0.9859  0.5995
 1601SOL    HW215483   9.822   3.414   4.503 -1.4368  0.3488 -0.4906
 1602SOL     OW15484   3.204   1.617   3.436  0.5382  0.3457  0.0447
 1602SOL    HW115485   3.141   1.539   3.439  0.7493  0.1658 -0.1434
 1602SOL    HW215486   3.204   1.663   3.524  0.7051 -0.1015  0.2813
 1603SOL     OW15487   1.967   7.330   2.840 -0.0191  0.0840  0.0189
 1603SOL    HW115488   1.964   7.428   2.861  0.5987 -0.1004  1.0030
 1603SOL    HW215489   2.060   7.304   2.816 -0.7189  0.2970 -3.1433
 1604SOL     OW15490   9.011   6.102   2.914 -0.5093 -0.2569  0.5840
 1604SOL    HW115491   9.048   6.138   2.999 -0.2659  0.1047  0.3318
 1604SOL    HW215492   8.942   6.033   2.933 -0.5462 -0.0826  1.0737
 1605SOL     OW15493   2.848   9.404   3.669 -0.1583 -0.3707  0.2159
 1605SOL    HW115494   2.936   9.453   3.667 -0.2283 -0.2386  0.3968
 1605SOL    HW215495   2.786   9.445   3.602 -0.1491 -0.3364  0.2275
 1606SOL     OW15496   0.454   0.560   4.231  0.4015  0.2540  0.1473
 1606SOL    HW115497   0.416   0.603   4.313  0.9554 -2.1713  1.7070
 1606SOL    HW215498   0.413   0.471   4.216 -0.0469  0.8423 -2.5419
 1607SOL     OW15499   8.044   8.875   4.368  0.2579 -0.0853  0.1492
 1607SOL    HW115500   7.964   8.826   4.333  0.5335  0.2670 -0.9766
 1607SOL    HW215501   8.027   8.973   4.365 -0.6241 -0.0840  3.1903
 1608SOL     OW15502   8.468   5.645   0.139  0.4893 -0.6415  0.1409
 1608SOL    HW115503   8.487   5.574   0.071  2.1906  0.2886 -0.3935
 1608SOL    HW215504   8.458   5.733   0.093 -0.5117 -0.3462  0.9056
 1609SOL     OW15505   0.086   8.435   1.056 -0.3816  0.5172  0.1097
 1609SOL    HW115506   0.112   8.397   0.967 -4.6108  0.2940 -1.1180
 1609SOL    HW215507   0.082   8.534   1.051  1.0477  0.6140  0.5778
 1610SOL     OW15508   4.043   0.339   3.378 -0.0674 -0.1718  0.4941
 1610SOL    HW115509   4.136   0.323   3.412 -0.2929 -1.1053  0.6843
 1610SOL    HW215510   4.029   0.288   3.293 -0.5793 -0.4686  0.7543
 1611SOL     OW15511   7.653   1.613   4.420 -0.2615 -0.4542  0.3635
 1611SOL    HW115512   7.703   1.679   4.365  0.9634 -0.8215  1.0132
 1611SOL    HW215513   7.663   1.521   4.381  0.9633 -0.7791  1.4275
 1612SOL     OW15514   2.959   8.233   2.965  0.6065 -0.6480  0.9371
 1612SOL    HW115515   2.874   8.285   2.977  1.3472  1.2607 -1.5542
 1612SOL    HW215516   2.947   8.141   3.001 -2.6387 -0.5046  0.3956
 1613SOL     OW15517   6.683   8.558   1.033 -0.3963  0.2010 -0.2013
 1613SOL    HW115518   6.686   8.462   1.064 -2.0279 -0.1818 -1.1731
 1613SOL    HW215519   6.594   8.597   1.056 -0.0653  1.2200 -0.6355
 1614SOL     OW15520   4.957   4.866   0.979 -0.1741 -0.4542  0.5433
 1614SOL    HW115521   4.985   4.932   0.909  1.4756 -1.2738  0.4024
 1614SOL    HW215522   4.961   4.773   0.940  1.2258 -0.9641  1.8547
 1615SOL     OW15523   0.592   5.099   2.377  0.3150  0.1437 -0.3333
 1615SOL    HW115524   0.621   5.186   2.418 -0.1812  0.1547 -0.0011
 1615SOL    HW215525   0.501   5.110   2.336  0.9526  0.2296 -1.7660
 1616SOL     OW15526   9.302   7.392   3.982 -0.2967 -0.5679 -0.0893
 1616SOL    HW115527   9.365   7.370   3.908 -0.5649 -0.1966 -0.4306
 1616SOL    HW215528   9.249   7.474   3.958 -0.1848 -0.2782  0.6336
 1617SOL     OW15529   4.056   4.105   1.533 -0.3528  0.1061 -0.1262
 1617SOL    HW115530   4.108   4.021   1.519 -0.6425 -0.2052  0.6722
 1617SOL    HW215531   3.960   4.083   1.550 -0.2452  0.5284  1.1054
 1618SOL     OW15532   1.039   7.475   1.092 -0.5607 -0.6007  0.4461
 1618SOL    HW115533   0.939   7.476   1.104 -0.6007 -0.2352  0.0978
 1618SOL    HW215534   1.070   7.380   1.088 -0.8525 -0.7202  0.8768
 1619SOL     OW15535   9.480   6.468   1.998 -1.0225 -0.5503 -0.2732
 1619SOL    HW115536   9.452   6.542   1.937  0.1018  0.4227  0.3812
 1619SOL    HW215537   9.542   6.406   1.949  0.1572  0.4215 -0.0144
 1620SOL     OW15538   9.039   1.618   2.030 -0.6249 -0.0842 -0.0050
 1620SOL    HW115539   9.139   1.613   2.019 -0.7217 -1.3699 -0.4699
 1620SOL    HW215540   9.005   1.701   1.987  0.4904  1.5155  2.1425
 1621SOL     OW15541   8.884   2.399   4.635 -0.3539 -0.5366  0.3198
 1621SOL    HW115542   8.789   2.416   4.661  0.2639 -0.0564  2.3343
 1621SOL    HW215543   8.945   2.428   4.708  1.3702 -0.7920 -0.9686
 1622SOL     OW15544   1.796   4.107   2.319 -0.0272 -0.9664 -0.2668
 1622SOL    HW115545   1.753   4.043   2.383  0.2404 -0.1763  0.7214
 1622SOL    HW215546   1.749   4.102   2.231  0.6885 -3.3116 -0.5468
 1623SOL     OW15547   8.538   0.294   1.565  0.4501 -0.3981  0.6927
 1623SOL    HW115548   8.477   0.270   1.641 -0.6235  1.9670  0.6187
 1623SOL    HW215549   8.625   0.326   1.600 -0.2878  1.3518  0.9841
 1624SOL     OW15550   6.366   9.615   1.367  0.2136  0.4924 -0.2355
 1624SOL    HW115551   6.313   9.682   1.314  0.5224  1.5436  0.7409
 1624SOL    HW215552   6.310   9.534   1.382 -0.4945  0.8780 -0.7109
 1625SOL     OW15553   4.283   3.344   0.350 -0.0309  0.5044  0.3789
 1625SOL    HW115554   4.278   3.263   0.407  0.4169  0.7762  0.8083
 1625SOL    HW215555   4.230   3.418   0.391 -1.6153  0.0145 -0.7283
 1626SOL     OW15556   6.467   9.591   3.106 -0.0840  0.1690  0.0857
 1626SOL    HW115557   6.415   9.518   3.062 -2.0248  0.5713  1.6411
 1626SOL    HW215558   6.560   9.559   3.123 -0.5857 -1.5449 -0.2903
 1627SOL     OW15559   2.642   2.965   2.717 -0.6069  0.7747 -0.1747
 1627SOL    HW115560   2.552   2.951   2.760 -0.0321  1.1241  1.1843
 1627SOL    HW215561   2.636   3.042   2.653 -0.7966  2.1674  1.4678
 1628SOL     OW15562   6.818   0.463   1.489 -0.3358 -0.5167 -0.4256
 1628SOL    HW115563   6.904   0.498   1.453  0.8279 -2.0365  0.7871
 1628SOL    HW215564   6.831   0.431   1.583 -1.4651 -3.4632 -1.1997
 1629SOL     OW15565   8.697   8.845   2.287 -0.4928 -0.2141  0.5355
 1629SOL    HW115566   8.713   8.840   2.189 -0.6092  1.2626  0.4300
 1629SOL    HW215567   8.602   8.821   2.307 -0.1477 -1.7229  0.4239
 1630SOL     OW15568   0.142   7.371   0.655 -0.1897 -0.3228  0.3836
 1630SOL    HW115569   0.134   7.468   0.677  1.4269  0.0854 -0.8007
 1630SOL    HW215570   0.194   7.325   0.727 -2.9820 -0.8128  2.1878
 1631SOL     OW15571   3.146   8.585   0.712  0.9832  0.2664  0.4860
 1631SOL    HW115572   3.174   8.649   0.783  1.3505 -0.3247  0.8784
 1631SOL    HW215573   3.075   8.524   0.748 -2.4796  3.1377 -1.1299
 1632SOL     OW15574   1.001   5.589   0.610  0.5156  0.1768 -0.0197
 1632SOL    HW115575   0.938   5.619   0.681  0.3948 -2.4081  1.0348
 1632SOL    HW215576   1.085   5.643   0.614 -0.8304  2.3589 -0.1937
 1633SOL     OW15577   9.725   0.216   0.253 -0.4115  0.8269  0.2738
 1633SOL    HW115578   9.775   0.158   0.189  0.7556  0.5747  1.3721
 1633SOL    HW215579   9.649   0.261   0.206 -1.6944 -2.0084 -0.4479
 1634SOL     OW15580   1.403   9.650   0.391 -0.0297 -0.3238 -0.3837
 1634SOL    HW115581   1.423   9.558   0.357 -0.7838 -0.9891  0.9295
 1634SOL    HW215582   1.394   9.647   0.491  0.8919  1.3544 -0.2302
 1635SOL     OW15583   8.264   3.569   0.823 -0.1490  0.1095  0.4671
 1635SOL    HW115584   8.265   3.505   0.900 -0.3230  0.4258  0.7333
 1635SOL    HW215585   8.277   3.662   0.856 -0.9528  0.3303  0.1954
 1636SOL     OW15586   8.983   1.290   4.109 -0.4108  0.8893  0.0463
 1636SOL    HW115587   9.046   1.236   4.164 -0.7353 -0.9033 -1.2767
 1636SOL    HW215588   9.034   1.352   4.050 -0.0358  2.1740  1.6754
 1637SOL     OW15589   5.997   7.756   1.827 -0.2510  0.4671 -0.2705
 1637SOL    HW115590   5.987   7.763   1.728 -1.7561 -0.6050 -0.2116
 1637SOL    HW215591   5.908   7.737   1.869  0.6854 -1.1109  1.0905
 1638SOL     OW15592   8.738   8.824   2.797 -0.0457  0.5773  0.0968
 1638SOL    HW115593   8.786   8.747   2.840 -0.0131  0.1598 -0.6845
 1638SOL    HW215594   8.797   8.905   2.797  0.5613  0.1440 -0.5943
 1639SOL     OW15595   7.975   3.471   0.330 -0.1539  0.3009 -0.1234
 1639SOL    HW115596   8.052   3.521   0.371  0.3205  0.6546 -1.3904
 1639SOL    HW215597   7.941   3.403   0.394  0.0562  1.3702  1.1344
 1640SOL     OW15598   2.482   1.152   0.780  0.0137  0.2350 -0.3289
 1640SOL    HW115599   2.491   1.067   0.832 -0.7732  0.5336  0.2988
 1640SOL    HW215600   2.573   1.185   0.755  0.4050  0.0702  0.8296
 1641SOL     OW15601   0.931   4.312   4.383 -0.1107 -0.6893 -0.4948
 1641SOL    HW115602   1.009   4.314   4.446 -1.0670  0.9649  0.6730
 1641SOL    HW215603   0.937   4.390   4.320 -0.9135 -0.4376 -0.2681
 1642SOL     OW15604   2.328   9.161   0.595  0.0769  0.0441  0.4786
 1642SOL    HW115605   2.355   9.072   0.559 -0.8103  0.1390 -0.4480
 1642SOL    HW215606   2.395   9.192   0.663  0.1809 -1.5004  1.0902
 1643SOL     OW15607   9.117   9.637   0.904  0.4836 -0.2304  0.1308
 1643SOL    HW115608   9.076   9.723   0.937 -1.8335 -1.2326 -0.0105
 1643SOL    HW215609   9.125   9.640   0.805  0.3350 -0.1840  0.1189
 1644SOL     OW15610   1.697   9.349   4.159  0.1452 -0.4315 -0.0824
 1644SOL    HW115611   1.777   9.355   4.218  1.1233 -1.1969 -1.3139
 1644SOL    HW215612   1.724   9.314   4.069 -1.7001 -1.4280 -0.2682
 1645SOL     OW15613   9.899   5.467   2.467  0.2835  0.0629  0.0742
 1645SOL    HW115614   9.886   5.545   2.406 -0.0846  0.8176  1.1053
 1645SOL    HW215615   9.970   5.488   2.534 -0.4457 -0.1425  0.9222
 1646SOL     OW15616   9.384   8.061   3.432  0.4142  0.2084  0.2123
 1646SOL    HW115617   9.292   8.078   3.467  1.4576  1.7813  2.2942
 1646SOL    HW215618   9.423   7.982   3.479 -0.3768 -1.4093 -1.7430
 1647SOL     OW15619   8.760   5.933   1.205  0.4857 -0.2245 -0.2686
 1647SOL    HW115620   8.781   5.842   1.169 -1.3219 -1.0625  0.7384
 1647SOL    HW215621   8.709   5.924   1.291 -0.8978  1.7159 -0.8505
 1648SOL     OW15622   1.058   7.787   0.148 -0.7438 -0.3090  0.2681
 1648SOL    HW115623   1.009   7.732   0.216 -0.8252  0.8736  1.1665
 1648SOL    HW215624   1.011   7.874   0.136  0.1418  0.1032 -0.1748
 1649SOL     OW15625   0.322   4.981   3.622  0.2621 -0.4512  0.1665
 1649SOL    HW115626   0.241   4.988   3.681  0.2865  1.9400 -0.0482
 1649SOL    HW215627   0.313   5.045   3.545  1.4062 -1.6857 -1.0122
 1650SOL     OW15628   7.738   3.351   4.588 -0.4346 -0.2981 -0.0976
 1650SOL    HW115629   7.769   3.392   4.674 -1.5225 -0.2867  0.2917
 1650SOL    HW215630   7.698   3.261   4.607 -0.2147 -0.5161 -0.6574
 1651SOL     OW15631   1.094   1.312   4.730 -0.6198 -0.6451 -0.2648
 1651SOL    HW115632   1.000   1.347   4.733 -0.3550  0.0714 -0.1087
 1651SOL    HW215633   1.143   1.355   4.653  0.4635  1.3022  1.4532
 1652SOL     OW15634   1.300   4.781   3.322 -0.2482 -0.0961 -0.1518
 1652SOL    HW115635   1.377   4.739   3.275 -1.4064  1.7876 -3.9460
 1652SOL    HW215636   1.231   4.808   3.255 -2.2589  2.2049  2.7323
 1653SOL     OW15637   1.502   1.873   0.888 -0.6067  0.3554  0.3504
 1653SOL    HW115638   1.561   1.944   0.851 -0.4709 -0.5633 -1.2301
 1653SOL    HW215639   1.479   1.895   0.983  0.3592  1.9081  0.2407
 1654SOL     OW15640   3.557   7.566   1.206 -0.4111 -0.4793 -0.2440
 1654SOL    HW115641   3.568   7.471   1.179  1.0044 -0.4995  0.4002
 1654SOL    HW215642   3.635   7.620   1.175 -0.7809  0.3043  0.1561
 1655SOL     OW15643   4.483   0.512   1.265  0.0261  0.3491  0.4323
 1655SOL    HW115644   4.558   0.483   1.326 -0.4808 -0.4912  0.6741
 1655SOL    HW215645   4.485   0.611   1.255  0.5962  0.4261  1.2034
 1656SOL     OW15646   0.579   8.913   2.058  0.0289  0.3118 -0.1270
 1656SOL    HW115647   0.592   8.993   2.117 -1.5909  0.1313  0.5074
 1656SOL    HW215648   0.638   8.838   2.090  1.2518  1.1141 -0.4780
 1657SOL     OW15649   0.137   2.561   4.280  0.0729  0.4783 -0.2489
 1657SOL    HW115650   0.205   2.567   4.207  0.7595 -1.3246  0.2055
 1657SOL    HW215651   0.046   2.551   4.241  0.2511  1.2551 -0.8623
 1658SOL     OW15652   3.518   2.829   2.477  0.2964 -0.4177  0.0600
 1658SOL    HW115653   3.482   2.918   2.506 -0.3505 -1.7592  3.6583
 1658SOL    HW215654   3.461   2.793   2.403 -2.0325  0.3031  1.4365
 1659SOL     OW15655   0.566   5.861   4.199 -0.0819  0.3405 -0.1151
 1659SOL    HW115656   0.589   5.794   4.129  0.8922  1.2067 -0.6436
 1659SOL    HW215657   0.556   5.815   4.287  0.3701 -0.5159 -0.5047
 1660SOL     OW15658   3.364   8.013   3.716 -0.2609  0.7935 -0.2141
 1660SOL    HW115659   3.322   7.982   3.801 -1.2889 -0.1279 -1.0470
 1660SOL    HW215660   3.454   7.969   3.706 -1.0662 -0.8217 -0.6500
 1661SOL     OW15661   1.649   4.041   0.429 -0.1745 -0.2689 -0.2916
 1661SOL    HW115662   1.644   3.942   0.444  0.4546 -0.3504 -0.5915
 1661SOL    HW215663   1.562   4.074   0.393 -0.3312 -0.7404 -0.3457
 1662SOL     OW15664   0.428   4.385   0.912  0.0713  0.2314 -0.0932
 1662SOL    HW115665   0.359   4.335   0.860 -0.5335 -0.3008  1.2140
 1662SOL    HW215666   0.412   4.373   1.010  0.9946  1.5153  0.2259
 1663SOL     OW15667   3.876   4.040   3.392  0.0338  0.0541 -0.5687
 1663SOL    HW115668   3.858   4.079   3.482 -0.3563 -0.5993 -0.3645
 1663SOL    HW215669   3.821   3.957   3.380 -0.0235  0.2233 -1.4629
 1664SOL     OW15670   0.528   4.557   0.731 -0.3612  0.5429 -0.3556
 1664SOL    HW115671   0.522   4.473   0.785  0.1407  0.7469  0.0276
 1664SOL    HW215672   0.563   4.536   0.640 -0.1747  0.3464 -0.2386
 1665SOL     OW15673   7.397   9.854   2.221  0.5260  0.1110 -0.0556
 1665SOL    HW115674   7.474   9.816   2.273 -0.3920  0.1172  1.3282
 1665SOL    HW215675   7.408   9.953   2.212  0.0079  0.2920  1.2898
 1666SOL     OW15676   2.941   6.661   1.132  0.2791  0.4685 -0.0097
 1666SOL    HW115677   2.940   6.660   1.032  2.5166 -1.0905 -0.0384
 1666SOL    HW215678   2.858   6.706   1.165 -1.2400 -0.3906 -2.5227
 1667SOL     OW15679   2.613   6.943   2.717  0.6303 -0.1097 -0.4817
 1667SOL    HW115680   2.657   6.855   2.700 -2.1814 -1.6847  0.2549
 1667SOL    HW215681   2.566   6.974   2.635 -0.5946 -0.5811  0.0356
 1668SOL     OW15682   2.505   8.802   2.799  0.1757  0.2418  0.0763
 1668SOL    HW115683   2.554   8.876   2.753  0.1137  0.2450  0.0167
 1668SOL    HW215684   2.468   8.836   2.886  1.4321 -0.1217  0.7693
 1669SOL     OW15685   1.005   8.962   3.165 -0.6311 -0.4569  0.0616
 1669SOL    HW115686   1.054   8.875   3.157  2.0809  0.9905  0.1255
 1669SOL    HW215687   1.037   9.025   3.094 -2.0884  0.7009  0.4044
 1670SOL     OW15688   3.434   2.289   2.890 -0.1559  0.8004  0.5860
 1670SOL    HW115689   3.516   2.331   2.850 -0.5551  2.5709  1.5561
 1670SOL    HW215690   3.437   2.299   2.990 -0.3640 -1.3571  0.8189
 1671SOL     OW15691   8.868   0.550   1.950 -0.5507  0.0849  0.3085
 1671SOL    HW115692   8.883   0.480   2.019 -0.2418  0.8195  1.0041
 1671SOL    HW215693   8.939   0.544   1.879 -0.8648 -0.6668  0.0558
 1672SOL     OW15694   7.017   7.517   1.383  0.1440  0.2471  0.4027
 1672SOL    HW115695   7.013   7.605   1.336  1.0106 -0.1883 -0.4995
 1672SOL    HW215696   6.954   7.453   1.340  1.3777 -0.3321 -0.5557
 1673SOL     OW15697   9.267   5.300   0.576  0.6318 -0.6682 -0.0813
 1673SOL    HW115698   9.184   5.258   0.540  0.7273  0.0030 -1.1033
 1673SOL    HW215699   9.346   5.244   0.551  0.7047 -0.1674 -0.9560
 1674SOL     OW15700   3.559   9.262   4.676  0.1432 -0.1866  0.4231
 1674SOL    HW115701   3.588   9.337   4.736 -0.1217  0.4086 -0.1899
 1674SOL    HW215702   3.461   9.270   4.658  0.5929  0.8393 -1.7490
 1675SOL     OW15703   3.790   0.111   2.067 -0.0631  0.5125  0.1391
 1675SOL    HW115704   3.820   0.045   1.998  0.2630  1.1919 -0.3750
 1675SOL    HW215705   3.698   0.143   2.045 -1.0718 -1.3339  1.5423
 1676SOL     OW15706   6.617   9.049   3.049 -0.2211  0.2358  0.6936
 1676SOL    HW115707   6.682   9.060   2.974 -1.6452 -1.4723 -0.8412
 1676SOL    HW215708   6.647   9.103   3.127  1.4220  1.8767 -1.0193
 1677SOL     OW15709   3.204   7.699   2.163  0.0692 -0.5126  0.6958
 1677SOL    HW115710   3.123   7.758   2.159  0.1110 -0.5600 -1.0541
 1677SOL    HW215711   3.270   7.729   2.094  0.7596 -1.6447  0.8622
 1678SOL     OW15712   3.545   9.284   3.006  0.4098  0.2566 -0.4596
 1678SOL    HW115713   3.601   9.357   3.047  1.5004 -0.6374 -0.3439
 1678SOL    HW215714   3.513   9.223   3.078  0.8002 -0.2718 -0.7336
 1679SOL     OW15715   7.317   9.814   1.580 -0.0551 -0.0214 -0.0299
 1679SOL    HW115716   7.233   9.869   1.582 -0.5786 -0.7764 -0.8174
 1679SOL    HW215717   7.370   9.832   1.663 -0.3224  1.4993 -0.1649
 1680SOL     OW15718   5.262   2.632   0.907 -0.5173  0.4472  0.2994
 1680SOL    HW115719   5.249   2.546   0.858 -0.2442 -0.8812  2.4979
 1680SOL    HW215720   5.355   2.637   0.942 -1.4290  0.1672  2.8785
 1681SOL     OW15721   7.717   8.065   1.068 -0.2898 -0.5215  0.2455
 1681SOL    HW115722   7.747   7.970   1.061 -1.8211 -1.0105  0.0307
 1681SOL    HW215723   7.793   8.126   1.049  0.3811 -1.7178 -0.9917
 1682SOL     OW15724   9.251   7.370   3.431  0.2237 -0.3990 -0.3670
 1682SOL    HW115725   9.307   7.361   3.349  0.6574 -0.0311 -0.1151
 1682SOL    HW215726   9.185   7.295   3.435 -0.9628  0.5152 -1.9449
 1683SOL     OW15727   8.611   0.225   3.824  0.0235  0.1204 -0.2443
 1683SOL    HW115728   8.624   0.153   3.756 -0.7411 -0.5803  0.3426
 1683SOL    HW215729   8.700   0.263   3.849  0.3087  0.4142 -1.6546
 1684SOL     OW15730   8.216   8.812   2.713  0.3839  0.7455  0.0245
 1684SOL    HW115731   8.173   8.744   2.654 -1.4655  0.7130  1.3774
 1684SOL    HW215732   8.286   8.768   2.770  1.2839  0.5471 -1.2222
 1685SOL     OW15733   7.864   2.157   2.603 -0.4672  0.2084 -0.3474
 1685SOL    HW115734   7.794   2.115   2.660 -0.1617  0.3794  0.1556
 1685SOL    HW215735   7.925   2.086   2.567 -0.7094  0.0924 -0.5270
 1686SOL     OW15736   2.934   3.687   0.640  0.1141  0.4380 -0.1546
 1686SOL    HW115737   2.868   3.750   0.600  1.2551  2.2998  0.7957
 1686SOL    HW215738   2.963   3.722   0.729  1.2661 -1.1197  0.1055
 1687SOL     OW15739   0.755   0.529   1.185 -0.2019 -0.2997  0.3297
 1687SOL    HW115740   0.660   0.550   1.161  0.2854  1.0290 -0.5398
 1687SOL    HW215741   0.766   0.533   1.284 -0.3270  3.0418  0.2850
 1688SOL     OW15742   9.507   5.210   3.209 -0.2627  0.1044 -0.1618
 1688SOL    HW115743   9.580   5.270   3.177 -0.2472  0.6335  0.8295
 1688SOL    HW215744   9.424   5.264   3.224 -0.0756  0.0036  1.3217
 1689SOL     OW15745   9.873   3.975   1.133 -0.4854 -0.2711 -0.1551
 1689SOL    HW115746   9.796   4.030   1.163 -1.0173 -0.6593 -0.8153
 1689SOL    HW215747   9.843   3.907   1.066  0.3063 -0.8350  0.0417
 1690SOL     OW15748   0.425   0.757   3.176 -0.3060  0.0670 -0.4210
 1690SOL    HW115749   0.404   0.822   3.103 -0.8359 -0.7406 -0.9900
 1690SOL    HW215750   0.416   0.664   3.142 -0.4659 -0.3186  0.6478
 1691SOL     OW15751   3.856   9.196   1.678  0.6905  0.0098  0.0344
 1691SOL    HW115752   3.946   9.153   1.678  0.7419  0.1043  1.5068
 1691SOL    HW215753   3.790   9.136   1.724  0.1652  0.2708 -0.3674
 1692SOL     OW15754   9.692   8.270   2.046  0.3448 -0.0009 -0.1024
 1692SOL    HW115755   9.730   8.363   2.048  0.1589  0.0900  3.5899
 1692SOL    HW215756   9.750   8.209   2.100 -1.3277 -1.2653  0.3361
 1693SOL     OW15757   7.988   1.511   3.721  0.6813  0.0945  0.2244
 1693SOL    HW115758   7.990   1.415   3.749 -0.4778 -0.0068 -0.0188
 1693SOL    HW215759   8.076   1.554   3.741  0.5010 -0.4751  2.2625
 1694SOL     OW15760   9.152   7.713   0.392 -0.0929 -0.0454  0.0687
 1694SOL    HW115761   9.251   7.718   0.376 -0.2395 -0.6739 -1.1138
 1694SOL    HW215762   9.104   7.750   0.312 -0.8220 -0.2366  0.4168
 1695SOL     OW15763   9.130   5.286   3.043  0.0384  0.0246  0.2100
 1695SOL    HW115764   9.081   5.214   3.092 -1.5228  0.4070 -0.7666
 1695SOL    HW215765   9.165   5.352   3.109  1.6127 -1.6782  1.1326
 1696SOL     OW15766   3.938   6.765   1.816  0.2740  0.1786 -0.4686
 1696SOL    HW115767   3.999   6.838   1.848  0.4625  0.3748 -1.2597
 1696SOL    HW215768   3.921   6.701   1.890  1.5226  0.0738 -0.2597
 1697SOL     OW15769   4.493   6.703   3.629  0.1631 -0.0351 -0.3714
 1697SOL    HW115770   4.543   6.769   3.685  0.3603  1.1312 -1.8841
 1697SOL    HW215771   4.552   6.670   3.555 -0.5769 -0.3876 -0.8107
 1698SOL     OW15772   0.358   9.871   1.607 -0.1021 -0.0999  0.2457
 1698SOL    HW115773   0.386   9.776   1.625  1.2590  0.4537  1.0904
 1698SOL    HW215774   0.266   9.871   1.569  0.4036 -1.8554 -1.0309
 1699SOL     OW15775   8.688   4.238   4.078  0.5713  0.6243 -0.5375
 1699SOL    HW115776   8.754   4.167   4.055  0.6081 -0.1212  1.6805
 1699SOL    HW215777   8.703   4.268   4.173 -2.4668  0.1927  0.1436
 1700SOL     OW15778   0.175   7.116   2.309 -0.4466  0.3639 -0.3137
 1700SOL    HW115779   0.082   7.148   2.293 -0.2487  0.0770 -2.1091
 1700SOL    HW215780   0.240   7.177   2.263  0.1732 -0.1441 -0.1167
 1701SOL     OW15781   2.836   7.803   3.306  0.1376 -0.0928  0.0207
 1701SOL    HW115782   2.832   7.711   3.268  1.9279  0.2103 -0.9608
 1701SOL    HW215783   2.836   7.799   3.405  2.4773 -1.2648 -0.0094
 1702SOL     OW15784   2.838   9.484   4.394 -0.3143 -0.5044  0.4107
 1702SOL    HW115785   2.855   9.583   4.395 -2.2812 -0.1333  0.8136
 1702SOL    HW215786   2.819   9.455   4.301 -1.3349 -0.1822  0.5075
 1703SOL     OW15787   1.553   7.071   2.617 -0.1592 -0.2136 -0.4700
 1703SOL    HW115788   1.531   7.070   2.519 -0.8055  0.6222 -0.3347
 1703SOL    HW215789   1.478   7.113   2.668  0.6989  0.4626  0.2571
 1704SOL     OW15790   0.869   0.756   2.959  0.0855  0.0415  0.4515
 1704SOL    HW115791   0.933   0.691   2.917 -0.7338 -0.1783 -0.4890
 1704SOL    HW215792   0.840   0.721   3.048  0.0834 -0.6205  0.1984
 1705SOL     OW15793   4.321   6.734   2.114 -0.3463 -0.0849 -0.2551
 1705SOL    HW115794   4.322   6.663   2.185  0.2274  0.0300 -0.1419
 1705SOL    HW215795   4.251   6.801   2.136  0.2717  0.3115  0.5801
 1706SOL     OW15796   9.784   4.276   1.158  0.0651  0.6891 -0.3784
 1706SOL    HW115797   9.874   4.317   1.173 -0.6997  2.9509 -1.6509
 1706SOL    HW215798   9.726   4.293   1.237  0.0616  1.2011 -0.4910
 1707SOL     OW15799   7.102   9.592   4.489  0.5744 -0.2508  0.3542
 1707SOL    HW115800   7.190   9.639   4.496 -0.1845  1.1539  0.6918
 1707SOL    HW215801   7.042   9.643   4.426 -0.0922 -1.0382  0.3489
 1708SOL     OW15802   1.507   8.816   1.789  0.2407  0.3747 -0.1508
 1708SOL    HW115803   1.461   8.766   1.715 -0.1772 -1.4463  1.3056
 1708SOL    HW215804   1.500   8.915   1.772 -1.6231  0.0327 -1.4884
 1709SOL     OW15805   0.244   3.971   0.377 -0.3345 -0.2904  0.4100
 1709SOL    HW115806   0.192   4.054   0.398  0.0262  0.0862 -0.1690
 1709SOL    HW215807   0.195   3.917   0.308 -0.7049 -0.6985  0.9900
 1710SOL     OW15808   0.191   6.593   3.095  0.7033 -0.3162 -0.4201
 1710SOL    HW115809   0.284   6.617   3.067  0.9995 -0.3440  0.5366
 1710SOL    HW215810   0.186   6.591   3.195 -0.6129  0.8061 -0.4581
 1711SOL     OW15811   8.520   0.611   2.735  0.5585 -0.4401  0.0133
 1711SOL    HW115812   8.500   0.647   2.643 -0.8563  0.0590  0.5144
 1711SOL    HW215813   8.514   0.685   2.802  2.4228 -0.6269  0.4194
 1712SOL     OW15814   8.777   7.912   0.977 -0.1972 -0.2626 -0.4858
 1712SOL    HW115815   8.745   7.859   1.055 -1.4062 -0.2515 -0.9514
 1712SOL    HW215816   8.854   7.866   0.933 -0.5246 -1.0589 -0.2163
 1713SOL     OW15817   9.741   6.563   0.408  0.1706 -0.2562  0.1476
 1713SOL    HW115818   9.730   6.485   0.470  1.2468 -0.4541  0.0923
 1713SOL    HW215819   9.654   6.612   0.401 -0.0684 -0.4696  1.4927
 1714SOL     OW15820   8.310   4.364   2.268  0.3813  0.5204  0.5547
 1714SOL    HW115821   8.359   4.280   2.245 -0.8344  0.3238 -1.4389
 1714SOL    HW215822   8.247   4.346   2.343 -0.8241 -0.7047 -0.7281
 1715SOL     OW15823   2.135   4.558   1.540 -0.0988 -0.1342 -0.0046
 1715SOL    HW115824   2.039   4.534   1.525  0.3060 -2.4972  0.8815
 1715SOL    HW215825   2.193   4.488   1.498  1.2068  0.2584  1.1136
 1716SOL     OW15826   8.651   0.756   1.146 -0.4202 -0.6169  0.2363
 1716SOL    HW115827   8.749   0.775   1.145 -0.4616 -0.3132  1.1544
 1716SOL    HW215828   8.635   0.659   1.164 -0.2485 -1.1604 -2.3849
 1717SOL     OW15829   1.549   4.621   0.292 -0.7772 -0.4321 -0.0113
 1717SOL    HW115830   1.645   4.649   0.296 -1.4983  2.2730 -0.7784
 1717SOL    HW215831   1.494   4.686   0.343 -2.4911 -0.5975 -1.6114
 1718SOL     OW15832   7.987   8.797   1.137 -0.4159 -0.1634  0.1810
 1718SOL    HW115833   7.991   8.812   1.236  0.4017 -1.5715  0.3691
 1718SOL    HW215834   8.010   8.882   1.090 -1.8321  0.8142  1.1791
 1719SOL     OW15835   4.787   2.131   0.938 -0.0281  0.3808 -0.1078
 1719SOL    HW115836   4.788   2.206   0.872  0.7052 -1.1674 -1.9034
 1719SOL    HW215837   4.693   2.096   0.948 -0.3632  1.4721  0.7055
 1720SOL     OW15838   3.941   1.483   4.087  0.0225  0.0331  0.0882
 1720SOL    HW115839   3.876   1.477   4.162 -0.4133 -0.3376 -0.3106
 1720SOL    HW215840   3.894   1.462   4.001  0.7827 -0.7756 -0.1384
 1721SOL     OW15841   7.882   9.587   0.619  0.0910 -0.0760  0.5096
 1721SOL    HW115842   7.836   9.508   0.577  1.0348 -0.7804  0.7872
 1721SOL    HW215843   7.825   9.622   0.694 -0.0135 -0.9196  0.8321
 1722SOL     OW15844   0.455   1.570   1.307  0.3976 -0.2250  0.7521
 1722SOL    HW115845   0.374   1.524   1.341 -0.2208  0.9399  0.8866
 1722SOL    HW215846   0.432   1.623   1.225  1.7409 -2.5290 -1.2008
 1723SOL     OW15847   8.985   2.056   4.339 -0.2404  0.3386 -0.4500
 1723SOL    HW115848   9.035   2.120   4.398 -2.4147  0.7138  1.0695
 1723SOL    HW215849   8.941   2.108   4.266 -0.5053  0.3477 -0.2842
 1724SOL     OW15850   8.157   2.102   3.723 -0.1358 -0.4635 -0.1733
 1724SOL    HW115851   8.071   2.120   3.675  0.1386  2.2509  0.2701
 1724SOL    HW215852   8.171   2.172   3.793  2.9004 -0.3076 -0.8576
 1725SOL     OW15853   2.053   7.711   3.056 -0.8063  0.1893 -1.1894
 1725SOL    HW115854   1.956   7.693   3.070 -0.4313 -0.5444  0.7774
 1725SOL    HW215855   2.104   7.679   3.136  1.1555 -0.2780 -2.5862
 1726SOL     OW15856   0.134   4.021   1.279  0.0237  0.7576  0.1324
 1726SOL    HW115857   0.044   4.034   1.236  0.1838  1.6485  0.0562
 1726SOL    HW215858   0.133   3.937   1.334  0.2872 -1.2701 -2.8415
 1727SOL     OW15859   2.903   9.949   1.493 -0.1867 -0.5138 -0.1338
 1727SOL    HW115860   2.898  10.049   1.493 -1.0100 -0.5505  0.5899
 1727SOL    HW215861   2.846   9.912   1.567  0.2836 -1.5115 -0.2527
 1728SOL     OW15862   8.026   0.517   0.706  0.3209  0.1359 -0.1500
 1728SOL    HW115863   8.027   0.599   0.763 -0.8647  0.7372 -0.9782
 1728SOL    HW215864   7.961   0.451   0.744 -2.2503  1.4659 -2.0204
 1729SOL     OW15865   3.204   3.359   0.666  0.4302  0.1457  0.3826
 1729SOL    HW115866   3.233   3.284   0.606 -0.6190  1.7180 -2.1957
 1729SOL    HW215867   3.125   3.330   0.719  1.7562 -1.4865  1.4944
 1730SOL     OW15868   9.952   3.884   1.579 -0.7776  0.2385 -0.5977
 1730SOL    HW115869  10.019   3.832   1.525  0.5548  0.5028  0.7570
 1730SOL    HW215870   9.952   3.850   1.673 -2.1531  0.6333 -0.4477
 1731SOL     OW15871   7.681   9.507   2.880 -0.2959  0.8418 -0.0063
 1731SOL    HW115872   7.755   9.454   2.921  0.1856 -0.1811 -2.1667
 1731SOL    HW215873   7.716   9.559   2.802 -1.2570  2.5924  0.6975
 1732SOL     OW15874   6.398   8.878   2.951  0.0796 -0.1678 -0.0225
 1732SOL    HW115875   6.469   8.947   2.968 -0.0050  0.4015 -1.8591
 1732SOL    HW215876   6.337   8.872   3.030 -1.8373  4.2013 -1.0531
 1733SOL     OW15877   3.681   0.015   1.488  0.1542  0.2683  0.4034
 1733SOL    HW115878   3.607  -0.035   1.533  1.0337 -1.4786 -0.0241
 1733SOL    HW215879   3.665   0.017   1.389  0.9054 -0.5207  0.2627
 1734SOL     OW15880   2.737   5.448   0.795  0.3877 -0.1698 -0.7954
 1734SOL    HW115881   2.646   5.490   0.794  0.2208 -0.5006 -0.0472
 1734SOL    HW215882   2.729   5.352   0.769  0.0862 -1.0132  2.2675
 1735SOL     OW15883   2.351   1.818   4.737  0.0884 -0.1950  0.1598
 1735SOL    HW115884   2.332   1.789   4.832  1.3557 -1.2214  0.1152
 1735SOL    HW215885   2.411   1.897   4.738 -0.4724  0.2322  0.2229
 1736SOL     OW15886   5.011   5.059   0.797  0.2088 -0.3680 -0.1755
 1736SOL    HW115887   5.032   5.106   0.711 -0.2401  1.4557  0.6769
 1736SOL    HW215888   4.920   5.087   0.828  0.8778 -0.0289  1.5292
 1737SOL     OW15889   3.836   1.229   3.037  1.0766  0.0648 -0.6978
 1737SOL    HW115890   3.790   1.258   3.121  1.9796  0.4972 -0.3364
 1737SOL    HW215891   3.876   1.309   2.993 -0.1376 -0.0363 -2.0076
 1738SOL     OW15892   9.254   5.255   4.502  0.0524 -0.3607  0.2975
 1738SOL    HW115893   9.241   5.339   4.555  4.4067  0.1675  0.7424
 1738SOL    HW215894   9.291   5.183   4.562  3.0562 -0.3780 -1.4491
 1739SOL     OW15895   0.150   6.566   2.104 -0.3756  0.0879 -0.2385
 1739SOL    HW115896   0.226   6.543   2.164 -1.0068  1.5731  1.1527
 1739SOL    HW215897   0.164   6.522   2.015  1.1282 -1.2151  0.6076
 1740SOL     OW15898   1.113   9.708   1.193 -0.5259  0.0529 -0.4055
 1740SOL    HW115899   1.067   9.710   1.281  0.3765  0.0775  0.0718
 1740SOL    HW215900   1.081   9.785   1.137 -0.3296  0.6468  0.2915
 1741SOL     OW15901   8.250   7.430   2.309  0.1862  0.7130 -0.5382
 1741SOL    HW115902   8.199   7.446   2.394  0.3996 -0.4312 -0.1952
 1741SOL    HW215903   8.188   7.441   2.231 -0.1401  1.2072 -0.2172
 1742SOL     OW15904   4.235   7.602   3.492 -0.2704 -0.0927 -0.0582
 1742SOL    HW115905   4.255   7.609   3.395 -1.6762 -0.0099 -0.3522
 1742SOL    HW215906   4.311   7.556   3.539  1.1031  1.2334 -0.9369
 1743SOL     OW15907   8.754   2.256   1.508 -0.1929  0.6124  0.3540
 1743SOL    HW115908   8.673   2.307   1.538 -0.0499  1.2515 -0.3285
 1743SOL    HW215909   8.726   2.183   1.446 -0.3314  0.2724  0.8105
 1744SOL     OW15910   8.049   7.063   3.492  0.6550 -0.5143 -0.1617
 1744SOL    HW115911   7.972   7.005   3.520  0.1518 -0.2921 -1.0446
 1744SOL    HW215912   8.016   7.132   3.427  1.2175  0.8733  1.0143
 1745SOL     OW15913   8.009   8.200   2.715 -0.8925 -0.1826 -0.3762
 1745SOL    HW115914   7.977   8.108   2.690  1.3180 -1.1327  0.1197
 1745SOL    HW215915   8.107   8.196   2.734 -1.0434  2.0365  0.9693
 1746SOL     OW15916   2.999   5.087   4.607 -0.1157  0.2410 -0.7449
 1746SOL    HW115917   3.032   5.126   4.694 -0.3078 -0.5490 -0.3147
 1746SOL    HW215918   3.042   5.135   4.531  1.8641 -0.6251 -0.1954
 1747SOL     OW15919   8.930   6.578   2.300 -0.5097 -0.2933 -0.0760
 1747SOL    HW115920   8.912   6.513   2.226 -1.3262  1.3579 -1.3507
 1747SOL    HW215921   8.844   6.597   2.348 -0.5327  0.8972 -0.5873
 1748SOL     OW15922   9.850   8.435   0.744  0.2556  0.5246 -0.3993
 1748SOL    HW115923   9.844   8.458   0.647  0.3750 -0.3154 -0.6074
 1748SOL    HW215924   9.820   8.514   0.798 -0.5723  0.7175 -1.1274
 1749SOL     OW15925   4.325   9.696   3.133 -0.1680 -0.6767  0.5828
 1749SOL    HW115926   4.289   9.608   3.163  1.3518 -1.2108  0.9116
 1749SOL    HW215927   4.285   9.721   3.045 -1.9011 -0.8584  1.3035
 1750SOL     OW15928   3.854   4.207   4.107  0.2209 -0.0789 -0.0420
 1750SOL    HW115929   3.902   4.252   4.182 -0.1521  0.4611 -0.1184
 1750SOL    HW215930   3.771   4.259   4.085  1.6018  1.1986 -2.4813
 1751SOL     OW15931   0.179   2.672   0.601  0.2008 -0.0118  0.0894
 1751SOL    HW115932   0.128   2.757   0.614  0.4462  0.0527  0.6426
 1751SOL    HW215933   0.277   2.690   0.611  0.2196 -0.4536  0.7341
 1752SOL     OW15934   0.240   9.406   2.779 -0.1521 -0.3390 -0.8851
 1752SOL    HW115935   0.327   9.444   2.747  1.1076 -1.1564  1.4993
 1752SOL    HW215936   0.257   9.329   2.840 -2.4906  0.7455  1.2245
 1753SOL     OW15937   2.667   2.709   2.215 -0.3676 -0.4149 -0.5299
 1753SOL    HW115938   2.634   2.694   2.122  1.2852 -0.3295 -1.1561
 1753SOL    HW215939   2.763   2.682   2.220 -0.2043  0.4028  0.9291
 1754SOL     OW15940   4.248   2.100   3.738 -0.0975 -0.3228 -0.2334
 1754SOL    HW115941   4.313   2.169   3.772 -1.5545  0.5866  0.7387
 1754SOL    HW215942   4.219   2.042   3.814 -0.3476 -0.8014 -0.6949
 1755SOL     OW15943   9.421   1.245   3.598 -0.3577 -0.1295 -0.0777
 1755SOL    HW115944   9.347   1.203   3.650 -0.5574  2.4081  1.8016
 1755SOL    HW215945   9.435   1.195   3.513 -1.6769 -2.9163  1.2881
 1756SOL     OW15946   3.247   9.146   1.276 -0.4977 -0.2662 -0.4716
 1756SOL    HW115947   3.346   9.139   1.289 -0.6802 -1.0993  0.5528
 1756SOL    HW215948   3.227   9.223   1.216  0.6894  0.9004  0.5820
 1757SOL     OW15949   9.860   2.908   3.724 -0.5087  0.0118  0.1135
 1757SOL    HW115950   9.861   2.868   3.816 -1.3446 -1.8486 -0.6532
 1757SOL    HW215951   9.854   3.008   3.731  1.0778  0.0068  2.0781
 1758SOL     OW15952   0.989   7.219   2.692 -0.6758  0.0659 -0.4470
 1758SOL    HW115953   1.007   7.294   2.756 -1.0273  0.5040 -0.8604
 1758SOL    HW215954   0.959   7.256   2.604  0.8459 -0.4852 -1.2131
 1759SOL     OW15955   1.952   6.863   3.665  0.1235  0.2788 -0.5735
 1759SOL    HW115956   2.048   6.847   3.639 -0.2725  2.2601 -3.5316
 1759SOL    HW215957   1.910   6.777   3.692  2.0671 -1.0725 -1.7172
 1760SOL     OW15958   2.189   7.905   0.254 -0.2466 -0.0879  0.7460
 1760SOL    HW115959   2.150   7.965   0.323  2.4384  2.3703  0.2240
 1760SOL    HW215960   2.156   7.931   0.164 -0.6140 -0.6886  0.7048
 1761SOL     OW15961   1.261   7.587   4.346 -0.2465  0.1957 -0.0700
 1761SOL    HW115962   1.210   7.671   4.326  0.7141  0.7781 -0.1135
 1761SOL    HW215963   1.352   7.592   4.304  0.6214  0.0816  1.7422
 1762SOL     OW15964   2.309   2.877   3.149  0.5520  0.2343  0.3672
 1762SOL    HW115965   2.325   2.781   3.129  1.6621  0.3652  0.6015
 1762SOL    HW215966   2.248   2.885   3.228 -0.6487 -0.2746 -0.5099
 1763SOL     OW15967   3.206   1.000   3.882 -0.4494 -0.3422 -0.1236
 1763SOL    HW115968   3.256   0.977   3.799 -0.0952  0.8035 -0.2350
 1763SOL    HW215969   3.162   1.089   3.871 -0.7290 -0.3692  0.7627
 1764SOL     OW15970   1.978   8.811   4.497  0.2471  0.2473 -0.2383
 1764SOL    HW115971   2.005   8.875   4.425 -0.5063  0.7929 -0.0419
 1764SOL    HW215972   1.996   8.717   4.467  1.5182  0.5553 -0.4560
 1765SOL     OW15973   4.457   7.836   2.740 -0.0320  0.5938  0.2429
 1765SOL    HW115974   4.405   7.751   2.733  1.7788 -0.4920 -0.1561
 1765SOL    HW215975   4.489   7.848   2.834  1.1669 -0.0576 -0.0681
 1766SOL     OW15976   9.667   5.378   0.570  0.4955 -0.6596 -0.0712
 1766SOL    HW115977   9.621   5.300   0.613  0.1919 -1.1507 -1.2657
 1766SOL    HW215978   9.651   5.375   0.472 -0.7252  1.7207  0.0354
 1767SOL     OW15979   0.292   3.794   1.770  0.1662  0.6629 -0.5066
 1767SOL    HW115980   0.354   3.870   1.789 -0.4135  1.5622 -2.1199
 1767SOL    HW215981   0.340   3.726   1.714  0.4263  0.2039  0.2560
 1768SOL     OW15982   4.110   0.171   1.249 -0.5005  0.0025  0.1180
 1768SOL    HW115983   4.194   0.214   1.279 -0.4612  1.4059 -1.9424
 1768SOL    HW215984   4.031   0.225   1.279 -0.7192 -1.4669  2.3072
 1769SOL     OW15985   0.472   6.295   3.504  0.3350  0.0422  0.3225
 1769SOL    HW115986   0.373   6.285   3.492  0.5283 -0.1762 -1.1718
 1769SOL    HW215987   0.496   6.275   3.599 -0.9427 -0.8194  0.4787
 1770SOL     OW15988   9.758   0.077   1.805  0.2914 -0.0012  0.0221
 1770SOL    HW115989   9.768   0.168   1.765 -2.6910  0.8243  1.0346
 1770SOL    HW215990   9.848   0.039   1.823  1.6414  3.8085  1.9590
 1771SOL     OW15991   4.191   1.980   3.973 -0.1346  0.0004  0.0310
 1771SOL    HW115992   4.093   1.985   3.994  0.1917  0.2876  1.5273
 1771SOL    HW215993   4.244   1.998   4.056  1.1844 -0.9647 -0.5790
 1772SOL     OW15994   2.488   4.860   4.628  0.1505  0.3206 -0.0438
 1772SOL    HW115995   2.588   4.862   4.620  0.2274 -0.4558  0.6604
 1772SOL    HW215996   2.460   4.900   4.715 -0.1689  0.7926 -0.3637
 1773SOL     OW15997   0.446   0.377   2.332 -0.6641  0.3791  0.4263
 1773SOL    HW115998   0.498   0.461   2.324  0.8825 -0.6912 -1.0572
 1773SOL    HW215999   0.361   0.385   2.279  0.0428  0.6132 -0.7058
 1774SOL     OW16000   3.813   4.533   2.538 -0.4032 -0.0812 -0.0151
 1774SOL    HW116001   3.880   4.596   2.500 -1.1983  0.6305 -0.2506
 1774SOL    HW216002   3.820   4.444   2.492  0.4894 -0.0646  0.0885
 1775SOL     OW16003   3.461   2.041   0.322  0.2391  0.2293 -0.0086
 1775SOL    HW116004   3.526   2.096   0.270  0.0844 -0.7166 -1.2256
 1775SOL    HW216005   3.495   1.948   0.331  0.1075  0.3008  1.3129
 1776SOL     OW16006   0.882   0.363   1.642 -0.4445  0.1393  0.1932
 1776SOL    HW116007   0.805   0.316   1.685 -0.0602 -2.0920 -1.4556
 1776SOL    HW216008   0.964   0.354   1.699 -0.2489 -1.7155 -0.3299
 1777SOL     OW16009   1.122   1.577   4.101  0.1640  0.0692 -0.3414
 1777SOL    HW116010   1.086   1.515   4.170  0.9086 -0.6138 -0.5617
 1777SOL    HW216011   1.093   1.546   4.010  0.3807  0.1548 -0.4396
 1778SOL     OW16012   4.183   3.730   1.721 -0.3828 -0.4116 -0.2840
 1778SOL    HW116013   4.105   3.677   1.755  0.4751 -2.1824 -1.0023
 1778SOL    HW216014   4.252   3.668   1.684  0.1928  1.2716 -2.1431
 1779SOL     OW16015   3.218   7.284   1.544 -0.0963 -0.0795 -0.3649
 1779SOL    HW116016   3.168   7.322   1.466  0.0798 -0.4708 -0.6720
 1779SOL    HW216017   3.176   7.197   1.571 -1.6770  1.2101  1.5403
 1780SOL     OW16018   8.330   3.685   3.932 -0.0689 -0.1485  0.0147
 1780SOL    HW116019   8.289   3.723   3.849 -0.0194  0.9491  0.4824
 1780SOL    HW216020   8.408   3.628   3.907 -0.0404  0.1882 -0.6980
 1781SOL     OW16021   9.351   7.018   2.178 -0.2300  0.2912 -0.5062
 1781SOL    HW116022   9.271   7.041   2.122 -0.6306  1.4669  0.5293
 1781SOL    HW216023   9.412   7.097   2.182  0.0763  0.0195  0.2283
 1782SOL     OW16024   9.344   2.287   3.558 -0.3163  0.0738 -0.3427
 1782SOL    HW116025   9.423   2.229   3.536  0.9216  0.6474  2.3222
 1782SOL    HW216026   9.348   2.371   3.505  0.6537 -0.0623 -0.4931
 1783SOL     OW16027   2.886   4.849   2.877 -0.1558 -0.2445  0.2738
 1783SOL    HW116028   2.827   4.782   2.832 -0.6172 -0.5048  1.2593
 1783SOL    HW216029   2.982   4.823   2.864 -0.2113  0.5059 -1.8475
 1784SOL     OW16030   8.475   0.419   2.389 -0.0313 -0.8152  0.3631
 1784SOL    HW116031   8.448   0.477   2.465 -2.0259  0.0375 -0.9424
 1784SOL    HW216032   8.453   0.324   2.409  0.4351 -0.7301  1.2722
 1785SOL     OW16033   6.182   0.396   3.089 -0.1577  0.0154 -0.4912
 1785SOL    HW116034   6.196   0.297   3.095 -2.2493 -0.4359 -2.4953
 1785SOL    HW216035   6.129   0.427   3.168  0.6424 -0.4178  0.2261
 1786SOL     OW16036   2.602   4.992   2.964  0.5204  0.2218 -0.3890
 1786SOL    HW116037   2.554   5.039   3.038 -0.6470 -0.3903 -0.7364
 1786SOL    HW216038   2.672   4.932   3.002 -1.0725 -1.2250  0.3328
 1787SOL     OW16039   3.214   6.355   4.493  0.1446  0.1075  0.9910
 1787SOL    HW116040   3.132   6.367   4.436  0.6679  2.9245  0.7674
 1787SOL    HW216041   3.237   6.257   4.497 -1.1845 -0.3868 -1.8240
 1788SOL     OW16042   8.688   5.496   3.622  0.1606 -0.5169 -0.4890
 1788SOL    HW116043   8.704   5.595   3.630  0.0100 -0.5845  0.7779
 1788SOL    HW216044   8.681   5.456   3.713  2.4458 -2.0821 -0.9555
 1789SOL     OW16045   1.434   4.859   0.380 -0.4532 -0.5458 -0.8651
 1789SOL    HW116046   1.493   4.921   0.328  0.7837 -0.0653  1.0321
 1789SOL    HW216047   1.383   4.911   0.449  0.6861 -1.5848  0.8225
 1790SOL     OW16048   7.365   7.734   2.202 -0.4460 -0.3652  0.2486
 1790SOL    HW116049   7.435   7.751   2.132  0.6130  0.1048  1.4023
 1790SOL    HW216050   7.280   7.779   2.175  0.0984  0.2515 -0.4928
 1791SOL     OW16051   7.868   3.280   0.492 -0.0292 -0.2066 -0.2608
 1791SOL    HW116052   7.853   3.184   0.515  1.7595 -0.5682 -0.4981
 1791SOL    HW216053   7.822   3.339   0.558  0.2016 -1.2358  0.8217
 1792SOL     OW16054   2.716   5.131   4.487  0.2835  0.2518 -0.4223
 1792SOL    HW116055   2.633   5.125   4.432  0.4755  0.2821 -0.7191
 1792SOL    HW216056   2.788   5.077   4.443 -0.0755 -1.2039  0.7389
 1793SOL     OW16057   0.150   2.992   1.284 -0.6626 -0.5656 -0.1306
 1793SOL    HW116058   0.070   3.052   1.289  0.8997  1.5280  0.6146
 1793SOL    HW216059   0.232   3.046   1.303  0.9145 -2.6969 -0.8081
 1794SOL     OW16060   9.069   8.433   2.345 -0.7022 -1.0332  0.7873
 1794SOL    HW116061   9.152   8.393   2.307 -0.8845 -1.9214  1.3020
 1794SOL    HW216062   9.089   8.523   2.383  0.0839 -1.3508  1.1345
 1795SOL     OW16063   1.741   3.354   3.057 -0.1622  0.0575 -0.4777
 1795SOL    HW116064   1.702   3.299   2.983 -1.1821 -0.7339  0.6325
 1795SOL    HW216065   1.758   3.446   3.024 -0.9023 -0.1976 -1.6144
 1796SOL     OW16066   0.362   4.935   1.971  0.0046  0.0268  0.0163
 1796SOL    HW116067   0.460   4.945   1.951 -0.1216  1.8287  0.2078
 1796SOL    HW216068   0.351   4.878   2.052  1.1036  2.4154  1.9413
 1797SOL     OW16069   8.982   5.758   4.613  0.1332 -0.4179  0.4176
 1797SOL    HW116070   8.940   5.667   4.617  0.2509 -0.5498 -1.2205
 1797SOL    HW216071   9.041   5.764   4.533 -1.5248  1.7923 -0.7014
 1798SOL     OW16072   3.042   8.525   1.046  0.5393  0.3390 -0.2155
 1798SOL    HW116073   3.016   8.496   0.954 -1.0109  1.6616 -0.2154
 1798SOL    HW216074   2.973   8.494   1.111  0.0595  2.0205  0.0873
 1799SOL     OW16075   4.049   9.419   0.476  0.4531  0.0871 -0.2732
 1799SOL    HW116076   4.147   9.399   0.470  1.2238  3.7565 -1.0820
 1799SOL    HW216077   4.022   9.423   0.572  1.1891 -0.5817 -0.0338
 1800SOL     OW16078   2.331   3.350   1.501  0.3185 -0.7267  0.4554
 1800SOL    HW116079   2.352   3.320   1.594  1.2092  0.4096  0.6226
 1800SOL    HW216080   2.254   3.414   1.503 -0.5952 -1.8052  0.2536
 1801SOL     OW16081   0.277   0.185   1.571 -0.3907 -0.2477 -0.0469
 1801SOL    HW116082   0.189   0.227   1.547  0.2190  0.4078 -1.1783
 1801SOL    HW216083   0.275   0.088   1.548 -1.1379 -0.4364  0.7923
 1802SOL     OW16084   5.586   1.138   3.078  0.2132 -0.6476  0.2570
 1802SOL    HW116085   5.644   1.059   3.060  0.2106 -1.5472  3.7449
 1802SOL    HW216086   5.497   1.124   3.036  0.2827 -2.4275  0.6513
 1803SOL     OW16087   9.113   0.253   2.043  0.4667  0.1119 -0.2705
 1803SOL    HW116088   9.190   0.305   2.079  0.9368  0.8947 -2.3082
 1803SOL    HW216089   9.028   0.290   2.078  0.9289  0.4210  0.5349
 1804SOL     OW16090   9.654   3.571   3.359 -0.1261  0.5810 -0.1688
 1804SOL    HW116091   9.585   3.503   3.332  1.7317 -0.7427 -1.7209
 1804SOL    HW216092   9.632   3.658   3.316 -1.0003  0.2605 -0.4026
 1805SOL     OW16093   1.895   4.022   4.377 -0.2324 -0.0353 -0.1111
 1805SOL    HW116094   1.992   3.999   4.388 -0.4731 -0.7202  0.5978
 1805SOL    HW216095   1.839   3.947   4.411 -1.0514  1.9102  3.0699
 1806SOL     OW16096   3.101   7.220   1.095  0.1912  0.4551  0.0016
 1806SOL    HW116097   3.116   7.125   1.121  0.2806 -0.1093 -2.0190
 1806SOL    HW216098   3.144   7.237   1.006 -2.5374  1.5346 -1.1368
 1807SOL     OW16099   0.108   7.477   1.780  1.2940  0.4640 -0.0755
 1807SOL    HW116100   0.109   7.404   1.712  2.1034  1.7189 -1.4469
 1807SOL    HW216101   0.122   7.565   1.734 -2.6049  1.8356  1.1371
 1808SOL     OW16102   2.247   7.079   0.817 -0.0934 -1.0257 -0.5017
 1808SOL    HW116103   2.317   7.041   0.756  0.8271 -1.2880  0.7082
 1808SOL    HW216104   2.285   7.158   0.866  0.1793 -2.7056  2.0520
 1809SOL     OW16105   1.165   5.901   2.551 -0.1484  0.3546 -0.4280
 1809SOL    HW116106   1.243   5.895   2.613 -0.0461  0.0884 -0.5818
 1809SOL    HW216107   1.084   5.933   2.601 -0.3237 -0.8393  0.0779
 1810SOL     OW16108   3.820   9.788   3.818  0.4866 -0.4834 -0.0224
 1810SOL    HW116109   3.824   9.754   3.724 -0.0717  2.8921 -1.3064
 1810SOL    HW216110   3.742   9.746   3.866 -0.2373 -0.9139 -1.5696
 1811SOL     OW16111   9.407   5.085   4.066  0.3198  0.1448 -0.5479
 1811SOL    HW116112   9.334   5.135   4.114  1.6233  2.5047 -0.9552
 1811SOL    HW216113   9.426   5.000   4.114 -1.6108  0.2392  0.4570
 1812SOL     OW16114   7.934   1.123   1.085 -0.1422 -0.1143  0.1726
 1812SOL    HW116115   8.029   1.154   1.079  0.1851 -1.0567  0.4237
 1812SOL    HW216116   7.872   1.202   1.073  0.5817 -0.0855 -4.2460
 1813SOL     OW16117   9.873   9.565   0.924 -0.3276  0.4337  0.3078
 1813SOL    HW116118   9.878   9.618   1.009 -0.7566 -0.1157  0.6831
 1813SOL    HW216119   9.781   9.526   0.915 -0.0436 -0.1776 -0.0025
 1814SOL     OW16120   0.361   1.353   1.722  0.1763  0.3625  0.4042
 1814SOL    HW116121   0.340   1.333   1.627  0.6977  1.2711  0.0902
 1814SOL    HW216122   0.288   1.411   1.760 -1.0856 -1.6795  1.1703
 1815SOL     OW16123   2.051   0.023   0.171  0.0823 -0.5074  0.0644
 1815SOL    HW116124   2.050   0.119   0.199  1.2140 -0.2225 -0.8458
 1815SOL    HW216125   2.140  -0.016   0.191 -0.6940 -1.6574  1.3373
 1816SOL     OW16126   5.785   9.660   1.167  0.1889  0.3562 -0.0054
 1816SOL    HW116127   5.823   9.605   1.241  0.1175  1.9083  1.2169
 1816SOL    HW216128   5.702   9.617   1.132  0.1819 -0.3533  0.8708
 1817SOL     OW16129   1.140   5.835   0.343  0.1556  0.4668  0.5070
 1817SOL    HW116130   1.046   5.799   0.343 -0.6841  2.5491  0.2495
 1817SOL    HW216131   1.148   5.905   0.415  2.0195 -0.8945  1.6666
 1818SOL     OW16132   1.920   6.386   1.311  0.0810  0.2377  0.4240
 1818SOL    HW116133   1.980   6.359   1.386  0.5107  2.0962  0.7794
 1818SOL    HW216134   1.972   6.389   1.226  0.1715  0.4639  0.4852
 1819SOL     OW16135   1.845   7.439   1.709 -0.0644 -0.1903  0.2229
 1819SOL    HW116136   1.855   7.480   1.618  0.5179  2.5041  1.4717
 1819SOL    HW216137   1.907   7.360   1.717  0.1326 -0.2424 -1.5727
 1820SOL     OW16138   1.653   1.177   1.595  0.5378 -0.1442 -0.4965
 1820SOL    HW116139   1.670   1.275   1.580 -0.6893  0.2951  0.8200
 1820SOL    HW216140   1.556   1.157   1.580  0.2959 -0.6674  1.5923
 1821SOL     OW16141   4.878   6.484   1.500  0.2699 -0.0221 -0.7502
 1821SOL    HW116142   4.875   6.403   1.441 -2.5533 -0.6589  0.2176
 1821SOL    HW216143   4.806   6.548   1.471 -0.7625 -0.0875  1.6167
 1822SOL     OW16144   9.051   7.686   2.494  0.7800 -0.1784 -0.1350
 1822SOL    HW116145   8.973   7.738   2.530 -0.2188 -0.8549 -1.2991
 1822SOL    HW216146   9.025   7.644   2.407  1.7976 -2.0810  0.4669
 1823SOL     OW16147   8.953   1.773   2.555 -0.5474 -0.3913  0.7323
 1823SOL    HW116148   8.960   1.673   2.554 -0.7312 -0.4241  1.6521
 1823SOL    HW216149   9.021   1.810   2.619 -0.2745  0.0940  0.1702
 1824SOL     OW16150   0.839   9.681   4.171  0.0572 -0.3733  0.1087
 1824SOL    HW116151   0.826   9.586   4.142  1.0702 -0.2369 -0.8475
 1824SOL    HW216152   0.763   9.709   4.230 -1.4787 -1.0296 -1.5088
 1825SOL     OW16153   0.197   2.186   0.891  0.4566  0.3596  0.0801
 1825SOL    HW116154   0.216   2.163   0.795 -0.7543  2.2728 -0.6533
 1825SOL    HW216155   0.266   2.251   0.924 -0.1376  1.0837 -0.0764
 1826SOL     OW16156   9.926   3.773   3.362  0.4531  0.6091  0.0507
 1826SOL    HW116157   9.938   3.782   3.263  1.3003 -0.6048  0.0325
 1826SOL    HW216158   9.830   3.790   3.386  0.3311  1.3162 -0.9177
 1827SOL     OW16159   0.167   2.029   3.827 -0.0913 -0.2313  0.5821
 1827SOL    HW116160   0.097   1.981   3.880 -0.5749  0.4981  0.6028
 1827SOL    HW216161   0.137   2.036   3.732  1.3027 -2.5936 -0.0612
 1828SOL     OW16162   2.426   2.357   4.554 -0.0184  0.3529  0.1106
 1828SOL    HW116163   2.452   2.443   4.598  0.4404  0.5731 -0.5792
 1828SOL    HW216164   2.439   2.365   4.455  0.6103 -0.7005  0.0988
 1829SOL     OW16165   4.528   0.431   3.078 -0.2531 -0.0098 -0.0158
 1829SOL    HW116166   4.507   0.441   3.175 -1.2329 -1.9267 -0.0157
 1829SOL    HW216167   4.615   0.382   3.067  1.2897  2.6302 -0.1057
 1830SOL     OW16168   8.620   1.442   3.648  0.4007  0.0801 -0.5130
 1830SOL    HW116169   8.528   1.434   3.687  0.9238  2.4064  1.2634
 1830SOL    HW216170   8.687   1.408   3.714  0.8763 -1.0939 -1.5862
 1831SOL     OW16171   6.581   7.824   2.777  0.0878  0.2554  0.1477
 1831SOL    HW116172   6.557   7.917   2.750 -0.1376 -0.3193 -1.7064
 1831SOL    HW216173   6.664   7.826   2.834 -0.7830  1.7022  1.3926
 1832SOL     OW16174   9.050   6.207   3.951  0.0800 -0.1412 -0.7825
 1832SOL    HW116175   8.993   6.229   3.871 -0.3151 -3.3960 -1.4598
 1832SOL    HW216176   8.992   6.174   4.025  0.5983  1.5279  0.3758
 1833SOL     OW16177   3.495   6.566   1.631 -0.0941 -0.0454 -0.0327
 1833SOL    HW116178   3.559   6.635   1.666 -0.2488 -0.3926  0.9434
 1833SOL    HW216179   3.523   6.540   1.538  0.7153  0.3849  0.0810
 1834SOL     OW16180   0.676   4.203   2.582  0.2770  0.1084  0.4058
 1834SOL    HW116181   0.662   4.241   2.673 -1.3123 -0.6991  0.5173
 1834SOL    HW216182   0.604   4.136   2.562  0.7700  0.0631 -1.3266
 1835SOL     OW16183   2.879   0.495   4.277 -0.2616  0.1464 -0.4625
 1835SOL    HW116184   2.886   0.578   4.332  1.0071 -0.8316  0.8745
 1835SOL    HW216185   2.795   0.446   4.302 -0.7952  0.8109 -0.9520
 1836SOL     OW16186   8.516   2.071   3.012 -0.2091 -0.6351  0.1215
 1836SOL    HW116187   8.560   2.070   2.922 -0.4843 -0.8571 -0.0151
 1836SOL    HW216188   8.419   2.048   3.001 -0.7028  1.3508  0.2410
 1837SOL     OW16189   0.663   9.530   4.742 -0.4785 -0.1886 -0.1021
 1837SOL    HW116190   0.693   9.575   4.826  0.9281  0.3661 -0.8828
 1837SOL    HW216191   0.743   9.506   4.686 -1.4015 -0.2943 -1.4076
 1838SOL     OW16192   1.302   2.005   2.427 -0.2447  0.4987  0.3814
 1838SOL    HW116193   1.400   2.018   2.415 -0.0013  0.1530  1.9382
 1838SOL    HW216194   1.258   2.094   2.441 -0.1422  0.6318 -0.1096
 1839SOL     OW16195   1.920   5.159   4.386 -0.5592 -0.5689  0.4555
 1839SOL    HW116196   1.837   5.214   4.379 -0.1269  0.2678  1.7833
 1839SOL    HW216197   1.925   5.097   4.308 -1.4677  0.6817 -0.6198
 1840SOL     OW16198   9.593   1.946   2.024 -0.3239 -0.5964  0.4176
 1840SOL    HW116199   9.659   1.986   1.960 -0.8920 -1.5569 -0.7813
 1840SOL    HW216200   9.590   2.002   2.107 -0.0437  1.0334 -0.6452
 1841SOL     OW16201   2.659   9.446   3.147  0.0378 -0.1030 -0.5546
 1841SOL    HW116202   2.606   9.364   3.167 -0.5707  0.4521  0.1232
 1841SOL    HW216203   2.636   9.518   3.212 -0.0334  0.8758 -1.6404
 1842SOL     OW16204   8.797   7.236   2.919  0.5466 -0.1559 -0.5625
 1842SOL    HW116205   8.769   7.234   3.015 -0.2379  0.3189 -0.7710
 1842SOL    HW216206   8.716   7.225   2.861  1.2800 -2.5812 -1.1535
 1843SOL     OW16207   2.036   8.622   0.865 -0.1356  0.0590  0.0841
 1843SOL    HW116208   1.937   8.635   0.853  0.0001  0.3899 -0.7315
 1843SOL    HW216209   2.066   8.546   0.807  0.3047  0.7957 -0.6620
 1844SOL     OW16210   9.135   8.676   3.585 -0.0184 -0.2540 -0.0637
 1844SOL    HW116211   9.118   8.668   3.487  1.7902  0.4204 -0.4465
 1844SOL    HW216212   9.195   8.753   3.602 -3.5602  2.1915  1.9743
 1845SOL     OW16213   7.675   4.572   3.565 -0.1700  0.5024 -0.0441
 1845SOL    HW116214   7.615   4.580   3.485 -0.8694  0.7649  0.5016
 1845SOL    HW216215   7.631   4.615   3.644  0.4973  0.2024  0.4948
 1846SOL     OW16216   2.460   5.835   1.128  0.4697 -0.1375 -0.3867
 1846SOL    HW116217   2.396   5.761   1.148  0.0177  0.5508  0.8101
 1846SOL    HW216218   2.522   5.847   1.206  1.0979  0.1674 -0.9320
 1847SOL     OW16219   3.899   2.325   3.389 -0.2400  0.7057  0.0617
 1847SOL    HW116220   3.855   2.239   3.412 -1.5478  0.9812 -1.3457
 1847SOL    HW216221   3.998   2.315   3.399 -0.4686 -0.5177  1.2740
 1848SOL     OW16222   4.890   8.549   3.820 -0.5506 -0.2538  0.1761
 1848SOL    HW116223   4.911   8.611   3.896 -0.1592 -0.3790  0.1686
 1848SOL    HW216224   4.945   8.573   3.741 -1.0575 -0.0385 -0.1154
 1849SOL     OW16225   0.517   5.963   3.617 -0.7526  0.3911  0.2566
 1849SOL    HW116226   0.555   5.932   3.704  0.6572  0.1670 -0.4234
 1849SOL    HW216227   0.437   5.907   3.593 -0.8110  0.1007  1.1302
 1850SOL     OW16228   3.404   7.279   2.577 -0.1650  0.3235 -1.0447
 1850SOL    HW116229   3.346   7.227   2.514 -0.2472  0.3012 -0.9493
 1850SOL    HW216230   3.361   7.367   2.598 -1.2373 -0.6192  0.7898
 1851SOL     OW16231   3.974   1.184   4.329 -0.3121  0.4074  0.2538
 1851SOL    HW116232   4.033   1.179   4.248 -1.7773 -0.6362 -0.7649
 1851SOL    HW216233   3.878   1.187   4.301 -0.8488 -0.0263  1.9672
 1852SOL     OW16234   2.850   9.483   0.404 -0.1359 -0.3961  0.5241
 1852SOL    HW116235   2.916   9.541   0.451  0.2727 -0.6426  0.2618
 1852SOL    HW216236   2.813   9.532   0.325 -0.1297 -0.3230  0.5672
 1853SOL     OW16237   0.993   6.961   1.898  0.2854  0.5394 -0.0731
 1853SOL    HW116238   0.971   7.058   1.912 -0.7214  0.0731  1.8152
 1853SOL    HW216239   1.023   6.921   1.985 -2.7485 -1.7043  0.0030
 1854SOL     OW16240   2.639   1.090   4.706 -0.4867 -0.5710 -0.3011
 1854SOL    HW116241   2.698   1.062   4.630  2.7327  1.3906  1.3476
 1854SOL    HW216242   2.696   1.120   4.783 -3.5775  4.4035  0.2701
 1855SOL     OW16243   8.642   0.346   1.988  0.5617 -0.4961  0.4518
 1855SOL    HW116244   8.706   0.300   1.926  0.3806 -1.4678  0.9852
 1855SOL    HW216245   8.635   0.295   2.073 -1.2212 -0.6116  0.2501
 1856SOL     OW16246   0.024   0.329   1.555  0.0871  0.7586 -0.3781
 1856SOL    HW116247  -0.004   0.320   1.460  2.0459 -3.3914 -0.6595
 1856SOL    HW216248  -0.056   0.317   1.614 -0.4478 -1.0848 -1.4297
 1857SOL     OW16249   0.358   4.286   0.180  0.4019  0.4843 -0.3119
 1857SOL    HW116250   0.292   4.335   0.124  0.3180  0.9913  0.2215
 1857SOL    HW216251   0.348   4.188   0.165 -0.6737  0.5427 -0.0094
 1858SOL     OW16252   5.519   9.892   1.515 -0.1802  0.0620  0.7213
 1858SOL    HW116253   5.428   9.934   1.511 -0.3942 -0.4358  0.2114
 1858SOL    HW216254   5.521   9.814   1.453  0.0119 -1.0697  2.1366
 1859SOL     OW16255   2.521   6.340   3.152 -0.0668 -0.0703 -0.5860
 1859SOL    HW116256   2.451   6.304   3.214  1.0742 -0.4363  0.5152
 1859SOL    HW216257   2.579   6.405   3.202  0.3588  0.2492 -1.4920
 1860SOL     OW16258   7.677   6.996   2.082 -0.3273 -0.5895  0.2788
 1860SOL    HW116259   7.772   7.002   2.113 -0.6955 -1.1708  1.5464
 1860SOL    HW216260   7.616   7.025   2.156 -1.2270 -2.1268  0.1698
 1861SOL     OW16261   8.040   8.600   2.642  0.2612  0.8573 -0.3208
 1861SOL    HW116262   7.969   8.615   2.711  1.1504  4.1207 -0.0104
 1861SOL    HW216263   8.011   8.642   2.555  0.6998 -0.0999 -0.9415
 1862SOL     OW16264   4.884   1.055   0.698  0.1963 -0.2082 -0.2979
 1862SOL    HW116265   4.869   1.152   0.680  0.2356 -0.0383  0.5676
 1862SOL    HW216266   4.911   1.042   0.793  1.0016 -0.9838 -0.6175
 1863SOL     OW16267   2.106   6.830   2.466 -0.0173  0.1506 -0.4818
 1863SOL    HW116268   2.071   6.744   2.505  1.5394 -0.6409 -0.7723
 1863SOL    HW216269   2.037   6.901   2.474 -1.4378 -1.2030 -0.4580
 1864SOL     OW16270   0.551   5.607   0.779  0.1798 -0.0983 -0.4524
 1864SOL    HW116271   0.589   5.558   0.857 -0.6857  1.3821  0.9150
 1864SOL    HW216272   0.543   5.544   0.701 -1.2221 -2.1992  1.3399
 1865SOL     OW16273   5.907   8.880   2.476  0.0395 -0.2726 -0.4813
 1865SOL    HW116274   5.919   8.972   2.512 -1.1283 -1.2765  2.6650
 1865SOL    HW216275   5.841   8.881   2.401 -2.9196  0.9272  2.0785
 1866SOL     OW16276   1.282   9.310   1.332  0.2736 -0.5816  0.7085
 1866SOL    HW116277   1.293   9.390   1.274 -0.0657  1.0225  2.7684
 1866SOL    HW216278   1.262   9.230   1.276 -1.9861  1.2691 -1.2535
 1867SOL     OW16279   1.443   7.232   0.956  0.0727 -0.3325 -0.1985
 1867SOL    HW116280   1.477   7.263   1.045  0.9129  1.6383 -1.1623
 1867SOL    HW216281   1.476   7.139   0.938  2.5773  0.4438  0.1690
 1868SOL     OW16282   9.001   9.545   4.186  0.0638  0.0195 -0.3647
 1868SOL    HW116283   8.955   9.526   4.273 -0.1796 -1.1677 -0.7384
 1868SOL    HW216284   8.996   9.464   4.128 -1.2221  1.3296 -2.1400
 1869SOL     OW16285   3.150   2.294   3.841  0.0925 -0.5576 -0.4891
 1869SOL    HW116286   3.062   2.339   3.856  0.6486  0.6307 -0.7416
 1869SOL    HW216287   3.200   2.340   3.769  2.1087  0.5373  1.5318
 1870SOL     OW16288   2.181   5.256   2.124 -0.6306 -0.0281  0.1163
 1870SOL    HW116289   2.257   5.315   2.095 -0.6733  0.0870  0.2333
 1870SOL    HW216290   2.181   5.172   2.070 -0.1939 -0.1947  0.3634
 1871SOL     OW16291   4.183   2.222   1.067 -0.2425 -0.2874  0.2283
 1871SOL    HW116292   4.204   2.149   1.133 -1.4884 -0.1534  0.7849
 1871SOL    HW216293   4.088   2.249   1.077 -0.5816 -0.5678 -1.9325
 1872SOL     OW16294   0.633   8.271   1.889  0.1711 -0.7337 -0.0750
 1872SOL    HW116295   0.702   8.292   1.820  0.7971 -1.7626  0.2315
 1872SOL    HW216296   0.677   8.241   1.973 -0.6653 -2.4023 -0.2113
 1873SOL     OW16297   2.533   5.099   4.266  0.8884  0.1891  0.5988
 1873SOL    HW116298   2.597   5.081   4.192  0.5150  1.3800 -0.0282
 1873SOL    HW216299   2.503   5.194   4.262  0.2169  0.0429  1.7767
 1874SOL     OW16300   5.721   0.903   3.092  0.4965 -0.5315  0.2346
 1874SOL    HW116301   5.696   0.811   3.061  0.4036 -0.1671 -0.7846
 1874SOL    HW216302   5.767   0.896   3.181 -1.4659 -1.3704  1.2225
 1875SOL     OW16303   7.869   8.605   1.413  0.1894  0.3882  0.6173
 1875SOL    HW116304   7.966   8.629   1.404  0.2520  1.4741  3.7449
 1875SOL    HW216305   7.815   8.668   1.357  1.2183 -0.0076 -0.8752
 1876SOL     OW16306   1.210   4.092   3.749 -0.0022 -0.2338  0.8436
 1876SOL    HW116307   1.189   4.065   3.655 -0.2650 -2.0998  1.4272
 1876SOL    HW216308   1.133   4.145   3.786  0.7219  1.8222 -0.4609
 1877SOL     OW16309   8.335   4.335   3.343  0.5400 -0.0619  0.5293
 1877SOL    HW116310   8.421   4.319   3.293  0.4309 -0.4466  0.4599
 1877SOL    HW216311   8.258   4.312   3.284  0.3759  0.7814  0.4189
 1878SOL     OW16312   2.253   8.752   0.717  0.1369 -0.0114  0.6481
 1878SOL    HW116313   2.308   8.681   0.672  1.7801  0.3339  2.0226
 1878SOL    HW216314   2.186   8.708   0.777  0.4694 -0.4298  0.7193
 1879SOL     OW16315   8.809   6.038   1.643  0.5975 -0.0755 -0.6367
 1879SOL    HW116316   8.771   5.946   1.653 -0.2328  0.1805 -1.3212
 1879SOL    HW216317   8.906   6.032   1.620  0.6273 -0.7734 -0.3282
 1880SOL     OW16318   3.442   7.325   0.529  0.1144  0.1937 -0.5543
 1880SOL    HW116319   3.383   7.285   0.459  1.3870 -0.9707 -1.0022
 1880SOL    HW216320   3.504   7.254   0.564  0.6537  1.1812  0.5101
 1881SOL     OW16321   2.040   9.682   1.484  0.1256  0.2282  0.0817
 1881SOL    HW116322   2.138   9.684   1.462  0.2962 -0.9866  0.7297
 1881SOL    HW216323   1.995   9.613   1.428  0.2330 -1.5411  2.0966
 1882SOL     OW16324   9.366   3.972   3.852  0.0013  0.1372 -0.4162
 1882SOL    HW116325   9.355   4.071   3.861 -1.1326  0.0879 -1.2526
 1882SOL    HW216326   9.309   3.938   3.777  1.4955 -0.9399 -1.1034
 1883SOL     OW16327   9.039   4.941   1.832  0.4185  0.3697 -0.0330
 1883SOL    HW116328   9.054   4.858   1.886 -0.5025 -0.2791 -0.7424
 1883SOL    HW216329   8.942   4.965   1.834  0.2833  0.0671 -1.7411
 1884SOL     OW16330   9.307   5.485   4.034  0.7395  0.2991 -0.4688
 1884SOL    HW116331   9.249   5.420   4.083 -0.6016  0.0860 -2.2638
 1884SOL    HW216332   9.403   5.467   4.056  0.2911 -1.0850  0.4744
 1885SOL     OW16333   8.324   1.557   1.812 -0.3509  0.0956  0.0885
 1885SOL    HW116334   8.315   1.458   1.810 -0.2217  0.0881 -0.2230
 1885SOL    HW216335   8.299   1.592   1.902  0.1963 -0.2733  0.3863
 1886SOL     OW16336   8.621   8.310   0.652  0.2359 -0.1460 -0.8092
 1886SOL    HW116337   8.525   8.338   0.660  0.6241  1.1229 -0.4175
 1886SOL    HW216338   8.632   8.218   0.690 -0.4872  0.4580  0.9414
 1887SOL     OW16339   4.256   2.076   1.284 -0.1917 -0.2057 -0.2810
 1887SOL    HW116340   4.351   2.096   1.306 -0.7985  0.7872  1.5515
 1887SOL    HW216341   4.241   1.977   1.289  0.3334 -0.2174  1.1254
 1888SOL     OW16342   2.312   2.211   2.151  0.1833  0.4284  0.1126
 1888SOL    HW116343   2.215   2.212   2.126 -0.0914 -0.0065  1.1362
 1888SOL    HW216344   2.331   2.131   2.207  1.3040  0.0967 -0.7077
 1889SOL     OW16345   9.672   8.082   0.101 -0.5059 -0.0951 -0.2010
 1889SOL    HW116346   9.731   8.050   0.027 -0.0717  0.5004 -0.1149
 1889SOL    HW216347   9.726   8.134   0.167 -0.5804 -1.9247  1.3460
 1890SOL     OW16348   8.472   5.446   2.297  0.3612  0.2878 -0.5998
 1890SOL    HW116349   8.503   5.485   2.210 -0.9315  1.4624 -0.5502
 1890SOL    HW216350   8.487   5.512   2.371 -0.6847  0.2124 -0.3146
 1891SOL     OW16351   8.865   7.666   4.094  0.2752  0.0870 -0.9560
 1891SOL    HW116352   8.836   7.759   4.117 -1.1493 -0.3185 -1.0865
 1891SOL    HW216353   8.848   7.605   4.172 -1.9869 -0.7325 -2.0546
 1892SOL     OW16354   2.607   6.866   0.087 -0.0802 -0.4484  0.0503
 1892SOL    HW116355   2.572   6.777   0.117  0.6016 -0.4357  0.8712
 1892SOL    HW216356   2.675   6.853   0.015 -1.0706 -0.5141 -0.8945
 1893SOL     OW16357   3.647   3.091   1.788 -0.4568 -0.0757  0.1208
 1893SOL    HW116358   3.715   3.032   1.831  0.5428  0.8696 -0.1466
 1893SOL    HW216359   3.626   3.057   1.697 -1.3104 -1.1049  0.6910
 1894SOL     OW16360   9.616   9.909   0.439 -0.1126 -0.0105  0.1105
 1894SOL    HW116361   9.568   9.929   0.354  0.0798 -1.0273 -0.2507
 1894SOL    HW216362   9.554   9.923   0.517 -0.5733  0.0132 -0.2595
 1895SOL     OW16363   1.986   3.399   3.900 -0.2608  0.0319  0.0423
 1895SOL    HW116364   1.928   3.323   3.872 -0.6446  0.0368  0.8036
 1895SOL    HW216365   2.000   3.396   3.999  0.6884  0.2768 -0.0768
 1896SOL     OW16366   4.971   9.119   0.989  0.2674 -0.5530  0.0809
 1896SOL    HW116367   4.882   9.074   0.983  0.6969 -1.3319 -0.5077
 1896SOL    HW216368   4.995   9.155   0.899  0.2340  0.2647  0.3970
 1897SOL     OW16369   1.329   9.127   2.090  0.0831 -0.1288  0.4020
 1897SOL    HW116370   1.281   9.152   2.006  0.5711 -0.3475  0.0555
 1897SOL    HW216371   1.428   9.126   2.073  0.1639 -0.5300  0.8818
 1898SOL     OW16372   0.477   8.825   2.636  0.2415 -0.4739  0.1973
 1898SOL    HW116373   0.425   8.783   2.711  2.8939 -2.6907  0.8749
 1898SOL    HW216374   0.425   8.816   2.551 -1.6372 -0.2724  1.2777
 1899SOL     OW16375   0.219   8.161   1.386  0.9918  0.2218  0.3305
 1899SOL    HW116376   0.195   8.187   1.479 -0.9052  1.3892 -0.4468
 1899SOL    HW216377   0.149   8.195   1.323  1.8035 -1.2622 -1.4302
 1900SOL     OW16378   1.872   5.565   0.366  0.2824 -0.7064 -0.2709
 1900SOL    HW116379   1.811   5.580   0.444  2.3812 -1.7232  1.6322
 1900SOL    HW216380   1.854   5.474   0.328 -0.1615 -0.5448 -0.4554
 1901SOL     OW16381   0.025   5.219   0.682 -0.0175  0.0445  0.1670
 1901SOL    HW116382   0.001   5.123   0.691  0.4890 -0.1651 -0.6831
 1901SOL    HW216383   0.051   5.255   0.772 -0.4359 -0.5429  0.5272
 1902SOL     OW16384   0.141   2.094   3.552  0.1518  0.2146 -0.6139
 1902SOL    HW116385   0.183   2.071   3.464  0.6067  0.6846 -0.5197
 1902SOL    HW216386   0.114   2.190   3.553  0.0551  0.1855 -0.2759
 1903SOL     OW16387   1.379   1.128   1.608 -0.0532  0.0343 -0.2687
 1903SOL    HW116388   1.380   1.170   1.699  0.1776 -1.3377  0.3677
 1903SOL    HW216389   1.298   1.160   1.558 -0.9459 -0.2909  0.9405
 1904SOL     OW16390   9.307   4.413   4.726  0.2758 -0.2100  0.1651
 1904SOL    HW116391   9.263   4.391   4.813 -0.3908  0.0899 -0.0959
 1904SOL    HW216392   9.238   4.440   4.659  0.9330  1.0538 -0.0122
 1905SOL     OW16393   2.779   5.074   0.469 -0.4797 -0.3388  0.2776
 1905SOL    HW116394   2.777   5.158   0.416 -0.1570 -1.6007 -1.7795
 1905SOL    HW216395   2.778   5.096   0.567 -0.3935  2.0325 -0.2341
 1906SOL     OW16396   4.395   3.708   3.861  0.5173  0.1197  0.2081
 1906SOL    HW116397   4.483   3.752   3.884  0.5695  1.0624 -1.7312
 1906SOL    HW216398   4.333   3.776   3.823  0.6275 -1.4816 -2.9719
 1907SOL     OW16399   9.390   1.193   3.302  0.5664 -0.4153  0.2063
 1907SOL    HW116400   9.306   1.243   3.324  0.3594 -1.4494  1.8294
 1907SOL    HW216401   9.456   1.256   3.260 -0.4617  0.7390  0.2755
 1908SOL     OW16402   7.893   8.454   2.856 -0.3084  0.4091 -0.0838
 1908SOL    HW116403   7.941   8.388   2.798 -0.0015 -0.7248  1.4452
 1908SOL    HW216404   7.797   8.426   2.865 -0.1579  0.1268  0.6315
 1909SOL     OW16405   0.502   2.469   4.325 -0.3796  1.2894 -0.1147
 1909SOL    HW116406   0.434   2.456   4.398 -1.1694  1.5092 -0.8031
 1909SOL    HW216407   0.455   2.488   4.239  0.4138 -2.0452 -1.3739
 1910SOL     OW16408   0.302   7.662   0.345 -0.3465 -0.0815 -0.0793
 1910SOL    HW116409   0.288   7.719   0.263  0.2401 -0.4843 -0.4641
 1910SOL    HW216410   0.218   7.659   0.398 -1.1894 -0.9972 -1.4204
 1911SOL     OW16411   9.410   4.202   3.671  0.0405  0.2331  0.3144
 1911SOL    HW116412   9.401   4.296   3.636 -3.6754 -0.3131 -0.3772
 1911SOL    HW216413   9.410   4.138   3.594  2.3772 -0.3873  0.7985
 1912SOL     OW16414   0.538   9.492   3.297  0.3825 -0.6327 -0.7989
 1912SOL    HW116415   0.440   9.489   3.312  0.3347  0.5455 -0.8648
 1912SOL    HW216416   0.561   9.440   3.215 -0.6239  2.0680 -2.8719
 1913SOL     OW16417   8.214   9.837   1.600  0.2206  0.0960 -0.4561
 1913SOL    HW116418   8.188   9.746   1.631  1.2459 -0.2431 -0.5573
 1913SOL    HW216419   8.180   9.852   1.507 -0.2697 -0.0354 -0.2985
 1914SOL     OW16420   1.252   1.492   3.663  0.0667  0.1612 -0.4468
 1914SOL    HW116421   1.252   1.426   3.588  1.3710  1.0603 -1.2558
 1914SOL    HW216422   1.331   1.553   3.655 -1.3464  2.1289 -0.0018
 1915SOL     OW16423   1.826   0.840   3.371 -0.1108  0.1769  0.1918
 1915SOL    HW116424   1.751   0.795   3.321 -0.6045  1.5150 -0.3079
 1915SOL    HW216425   1.856   0.921   3.320  1.8181 -0.4467  0.3021
 1916SOL     OW16426   6.053   9.608   3.472 -0.2720  0.2779  0.2861
 1916SOL    HW116427   5.961   9.593   3.437 -0.8084  0.5480  1.5752
 1916SOL    HW216428   6.066   9.555   3.556  0.7437  0.2506  0.1172
 1917SOL     OW16429   8.561   5.272   2.746  0.0197 -0.4428  0.1709
 1917SOL    HW116430   8.495   5.312   2.683 -0.8046  0.5647  1.6278
 1917SOL    HW216431   8.512   5.224   2.819  0.9023 -0.0094  1.0578
 1918SOL     OW16432   2.371   0.438   4.357 -0.4732  0.7601  0.0050
 1918SOL    HW116433   2.333   0.519   4.312  0.5080  0.7911 -0.7822
 1918SOL    HW216434   2.444   0.465   4.419 -0.2573  0.4904 -0.1311
 1919SOL     OW16435   2.724   6.693   4.369  0.3601 -0.2405 -0.5938
 1919SOL    HW116436   2.632   6.730   4.351  0.3725  0.3037  0.4180
 1919SOL    HW216437   2.741   6.615   4.309 -1.6633 -1.7735  0.7283
 1920SOL     OW16438   1.473   8.345   3.631  0.1869 -0.7120  0.0438
 1920SOL    HW116439   1.377   8.341   3.658  0.2090 -0.5561  0.1492
 1920SOL    HW216440   1.493   8.271   3.567  0.4749 -1.9130  1.5096
 1921SOL     OW16441   8.315   2.744   3.629 -0.7380  0.1305  0.0933
 1921SOL    HW116442   8.238   2.803   3.654  0.4756  1.4702  0.7005
 1921SOL    HW216443   8.304   2.715   3.534 -3.8355 -2.6163  1.1695
 1922SOL     OW16444   3.235   6.090   4.579 -0.2116 -0.0747  0.2311
 1922SOL    HW116445   3.261   6.083   4.675 -0.6982  0.2525  0.3923
 1922SOL    HW216446   3.238   6.000   4.536  0.8194 -0.0921  0.3381
 1923SOL     OW16447   9.102   1.490   0.830  0.8559  0.7298 -0.0228
 1923SOL    HW116448   9.180   1.510   0.769  0.1176 -0.0467 -1.2494
 1923SOL    HW216449   9.026   1.550   0.807  1.1698  1.6947  1.3835
 1924SOL     OW16450   8.989   4.509   1.024 -0.1579 -0.3542  0.4865
 1924SOL    HW116451   9.040   4.460   1.095 -0.0691 -0.0175  0.6556
 1924SOL    HW216452   8.893   4.482   1.027 -0.1469 -0.3605  0.7146
 1925SOL     OW16453   8.922   5.384   2.881  0.3210 -0.3248 -0.5663
 1925SOL    HW116454   8.880   5.427   2.962 -0.3047 -0.1150 -0.9969
 1925SOL    HW216455   9.015   5.355   2.903  1.0321  1.9238 -0.4927
 1926SOL     OW16456   2.657   2.867   3.865  0.1633 -0.6241 -0.4522
 1926SOL    HW116457   2.677   2.776   3.903  0.2435  0.2839  1.7596
 1926SOL    HW216458   2.670   2.865   3.766 -1.4407 -3.4594 -0.6708
 1927SOL     OW16459   9.017   6.249   0.732 -0.1497  0.0958  0.3116
 1927SOL    HW116460   8.947   6.321   0.732 -0.4207 -0.1664  0.7626
 1927SOL    HW216461   9.105   6.287   0.759 -0.3234  0.2248  0.6856
 1928SOL     OW16462   2.797   2.220   0.274 -0.7111 -0.3452 -0.3878
 1928SOL    HW116463   2.731   2.240   0.347  1.3695  0.2813  1.3575
 1928SOL    HW216464   2.889   2.243   0.305  0.0237  2.0393 -3.9898
 1929SOL     OW16465   0.311   1.653   0.635  0.0963 -0.2006 -0.0126
 1929SOL    HW116466   0.234   1.605   0.594 -0.7229  0.6831  0.4672
 1929SOL    HW216467   0.363   1.589   0.693 -0.8322 -0.5719  0.4214
 1930SOL     OW16468   7.957   5.233   0.894 -0.1613 -0.1609  0.6739
 1930SOL    HW116469   7.883   5.293   0.863 -0.9896 -1.3801  0.2837
 1930SOL    HW216470   8.028   5.289   0.939 -2.3001  0.7877  2.9796
 1931SOL     OW16471   3.348   4.458   3.220 -0.1868 -0.2543  0.2813
 1931SOL    HW116472   3.370   4.472   3.317 -1.1360  1.1965  0.3085
 1931SOL    HW216473   3.408   4.387   3.182  2.1558  1.1641  1.2106
 1932SOL     OW16474   0.877   3.233   2.649  0.5698 -0.1234  0.1384
 1932SOL    HW116475   0.974   3.235   2.625  0.8539  0.3407  1.2854
 1932SOL    HW216476   0.866   3.200   2.743 -0.3637  0.0844  0.1111
 1933SOL     OW16477   8.895   6.284   1.505  0.4414 -0.4805  0.2135
 1933SOL    HW116478   8.842   6.207   1.540 -0.0731 -0.3719 -0.3337
 1933SOL    HW216479   8.895   6.283   1.405  0.2718  0.3332  0.2005
 1934SOL     OW16480   0.103   9.596   2.551 -0.2475 -0.5484  0.2114
 1934SOL    HW116481   0.180   9.583   2.614  1.8301  0.1403 -2.1067
 1934SOL    HW216482   0.125   9.668   2.486 -3.3633  0.4579  0.1932
 1935SOL     OW16483   4.452   3.541   2.146 -0.3850  0.1051 -0.1706
 1935SOL    HW116484   4.534   3.553   2.202 -1.6242  0.5991  1.5727
 1935SOL    HW216485   4.479   3.524   2.051  1.7834 -2.3007  0.8205
 1936SOL     OW16486   2.198   4.116   0.352 -0.3681 -0.2194 -0.2083
 1936SOL    HW116487   2.243   4.201   0.325 -0.5489 -0.2260 -0.5321
 1936SOL    HW216488   2.099   4.129   0.352 -0.3418  0.3499  2.2979
 1937SOL     OW16489   3.112   4.690   3.755 -0.0986 -0.0947 -0.4420
 1937SOL    HW116490   3.029   4.707   3.701 -0.8625 -1.7635  0.1562
 1937SOL    HW216491   3.105   4.738   3.843 -0.1032  0.3549 -0.6874
 1938SOL     OW16492   1.984   9.091   2.899  0.3795  0.2276 -0.3335
 1938SOL    HW116493   1.939   9.050   2.978 -0.3657  1.4662 -0.1057
 1938SOL    HW216494   1.952   9.046   2.816 -0.7833  0.6597 -0.1202
 1939SOL     OW16495   7.708   9.873   0.379  0.4135  0.1760 -0.2516
 1939SOL    HW116496   7.777   9.882   0.451 -0.2616  1.3774  0.2673
 1939SOL    HW216497   7.625   9.922   0.407  0.2974  1.0303 -2.0448
 1940SOL     OW16498   4.450   9.342   1.564  0.0734  0.1904  0.5241
 1940SOL    HW116499   4.354   9.370   1.564 -0.4045 -1.3505 -0.2982
 1940SOL    HW216500   4.501   9.396   1.498  0.1550  2.1693  2.1408
 1941SOL     OW16501   9.444   4.049   3.430 -0.4059 -0.2663 -0.2053
 1941SOL    HW116502   9.374   4.084   3.368 -0.1899 -0.1019 -0.3567
 1941SOL    HW216503   9.534   4.075   3.397 -0.3865  2.1611  1.6482
 1942SOL     OW16504   8.053   0.889   4.392  0.5266  0.5562  0.4804
 1942SOL    HW116505   8.025   0.957   4.460  0.9450 -0.0081  1.2345
 1942SOL    HW216506   8.151   0.869   4.403  0.9313  1.5349 -1.2512
 1943SOL     OW16507   7.502   9.354   1.983  0.1236  0.0098  0.0928
 1943SOL    HW116508   7.434   9.387   1.917  2.6523  0.4739 -2.3950
 1943SOL    HW216509   7.504   9.415   2.062 -1.0813  1.0227 -0.6427
 1944SOL     OW16510   2.126   6.930   2.843 -0.0507 -0.0027 -0.0197
 1944SOL    HW116511   2.185   6.860   2.802 -1.9586 -1.2239 -0.7790
 1944SOL    HW216512   2.032   6.896   2.846 -0.4608  1.2750  2.6402
 1945SOL     OW16513   9.952   9.110   3.798 -0.1684 -0.2153 -0.2035
 1945SOL    HW116514   9.977   9.016   3.775  2.4107  0.1058  1.0979
 1945SOL    HW216515   9.958   9.167   3.715 -0.5455 -0.9524 -0.7447
 1946SOL     OW16516   9.556   1.522   4.506 -0.1555  0.9578 -0.7641
 1946SOL    HW116517   9.458   1.529   4.529 -0.2682 -1.0052 -0.5933
 1946SOL    HW216518   9.568   1.544   4.409 -0.7123  1.5114 -0.7194
 1947SOL     OW16519   2.753   4.748   0.627 -0.3244  0.2385  0.8414
 1947SOL    HW116520   2.655   4.765   0.640 -0.5832 -0.3437 -0.2851
 1947SOL    HW216521   2.791   4.819   0.568 -0.3840 -0.3521  0.0834
 1948SOL     OW16522   1.979   7.667   1.762  0.5188  0.4607  0.1539
 1948SOL    HW116523   1.907   7.732   1.787  0.6684 -0.1458  2.3009
 1948SOL    HW216524   1.939   7.579   1.740  0.5176  0.4619  0.1489
 1949SOL     OW16525   0.162   7.263   2.908 -0.0397 -0.3901  0.2133
 1949SOL    HW116526   0.120   7.301   2.826  0.2061  1.0230  0.7146
 1949SOL    HW216527   0.194   7.338   2.966  0.9247 -1.3946  1.0032
 1950SOL     OW16528   9.428   5.964   0.803 -0.0125  0.2495 -0.4403
 1950SOL    HW116529   9.467   6.009   0.722 -0.5618  1.4592 -0.0509
 1950SOL    HW216530   9.331   5.987   0.810  0.1336  0.5301  0.8082
 1951SOL     OW16531   2.569   6.776   3.445 -0.0185  0.5067  0.1202
 1951SOL    HW116532   2.658   6.763   3.401  0.2376  0.1947  0.7202
 1951SOL    HW216533   2.497   6.776   3.375 -0.1555 -5.0763  0.0466
 1952SOL     OW16534   4.804   0.422   1.962 -0.0802  0.3595 -0.4291
 1952SOL    HW116535   4.842   0.405   2.053 -0.6783 -0.2241 -0.2811
 1952SOL    HW216536   4.848   0.362   1.895 -0.4454 -0.0324 -0.3244
 1953SOL     OW16537   1.472   5.294   2.764  0.6766  0.1191  0.6202
 1953SOL    HW116538   1.457   5.383   2.809  3.1002  0.7805  0.1595
 1953SOL    HW216539   1.533   5.238   2.821  0.3691 -0.6776  0.1674
 1954SOL     OW16540   2.164   3.428   3.710  0.2431  0.0775  0.1756
 1954SOL    HW116541   2.119   3.498   3.655  1.6368  0.5052 -0.4321
 1954SOL    HW216542   2.104   3.402   3.786 -0.8867  0.8708 -0.4348
 1955SOL     OW16543   0.409   4.678   4.498 -0.1878  0.2595 -0.1352
 1955SOL    HW116544   0.392   4.690   4.596 -1.2734  0.0481 -0.2954
 1955SOL    HW216545   0.355   4.601   4.464 -0.0643  0.5400 -0.9727
 1956SOL     OW16546   0.538   2.338   2.429 -0.4363  0.5317  0.4304
 1956SOL    HW116547   0.577   2.322   2.339  1.7865  1.2592  1.2306
 1956SOL    HW216548   0.504   2.432   2.434  2.5020  1.6080  1.3820
 1957SOL     OW16549   9.210   3.818   1.237 -0.1810  0.2649  0.6185
 1957SOL    HW116550   9.270   3.897   1.247 -0.2829  0.5736 -1.1285
 1957SOL    HW216551   9.202   3.794   1.141  0.2602 -2.1888  1.1437
 1958SOL     OW16552   9.102   3.128   2.837 -0.2747 -0.6096  0.5405
 1958SOL    HW116553   9.179   3.161   2.893  0.2370  0.8946 -0.9971
 1958SOL    HW216554   9.025   3.104   2.897  0.7520 -0.4039  1.9784
 1959SOL     OW16555   4.988   8.864   1.403 -0.2151 -0.2070 -0.0918
 1959SOL    HW116556   4.965   8.912   1.488  1.5578  0.0799  0.2518
 1959SOL    HW216557   4.939   8.777   1.400 -1.1691  0.2904  0.6818
 1960SOL     OW16558   0.770   5.705   4.585  0.1051  0.3747  0.5993
 1960SOL    HW116559   0.742   5.795   4.617  0.6616  1.1322 -0.9733
 1960SOL    HW216560   0.810   5.713   4.494  0.0205 -1.4832  0.3697
 1961SOL     OW16561   9.819   2.884   0.981  0.2057  0.2895 -0.4881
 1961SOL    HW116562   9.786   2.860   1.073 -2.4206  0.6807 -1.2787
 1961SOL    HW216563   9.913   2.915   0.987  0.1620  0.0877  2.0588
 1962SOL     OW16564   5.304   9.916   1.116 -0.1434 -0.1190 -0.5565
 1962SOL    HW116565   5.355  10.001   1.129 -0.5288  0.1666 -0.8894
 1962SOL    HW216566   5.239   9.904   1.190 -0.0801 -0.1285 -0.5026
 1963SOL     OW16567   1.002   1.046   2.161  0.0107 -1.0262  0.0025
 1963SOL    HW116568   1.074   0.984   2.192  0.5347 -0.3670  0.1247
 1963SOL    HW216569   1.019   1.071   2.066 -0.0804 -0.9012  0.0198
 1964SOL     OW16570   3.715   3.532   0.421  0.0154 -0.4526 -0.1301
 1964SOL    HW116571   3.640   3.595   0.441  0.5617  0.5809 -1.2607
 1964SOL    HW216572   3.788   3.581   0.374  0.5938 -1.8695 -0.7416
 1965SOL     OW16573   9.313   9.369   0.544 -0.2301  0.1089 -0.0715
 1965SOL    HW116574   9.231   9.312   0.553  0.6446 -1.3805 -1.2724
 1965SOL    HW216575   9.352   9.357   0.453  1.0762  1.1509  0.3337
 1966SOL     OW16576   2.133   5.338   0.620  0.1419  0.2759  0.2172
 1966SOL    HW116577   2.124   5.293   0.709  2.2750  0.4788  0.5550
 1966SOL    HW216578   2.049   5.324   0.567 -0.5170 -1.2339  1.6223
 1967SOL     OW16579   0.127   8.918   1.490 -0.3148 -0.0491  0.9211
 1967SOL    HW116580   0.186   8.937   1.411 -1.3975  1.0264  0.3561
 1967SOL    HW216581   0.091   8.825   1.483  2.3043 -1.1957  1.9339
 1968SOL     OW16582   6.539   6.657   2.300  0.2571  0.6839  0.1241
 1968SOL    HW116583   6.500   6.626   2.387  0.5422 -0.2871 -0.0832
 1968SOL    HW216584   6.625   6.609   2.284  0.4465  1.2208 -0.4579
 1969SOL     OW16585   2.852   4.488   0.519 -0.6295  0.6289 -0.5791
 1969SOL    HW116586   2.806   4.577   0.525  1.3704  1.4512  3.4584
 1969SOL    HW216587   2.785   4.415   0.537 -0.9453  1.7036  2.9645
 1970SOL     OW16588   0.746   7.148   3.347 -0.3348  0.4028 -0.4264
 1970SOL    HW116589   0.748   7.183   3.253 -0.2219 -0.3508 -0.7043
 1970SOL    HW216590   0.814   7.197   3.402  0.5807 -0.1149 -1.0755
 1971SOL     OW16591   9.635   1.624   1.295  0.6254  0.3174 -0.1171
 1971SOL    HW116592   9.653   1.551   1.360 -1.0346  1.1240  1.2874
 1971SOL    HW216593   9.715   1.637   1.236  2.1071 -0.4883  1.6884
 1972SOL     OW16594   0.646   1.699   4.443  0.2989  0.3241  0.4343
 1972SOL    HW116595   0.625   1.676   4.347 -1.1578  1.2736  0.5122
 1972SOL    HW216596   0.721   1.765   4.445 -0.1968  0.9162 -0.0978
 1973SOL     OW16597   5.802   7.824   2.774 -0.0329  0.2668  0.4202
 1973SOL    HW116598   5.840   7.916   2.763  0.1652  0.3613  1.8023
 1973SOL    HW216599   5.812   7.795   2.869  1.4454 -1.8673 -0.3499
 1974SOL     OW16600   3.737   1.655   1.140 -0.0169 -0.3064  0.2073
 1974SOL    HW116601   3.660   1.617   1.089  0.3639 -0.4714 -0.2443
 1974SOL    HW216602   3.724   1.636   1.238 -0.6962 -0.0689  0.1702
 1975SOL     OW16603   3.818   8.130   2.357 -0.2861 -0.1263  0.2916
 1975SOL    HW116604   3.820   8.076   2.272  1.3495  2.0371 -1.1082
 1975SOL    HW216605   3.833   8.227   2.335  1.2911  0.3291  3.1656
 1976SOL     OW16606   9.126   4.618   3.187 -0.4115 -0.5771 -0.6270
 1976SOL    HW116607   9.205   4.603   3.128 -0.1137  1.1931 -0.7274
 1976SOL    HW216608   9.132   4.710   3.227 -1.5916 -1.0367  0.6387
 1977SOL     OW16609   2.335   2.845   4.296 -0.2304  0.0563  0.1691
 1977SOL    HW116610   2.286   2.814   4.378  1.1097  1.8219  1.7115
 1977SOL    HW216611   2.432   2.825   4.306 -0.0843  0.1163 -1.0844
 1978SOL     OW16612   1.609   6.152   0.866  0.4591  0.2424  0.1063
 1978SOL    HW116613   1.557   6.209   0.803 -0.4274 -0.4904  0.1630
 1978SOL    HW216614   1.567   6.156   0.957 -0.7508 -1.9618 -0.3164
 1979SOL     OW16615   7.970   2.397   2.747 -0.2849  0.0290  0.3258
 1979SOL    HW116616   7.925   2.315   2.711 -0.7700  0.6323 -0.4835
 1979SOL    HW216617   7.991   2.459   2.671 -0.0399  0.7067  0.9397
 1980SOL     OW16618   0.942   0.438   3.465 -0.0548  0.1428  0.1486
 1980SOL    HW116619   0.998   0.391   3.533 -0.2107  0.4310  0.4802
 1980SOL    HW216620   0.849   0.448   3.500 -0.6418 -1.4391 -0.9100
 1981SOL     OW16621   1.091   7.178   1.091 -0.6431 -0.1317  0.3699
 1981SOL    HW116622   1.184   7.172   1.127  0.3238  2.5925 -1.5152
 1981SOL    HW216623   1.088   7.138   1.000 -0.8197  1.5150 -0.3699
 1982SOL     OW16624   8.791   4.723   0.940 -0.0339  0.4855  0.0543
 1982SOL    HW116625   8.803   4.640   0.885  1.5824  0.8325 -0.1646
 1982SOL    HW216626   8.749   4.699   1.028 -0.4394 -0.4212 -0.3787
 1983SOL     OW16627   1.903   4.836   1.706 -0.4582  0.2247 -0.4613
 1983SOL    HW116628   1.998   4.865   1.712 -0.5642  0.6900 -1.0076
 1983SOL    HW216629   1.847   4.912   1.673 -0.9849 -0.1136 -0.3484
 1984SOL     OW16630   3.901   2.147   4.141 -0.2093 -0.5924 -0.6551
 1984SOL    HW116631   3.824   2.202   4.107 -0.7287 -0.3022  0.9165
 1984SOL    HW216632   3.987   2.196   4.123 -0.7232  1.2251  1.5140
 1985SOL     OW16633   3.419   0.510   3.236  0.7800  0.4375 -0.0116
 1985SOL    HW116634   3.451   0.602   3.258 -1.6454  1.4897 -0.7258
 1985SOL    HW216635   3.450   0.485   3.145  1.9622  0.2657  0.4188
 1986SOL     OW16636   9.319   5.943   3.761 -0.3978  0.0792 -0.2054
 1986SOL    HW116637   9.334   5.846   3.781  0.2879 -0.0763 -1.4130
 1986SOL    HW216638   9.314   5.994   3.847  1.9678 -0.6417  0.4049
 1987SOL     OW16639   0.610   8.079   0.318  0.3787 -0.6619 -0.0429
 1987SOL    HW116640   0.549   8.156   0.338  2.1639  0.5035  1.0257
 1987SOL    HW216641   0.566   7.994   0.346 -1.1266  0.0664 -0.1291
 1988SOL     OW16642   2.709   0.165   1.846  0.6439 -0.3089  0.4789
 1988SOL    HW116643   2.686   0.241   1.907 -0.1114  0.0501 -0.2336
 1988SOL    HW216644   2.710   0.079   1.898 -0.3475 -0.0579  0.9265
 1989SOL     OW16645   4.396   3.332   1.497 -0.3197  0.1297  0.2662
 1989SOL    HW116646   4.453   3.274   1.439 -2.5402  0.1560 -1.9961
 1989SOL    HW216647   4.392   3.293   1.589  0.1042 -2.0219 -0.5914
 1990SOL     OW16648   4.131   8.148   4.528 -0.9739 -0.0008 -0.0968
 1990SOL    HW116649   4.103   8.055   4.505  0.1004 -0.7458  1.5387
 1990SOL    HW216650   4.224   8.164   4.495 -0.9923  0.3464  0.0191
 1991SOL     OW16651   4.441   1.628   2.794  0.4741 -0.9459  0.2290
 1991SOL    HW116652   4.382   1.557   2.831  0.6818 -1.5845 -0.6630
 1991SOL    HW216653   4.522   1.587   2.752  0.4812 -0.2051 -0.4971
 1992SOL     OW16654   0.449   6.648   3.012 -0.6571 -0.3439  0.6697
 1992SOL    HW116655   0.535   6.692   3.038 -0.5934 -0.7359  1.1265
 1992SOL    HW216656   0.468   6.574   2.948 -1.0068  1.9874 -2.2226
 1993SOL     OW16657   2.801   1.184   0.301 -0.3566  0.6175 -0.3307
 1993SOL    HW116658   2.803   1.211   0.205 -2.5095 -0.2841 -0.6593
 1993SOL    HW216659   2.706   1.171   0.331  0.2841  0.7847  1.8911
 1994SOL     OW16660   1.730   4.941   2.776  0.5100  0.0208  0.5342
 1994SOL    HW116661   1.681   5.015   2.821  0.7966 -0.5901  1.8793
 1994SOL    HW216662   1.672   4.900   2.705  0.5255  1.8186 -0.5337
 1995SOL     OW16663   6.780   7.857   2.968  0.2254 -0.1153  0.2411
 1995SOL    HW116664   6.865   7.879   2.920 -0.5473  0.2768 -0.9677
 1995SOL    HW216665   6.740   7.940   3.006  0.0438 -0.2059  0.2481
 1996SOL     OW16666   9.886   5.804   1.080  0.7043 -0.2197  0.4005
 1996SOL    HW116667   9.874   5.705   1.080  0.7098 -0.2468 -1.7613
 1996SOL    HW216668   9.975   5.828   1.043 -0.2894  0.6644 -1.4962
 1997SOL     OW16669   8.936   1.886   3.886  0.7959 -0.1610  0.1455
 1997SOL    HW116670   8.906   1.800   3.928 -0.2810  0.9693  1.7162
 1997SOL    HW216671   8.869   1.914   3.816 -0.3426  0.8288  1.5939
 1998SOL     OW16672   3.591   3.954   0.378  0.2564 -0.4406 -0.2904
 1998SOL    HW116673   3.633   4.017   0.313  0.6120 -0.5799 -0.1955
 1998SOL    HW216674   3.501   3.990   0.406  0.9155  0.5619  0.5777
 1999SOL     OW16675   0.392   6.807   4.021 -0.4565 -0.9297 -0.1895
 1999SOL    HW116676   0.335   6.881   3.983 -0.2162  0.1779  1.5459
 1999SOL    HW216677   0.345   6.720   4.010 -0.5749 -0.5840 -2.6447
 2000SOL     OW16678   9.251   9.687   1.378 -0.6618 -0.0089 -0.1362
 2000SOL    HW116679   9.348   9.690   1.351 -1.3139  1.8146 -2.4326
 2000SOL    HW216680   9.235   9.606   1.434  1.7228 -1.5723 -1.5884
 2001SOL     OW16681   2.589   5.680   2.184 -0.1859  0.7387  0.5027
 2001SOL    HW116682   2.550   5.661   2.274  0.3089 -2.4018  0.1176
 2001SOL    HW216683   2.515   5.687   2.116 -0.3826  0.0993  0.6508
 2002SOL     OW16684   8.173   6.099   3.372 -0.0643 -0.1081 -0.5535
 2002SOL    HW116685   8.121   6.162   3.314 -0.7008 -1.8975 -1.9823
 2002SOL    HW216686   8.257   6.073   3.326  1.2238  1.3190  0.9489
 2003SOL     OW16687   0.127   9.927   0.420 -0.3752  0.0701  1.0580
 2003SOL    HW116688   0.047   9.905   0.363  0.0316 -0.5604  0.7181
 2003SOL    HW216689   0.109  10.010   0.471 -0.4618  1.0650 -0.5491
 2004SOL     OW16690   1.819   8.291   2.812  0.0437 -0.1822 -0.1662
 2004SOL    HW116691   1.872   8.314   2.894  0.8246  0.7278 -0.9096
 2004SOL    HW216692   1.721   8.292   2.833  0.2730 -0.6256  0.9138
 2005SOL     OW16693   2.702   1.932   0.440 -0.0851 -0.1156 -0.1456
 2005SOL    HW116694   2.781   1.912   0.381  0.6529 -0.1703  0.8509
 2005SOL    HW216695   2.734   1.970   0.526 -1.1207 -0.6759  0.4904
 2006SOL     OW16696   8.228   1.564   4.536  0.3429 -0.3390 -0.3686
 2006SOL    HW116697   8.225   1.465   4.519 -0.2953 -0.2236 -0.9460
 2006SOL    HW216698   8.277   1.609   4.462 -1.0866 -0.0112 -1.1385
 2007SOL     OW16699   8.787   8.053   2.515 -0.1244 -0.0969  0.2160
 2007SOL    HW116700   8.856   8.125   2.521 -1.1840  1.1710 -2.2583
 2007SOL    HW216701   8.698   8.093   2.495 -0.7780 -2.0532 -0.9959
 2008SOL     OW16702   8.838   8.788   3.220  0.2691 -0.4905  0.7803
 2008SOL    HW116703   8.859   8.878   3.182  2.6350 -0.3602  2.3280
 2008SOL    HW216704   8.785   8.736   3.153  1.6790  0.8732 -1.4776
 2009SOL     OW16705   2.598   5.312   3.337 -0.2390 -0.0448 -0.7046
 2009SOL    HW116706   2.554   5.360   3.412  2.3875 -0.5103  1.1844
 2009SOL    HW216707   2.658   5.374   3.287  0.2532 -0.4325 -0.6051
 2010SOL     OW16708   7.214   8.216   2.103 -0.4422  0.3822 -0.1517
 2010SOL    HW116709   7.297   8.169   2.133 -1.1607 -1.3023 -0.7491
 2010SOL    HW216710   7.160   8.243   2.183 -0.9118 -1.4715  0.1904
 2011SOL     OW16711   9.113   6.939   1.014 -0.0576  0.0843  0.1189
 2011SOL    HW116712   9.053   6.874   1.060  0.0618 -0.8092 -0.9692
 2011SOL    HW216713   9.063   7.024   0.996 -0.2401  0.2647  1.4495
 2012SOL     OW16714   4.545   9.962   2.452 -0.3758 -0.2976 -0.6621
 2012SOL    HW116715   4.554   9.873   2.407  3.5668  0.4066 -1.4209
 2012SOL    HW216716   4.529  10.033   2.384 -0.0919  0.0119 -0.4109
 2013SOL     OW16717   8.278   7.554   4.394 -0.9418 -0.1270 -0.7027
 2013SOL    HW116718   8.193   7.555   4.342 -0.3579  0.5610 -1.6734
 2013SOL    HW216719   8.352   7.518   4.336 -0.4407 -0.0963 -0.0862
 2014SOL     OW16720   5.821   9.013   2.766 -0.0701  0.5180  0.1769
 2014SOL    HW116721   5.798   9.068   2.685 -1.3833  0.7436  0.6882
 2014SOL    HW216722   5.750   8.944   2.780  1.0665 -0.6745  0.1146
 2015SOL     OW16723   8.897   2.539   3.834  0.0627 -0.2923 -0.6820
 2015SOL    HW116724   8.850   2.544   3.922  0.8845  0.2191 -0.2683
 2015SOL    HW216725   8.860   2.609   3.772  0.1491 -0.0153 -0.4204
 2016SOL     OW16726   2.180   0.824   1.851 -0.5869 -0.0676  0.3916
 2016SOL    HW116727   2.258   0.828   1.789  1.3722  1.9854  2.9011
 2016SOL    HW216728   2.136   0.735   1.843  0.2188 -0.2247 -3.1580
 2017SOL     OW16729   3.994   1.569   0.075  0.2118  0.0052  0.7928
 2017SOL    HW116730   3.908   1.618   0.085  0.2116 -0.1789  1.7389
 2017SOL    HW216731   4.008   1.510   0.154  0.3708 -1.2685 -0.1569
 2018SOL     OW16732   2.173   3.553   0.898 -0.1530  0.0728  0.2362
 2018SOL    HW116733   2.257   3.515   0.937 -0.6586  0.3780  1.6522
 2018SOL    HW216734   2.184   3.566   0.799  0.8393 -1.5596  0.1195
 2019SOL     OW16735   0.055   1.293   3.476  0.5856  0.0722  0.3795
 2019SOL    HW116736   0.110   1.351   3.537  0.2468  1.6468 -0.7875
 2019SOL    HW216737  -0.002   1.233   3.531  2.9317 -1.0937  1.6207
 2020SOL     OW16738   0.067   2.775   2.009  0.5998  0.1191 -0.2758
 2020SOL    HW116739   0.129   2.699   1.991  0.9592  0.3009  0.1666
 2020SOL    HW216740   0.009   2.791   1.929 -0.1598 -1.2529 -0.0164
 2021SOL     OW16741   0.670   6.989   1.996 -0.7849  0.0267  0.1597
 2021SOL    HW116742   0.610   7.052   2.048 -1.1206  0.4577 -0.7395
 2021SOL    HW216743   0.644   6.991   1.900 -0.5759 -1.2610  0.0766
 2022SOL     OW16744   0.858   3.498   3.457  0.4026  0.8377  0.0606
 2022SOL    HW116745   0.911   3.414   3.465 -0.0646  0.6624  1.4899
 2022SOL    HW216746   0.808   3.514   3.542  0.5005  2.5746 -0.1918
 2023SOL     OW16747   2.582   7.532   2.933  0.1162 -0.3355 -0.3100
 2023SOL    HW116748   2.490   7.558   2.961 -1.0227 -0.9522 -3.2492
 2023SOL    HW216749   2.618   7.463   2.996 -0.4514  1.6695  2.2477
 2024SOL     OW16750   4.661   8.061   4.000 -0.4461  0.0575 -0.2950
 2024SOL    HW116751   4.641   8.025   4.091  1.5203 -0.6058 -0.0997
 2024SOL    HW216752   4.726   8.136   4.007  1.1751 -1.2156 -1.2708
 2025SOL     OW16753   7.495   9.464   2.257 -0.9527  0.1406 -0.5169
 2025SOL    HW116754   7.592   9.485   2.248 -0.1062 -2.3300  1.9992
 2025SOL    HW216755   7.447   9.543   2.296  0.3522  0.8107 -0.2595
 2026SOL     OW16756   9.519   6.228   0.990  0.2239 -0.5420 -0.5499
 2026SOL    HW116757   9.483   6.151   0.937  0.8046 -1.5763  0.5376
 2026SOL    HW216758   9.606   6.202   1.032  1.2775  1.2713 -1.5353
 2027SOL     OW16759   9.500   6.291   3.675 -0.3435 -0.1590  0.6029
 2027SOL    HW116760   9.516   6.286   3.774 -0.3940 -1.2180  0.5673
 2027SOL    HW216761   9.575   6.246   3.627 -1.6275 -2.0325  0.2856
 2028SOL     OW16762   2.272   7.557   0.042 -0.1172  0.0461  0.1542
 2028SOL    HW116763   2.253   7.487   0.112 -0.7099  2.4068  2.4234
 2028SOL    HW216764   2.364   7.592   0.055  0.4235 -0.7594 -1.4106
 2029SOL     OW16765   2.168   6.018   3.976  0.1722  0.2118  0.2466
 2029SOL    HW116766   2.264   5.988   3.974 -0.4881 -1.9512 -0.5173
 2029SOL    HW216767   2.141   6.037   4.070  0.4540 -2.3256  0.8994
 2030SOL     OW16768   8.845   3.694   1.093 -0.5639  0.2267  0.0669
 2030SOL    HW116769   8.918   3.659   1.035  0.2433  1.2562  0.4448
 2030SOL    HW216770   8.813   3.623   1.155 -0.3979 -0.4368 -0.6035
 2031SOL     OW16771   7.530   6.242   2.168 -0.9585  0.0462 -0.0177
 2031SOL    HW116772   7.613   6.233   2.113 -1.2795 -2.4159 -0.1567
 2031SOL    HW216773   7.450   6.232   2.109 -1.4460  3.6703 -0.1065
 2032SOL     OW16774   6.228   7.955   2.553  0.0820 -0.3858  0.4282
 2032SOL    HW116775   6.196   7.870   2.594 -0.5906 -0.3414 -0.0071
 2032SOL    HW216776   6.213   7.952   2.454 -0.2475  0.3720  0.4517
 2033SOL     OW16777   8.194   6.772   0.353 -0.0119 -0.8968 -0.4237
 2033SOL    HW116778   8.288   6.766   0.320  0.2603 -0.4750  0.2600
 2033SOL    HW216779   8.152   6.682   0.350 -0.2348 -0.7467 -2.6001
 2034SOL     OW16780   4.555   7.725   1.248 -0.3992 -0.9658  0.1231
 2034SOL    HW116781   4.608   7.803   1.216  1.5833 -2.2750  0.0723
 2034SOL    HW216782   4.478   7.708   1.187 -0.3036  0.3633 -0.3717
 2035SOL     OW16783   7.884   2.902   3.566  0.6726  0.3122  0.4502
 2035SOL    HW116784   7.880   2.947   3.477  0.3955  1.2007  0.8998
 2035SOL    HW216785   7.939   2.819   3.559 -0.2193 -0.1784 -0.7823
 2036SOL     OW16786   2.209   3.102   4.455 -0.1940 -0.5605 -0.0841
 2036SOL    HW116787   2.309   3.098   4.462 -0.2655 -0.1824  1.2404
 2036SOL    HW216788   2.170   3.117   4.546 -1.3727  1.1095 -0.8570
 2037SOL     OW16789   2.794   5.589   3.528  0.0474  0.4378 -0.3275
 2037SOL    HW116790   2.852   5.509   3.515 -0.4061  0.1469 -0.5946
 2037SOL    HW216791   2.764   5.593   3.623 -0.7791 -0.3031 -0.5463
 2038SOL     OW16792   3.884   2.910   4.142  0.1460  0.0786  0.3181
 2038SOL    HW116793   3.967   2.869   4.102 -0.3215 -0.3951 -0.1840
 2038SOL    HW216794   3.889   3.010   4.134  0.6591  0.0504  0.2656
 2039SOL     OW16795   9.087   1.764   2.798  0.6068  0.0758  0.3739
 2039SOL    HW116796   9.061   1.814   2.881 -0.0478 -1.3357  1.0253
 2039SOL    HW216797   9.034   1.679   2.792 -0.1129  0.6516 -2.0327
 2040SOL     OW16798   7.447   1.793   4.533  0.2922 -0.1357 -0.0901
 2040SOL    HW116799   7.505   1.717   4.505 -1.5253 -1.2233 -0.9516
 2040SOL    HW216800   7.472   1.875   4.481  0.7832 -0.6907 -0.7344
 2041SOL     OW16801   2.699   8.914   1.975  0.2580  0.1527  0.3680
 2041SOL    HW116802   2.635   8.972   2.027 -0.8181  0.9002 -1.7558
 2041SOL    HW216803   2.701   8.823   2.017  0.1221  0.9865  2.2744
 2042SOL     OW16804   4.198   9.384   1.287  0.0900  0.0256 -0.0487
 2042SOL    HW116805   4.297   9.387   1.273  0.2189 -1.1608  0.5528
 2042SOL    HW216806   4.151   9.403   1.200  0.8426  0.4130 -0.3727
 2043SOL     OW16807   2.598   5.995   0.441  0.2457 -0.0524  0.0233
 2043SOL    HW116808   2.588   5.945   0.355 -1.6257 -0.6659  0.5694
 2043SOL    HW216809   2.664   6.070   0.429 -0.1977  0.0398 -2.0004
 2044SOL     OW16810   0.001   2.955   0.382 -0.1839  0.1280  0.1513
 2044SOL    HW116811   0.096   2.928   0.398 -0.6946 -1.2639  0.8642
 2044SOL    HW216812  -0.030   3.014   0.457 -0.3295 -0.5717  0.6397
 2045SOL     OW16813   2.158   8.469   3.079 -0.6042  0.2416  0.9020
 2045SOL    HW116814   2.134   8.555   3.033 -1.3219 -1.1454 -1.4194
 2045SOL    HW216815   2.078   8.409   3.080 -0.0101 -0.5358  2.1891
 2046SOL     OW16816   2.487   1.068   3.420  0.3936  0.3361  0.3016
 2046SOL    HW116817   2.463   0.979   3.382  1.0448  0.2118  0.1833
 2046SOL    HW216818   2.571   1.101   3.378  1.7443 -0.3005  2.3810
 2047SOL     OW16819   8.467   3.947   3.948 -0.0069  0.0830 -0.0652
 2047SOL    HW116820   8.421   3.861   3.928  1.5453 -0.5812 -0.7673
 2047SOL    HW216821   8.426   4.020   3.893 -0.1655 -0.5205 -0.7518
 2048SOL     OW16822   7.422   9.708   0.138  0.3293 -0.0052  0.7124
 2048SOL    HW116823   7.484   9.667   0.205  0.3693 -0.8743  0.1490
 2048SOL    HW216824   7.475   9.754   0.066  0.2957  0.4285  0.9636
 2049SOL     OW16825   7.332   6.924   3.285 -0.0130  0.3614  0.0292
 2049SOL    HW116826   7.400   6.968   3.227  0.7392  0.2550  0.8352
 2049SOL    HW216827   7.277   6.993   3.331 -0.8837  0.4489 -1.1136
 2050SOL     OW16828   2.840   7.577   3.161 -0.0250  0.2871 -0.1140
 2050SOL    HW116829   2.887   7.644   3.104  1.5514 -0.2184  0.5584
 2050SOL    HW216830   2.794   7.510   3.103  0.6621  0.3995 -0.7845
 2051SOL     OW16831   0.811   5.949   2.338  0.0272  0.3176  0.6877
 2051SOL    HW116832   0.856   5.860   2.328 -0.7185 -0.2635  2.3353
 2051SOL    HW216833   0.880   6.022   2.341  0.6706 -0.2526 -0.1133
 2052SOL     OW16834   7.729   8.482   1.134  0.1451 -0.0224  0.0206
 2052SOL    HW116835   7.722   8.557   1.068  2.9810 -1.7590 -2.3547
 2052SOL    HW216836   7.808   8.497   1.193  1.3658 -1.6599 -1.1819
 2053SOL     OW16837   1.013   7.263   3.386 -0.6540  0.1378  0.0866
 2053SOL    HW116838   1.026   7.360   3.405 -1.6249  0.3156 -0.1468
 2053SOL    HW216839   1.040   7.243   3.292  0.8346 -0.0847  0.5408
 2054SOL     OW16840   0.873   4.489   3.150  0.3046 -0.0121  0.0463
 2054SOL    HW116841   0.922   4.486   3.238 -0.5177 -0.2757  0.4976
 2054SOL    HW216842   0.839   4.397   3.128 -1.4909  0.4936  0.5993
 2055SOL     OW16843   3.991   0.512   4.744 -0.6443 -0.1286 -0.3816
 2055SOL    HW116844   4.028   0.577   4.810 -0.5562  0.9734 -1.5173
 2055SOL    HW216845   4.019   0.537   4.652 -2.3949 -0.5466 -1.0475
 2056SOL     OW16846   2.389   9.458   3.364  0.0195 -0.0766 -0.0813
 2056SOL    HW116847   2.331   9.538   3.384  1.6328  0.5106  2.3686
 2056SOL    HW216848   2.342   9.375   3.394 -0.0617  0.2794  0.7771
 2057SOL     OW16849   8.872   3.317   2.248 -0.5030 -0.3224 -0.4123
 2057SOL    HW116850   8.951   3.331   2.308 -0.2017  0.6974 -1.0212
 2057SOL    HW216851   8.869   3.222   2.218 -0.4083 -0.7379  0.8620
 2058SOL     OW16852   0.351   8.471   1.096  0.9327 -0.2067 -0.2269
 2058SOL    HW116853   0.266   8.423   1.116  1.6199 -1.4906 -0.3009
 2058SOL    HW216854   0.346   8.512   1.006 -0.6468  2.1175  0.8859
 2059SOL     OW16855   1.186   3.248   3.082  0.3245 -0.0790 -0.1203
 2059SOL    HW116856   1.152   3.216   3.171  0.5653 -0.6837 -0.2451
 2059SOL    HW216857   1.169   3.179   3.013 -0.6222  0.7378 -0.7234
 2060SOL     OW16858   2.889   0.299   2.243 -0.1111  0.1215  0.2294
 2060SOL    HW116859   2.825   0.296   2.320  0.7437  1.0722  0.9961
 2060SOL    HW216860   2.880   0.387   2.196 -1.2318 -0.7854 -1.2981
 2061SOL     OW16861   2.917   3.970   3.307  0.5521 -0.2051 -0.4375
 2061SOL    HW116862   2.971   3.894   3.343  0.7069  0.1561  0.0926
 2061SOL    HW216863   2.976   4.031   3.254  1.1541  1.4275  2.0406
 2062SOL     OW16864   3.368   1.510   3.218 -0.3971  0.0735 -0.4833
 2062SOL    HW116865   3.319   1.523   3.304  0.1596  0.1595 -0.1736
 2062SOL    HW216866   3.357   1.592   3.160 -0.2176  0.2921 -0.2104
 2063SOL     OW16867   0.087   8.364   2.241  0.1189 -0.3314 -0.3154
 2063SOL    HW116868   0.032   8.444   2.217 -1.3223 -1.2186 -0.0636
 2063SOL    HW216869   0.062   8.287   2.182  1.6832 -0.5390 -0.7368
 2064SOL     OW16870   9.983   0.092   3.566 -0.3824  1.0858 -0.0729
 2064SOL    HW116871  10.016   0.001   3.588 -0.1847  1.5524  1.7086
 2064SOL    HW216872  10.060   0.152   3.545 -0.3150  1.4078  1.0519
 2065SOL     OW16873   2.567   6.647   2.498 -0.3408  0.6211 -0.1891
 2065SOL    HW116874   2.615   6.561   2.480  0.0262  0.4568  1.4946
 2065SOL    HW216875   2.634   6.721   2.507 -0.6762  1.1782 -1.9980
 2066SOL     OW16876   3.959   7.274   4.017 -0.0398 -0.0480 -0.2551
 2066SOL    HW116877   3.979   7.348   3.953  0.3053 -0.3960 -0.5578
 2066SOL    HW216878   4.044   7.240   4.057  0.0373 -1.6203 -1.6500
 2067SOL     OW16879   0.389   6.017   1.263  0.4564  0.1617 -0.3323
 2067SOL    HW116880   0.390   6.079   1.185  0.3502  1.3037  0.5540
 2067SOL    HW216881   0.327   5.941   1.245  0.2705  0.5326 -1.2698
 2068SOL     OW16882   2.741   7.916   0.661 -0.5305 -0.0504  0.2777
 2068SOL    HW116883   2.794   7.999   0.642  0.6532 -0.7187  0.6453
 2068SOL    HW216884   2.738   7.859   0.579 -0.3389 -0.2003  0.3744
 2069SOL     OW16885   8.861   3.456   0.246 -0.2291 -0.0490  0.5335
 2069SOL    HW116886   8.885   3.361   0.265 -1.5021 -0.7389 -1.1174
 2069SOL    HW216887   8.763   3.461   0.223 -0.1034  1.6149  0.3207
 2070SOL     OW16888   0.970   6.771   0.008  0.0444  0.2450  0.0237
 2070SOL    HW116889   0.905   6.819   0.068 -0.5282  0.5847 -0.8705
 2070SOL    HW216890   0.925   6.747  -0.078  1.2658  0.9960 -0.8336
 2071SOL     OW16891   0.218   4.854   0.410  0.4744 -0.1597  0.1971
 2071SOL    HW116892   0.280   4.849   0.488  0.7250  1.0829  0.0991
 2071SOL    HW216893   0.258   4.804   0.333  1.5235  0.8728  0.0453
 2072SOL     OW16894   9.013   5.717   2.177  0.5000  0.4999 -0.4851
 2072SOL    HW116895   9.013   5.791   2.243 -1.6462 -0.4495  0.6450
 2072SOL    HW216896   8.925   5.714   2.130  1.0726 -0.4490 -1.5356
 2073SOL     OW16897   3.960   3.136   0.937  0.0578  0.0275 -0.5866
 2073SOL    HW116898   3.944   3.223   0.982 -2.2434 -0.5048 -0.3103
 2073SOL    HW216899   4.058   3.124   0.921  0.5761  1.7604  1.1394
 2074SOL     OW16900   9.480   8.504   2.824 -0.1477  0.1501  0.3457
 2074SOL    HW116901   9.561   8.561   2.838 -0.8364  0.7378  2.1381
 2074SOL    HW216902   9.493   8.417   2.872 -0.9890  0.6677  1.5409
 2075SOL     OW16903   4.247   8.934   2.410 -0.0027  0.0604  0.4167
 2075SOL    HW116904   4.193   8.879   2.474 -1.3708  2.4124  1.3878
 2075SOL    HW216905   4.315   8.986   2.462 -2.0405  3.0550  0.2208
 2076SOL     OW16906   9.915   9.259   2.203  0.7268  0.0176 -0.0572
 2076SOL    HW116907   9.832   9.290   2.159  0.5699 -0.2633  0.0363
 2076SOL    HW216908   9.892   9.198   2.279  0.8890  2.4349  1.9991
 2077SOL     OW16909   9.056   3.534   0.998 -0.6116  0.1775 -0.3296
 2077SOL    HW116910   9.125   3.599   0.966 -1.1982 -0.6976 -3.6184
 2077SOL    HW216911   9.101   3.461   1.049  0.4554  1.4243  0.5552
 2078SOL     OW16912   1.533   7.998   1.890  0.3490 -0.0961 -0.2153
 2078SOL    HW116913   1.562   8.085   1.850 -0.3670 -0.4836 -1.6266
 2078SOL    HW216914   1.459   7.959   1.834  0.6195 -1.5729  0.4386
 2079SOL     OW16915   2.476   5.994   3.451  0.0382  0.5627 -0.4237
 2079SOL    HW116916   2.412   5.971   3.378  0.4651  0.4078 -0.7500
 2079SOL    HW216917   2.553   5.930   3.450  0.0486  0.5699  0.1511
 2080SOL     OW16918   8.662   1.577   4.207 -0.0897 -0.1555  0.5027
 2080SOL    HW116919   8.720   1.509   4.250 -0.2114 -0.5301  0.0740
 2080SOL    HW216920   8.587   1.532   4.158  1.6303  0.1222 -2.4811
 2081SOL     OW16921   0.505   1.618   4.174  0.1024 -0.0008  0.2699
 2081SOL    HW116922   0.570   1.557   4.128  1.1828  0.4423  1.1794
 2081SOL    HW216923   0.424   1.566   4.202  1.4248 -1.2280  1.8841
 2082SOL     OW16924   4.529   0.303   1.977  0.0783  0.8044 -0.4157
 2082SOL    HW116925   4.579   0.350   2.050 -1.5465  0.0333  1.2291
 2082SOL    HW216926   4.514   0.367   1.901 -0.3759  2.3711  0.9590
 2083SOL     OW16927   9.342   1.901   0.280  0.3418 -0.3607 -0.5308
 2083SOL    HW116928   9.249   1.871   0.258 -0.3221  1.1185  0.1578
 2083SOL    HW216929   9.367   1.866   0.370 -0.1814  0.5721 -0.0121
 2084SOL     OW16930   8.077   0.773   1.632  0.6232  0.5880 -0.2390
 2084SOL    HW116931   8.040   0.860   1.601  0.6667  0.6601 -0.0895
 2084SOL    HW216932   8.041   0.752   1.722  0.0402  0.0978 -0.5847
 2085SOL     OW16933   3.217   7.164   0.636 -1.1815  0.0809  0.0418
 2085SOL    HW116934   3.260   7.203   0.555 -1.9168  0.1218 -0.3333
 2085SOL    HW216935   3.159   7.087   0.609 -0.9932 -0.2623  0.5964
 2086SOL     OW16936   2.539   7.121   0.127 -0.3411  0.6244 -0.4653
 2086SOL    HW116937   2.567   7.028   0.101  1.2836  1.4244 -1.6632
 2086SOL    HW216938   2.528   7.126   0.226  1.6245 -0.3288 -0.1686
 2087SOL     OW16939   1.477   3.549   3.959  0.4354  0.6354  0.5330
 2087SOL    HW116940   1.478   3.549   3.859  1.1184  0.3255  0.5356
 2087SOL    HW216941   1.445   3.460   3.991 -1.5055  1.3411  0.5857
 2088SOL     OW16942   2.756   6.898   1.994 -0.3508 -0.0954  0.0473
 2088SOL    HW116943   2.693   6.896   2.072 -0.1794 -1.1397  0.1667
 2088SOL    HW216944   2.705   6.895   1.909 -0.4502 -1.6699  0.1495
 2089SOL     OW16945   2.280   8.156   4.439 -0.4845 -0.2133  0.9662
 2089SOL    HW116946   2.282   8.209   4.524 -2.1011 -0.1970  1.0183
 2089SOL    HW216947   2.232   8.070   4.456 -1.7858  0.2736 -0.1869
 2090SOL     OW16948   9.173   2.217   3.215  0.0731  0.1283  0.0022
 2090SOL    HW116949   9.250   2.154   3.202 -0.2363 -0.4145  0.7509
 2090SOL    HW216950   9.111   2.210   3.137 -0.1820 -0.8199  0.2800
 2091SOL     OW16951   0.062   2.014   3.140  0.2370 -0.0861 -0.5335
 2091SOL    HW116952   0.056   2.074   3.220 -0.1938  0.3903 -0.9175
 2091SOL    HW216953   0.158   1.996   3.119  0.3568 -0.0013 -0.0658
 2092SOL     OW16954   8.544   8.269   2.856  0.8124 -0.5944 -0.0097
 2092SOL    HW116955   8.493   8.254   2.940  1.4814  0.7739  0.6642
 2092SOL    HW216956   8.638   8.296   2.879  0.9168  0.0698 -1.1853
 2093SOL     OW16957   3.287   0.274   3.775  0.1667 -0.3602 -0.1519
 2093SOL    HW116958   3.287   0.248   3.678 -1.4518  2.1316 -0.8513
 2093SOL    HW216959   3.236   0.205   3.827  1.7343 -2.1488 -0.9039
 2094SOL     OW16960   0.636   6.486   3.274  0.0024  0.1304 -0.3468
 2094SOL    HW116961   0.700   6.415   3.304 -1.0071  0.1373  1.8834
 2094SOL    HW216962   0.685   6.574   3.266  0.8053 -0.3772 -1.1624
 2095SOL     OW16963   1.191   0.882   2.248  0.1848  0.6109 -0.2861
 2095SOL    HW116964   1.244   0.875   2.163 -0.5372 -0.0358 -0.6894
 2095SOL    HW216965   1.244   0.841   2.323  0.1187 -0.3261 -0.7489
 2096SOL     OW16966   0.044   5.166   2.843  0.0608  0.2406 -0.5544
 2096SOL    HW116967   0.094   5.083   2.868 -1.3939  0.3492  2.9177
 2096SOL    HW216968   0.087   5.246   2.886 -0.4365  0.9236 -1.2873
 2097SOL     OW16969   2.785   3.447   2.711 -0.3546  0.1139  0.6184
 2097SOL    HW116970   2.869   3.481   2.670 -1.1958  0.2511 -1.0025
 2097SOL    HW216971   2.807   3.402   2.798  1.2878  0.8249  0.5908
 2098SOL     OW16972   9.450   8.746   3.070 -0.1342  0.2410  0.2757
 2098SOL    HW116973   9.394   8.677   3.025  0.2223  1.1623 -1.6523
 2098SOL    HW216974   9.523   8.702   3.122 -1.4245 -0.8952  1.1635
 2099SOL     OW16975   1.734   1.500   2.466  1.0983 -0.3027  0.1735
 2099SOL    HW116976   1.643   1.489   2.508  1.3345  0.6602  0.9604
 2099SOL    HW216977   1.789   1.419   2.486  1.0912 -0.0049  1.4786
 2100SOL     OW16978   4.246   2.539   1.336  0.3913 -0.3566 -0.5682
 2100SOL    HW116979   4.254   2.636   1.360  2.9133 -0.4735 -0.7512
 2100SOL    HW216980   4.226   2.531   1.238  0.5417 -0.0247 -0.6276
 2101SOL     OW16981   9.425   1.244   4.599  0.3314 -0.0472 -0.3386
 2101SOL    HW116982   9.400   1.276   4.691 -1.5180 -3.4642  0.4644
 2101SOL    HW216983   9.434   1.322   4.538  0.0506  2.2104  2.3851
 2102SOL     OW16984   3.664   5.438   0.920  0.3071 -0.1975  0.1934
 2102SOL    HW116985   3.669   5.346   0.882  3.1308  0.2351 -0.5868
 2102SOL    HW216986   3.737   5.451   0.987  0.9954  1.9816 -0.9311
 2103SOL     OW16987   8.298   5.013   3.303 -0.5516  0.0842  0.0777
 2103SOL    HW116988   8.298   4.928   3.251  1.4714  0.0462  0.1055
 2103SOL    HW216989   8.278   5.089   3.241  1.2607 -0.0257 -0.6670
 2104SOL     OW16990   3.246   8.369   1.109  0.2870  0.3592 -0.3398
 2104SOL    HW116991   3.175   8.427   1.067  0.2352  0.6695  0.1631
 2104SOL    HW216992   3.268   8.293   1.049  0.4803  1.0074 -1.0899
 2105SOL     OW16993   3.887   8.210   4.067 -0.4598  0.2150 -0.2428
 2105SOL    HW116994   3.811   8.168   4.117 -1.0443 -0.7839 -1.9416
 2105SOL    HW216995   3.957   8.239   4.132 -1.7069 -0.0408  1.2415
 2106SOL     OW16996   9.065   9.441   3.629  0.0441  0.4020 -0.1169
 2106SOL    HW116997   9.034   9.371   3.694 -1.5925 -0.2901 -1.6208
 2106SOL    HW216998   9.133   9.499   3.674 -0.2818 -0.7037  1.8930
 2107SOL     OW16999   2.817   4.189   2.875 -0.0291  0.0963 -0.2413
 2107SOL    HW117000   2.879   4.224   2.945 -1.9576 -0.0416  1.5983
 2107SOL    HW217001   2.752   4.126   2.918 -0.1941 -1.3059 -2.4783
 2108SOL     OW17002   1.745   8.608   0.800  0.0049  0.0838  0.1437
 2108SOL    HW117003   1.700   8.569   0.720 -1.4138 -3.0948  2.3840
 2108SOL    HW217004   1.677   8.650   0.860  0.5596 -0.9743  1.5315
 2109SOL     OW17005   9.802   4.190   2.075 -0.0973  0.0376  0.1204
 2109SOL    HW117006   9.784   4.154   2.166  0.4416 -1.7699 -0.4627
 2109SOL    HW217007   9.884   4.248   2.078  0.7225 -1.1202  0.5432
 2110SOL     OW17008   6.243   0.638   2.994  0.4532  0.0765  0.6096
 2110SOL    HW117009   6.153   0.684   2.990  0.9418  1.1193  1.4511
 2110SOL    HW217010   6.229   0.539   3.000 -0.6391  0.2201  0.6616
 2111SOL     OW17011   4.103   7.154   2.270 -0.0761 -0.4873  0.1233
 2111SOL    HW117012   4.177   7.137   2.335 -0.4925  2.0442  1.2931
 2111SOL    HW217013   4.017   7.120   2.307 -0.2851  0.8021  0.8162
 2112SOL     OW17014   0.294   7.125   1.419 -0.1203 -0.3228 -0.5600
 2112SOL    HW117015   0.393   7.113   1.405  0.3475  1.7965  0.7250
 2112SOL    HW217016   0.272   7.111   1.515 -1.0515 -0.5935 -0.8081
 2113SOL     OW17017   2.594   5.354   0.415  0.5375  0.0291  0.0821
 2113SOL    HW117018   2.685   5.363   0.455  0.4465  1.1297  0.0524
 2113SOL    HW217019   2.525   5.357   0.488  0.4797 -0.1068  0.0350
 2114SOL     OW17020   0.436   2.762   0.639 -0.1398 -0.1643 -0.3511
 2114SOL    HW117021   0.475   2.803   0.556  0.7129  0.5285  0.3815
 2114SOL    HW217022   0.505   2.705   0.684 -0.6423 -0.6494 -0.1885
 2115SOL     OW17023   1.356   1.159   1.009 -0.0977  0.4853  0.0406
 2115SOL    HW117024   1.401   1.095   0.946 -0.7985  1.0201 -1.0348
 2115SOL    HW217025   1.267   1.183   0.971 -1.0484 -0.1228  1.8611
 2116SOL     OW17026   0.241   8.429   3.929  0.5521  0.1088 -0.5417
 2116SOL    HW117027   0.291   8.474   4.003  0.6698  1.0545 -1.1880
 2116SOL    HW217028   0.200   8.345   3.963 -0.6294  1.2796  0.9934
 2117SOL     OW17029   2.593   4.098   4.268  0.0996  0.0967  0.4428
 2117SOL    HW117030   2.586   4.130   4.174  0.0194 -1.9633 -0.2789
 2117SOL    HW217031   2.663   4.151   4.317  1.1833  0.2090 -1.1918
 2118SOL     OW17032   4.252   2.480   3.891 -0.1845 -0.1144 -0.5607
 2118SOL    HW117033   4.194   2.498   3.812  0.2312 -0.6198 -0.9898
 2118SOL    HW217034   4.263   2.563   3.945 -1.6192 -0.1089 -0.2517
 2119SOL     OW17035   2.769   8.770   4.523  0.3703  0.3232  0.3035
 2119SOL    HW117036   2.677   8.809   4.521 -0.1251 -0.8075  0.7561
 2119SOL    HW217037   2.807   8.771   4.430 -0.0325  0.9522  0.1429
 2120SOL     OW17038   2.344   5.412   3.094  0.9464 -0.2192  0.8578
 2120SOL    HW117039   2.278   5.453   3.032  0.3420 -1.8608  0.3904
 2120SOL    HW217040   2.404   5.483   3.131  0.1569  1.0139 -0.1981
 2121SOL     OW17041   4.849   2.591   0.453 -0.4044  0.0926 -0.1960
 2121SOL    HW117042   4.856   2.635   0.364 -0.7919  1.3862  0.4089
 2121SOL    HW217043   4.912   2.634   0.517 -0.5131 -0.4816  0.3039
 2122SOL     OW17044   4.643   9.196   1.303 -0.3249  0.4012 -0.6330
 2122SOL    HW117045   4.713   9.125   1.305 -0.2974  0.4276 -0.6308
 2122SOL    HW217046   4.591   9.190   1.218 -1.6671 -0.9106  0.2599
 2123SOL     OW17047   0.062   9.470   0.645 -0.0797  0.2424 -0.0210
 2123SOL    HW117048   0.022   9.551   0.688  0.7905  0.3081  0.6587
 2123SOL    HW217049   0.148   9.494   0.601  0.2191 -0.3348  0.2452
 2124SOL     OW17050   2.040   0.849   2.307 -0.1543 -0.1590  0.0719
 2124SOL    HW117051   2.088   0.792   2.240 -1.4330 -1.7687  0.4904
 2124SOL    HW217052   2.008   0.933   2.263  0.6553 -0.3319 -0.8631
 2125SOL     OW17053   2.584   9.739   1.627  0.2908  0.2226 -0.1091
 2125SOL    HW117054   2.649   9.789   1.685 -0.2946  0.3417  0.4445
 2125SOL    HW217055   2.491   9.753   1.661  0.1343 -1.4306  0.2082
 2126SOL     OW17056   8.943   9.841   3.583  0.2533 -0.0455  0.0038
 2126SOL    HW117057   8.876   9.888   3.640  0.0958  0.7578 -0.8337
 2126SOL    HW217058   8.931   9.742   3.591 -0.5187  0.0848  0.4684
 2127SOL     OW17059   3.987   3.983   0.231 -0.3065  0.2728  0.1062
 2127SOL    HW117060   3.998   4.022   0.322  2.0747  1.2197 -0.5285
 2127SOL    HW217061   4.058   3.914   0.215 -0.1247  0.7685 -1.3516
 2128SOL     OW17062   4.266   8.034   3.012 -0.6265 -0.0927  0.5891
 2128SOL    HW117063   4.323   7.953   2.994  0.6450  0.6280  1.3530
 2128SOL    HW217064   4.188   8.034   2.948  0.5434 -0.7630 -0.8653
 2129SOL     OW17065   1.138   9.973   3.614  0.1385 -0.1349  0.1766
 2129SOL    HW117066   1.054   9.994   3.564 -0.3460  0.3830  1.2009
 2129SOL    HW217067   1.217  10.002   3.561 -0.4266  1.7095  0.3337
 2130SOL     OW17068   0.703   2.783   2.032 -0.0020 -0.4412  0.0483
 2130SOL    HW117069   0.704   2.750   2.126  0.0528 -0.6176 -0.0148
 2130SOL    HW217070   0.609   2.807   2.007  0.0262 -0.1088  0.2458
 2131SOL     OW17071   9.280   7.691   2.681 -0.3330 -0.5345  0.2507
 2131SOL    HW117072   9.223   7.714   2.602  1.1495  0.8834 -0.4451
 2131SOL    HW217073   9.254   7.601   2.716 -3.1679  0.1947  0.1320
 2132SOL     OW17074   2.519   1.746   0.554 -0.4388 -0.1738  0.0859
 2132SOL    HW117075   2.544   1.649   0.546  0.7717  0.1698 -0.4498
 2132SOL    HW217076   2.578   1.800   0.494 -1.7848  0.7960 -0.3746
 2133SOL     OW17077   3.670   3.601   4.096  0.1447  0.3088 -0.4524
 2133SOL    HW117078   3.575   3.621   4.072  0.1418  1.1993  0.2816
 2133SOL    HW217079   3.700   3.664   4.168  0.8043 -0.9542  0.3975
 2134SOL     OW17080   3.754   3.998   2.818 -0.1624 -0.1270  0.4912
 2134SOL    HW117081   3.756   3.999   2.918  1.0250  0.0908  0.4689
 2134SOL    HW217082   3.741   4.092   2.784  3.6166  0.4544  0.3914
 2135SOL     OW17083   4.302   5.664   1.678  0.4133 -0.3435  0.3958
 2135SOL    HW117084   4.388   5.676   1.628  0.9091  0.8258  1.5070
 2135SOL    HW217085   4.321   5.657   1.776 -0.7400 -0.3915  0.6219
 2136SOL     OW17086   6.702   9.621   2.947 -0.2993 -0.4809 -0.1590
 2136SOL    HW117087   6.607   9.640   2.922  1.1195  2.9401 -3.4138
 2136SOL    HW217088   6.743   9.703   2.988  1.8493 -1.2316 -0.7366
 2137SOL     OW17089   8.018   0.782   2.694  0.7447  0.0144  0.6864
 2137SOL    HW117090   7.934   0.728   2.683 -0.0839  1.5240 -0.6321
 2137SOL    HW217091   8.030   0.806   2.790  0.9294 -2.1754  1.2321
 2138SOL     OW17092   4.486   8.530   2.507 -0.0430 -0.3832 -0.1388
 2138SOL    HW117093   4.434   8.445   2.504  0.9839 -0.9710 -1.9671
 2138SOL    HW217094   4.438   8.601   2.456 -0.2655 -0.2069  0.3058
 2139SOL     OW17095   2.998   0.333   0.668 -0.5802 -0.4510 -0.2868
 2139SOL    HW117096   2.941   0.300   0.593  0.4269  2.8945 -2.6774
 2139SOL    HW217097   3.079   0.380   0.630  0.4497  0.4732  2.9019
 2140SOL     OW17098   8.514   9.163   4.072  0.2269  0.3750 -0.4876
 2140SOL    HW117099   8.595   9.138   4.020  0.7972  1.8287 -0.3341
 2140SOL    HW217100   8.454   9.084   4.082  0.2869 -0.0301 -3.0338
 2141SOL     OW17101   1.074   2.418   3.100  1.1515  0.0116 -0.1076
 2141SOL    HW117102   1.023   2.493   3.142  1.2449  0.4187 -0.7011
 2141SOL    HW217103   1.163   2.409   3.144  0.6749 -0.5246  0.7533
 2142SOL     OW17104   2.179   6.982   2.086  0.3292 -0.1876  0.0462
 2142SOL    HW117105   2.240   7.025   2.152 -0.2696 -1.0441  1.1683
 2142SOL    HW217106   2.090   6.966   2.128 -0.5987  0.7818 -1.4834
 2143SOL     OW17107   9.707   9.200   3.943 -0.1404 -0.4173  0.5297
 2143SOL    HW117108   9.737   9.126   3.882  1.1164  1.0219 -0.6553
 2143SOL    HW217109   9.735   9.288   3.904 -1.4895  0.6832  1.9851
 2144SOL     OW17110   8.896   8.383   2.757  0.3322  0.0617  0.3381
 2144SOL    HW117111   8.950   8.348   2.681  0.1288  0.6887 -0.0999
 2144SOL    HW217112   8.878   8.309   2.822  0.1629 -0.5778 -0.4231
 2145SOL     OW17113   1.521   0.127   4.623 -0.1056 -0.1713  0.2791
 2145SOL    HW117114   1.606   0.079   4.646  1.4975  2.3076 -0.3323
 2145SOL    HW217115   1.468   0.143   4.706  1.3036  0.6157  1.0561
 2146SOL     OW17116   8.478   7.362   3.075 -0.2191 -0.0641 -0.0071
 2146SOL    HW117117   8.389   7.335   3.112 -0.1122 -0.1412  0.1904
 2146SOL    HW217118   8.550   7.313   3.123 -0.0162  0.7102  0.4827
 2147SOL     OW17119   3.651   9.153   0.539 -0.1818  0.7673 -0.3464
 2147SOL    HW117120   3.651   9.252   0.524  0.2400  1.0186  1.2629
 2147SOL    HW217121   3.603   9.132   0.624  0.0763 -0.3893 -0.4765
 2148SOL     OW17122   2.763   9.089   3.493 -0.8845 -0.1785 -0.3964
 2148SOL    HW117123   2.819   9.133   3.563 -0.2184 -0.3898 -0.7944
 2148SOL    HW217124   2.667   9.091   3.521 -0.7461  0.6692  0.0356
 2149SOL     OW17125   6.136   8.754   2.378  0.2151 -0.0048  0.0637
 2149SOL    HW117126   6.169   8.810   2.302  1.4620 -0.9756 -0.1262
 2149SOL    HW217127   6.047   8.788   2.409 -0.4979  0.1553 -2.1031
 2150SOL     OW17128   1.094   9.139   1.883 -0.2946 -0.0247 -0.4654
 2150SOL    HW117129   1.000   9.128   1.851 -0.7968  0.0220  0.9463
 2150SOL    HW217130   1.139   9.050   1.889 -0.4275 -0.1011 -0.6220
 2151SOL     OW17131   3.319   9.112   4.028 -0.2164  0.4661  0.0973
 2151SOL    HW117132   3.373   9.037   3.989 -1.9435  0.2015 -1.8971
 2151SOL    HW217133   3.379   9.189   4.048  1.1744 -0.4617 -0.3995
 2152SOL     OW17134   9.166   1.004   0.624  0.0638 -0.3249  0.2279
 2152SOL    HW117135   9.111   1.024   0.543  1.7941  1.7119 -0.4857
 2152SOL    HW217136   9.116   0.941   0.683 -1.9775 -0.4548 -1.5623
 2153SOL     OW17137   3.492   7.551   1.999 -0.3317 -0.1094 -0.2009
 2153SOL    HW117138   3.436   7.534   1.918  0.0496  0.4368 -0.5816
 2153SOL    HW217139   3.461   7.491   2.073  1.1617 -2.7134 -1.5836
 2154SOL     OW17140   3.332   6.508   2.441  0.5435  0.7068  0.2966
 2154SOL    HW117141   3.262   6.493   2.370  0.3313  1.8454  0.2609
 2154SOL    HW217142   3.292   6.490   2.531  0.3598  0.8243  0.2394
 2155SOL     OW17143   2.243   4.489   3.613  0.5990  0.2547  0.1971
 2155SOL    HW117144   2.288   4.432   3.682 -1.5379 -1.4399  0.2648
 2155SOL    HW217145   2.264   4.454   3.522 -2.8446 -2.4105  0.3248
 2156SOL     OW17146   2.251   1.561   0.688 -1.0861  0.5731  0.3767
 2156SOL    HW117147   2.306   1.524   0.763 -1.3398  1.1763  0.8633
 2156SOL    HW217148   2.188   1.629   0.724  0.7620  2.9854 -0.8154
 2157SOL     OW17149   0.842   1.275   2.190  0.3827  0.0490  0.4926
 2157SOL    HW117150   0.751   1.244   2.215  0.5627 -1.0287 -0.1803
 2157SOL    HW217151   0.905   1.198   2.190  1.6152  1.0008  2.3198
 2158SOL     OW17152   6.040   7.888   2.065  0.3664  0.0025  0.9954
 2158SOL    HW117153   6.076   7.974   2.029 -0.3164  0.2147  0.8051
 2158SOL    HW217154   6.004   7.833   1.990  0.2245 -0.1747  1.1914
 2159SOL     OW17155   2.036   3.481   1.122 -0.0037  0.1084  0.1930
 2159SOL    HW117156   2.018   3.558   1.183 -1.6021 -0.1838  0.0966
 2159SOL    HW217157   2.066   3.515   1.033 -1.6267  0.6485 -0.1533
 2160SOL     OW17158   8.496   0.893   3.565  0.1641 -0.6197 -0.1298
 2160SOL    HW117159   8.575   0.953   3.556 -1.1450  0.9783 -1.2237
 2160SOL    HW217160   8.497   0.825   3.491 -1.3424  1.6633 -2.3625
 2161SOL     OW17161   8.136   6.493   0.843  1.0193  0.0484 -0.3846
 2161SOL    HW117162   8.063   6.463   0.781 -0.3045  1.7870  0.2953
 2161SOL    HW217163   8.178   6.576   0.806  1.4309  0.0711  0.1354
 2162SOL     OW17164   3.290   1.552   0.271  0.1179  0.3829  0.0941
 2162SOL    HW117165   3.251   1.642   0.287 -0.2534 -0.2116  2.9002
 2162SOL    HW217166   3.268   1.492   0.348  2.9513 -1.2129 -0.2327
 2163SOL     OW17167   3.656   2.537   3.150 -0.5620  0.4159 -0.0660
 2163SOL    HW117168   3.645   2.603   3.076  1.4096 -0.9537 -1.6525
 2163SOL    HW217169   3.741   2.556   3.199 -2.2942  1.8657  2.4868
 2164SOL     OW17170   1.551   2.168   4.634  0.7489  0.1256  0.4535
 2164SOL    HW117171   1.587   2.089   4.584 -0.1065 -0.0484  0.1164
 2164SOL    HW217172   1.628   2.228   4.660  1.1113  0.9791 -2.3746
 2165SOL     OW17173   8.720   0.877   4.417 -0.3670  0.6866  0.5326
 2165SOL    HW117174   8.671   0.951   4.372 -1.2885 -0.7040 -0.8011
 2165SOL    HW217175   8.818   0.888   4.404 -0.5454  1.1748 -0.4403
 2166SOL     OW17176   8.737   9.083   3.932 -0.3073 -0.4318 -0.0792
 2166SOL    HW117177   8.758   9.074   3.835 -3.0476  0.4541 -0.7781
 2166SOL    HW217178   8.759   8.997   3.979 -0.2885 -1.3264 -1.7093
 2167SOL     OW17179   4.839   0.255   0.828 -0.1040 -0.0235  0.4225
 2167SOL    HW117180   4.793   0.176   0.787 -0.0381 -0.4714  1.1956
 2167SOL    HW217181   4.885   0.307   0.757  0.5260 -1.1354 -0.0022
 2168SOL     OW17182   6.829   0.973   2.789 -0.2764 -0.1964 -0.4352
 2168SOL    HW117183   6.806   1.059   2.836  2.3328  1.0041 -1.2178
 2168SOL    HW217184   6.745   0.927   2.760 -1.7324  2.0514  0.0749
 2169SOL     OW17185   9.200   7.064   4.745  0.2243  0.5559 -0.3897
 2169SOL    HW117186   9.121   7.045   4.803  1.4385 -1.0798  0.7872
 2169SOL    HW217187   9.270   7.113   4.797  0.9976 -0.2201 -0.6730
 2170SOL     OW17188   1.382   3.680   0.490  0.2803 -0.2012  0.1548
 2170SOL    HW117189   1.405   3.585   0.508 -0.2818 -0.2361  0.7550
 2170SOL    HW217190   1.361   3.726   0.577  2.0006  0.8645  0.0288
 2171SOL     OW17191   3.041   8.582   1.722  0.6174 -0.2501  0.3441
 2171SOL    HW117192   3.077   8.636   1.647  1.0452 -0.1683  0.6085
 2171SOL    HW217193   3.041   8.485   1.696  3.2231 -0.5218  1.1863
 2172SOL     OW17194   0.788   4.499   0.099 -0.3852 -0.3461 -0.0267
 2172SOL    HW117195   0.780   4.514   0.000 -1.8209 -2.0742 -0.2070
 2172SOL    HW217196   0.859   4.559   0.136 -0.6121  1.1641 -1.9052
 2173SOL     OW17197   8.480   5.307   3.076 -0.5552  0.1959 -0.0127
 2173SOL    HW117198   8.452   5.222   3.032  2.2459 -1.0713  0.5702
 2173SOL    HW217199   8.579   5.310   3.083 -0.6967  2.7659  1.5159
 2174SOL     OW17200   9.309   3.096   1.058 -0.3117 -0.1999  0.3380
 2174SOL    HW117201   9.299   3.039   0.976  0.8465  1.4661 -1.0131
 2174SOL    HW217202   9.357   3.045   1.129 -1.5033 -1.7326  0.0550
 2175SOL     OW17203   4.053   1.781   0.317  0.0058 -0.0355  0.1473
 2175SOL    HW117204   3.993   1.859   0.334 -1.1998 -0.8601 -0.3254
 2175SOL    HW217205   4.148   1.813   0.318 -0.3496  1.0331  2.1896
 2176SOL     OW17206   9.252   0.727   2.329  0.4383 -0.3247  0.1573
 2176SOL    HW117207   9.279   0.787   2.404  0.2682  0.2318 -0.2232
 2176SOL    HW217208   9.170   0.765   2.284  1.1074 -0.1327 -0.9255
 2177SOL     OW17209   8.261   8.636   1.946  0.5359 -0.2456 -0.4407
 2177SOL    HW117210   8.270   8.732   1.970  0.1031 -0.0152 -1.1766
 2177SOL    HW217211   8.199   8.590   2.009  0.0820  0.1535 -0.5949
 2178SOL     OW17212   8.765   7.680   1.478  1.0732 -0.4838 -0.1415
 2178SOL    HW117213   8.684   7.655   1.532  2.3793 -1.1630  1.5284
 2178SOL    HW217214   8.832   7.725   1.537  1.4529  1.1436 -1.7668
 2179SOL     OW17215   8.455   2.713   2.928 -0.0322  0.2124  0.3090
 2179SOL    HW117216   8.415   2.708   3.019  0.3107 -1.7477  0.3563
 2179SOL    HW217217   8.447   2.807   2.894 -2.6956  0.3568  1.2009
 2180SOL     OW17218   0.564   9.824   0.823 -0.0163 -0.1089 -0.6754
 2180SOL    HW117219   0.517   9.868   0.747 -1.1876 -0.3655 -0.1185
 2180SOL    HW217220   0.520   9.737   0.844  0.0560  0.1352  0.5333
 2181SOL     OW17221   8.342   1.000   2.166 -0.0132 -0.6838 -0.1902
 2181SOL    HW117222   8.390   1.069   2.112 -0.9018  1.2033  1.3814
 2181SOL    HW217223   8.251   0.985   2.128  0.9597 -2.6108 -1.8249
 2182SOL     OW17224   3.620   2.422   0.370 -0.9030  0.3843 -0.0593
 2182SOL    HW117225   3.546   2.488   0.361 -0.2115  0.9401 -1.8578
 2182SOL    HW217226   3.708   2.469   0.369 -0.4777 -0.3794  0.7682
 2183SOL     OW17227   2.889   5.773   1.827 -0.5574 -0.1370 -0.1695
 2183SOL    HW117228   2.934   5.683   1.830  1.2470  0.7200 -1.0791
 2183SOL    HW217229   2.861   5.798   1.919  1.1590 -0.5522  0.4973
 2184SOL     OW17230   7.499   8.414   3.247  0.3525 -0.0213 -0.1145
 2184SOL    HW117231   7.426   8.346   3.258  0.2873 -0.2413 -1.7854
 2184SOL    HW217232   7.587   8.370   3.260  0.2520 -0.0955  0.3227
 2185SOL     OW17233   9.543   5.997   3.553 -0.0829  0.5656  0.9416
 2185SOL    HW117234   9.470   5.986   3.621  1.5529  0.0401  2.6365
 2185SOL    HW217235   9.629   6.018   3.599  1.4186 -1.4514 -0.8361
 2186SOL     OW17236   3.253   7.265   2.004  0.1609 -0.6318 -0.1726
 2186SOL    HW117237   3.244   7.328   1.926 -0.0985 -0.2148  0.1899
 2186SOL    HW217238   3.214   7.176   1.979 -0.5469 -0.2973 -0.2912
 2187SOL     OW17239   8.376   4.360   1.599  0.0059  0.8306 -0.1918
 2187SOL    HW117240   8.384   4.328   1.693 -0.0525  0.6527 -0.2481
 2187SOL    HW217241   8.435   4.305   1.540  0.3994  1.2417 -0.1849
 2188SOL     OW17242   2.466   3.720   3.453 -0.3161 -0.4263  0.2137
 2188SOL    HW117243   2.390   3.752   3.509  1.2386 -0.9125  2.6484
 2188SOL    HW217244   2.439   3.636   3.405 -1.2855 -0.6236  1.0923
 2189SOL     OW17245   0.748   6.053   4.202  0.2944 -0.1063  0.8325
 2189SOL    HW117246   0.840   6.019   4.221 -0.3522 -1.9386  0.7440
 2189SOL    HW217247   0.681   5.985   4.231 -1.0570  1.4268  1.3533
 2190SOL     OW17248   4.469   9.137   4.618 -0.5394  0.0279  0.5119
 2190SOL    HW117249   4.528   9.056   4.625 -1.5112 -0.5697  2.2854
 2190SOL    HW217250   4.462   9.165   4.523 -0.1444 -1.9641 -0.1336
 2191SOL     OW17251   8.168   8.100   1.209  0.1056 -0.2667 -0.6584
 2191SOL    HW117252   8.186   8.131   1.303  0.1002 -1.2301 -0.3305
 2191SOL    HW217253   8.137   8.177   1.154  0.1320  0.3156  0.1265
 2192SOL     OW17254   8.973   1.162   2.617 -0.2612 -0.1071  0.2404
 2192SOL    HW117255   8.993   1.085   2.676 -1.9150 -0.0514  0.8930
 2192SOL    HW217256   9.054   1.221   2.610  0.3102 -0.7377  1.4745
 2193SOL     OW17257   1.463   6.332   3.772  0.8921  0.0187  0.0645
 2193SOL    HW117258   1.486   6.402   3.704 -1.1412  0.7119  0.0518
 2193SOL    HW217259   1.452   6.375   3.862  3.6101 -0.8985  0.8727
 2194SOL     OW17260   4.290   6.530   2.283  0.0624  0.0837  0.4774
 2194SOL    HW117261   4.353   6.472   2.230 -2.1573 -2.7381  0.8391
 2194SOL    HW217262   4.264   6.482   2.367 -1.0294  2.0851  1.2989
 2195SOL     OW17263   2.845   9.016   4.665 -0.2785  0.4180 -0.1111
 2195SOL    HW117264   2.782   9.010   4.743  1.5206  0.2787  1.3764
 2195SOL    HW217265   2.853   8.926   4.622  0.3213  0.0054  0.8472
 2196SOL     OW17266   1.582   9.556   4.325 -0.3752 -0.3839 -0.1230
 2196SOL    HW117267   1.596   9.573   4.423 -1.2469 -1.1423  0.1422
 2196SOL    HW217268   1.660   9.507   4.288  1.3009  2.4255 -0.4767
 2197SOL     OW17269   1.573   0.081   1.466 -0.0129  0.0812 -0.1551
 2197SOL    HW117270   1.648   0.095   1.401 -1.1750 -1.7380 -1.9382
 2197SOL    HW217271   1.551  -0.017   1.472 -1.9006  0.5276  0.7392
 2198SOL     OW17272   0.519   7.855   0.428  0.3258  0.1126 -0.1187
 2198SOL    HW117273   0.453   7.796   0.474 -0.0994 -0.2456 -1.1597
 2198SOL    HW217274   0.607   7.851   0.476 -0.5204  0.9367  1.5291
 2199SOL     OW17275   5.503   8.733   1.791 -0.0055 -0.6248 -0.3807
 2199SOL    HW117276   5.438   8.685   1.732  0.3699 -0.3891 -0.9952
 2199SOL    HW217277   5.569   8.783   1.734  1.4191 -1.7893  0.2209
 2200SOL     OW17278   8.747   0.416   2.418 -0.0150  0.5534 -0.0792
 2200SOL    HW117279   8.650   0.416   2.391 -0.0606  1.6582  0.0734
 2200SOL    HW217280   8.758   0.355   2.497 -0.1383 -1.4952 -1.5819
 2201SOL     OW17281   3.075   1.402   0.093 -0.1723  0.5570 -0.1478
 2201SOL    HW117282   3.135   1.470   0.052 -0.0744  1.7147  1.8619
 2201SOL    HW217283   3.129   1.335   0.143 -0.4245  0.2551 -0.2716
 2202SOL     OW17284   6.500   0.098   2.654 -0.0939  0.0753 -0.1978
 2202SOL    HW117285   6.553   0.057   2.728 -0.3848 -0.2883 -0.1923
 2202SOL    HW217286   6.548   0.086   2.567  0.1082  0.2501 -0.1110
 2203SOL     OW17287   9.650   4.178   3.261  1.0049 -0.6820 -0.8547
 2203SOL    HW117288   9.564   4.225   3.237  1.1551  0.0142 -0.0577
 2203SOL    HW217289   9.709   4.241   3.312  1.5307 -1.5055 -0.4350
 2204SOL     OW17290   7.241   7.954   2.387 -0.5550  0.3006  0.0113
 2204SOL    HW117291   7.270   8.024   2.452 -0.0358  0.8955 -0.8495
 2204SOL    HW217292   7.221   7.869   2.436  0.5543  0.5161  0.8587
 2205SOL     OW17293   0.017   8.371   4.604  0.3776  0.0954  0.3451
 2205SOL    HW117294  -0.059   8.318   4.565 -0.1076  0.5546  0.6596
 2205SOL    HW217295  -0.019   8.443   4.662  1.0100  1.3461 -0.7908
 2206SOL     OW17296   0.886   8.121   4.583  0.1587  0.1142  1.1503
 2206SOL    HW117297   0.891   8.085   4.489  1.0420  2.6788  0.1694
 2206SOL    HW217298   0.976   8.113   4.626  1.0443  3.2544  0.0536
 2207SOL     OW17299   3.703   9.194   1.017  0.0028 -0.1461  0.5618
 2207SOL    HW117300   3.743   9.140   0.942 -2.9050 -0.0953 -1.0886
 2207SOL    HW217301   3.638   9.138   1.067 -2.0009  1.3638 -0.2879
 2208SOL     OW17302   2.442   6.323   1.747 -0.0780 -0.5303  0.9645
 2208SOL    HW117303   2.450   6.224   1.740 -1.3043 -0.4559 -2.0323
 2208SOL    HW217304   2.534   6.364   1.747  0.3611 -1.4574 -1.5979
 2209SOL     OW17305   9.084   4.480   4.547  0.7012  0.2442  0.2866
 2209SOL    HW117306   9.008   4.417   4.568  1.2861 -0.8411 -0.8008
 2209SOL    HW217307   9.054   4.574   4.561 -0.2356 -0.2582  1.8206
 2210SOL     OW17308   4.285   0.689   2.702 -0.2822 -0.1230  0.1118
 2210SOL    HW117309   4.380   0.678   2.672 -0.5765 -1.5699 -0.3348
 2210SOL    HW217310   4.282   0.694   2.802  0.2193 -0.5276  0.1488
 2211SOL     OW17311   4.408   9.455   1.090  0.9795 -0.3023  0.1370
 2211SOL    HW117312   4.418   9.546   1.129  0.3410  1.3872 -3.3784
 2211SOL    HW217313   4.493   9.429   1.045  0.8952 -1.0853  0.4281
 2212SOL     OW17314   2.665   4.759   2.457  0.3530 -0.3230  0.1966
 2212SOL    HW117315   2.659   4.858   2.448  0.1843 -0.2407  1.1580
 2212SOL    HW217316   2.761   4.732   2.459  0.4189 -0.4338 -2.5836
 2213SOL     OW17317   3.166   1.749   3.669 -0.5893 -0.3107  0.3263
 2213SOL    HW117318   3.192   1.724   3.762 -0.6239 -0.0025  0.4178
 2213SOL    HW217319   3.104   1.827   3.671  0.9107  0.9117 -0.0407
 2214SOL     OW17320   4.153   8.018   0.668  0.3932 -0.2782 -0.4874
 2214SOL    HW117321   4.233   8.047   0.615  0.6050  2.0078  0.9884
 2214SOL    HW217322   4.080   8.086   0.657  0.1341 -0.2243  1.4272
 2215SOL     OW17323   1.663   4.141   4.238 -0.2574  0.6973  0.0739
 2215SOL    HW117324   1.728   4.092   4.296 -0.7647 -0.7998 -0.6192
 2215SOL    HW217325   1.669   4.239   4.258  0.2875  0.3028  1.9262
 2216SOL     OW17326   0.352   3.280   1.171  0.0956  0.7019  0.0403
 2216SOL    HW117327   0.303   3.297   1.256 -0.9756 -0.0225 -0.4266
 2216SOL    HW217328   0.441   3.239   1.192 -0.3135  0.1898  0.8023
 2217SOL     OW17329   2.735   1.195   0.644 -0.0229  0.3373 -0.3283
 2217SOL    HW117330   2.753   1.255   0.722 -2.2964  0.3698  0.2119
 2217SOL    HW217331   2.815   1.192   0.585  1.5295  0.7630  1.7027
 2218SOL     OW17332   0.029   7.269   0.396 -0.1302  0.2917 -0.6698
 2218SOL    HW117333   0.084   7.297   0.474  0.7551 -0.1550 -1.1195
 2218SOL    HW217334   0.090   7.234   0.324 -1.0540 -0.8446 -0.9052
 2219SOL     OW17335   7.586   9.840   4.717 -0.1651  0.2232 -0.2191
 2219SOL    HW117336   7.527   9.872   4.642 -0.0996  0.1581 -0.2995
 2219SOL    HW217337   7.682   9.844   4.688 -0.2162 -0.9369 -0.5651
 2220SOL     OW17338   2.891   5.268   2.026  0.1228 -0.3799 -0.2924
 2220SOL    HW117339   2.987   5.269   2.054  0.2108  0.9828 -0.5994
 2220SOL    HW217340   2.859   5.362   2.013 -0.9037 -0.8647 -1.3835
 2221SOL     OW17341   0.962   6.431   1.824  0.1685 -0.6122  0.3849
 2221SOL    HW117342   0.896   6.371   1.868 -0.6953 -0.2962 -0.4517
 2221SOL    HW217343   1.021   6.378   1.763 -0.7997 -0.5931 -0.5950
 2222SOL     OW17344   9.372   6.110   3.186  0.6775 -0.3866 -0.2055
 2222SOL    HW117345   9.447   6.174   3.203  1.6573 -1.0312 -1.9888
 2222SOL    HW217346   9.409   6.019   3.165 -0.6470 -1.0561  0.2449
 2223SOL     OW17347   1.070   9.407   0.001 -0.2350  0.0922  0.1599
 2223SOL    HW117348   1.056   9.410  -0.098 -2.8440  0.3810  0.5125
 2223SOL    HW217349   1.001   9.348   0.042  1.4170 -0.7818  1.7279
 2224SOL     OW17350   3.645   0.197   4.336 -0.0628 -0.0453  0.1815
 2224SOL    HW117351   3.614   0.132   4.267 -0.1165 -1.5236  1.5769
 2224SOL    HW217352   3.578   0.202   4.410  0.6413  0.4921  0.7962
 2225SOL     OW17353   9.929   4.984   0.871  0.0526  0.0449  0.4226
 2225SOL    HW117354   9.961   4.909   0.813 -0.2975  0.0429  0.2347
 2225SOL    HW217355   9.842   4.959   0.914 -0.5886  0.7427 -0.4470
 2226SOL     OW17356   9.431   0.449   1.329 -0.1127 -0.8622 -0.5728
 2226SOL    HW117357   9.500   0.508   1.287 -0.4530 -1.3206 -1.7948
 2226SOL    HW217358   9.340   0.485   1.312 -0.1848 -0.1364  1.2340
 2227SOL     OW17359   2.818   7.181   3.312  0.1594  0.0335  0.6741
 2227SOL    HW117360   2.830   7.269   3.359 -0.9971 -0.1221  1.2645
 2227SOL    HW217361   2.906   7.134   3.307  0.2942  0.0033  2.7879
 2228SOL     OW17362   8.678   1.151   3.989 -0.4876  0.7238  0.4368
 2228SOL    HW117363   8.598   1.122   4.042 -0.1420  2.6963  2.1334
 2228SOL    HW217364   8.758   1.100   4.019 -0.9400 -0.6858 -0.7041
 2229SOL     OW17365   1.783   8.970   2.033  0.3034  0.6543 -0.3339
 2229SOL    HW117366   1.866   8.994   1.984  1.1540 -0.0558  0.7322
 2229SOL    HW217367   1.775   8.871   2.039  0.4249  0.7138  1.2601
 2230SOL     OW17368   8.999   0.855   4.334 -0.0523 -0.8050  0.0234
 2230SOL    HW117369   9.026   0.765   4.302  1.5204 -1.0353  1.8577
 2230SOL    HW217370   9.077   0.899   4.379 -1.3237  0.6930  0.8261
 2231SOL     OW17371   8.392   6.214   0.426  0.7431 -0.3292 -0.2736
 2231SOL    HW117372   8.469   6.214   0.490  1.5227  3.5264 -1.0543
 2231SOL    HW217373   8.425   6.235   0.334 -0.9389 -1.2627 -1.1181
 2232SOL     OW17374   9.942   6.262   2.502  0.6025 -0.0162 -0.1066
 2232SOL    HW117375  10.011   6.334   2.502 -0.6678  1.2116 -0.8575
 2232SOL    HW217376   9.852   6.301   2.484 -0.0689 -1.8157 -0.8295
 2233SOL     OW17377   9.777   8.657   0.876  0.3972  0.1402  0.2775
 2233SOL    HW117378   9.729   8.731   0.829  1.0415  0.2597 -0.2087
 2233SOL    HW217379   9.809   8.689   0.965  0.0793  0.2352  0.3563
 2234SOL     OW17380   2.574   9.247   4.281 -0.5548  0.1720  0.1962
 2234SOL    HW117381   2.523   9.280   4.360 -0.3337  1.3614 -0.1476
 2234SOL    HW217382   2.587   9.322   4.216 -0.4394 -0.7091 -0.8112
 2235SOL     OW17383   2.125   8.253   3.717  0.0767 -0.1793 -0.3329
 2235SOL    HW117384   2.028   8.238   3.737  0.1561 -0.6840 -0.3092
 2235SOL    HW217385   2.168   8.301   3.794  0.9499 -4.3595  1.9815
 2236SOL     OW17386   7.048   7.756   1.246  0.4071  0.2321  0.3486
 2236SOL    HW117387   7.026   7.853   1.231 -0.3214  0.1018  0.5463
 2236SOL    HW217388   7.130   7.732   1.194  1.8489  1.4883  1.9606
 2237SOL     OW17389   0.726   2.902   4.222  0.2185  0.7192  0.0726
 2237SOL    HW117390   0.739   2.813   4.178 -0.4613 -0.0651  1.4314
 2237SOL    HW217391   0.630   2.913   4.249  0.0246  2.4056 -1.2202
 2238SOL     OW17392   9.032   1.532   0.391  0.4926 -0.4171 -0.4167
 2238SOL    HW117393   8.951   1.590   0.400  0.6739 -0.3952  1.1060
 2238SOL    HW217394   9.004   1.439   0.368  0.1375 -0.0035 -1.6797
 2239SOL     OW17395   1.470   3.340   1.033  0.1927 -0.4187 -0.0245
 2239SOL    HW117396   1.567   3.331   1.009  0.4149  1.4551  0.1172
 2239SOL    HW217397   1.427   3.406   0.972 -0.8892 -0.9066  0.2070
 2240SOL     OW17398   0.789   3.999   1.818  0.2667  0.6316  0.0996
 2240SOL    HW117399   0.830   4.005   1.909  3.7360 -0.2198 -1.3090
 2240SOL    HW217400   0.774   3.903   1.795 -1.0256  0.8689 -0.0560
 2241SOL     OW17401   0.104   4.984   3.803 -0.1651  0.4679 -0.1873
 2241SOL    HW117402   0.116   4.999   3.901  0.8413  0.5195 -0.3117
 2241SOL    HW217403   0.031   5.042   3.769 -2.8730 -1.9885  1.1691
 2242SOL     OW17404   0.496   9.370   3.876 -0.5074 -0.4990 -0.2984
 2242SOL    HW117405   0.523   9.285   3.922 -0.0461  0.2714  0.8895
 2242SOL    HW217406   0.423   9.351   3.810 -2.3277 -1.3639  1.9248
 2243SOL     OW17407   5.141   8.119   2.511  0.4612  0.2858  0.3218
 2243SOL    HW117408   5.182   8.187   2.571 -1.4527  1.6478  0.1117
 2243SOL    HW217409   5.046   8.104   2.537  0.3381 -0.9677 -0.7833
 2244SOL     OW17410   0.857   8.131   3.652  0.1640  0.4821  0.1928
 2244SOL    HW117411   0.810   8.180   3.579  0.4123  0.6616  0.1543
 2244SOL    HW217412   0.954   8.120   3.628  0.3515  0.9740  0.7192
 2245SOL     OW17413   3.935   2.717   4.581  0.0093  0.2986 -0.1452
 2245SOL    HW117414   4.027   2.704   4.542 -0.0126 -0.0039 -0.0932
 2245SOL    HW217415   3.871   2.739   4.507 -0.5748 -2.9327 -0.6735
 2246SOL     OW17416   1.139   3.219   2.544  0.1351  0.0823 -0.6505
 2246SOL    HW117417   1.226   3.268   2.543  0.7190 -0.9412 -0.9789
 2246SOL    HW217418   1.152   3.130   2.589 -0.8476  0.1281 -0.2771
 2247SOL     OW17419   3.870   9.219   3.139 -0.7152  0.5013 -0.3021
 2247SOL    HW117420   3.869   9.162   3.220  0.8155  2.9585  1.5289
 2247SOL    HW217421   3.777   9.251   3.119 -0.9523  0.6808  1.0698
 2248SOL     OW17422   6.800   0.542   3.014  0.5559 -0.0904 -0.5354
 2248SOL    HW117423   6.734   0.468   3.027  0.7725  0.1866  2.4937
 2248SOL    HW217424   6.756   0.630   3.033  1.5137  0.1701  0.5475
 2249SOL     OW17425   5.843   7.238   2.155 -0.3162 -0.6140 -0.4719
 2249SOL    HW117426   5.828   7.180   2.236  0.1481 -0.6685 -0.4256
 2249SOL    HW217427   5.880   7.326   2.183 -2.4004  0.2745 -0.3984
 2250SOL     OW17428   2.760   5.513   3.243  0.5991 -0.3446  0.6818
 2250SOL    HW117429   2.775   5.562   3.328 -2.5858  2.0933 -0.0272
 2250SOL    HW217430   2.822   5.548   3.173 -1.0478  2.2413  0.4141
 2251SOL     OW17431   2.578   0.132   3.166  0.0603 -0.5073  0.1656
 2251SOL    HW117432   2.600   0.219   3.210  0.9307 -0.0532 -1.1451
 2251SOL    HW217433   2.492   0.141   3.115  0.1344 -0.4163  0.0555
 2252SOL     OW17434   3.378   1.376   1.069 -0.0833 -0.1085  0.2883
 2252SOL    HW117435   3.405   1.282   1.092 -0.8578 -0.1993  0.8466
 2252SOL    HW217436   3.292   1.398   1.115 -0.1516  0.7137 -0.2230
 2253SOL     OW17437   4.908   7.569   3.280 -0.4431  0.2127 -0.4022
 2253SOL    HW117438   5.003   7.559   3.250 -0.0934 -0.1641  0.7898
 2253SOL    HW217439   4.906   7.594   3.377 -1.5239  2.7847 -1.0406
 2254SOL     OW17440   0.252   9.244   1.006  0.0022  0.6395 -0.0672
 2254SOL    HW117441   0.261   9.336   1.044 -2.4992  0.4054  1.1849
 2254SOL    HW217442   0.183   9.245   0.934  0.5042 -0.1275 -0.5614
 2255SOL     OW17443   1.954   7.336   1.296  0.1384 -0.4730 -0.6820
 2255SOL    HW117444   2.042   7.355   1.252 -0.0098 -0.5885 -1.0254
 2255SOL    HW217445   1.881   7.382   1.246 -0.0731 -0.9139 -0.7776
 2256SOL     OW17446   1.986   8.960   1.837 -0.6628  0.1059 -0.0422
 2256SOL    HW117447   1.948   8.873   1.868 -2.5456 -0.0039 -2.5031
 2256SOL    HW217448   2.084   8.948   1.817 -0.8009 -1.3292  0.0717
 2257SOL     OW17449   4.129   1.491   3.468 -0.6977 -0.5923 -0.1701
 2257SOL    HW117450   4.137   1.446   3.379  1.4734 -1.2232  0.2992
 2257SOL    HW217451   4.219   1.527   3.494 -2.2891  3.7474 -0.3557
 2258SOL     OW17452   2.924   4.750   3.578 -0.0657  0.2832  0.6659
 2258SOL    HW117453   2.825   4.737   3.581 -0.0958  0.0520 -1.1356
 2258SOL    HW217454   2.950   4.791   3.491  1.3698  0.9037  1.3669
 2259SOL     OW17455   8.571   3.658   1.645  0.2390  0.4845 -0.4316
 2259SOL    HW117456   8.545   3.651   1.742 -0.5669 -0.4164 -0.7019
 2259SOL    HW217457   8.543   3.747   1.609  0.1725  0.6637  0.0576
 2260SOL     OW17458   2.157   1.529   1.051  0.5673 -0.7814 -0.1873
 2260SOL    HW117459   2.241   1.535   0.997 -0.5907  0.1923 -1.8870
 2260SOL    HW217460   2.127   1.433   1.055  0.0753 -0.7357 -2.2073
 2261SOL     OW17461   3.049   9.918   4.531 -0.3077 -0.3669  0.0196
 2261SOL    HW117462   3.088   9.996   4.480 -0.8000 -0.7471 -0.9468
 2261SOL    HW217463   2.994   9.952   4.607 -1.6474  0.2671 -1.2189
 2262SOL     OW17464   0.781   5.511   2.288 -0.9070 -0.5556  0.3526
 2262SOL    HW117465   0.853   5.580   2.279  0.1947 -1.5801  1.1482
 2262SOL    HW217466   0.745   5.489   2.197  0.5298 -0.8057 -0.1693
 2263SOL     OW17467   2.251   9.022   1.965 -0.3250  0.1511  0.3889
 2263SOL    HW117468   2.272   9.109   1.920  0.0033  1.2181  2.4900
 2263SOL    HW217469   2.163   9.030   2.012 -0.2112 -0.5962  0.7392
 2264SOL     OW17470   1.091   7.051   0.837  0.5070 -0.0600 -0.3341
 2264SOL    HW117471   1.030   6.976   0.810 -0.0279  0.6729 -1.2153
 2264SOL    HW217472   1.149   7.075   0.759 -0.3091  1.3786 -0.5047
 2265SOL     OW17473   1.459   9.976   0.736 -0.7556 -0.6456  0.4008
 2265SOL    HW117474   1.506  10.064   0.735 -0.7552 -0.6486  0.2243
 2265SOL    HW217475   1.523   9.904   0.760 -0.5291 -0.7368 -0.4961
 2266SOL     OW17476   2.562   7.111   3.416  0.5075 -0.9196 -0.0724
 2266SOL    HW117477   2.521   7.131   3.327  0.2400  1.4917  0.5412
 2266SOL    HW217478   2.662   7.113   3.407  0.4842 -1.4127 -0.4611
 2267SOL     OW17479   9.133   2.410   0.013  0.1739  0.1413 -0.9276
 2267SOL    HW117480   9.176   2.463  -0.061 -1.1063 -0.3503 -2.0278
 2267SOL    HW217481   9.108   2.320  -0.020 -0.7072  0.0258  0.0210
 2268SOL     OW17482   2.776   9.796   4.344 -0.0151 -0.0391 -0.0293
 2268SOL    HW117483   2.812   9.886   4.369 -0.0465 -0.0679  0.1152
 2268SOL    HW217484   2.677   9.802   4.334  0.2777  0.6482 -2.9445
 2269SOL     OW17485   4.584   7.011   1.694 -0.1195 -0.0836  0.1453
 2269SOL    HW117486   4.523   6.998   1.616 -0.3470 -0.5481  0.4027
 2269SOL    HW217487   4.592   6.925   1.745  1.2464 -0.2048 -0.2498
 2270SOL     OW17488   0.226   3.460   2.233 -0.0052  0.3048 -0.4240
 2270SOL    HW117489   0.209   3.412   2.319  0.5388  0.1778 -0.3842
 2270SOL    HW217490   0.316   3.502   2.235 -0.3171  0.9852 -0.6224
 2271SOL     OW17491   8.504   5.374   3.362 -0.0790 -0.7947 -0.0260
 2271SOL    HW117492   8.480   5.364   3.265  1.1463 -0.4615 -0.3785
 2271SOL    HW217493   8.575   5.308   3.385  1.5183  0.8701 -0.0407
 2272SOL     OW17494   7.810   9.089   1.674  0.2615  0.3006 -0.2319
 2272SOL    HW117495   7.753   9.023   1.723 -2.4624  2.7836  0.0453
 2272SOL    HW217496   7.797   9.078   1.576  0.4314 -0.0674 -0.2164
 2273SOL     OW17497   5.859   8.181   1.964 -0.3410 -0.4250  0.3584
 2273SOL    HW117498   5.856   8.163   2.063 -0.9429 -0.2614  0.3749
 2273SOL    HW217499   5.831   8.276   1.947 -0.5896 -0.5604  0.0052
 2274SOL     OW17500   8.996   8.870   2.611  0.1244  0.3424  0.4793
 2274SOL    HW117501   8.971   8.795   2.550  0.0213  1.4684 -0.8834
 2274SOL    HW217502   8.990   8.839   2.706 -2.7706 -0.5251  0.0613
 2275SOL     OW17503   8.108   4.780   4.572  0.1239  0.2667 -0.0510
 2275SOL    HW117504   8.190   4.806   4.624  0.0509 -2.3145  1.4423
 2275SOL    HW217505   8.136   4.736   4.487  0.3439 -2.4889  1.4166
 2276SOL     OW17506   3.452   5.137   1.050  0.1928  0.5568  0.2108
 2276SOL    HW117507   3.386   5.077   1.005  0.3123  1.3558 -1.0589
 2276SOL    HW217508   3.427   5.149   1.146  0.1547 -1.5029  0.4779
 2277SOL     OW17509   3.329   4.096   1.572  0.3254 -0.3123 -0.2970
 2277SOL    HW117510   3.393   4.020   1.558 -0.6647 -1.2975  0.3469
 2277SOL    HW217511   3.258   4.092   1.502 -0.3790 -0.6956  0.4256
 2278SOL     OW17512   4.882   2.892   0.506  0.1687 -0.0458 -0.3102
 2278SOL    HW117513   4.955   2.837   0.547 -0.4168 -0.6367 -0.0585
 2278SOL    HW217514   4.839   2.948   0.577 -0.4012 -0.5729 -0.2347
 2279SOL     OW17515   8.760   5.143   2.927 -0.5688  0.2041  0.3988
 2279SOL    HW117516   8.670   5.185   2.922  0.0426  1.4201 -1.0763
 2279SOL    HW217517   8.829   5.208   2.894  0.6656 -1.2052  0.1297
 2280SOL     OW17518   5.045   0.277   3.353  0.3286  0.2471  0.3792
 2280SOL    HW117519   5.103   0.317   3.281  0.0614 -0.0459 -0.0024
 2280SOL    HW217520   4.954   0.258   3.315  0.7047 -1.5104  0.3141
 2281SOL     OW17521   1.194   5.638   3.022 -0.4693 -0.1338  0.5326
 2281SOL    HW117522   1.149   5.587   3.096  0.4462  0.3258  1.4299
 2281SOL    HW217523   1.147   5.725   3.008 -0.1030  0.1746  1.1992
 2282SOL     OW17524   1.082   1.184   1.860 -0.1828  0.2230 -0.8729
 2282SOL    HW117525   1.008   1.118   1.862  0.9600 -1.0704 -0.1542
 2282SOL    HW217526   1.076   1.239   1.777 -0.0027 -2.1602 -2.5199
 2283SOL     OW17527   9.830   1.265   1.354  1.0570  0.1340 -0.3935
 2283SOL    HW117528   9.805   1.189   1.295  1.2753  0.0131 -0.3329
 2283SOL    HW217529   9.892   1.232   1.426 -0.9821 -0.1947  1.2580
 2284SOL     OW17530   8.551   8.802   4.111  0.2963  0.0828  0.0792
 2284SOL    HW117531   8.536   8.858   4.192 -0.6537  1.1830 -0.8356
 2284SOL    HW217532   8.596   8.717   4.137  2.6402  1.6688  1.3677
 2285SOL     OW17533   5.797   9.833   1.886 -0.1535 -0.1751 -0.0806
 2285SOL    HW117534   5.865   9.773   1.845 -0.1129 -2.2651  2.9135
 2285SOL    HW217535   5.762   9.792   1.970 -0.6494  3.6880  1.7195
 2286SOL     OW17536   8.522   7.630   1.588 -0.1870 -0.5619 -0.7487
 2286SOL    HW117537   8.439   7.581   1.563  1.7673 -2.9889 -2.7500
 2286SOL    HW217538   8.519   7.723   1.551 -1.7350 -0.8254 -1.3086
 2287SOL     OW17539   4.175   4.089   2.184 -0.5648 -0.4617 -0.0269
 2287SOL    HW117540   4.147   4.076   2.279  0.0610  0.3241  0.2683
 2287SOL    HW217541   4.234   4.013   2.157  1.2118  0.5154  0.9759
 2288SOL     OW17542   1.472   3.429   0.568 -0.3632  0.4383  0.3638
 2288SOL    HW117543   1.540   3.361   0.543 -1.3942 -0.1853 -0.8105
 2288SOL    HW217544   1.495   3.469   0.657  1.0110 -0.4175  0.4032
 2289SOL     OW17545   1.735   9.789   3.190  1.0422  0.4559  0.2812
 2289SOL    HW117546   1.793   9.863   3.157  1.3197 -0.5327 -1.5118
 2289SOL    HW217547   1.791   9.716   3.227  0.8498  0.3723  0.4079
 2290SOL     OW17548   1.266   4.524   0.000 -0.2271 -0.3152  0.5789
 2290SOL    HW117549   1.307   4.608  -0.035 -0.2922 -0.2636  0.6240
 2290SOL    HW217550   1.338   4.460   0.027 -0.1760 -0.1590  0.8161
 2291SOL     OW17551   1.619   1.786   2.438 -0.7496 -0.2778 -0.3753
 2291SOL    HW117552   1.676   1.706   2.422  0.0458  0.4148 -1.0800
 2291SOL    HW217553   1.616   1.806   2.536  1.3795  0.4817 -0.4251
 2292SOL     OW17554   8.654   0.240   0.184  1.3263 -0.0886 -0.6748
 2292SOL    HW117555   8.628   0.314   0.246 -2.1604 -2.0958  0.3871
 2292SOL    HW217556   8.610   0.252   0.096  2.1204 -0.0162 -1.0675
 2293SOL     OW17557   7.962   2.610   4.306  0.1045 -0.1490  0.3500
 2293SOL    HW117558   7.920   2.674   4.242  3.1698  1.1601 -0.4753
 2293SOL    HW217559   7.953   2.517   4.271 -0.0304  0.3437 -0.9604
 2294SOL     OW17560   1.375   8.873   1.360  0.1942  0.2100  0.6288
 2294SOL    HW117561   1.458   8.928   1.363  1.6774 -1.9477  0.5424
 2294SOL    HW217562   1.365   8.822   1.446 -0.7883  0.1073  0.4606
 2295SOL     OW17563   7.483   9.076   1.933  0.6129 -0.4524 -0.5346
 2295SOL    HW117564   7.490   9.174   1.954  0.1268 -0.6443  0.5611
 2295SOL    HW217565   7.390   9.045   1.949  1.4253 -1.7294  2.0435
 2296SOL     OW17566   4.194   2.773   4.247  0.2333 -0.6353 -0.8284
 2296SOL    HW117567   4.177   2.707   4.319 -0.2883 -0.2820 -0.6238
 2296SOL    HW217568   4.284   2.815   4.260 -0.5601  0.6691  0.6023
 2297SOL     OW17569   0.327   0.232   4.513 -0.7135  0.0240  0.1134
 2297SOL    HW117570   0.261   0.164   4.482 -2.2786  0.5948  2.1022
 2297SOL    HW217571   0.279   0.305   4.562  1.1724  1.4880 -0.1986
 2298SOL     OW17572   2.692   9.810   3.569 -0.0179 -0.5883  0.6847
 2298SOL    HW117573   2.594   9.825   3.559  0.2293  1.2131  0.8887
 2298SOL    HW217574   2.726   9.761   3.488 -0.7585  0.4001 -0.2444
 2299SOL     OW17575   3.775   0.901   1.496 -0.1829 -0.3095 -0.4754
 2299SOL    HW117576   3.702   0.968   1.484  0.0038  0.1647  0.8895
 2299SOL    HW217577   3.855   0.928   1.443  1.0180  2.3028  2.4791
 2300SOL     OW17578   0.003   4.980   3.409  0.2894  0.1566  0.0672
 2300SOL    HW117579  -0.096   4.993   3.407  0.2781  0.1299  0.5909
 2300SOL    HW217580   0.049   5.069   3.409  0.2531  0.1768  0.5753
 2301SOL     OW17581   1.989   7.971   3.043  0.0298 -0.0391 -0.5071
 2301SOL    HW117582   2.005   8.019   3.129  0.8481  1.3461 -1.4006
 2301SOL    HW217583   2.007   7.874   3.054  3.0974  0.5502  0.1315
 2302SOL     OW17584   8.732   4.259   2.197  0.0644 -0.3068  0.0772
 2302SOL    HW117585   8.793   4.323   2.149 -1.0928  2.1856  1.7832
 2302SOL    HW217586   8.723   4.288   2.293 -2.0668 -1.8870  0.3795
 2303SOL     OW17587   7.160   8.619   1.488 -0.0285 -0.3286  0.2889
 2303SOL    HW117588   7.174   8.715   1.512  0.9830 -0.7802  1.5506
 2303SOL    HW217589   7.219   8.594   1.412  0.5786 -0.2471  0.7258
 2304SOL     OW17590   2.092   9.357   1.765 -0.3767  0.1246 -0.4131
 2304SOL    HW117591   2.089   9.358   1.665 -0.5602 -0.8828 -0.4254
 2304SOL    HW217592   2.043   9.437   1.800 -1.5716 -0.2812 -1.1128
 2305SOL     OW17593   2.441   5.991   1.944 -0.4942 -0.4158 -0.0386
 2305SOL    HW117594   2.439   5.892   1.960  0.7130 -0.1094  2.2212
 2305SOL    HW217595   2.350   6.029   1.955 -1.2215 -1.4547 -2.2413
 2306SOL     OW17596   1.961   2.128   0.743  0.3274  0.8482 -0.4435
 2306SOL    HW117597   1.865   2.126   0.716  0.6191  1.2025 -1.5209
 2306SOL    HW217598   2.003   2.039   0.723  0.2232  0.6874  0.0436
 2307SOL     OW17599   0.106   2.907   0.060  0.3677 -0.6918  0.3612
 2307SOL    HW117600   0.086   2.985   0.001  1.3713  0.0891  1.0335
 2307SOL    HW217601   0.188   2.926   0.114 -0.0552 -1.7327  1.3979
 2308SOL     OW17602   4.310   7.778   3.837  0.5161  0.0172  0.7406
 2308SOL    HW117603   4.233   7.737   3.886 -0.3321 -0.3769 -0.8913
 2308SOL    HW217604   4.326   7.729   3.752  1.8416  0.8204  0.5063
 2309SOL     OW17605   8.871   9.363   0.257 -0.2102 -0.0228  0.6646
 2309SOL    HW117606   8.965   9.330   0.254  0.2917  1.4407 -0.4226
 2309SOL    HW217607   8.867   9.455   0.219 -1.8049  0.6118  2.2635
 2310SOL     OW17608   0.925   1.856   2.106  0.2566  0.3063 -0.4724
 2310SOL    HW117609   0.865   1.853   2.026  0.7847 -2.2543 -0.8211
 2310SOL    HW217610   1.020   1.866   2.076  0.1842  2.9118  0.0249
 2311SOL     OW17611   4.195   2.984   4.465 -0.4719  0.4146  0.4784
 2311SOL    HW117612   4.136   2.910   4.434  0.0427  0.7908 -1.4485
 2311SOL    HW217613   4.165   3.070   4.425 -0.7757  1.1932  2.3213
 2312SOL     OW17614   4.884   0.684   2.399  0.3731 -0.2224  0.6146
 2312SOL    HW117615   4.959   0.715   2.457  0.0407 -0.6289  1.2637
 2312SOL    HW217616   4.854   0.593   2.427  1.1246 -1.0296 -1.0879
 2313SOL     OW17617   3.059   5.653   0.381  0.3260  0.5203 -0.4631
 2313SOL    HW117618   3.115   5.729   0.346  0.0441  0.8958 -0.0968
 2313SOL    HW217619   3.119   5.582   0.417  0.5905  0.6284 -0.6837
 2314SOL     OW17620   0.809   7.509   4.122 -0.5524 -0.3942  0.3946
 2314SOL    HW117621   0.718   7.485   4.088 -0.7382  0.9337 -0.0567
 2314SOL    HW217622   0.824   7.464   4.211 -2.0595  0.2103  0.9641
 2315SOL     OW17623   0.396   7.114   2.895 -0.1373 -0.2923 -0.6632
 2315SOL    HW117624   0.321   7.180   2.909 -0.4478 -0.6698 -0.5363
 2315SOL    HW217625   0.483   7.160   2.909 -0.3917 -0.1946  0.5991
 2316SOL     OW17626   9.289   8.089   1.216 -0.6491 -0.0062 -0.1334
 2316SOL    HW117627   9.265   7.994   1.234 -0.7087  0.0939  0.3315
 2316SOL    HW217628   9.304   8.102   1.118  0.3030 -0.7143 -0.0972
 2317SOL     OW17629   2.709   8.032   3.833 -0.2989  0.1557  0.3800
 2317SOL    HW117630   2.749   8.031   3.741  1.0549 -0.4980  0.9624
 2317SOL    HW217631   2.661   8.118   3.848 -0.3501  0.3470 -0.8713
 2318SOL     OW17632   4.423   1.313   2.003  0.2721 -0.2574  0.3436
 2318SOL    HW117633   4.405   1.218   2.025 -0.5698  0.0934  1.1953
 2318SOL    HW217634   4.433   1.366   2.087  0.6156  0.4300 -0.1226
 2319SOL     OW17635   9.798   8.079   4.599  0.2286 -1.0814  0.0762
 2319SOL    HW117636   9.833   7.998   4.645  1.9249 -0.6659 -0.4567
 2319SOL    HW217637   9.859   8.105   4.524 -0.3428  0.6127  0.1563
 2320SOL     OW17638   8.852   0.872   1.998  0.6597  0.3820  0.0629
 2320SOL    HW117639   8.873   0.934   1.922 -0.1984 -0.7570 -1.1250
 2320SOL    HW217640   8.843   0.779   1.963  1.6179 -0.3738  1.7850
 2321SOL     OW17641   8.321   4.498   2.913  0.3435  0.2356 -0.5845
 2321SOL    HW117642   8.259   4.533   2.842  0.6979 -1.0779 -1.5619
 2321SOL    HW217643   8.416   4.506   2.881  0.5536  0.2980  0.0415
 2322SOL     OW17644   7.329   8.186   2.892 -0.1456  0.0018  0.9644
 2322SOL    HW117645   7.371   8.276   2.905  0.8661 -0.1579 -1.0879
 2322SOL    HW217646   7.272   8.164   2.972  3.5376  0.2920  3.8191
 2323SOL     OW17647   9.102   8.265   1.628  0.2809  0.2001  0.2708
 2323SOL    HW117648   9.003   8.257   1.636  0.3859 -1.0032  0.3437
 2323SOL    HW217649   9.129   8.247   1.533  0.3214  1.7624 -0.0365
 2324SOL     OW17650   7.715   8.361   0.558 -0.6961  0.3951 -0.0251
 2324SOL    HW117651   7.774   8.418   0.500 -0.2154  0.1459  0.2110
 2324SOL    HW217652   7.629   8.408   0.576  0.4135  1.8077  1.6530
 2325SOL     OW17653   0.008   7.926   0.650  0.2656 -0.0429  0.0751
 2325SOL    HW117654   0.065   7.986   0.594  0.7997 -0.4819  0.1542
 2325SOL    HW217655  -0.088   7.951   0.637  0.3009 -0.7870 -1.8319
 2326SOL     OW17656   2.511   8.321   0.219 -0.5546 -0.9178 -0.2198
 2326SOL    HW117657   2.423   8.359   0.247  0.3017  1.2055 -0.2940
 2326SOL    HW217658   2.521   8.329   0.120  1.0296  1.8385  0.1215
 2327SOL     OW17659   2.344   0.131   1.871  0.3247 -0.6649  0.4510
 2327SOL    HW117660   2.338   0.230   1.854  0.6781 -0.7446 -0.1384
 2327SOL    HW217661   2.402   0.089   1.802 -0.8685 -1.4789 -0.0679
 2328SOL     OW17662   2.652   0.367   2.001 -0.5200 -0.2007 -0.2672
 2328SOL    HW117663   2.571   0.327   2.044 -1.2478  0.5392 -0.9202
 2328SOL    HW217664   2.702   0.423   2.068 -1.2606  0.3850 -0.1999
 2329SOL     OW17665   1.848   7.237   4.169  0.0714  0.4833  0.1409
 2329SOL    HW117666   1.945   7.227   4.146  0.1911  0.6921  0.5657
 2329SOL    HW217667   1.822   7.167   4.236  0.0918  0.8566  0.5408
 2330SOL     OW17668   9.935   3.099   0.592  0.6426  0.0769  0.0273
 2330SOL    HW117669   9.839   3.124   0.575  0.4881  0.4339  1.3702
 2330SOL    HW217670   9.994   3.174   0.562  0.4185  0.4094  0.4096
 2331SOL     OW17671   1.044   8.988   0.963  0.1944 -0.0228 -0.7171
 2331SOL    HW117672   0.981   9.018   1.035 -0.6074 -2.5783 -0.2661
 2331SOL    HW217673   0.993   8.937   0.894  1.5401 -0.8394 -1.1277
 2332SOL     OW17674   5.502   8.190   1.452 -0.3922  0.4563 -0.1161
 2332SOL    HW117675   5.519   8.236   1.364 -1.3345  0.2502 -0.4075
 2332SOL    HW217676   5.433   8.241   1.503  0.1062  0.5339  0.4790
 2333SOL     OW17677   1.692   2.989   0.856 -0.6607  0.4894 -0.0545
 2333SOL    HW117678   1.721   2.894   0.864  1.6510  1.2782  1.6863
 2333SOL    HW217679   1.766   3.044   0.817 -1.3661  1.8406  0.4591
 2334SOL     OW17680   1.740   7.812   0.455  0.0987  0.6240  0.0562
 2334SOL    HW117681   1.751   7.907   0.485 -0.6201  0.5919  0.4303
 2334SOL    HW217682   1.730   7.811   0.355  1.6858  0.7949 -0.1286
 2335SOL     OW17683   4.624   1.191   1.158  0.0045  0.0918 -0.0491
 2335SOL    HW117684   4.606   1.141   1.073 -0.5387  1.5018 -0.7703
 2335SOL    HW217685   4.539   1.205   1.207  0.2947 -0.5694  0.6655
 2336SOL     OW17686   1.211   2.635   0.866 -0.0177  0.4235  0.5696
 2336SOL    HW117687   1.221   2.547   0.819  1.4200 -0.0145  1.6591
 2336SOL    HW217688   1.248   2.708   0.809  0.2487  0.1068  0.3344
 2337SOL     OW17689   3.529   9.485   2.771  0.4761 -0.3561 -0.9317
 2337SOL    HW117690   3.613   9.448   2.809  0.5388  0.0644 -0.6560
 2337SOL    HW217691   3.479   9.535   2.842  0.2877 -0.0957 -1.2430
 2338SOL     OW17692   0.602   8.359   0.650 -0.5458  0.1418  0.1376
 2338SOL    HW117693   0.676   8.426   0.652  0.1383 -0.6222  0.4800
 2338SOL    HW217694   0.609   8.298   0.729 -0.1944 -1.3708 -1.0353
 2339SOL     OW17695   7.817   1.788   4.634  0.2590 -0.1242 -0.5735
 2339SOL    HW117696   7.723   1.756   4.627  0.5611 -1.7902  2.2319
 2339SOL    HW217697   7.879   1.719   4.597  0.4884  0.3903 -1.1720
 2340SOL     OW17698   2.914   4.406   3.064 -0.3734 -0.5885 -0.2517
 2340SOL    HW117699   2.960   4.337   3.119  1.5494 -0.0286 -1.1030
 2340SOL    HW217700   2.928   4.496   3.105 -0.0597 -0.3261 -0.9313
 2341SOL     OW17701   5.516   0.424   3.445  0.2509 -0.0663  0.1661
 2341SOL    HW117702   5.416   0.428   3.443  0.2949  0.9924 -0.2830
 2341SOL    HW217703   5.545   0.368   3.522 -0.7065 -1.1725 -0.2597
 2342SOL     OW17704   7.731   1.056   3.048  0.1710  0.5245 -0.0641
 2342SOL    HW117705   7.641   1.014   3.059 -0.4914  2.1514  0.8895
 2342SOL    HW217706   7.752   1.064   2.951  0.0633 -1.4327 -0.2780
 2343SOL     OW17707   3.083   9.941   0.546 -0.6489  0.3340  0.0850
 2343SOL    HW117708   3.138  10.012   0.503  1.7693 -0.1724  2.1827
 2343SOL    HW217709   3.077   9.958   0.644 -0.9030 -1.7819  0.4645
 2344SOL     OW17710   9.016   7.736   3.740  0.2683 -0.0237 -0.1163
 2344SOL    HW117711   9.094   7.725   3.678 -0.5979 -0.3637 -1.1494
 2344SOL    HW217712   8.944   7.787   3.694 -0.5508 -0.6533  0.4583
 2345SOL     OW17713   0.063   2.672   0.177  0.0988 -0.0068  0.1125
 2345SOL    HW117714   0.065   2.758   0.126 -0.3000  0.4029  0.7747
 2345SOL    HW217715   0.103   2.599   0.121  0.0821  0.5246 -0.6046
 2346SOL     OW17716   0.581   3.663   4.428  0.2141 -0.4475  0.1192
 2346SOL    HW117717   0.621   3.755   4.421 -1.0896  0.1340  0.1745
 2346SOL    HW217718   0.514   3.661   4.502 -0.6050 -1.1134 -0.6211
 2347SOL     OW17719   2.415   4.409   2.640  0.4318  0.0620 -0.5449
 2347SOL    HW117720   2.315   4.407   2.645  0.4052  0.9124 -0.5828
 2347SOL    HW217721   2.449   4.321   2.608 -0.2707 -0.4378  0.0554
 2348SOL     OW17722   1.930   3.034   2.825  0.5178  0.1693  0.3576
 2348SOL    HW117723   2.003   3.033   2.893  0.3516  1.5773  0.5688
 2348SOL    HW217724   1.970   3.045   2.734  0.5749  1.2339  0.4976
 2349SOL     OW17725   2.398   3.148   1.722  0.1538 -0.4306 -0.2024
 2349SOL    HW117726   2.418   3.193   1.808 -2.0585  2.4783 -1.1541
 2349SOL    HW217727   2.309   3.102   1.728  0.3971 -0.9772 -0.6728
 2350SOL     OW17728   9.346   0.075   3.127 -0.3223  0.0889 -0.0700
 2350SOL    HW117729   9.273   0.140   3.148 -0.4520  0.3960 -1.4748
 2350SOL    HW217730   9.306  -0.013   3.102 -0.2332  0.4637 -1.5431
 2351SOL     OW17731   3.239   9.143   2.217 -0.1910 -0.0698 -0.2229
 2351SOL    HW117732   3.160   9.183   2.264 -1.5508 -0.2255 -2.2870
 2351SOL    HW217733   3.221   9.046   2.198  0.1829  0.0758 -1.3507
 2352SOL     OW17734   3.000   5.701   1.322 -0.6294 -0.0521  0.2653
 2352SOL    HW117735   3.037   5.785   1.363  1.0252 -0.9483  0.6498
 2352SOL    HW217736   2.939   5.656   1.388 -0.5256  0.1956  0.5330
 2353SOL     OW17737   2.305   4.349   0.259 -0.0389 -0.3746 -0.2145
 2353SOL    HW117738   2.248   4.417   0.214  0.3905  0.3947  0.4095
 2353SOL    HW217739   2.400   4.358   0.227  0.1480 -0.2343  0.3653
 2354SOL     OW17740   8.481   5.831   1.007  0.0835 -0.0588 -0.3701
 2354SOL    HW117741   8.481   5.915   0.952 -2.1818 -0.4731 -1.0639
 2354SOL    HW217742   8.550   5.768   0.973  0.9480  1.0101 -0.6383
 2355SOL     OW17743   3.529   3.400   2.536 -0.1946 -0.1195  0.4481
 2355SOL    HW117744   3.517   3.493   2.571 -0.2736  0.5241 -1.2059
 2355SOL    HW217745   3.624   3.372   2.546 -0.0056  0.4465  0.2317
 2356SOL     OW17746   1.859   7.717   3.507 -0.1019  0.5450  0.6160
 2356SOL    HW117747   1.791   7.716   3.433 -0.7046  0.0821  1.1671
 2356SOL    HW217748   1.866   7.626   3.546  0.2277  0.7859  1.1166
 2357SOL     OW17749   0.711   9.551   3.524  0.3728  0.0181  0.3763
 2357SOL    HW117750   0.749   9.461   3.543 -0.4491 -0.4050  0.0658
 2357SOL    HW217751   0.636   9.542   3.458 -0.3879  0.7959  1.1166
 2358SOL     OW17752   3.076   9.697   3.858  0.1984  0.4897  0.4062
 2358SOL    HW117753   3.073   9.642   3.775 -0.4394  2.0409 -0.6191
 2358SOL    HW217754   3.125   9.648   3.929  0.8121 -0.8249 -0.9185
 2359SOL     OW17755   5.638   8.583   1.504  0.1917  0.4109 -0.2446
 2359SOL    HW117756   5.663   8.489   1.527  0.3170  0.0760 -1.6895
 2359SOL    HW217757   5.549   8.605   1.544  0.7475  0.1030  1.1589
 2360SOL     OW17758   5.395   9.104   2.720 -0.3674  0.2940 -0.2085
 2360SOL    HW117759   5.307   9.083   2.676  0.4619  0.0302 -1.7654
 2360SOL    HW217760   5.382   9.181   2.783 -1.8689 -0.2116  0.1249
 2361SOL     OW17761   5.041   2.643   1.403  0.2705  0.0108 -0.1965
 2361SOL    HW117762   5.043   2.645   1.503  0.0406 -2.5537 -0.1261
 2361SOL    HW217763   5.119   2.591   1.369  1.2973  2.3003 -1.4470
 2362SOL     OW17764   1.078   4.439   3.323 -0.4287  0.2353 -0.5908
 2362SOL    HW117765   1.042   4.354   3.362  2.4116  0.2747  2.3568
 2362SOL    HW217766   1.141   4.416   3.248 -0.0890 -0.2274 -0.1677
 2363SOL     OW17767   1.377   5.792   0.226  0.6170 -0.0751  0.1233
 2363SOL    HW117768   1.437   5.824   0.299  1.4220  0.7214 -0.8758
 2363SOL    HW217769   1.282   5.790   0.259  0.8693  1.0060  0.9430
 2364SOL     OW17770   0.391   5.377   4.416 -0.3682  0.1624  0.7289
 2364SOL    HW117771   0.448   5.367   4.497 -0.2726  0.4906  0.7044
 2364SOL    HW217772   0.323   5.449   4.431  0.1749  0.7924  0.2298
 2365SOL     OW17773   9.342   3.818   3.529 -0.8761  0.0480 -0.1741
 2365SOL    HW117774   9.382   3.901   3.490 -0.0128  0.0773  0.7823
 2365SOL    HW217775   9.411   3.767   3.580 -0.7156 -2.6517 -2.9594
 2366SOL     OW17776   7.727   1.851   2.216 -0.7904  0.1106  0.0072
 2366SOL    HW117777   7.697   1.830   2.309  0.2107  0.7187  0.4803
 2366SOL    HW217778   7.710   1.772   2.157 -0.5248 -0.6426  0.9277
 2367SOL     OW17779   7.309   0.325   3.009  0.2111  0.2007  0.2866
 2367SOL    HW117780   7.295   0.424   3.010 -1.1767  0.0117  0.2098
 2367SOL    HW217781   7.334   0.296   2.916  0.8789  0.5190  0.3702
 2368SOL     OW17782   3.061   8.992   4.507 -0.5387 -0.0335  0.3157
 2368SOL    HW117783   2.993   9.039   4.563 -0.8913  0.4039 -0.4744
 2368SOL    HW217784   3.152   9.006   4.546 -0.5792  1.7773 -0.2203
 2369SOL     OW17785   4.545   7.962   0.377  0.0541 -0.1981 -0.3936
 2369SOL    HW117786   4.519   8.043   0.430 -0.5236  0.1225 -1.1522
 2369SOL    HW217787   4.468   7.898   0.373  0.6648 -1.0031  0.6025
 2370SOL     OW17788   0.821   6.853   1.431 -0.0688  0.1294 -0.0500
 2370SOL    HW117789   0.891   6.877   1.499  0.8409  0.3381 -1.0325
 2370SOL    HW217790   0.801   6.933   1.375  1.7481 -0.8884 -2.2669
 2371SOL     OW17791   8.067   9.769   3.189 -0.7072  0.0640 -0.2392
 2371SOL    HW117792   8.066   9.735   3.095  1.1221 -0.0108 -0.2602
 2371SOL    HW217793   8.153   9.742   3.232 -0.4837  2.1991  0.6806
 2372SOL     OW17794   8.467   4.258   2.507 -0.2172  0.2871  0.0129
 2372SOL    HW117795   8.550   4.313   2.497 -0.0470 -0.0082 -0.1819
 2372SOL    HW217796   8.481   4.168   2.467 -0.4006  0.0013  0.5856
 2373SOL     OW17797   0.107   4.316   0.990  0.0857 -0.5107  0.8467
 2373SOL    HW117798   0.158   4.367   1.060  2.1529 -0.3086 -0.7520
 2373SOL    HW217799   0.029   4.271   1.032 -0.7643  2.5159  2.6381
 2374SOL     OW17800   0.514   3.730   3.788 -0.5683  0.4534 -0.0678
 2374SOL    HW117801   0.439   3.665   3.793  0.3053 -0.6662 -1.2863
 2374SOL    HW217802   0.597   3.684   3.758  0.1595  2.0551 -0.5884
 2375SOL     OW17803   2.973   4.876   2.078  0.2182 -0.1027  0.6283
 2375SOL    HW117804   2.947   4.805   2.143  1.3692 -1.5759 -0.4973
 2375SOL    HW217805   3.073   4.878   2.070  0.0383 -0.6851 -1.9173
 2376SOL     OW17806   8.382   6.423   2.009  0.4214  0.2511  0.1606
 2376SOL    HW117807   8.427   6.348   2.058  0.3389  0.4884  0.6044
 2376SOL    HW217808   8.433   6.507   2.025 -0.1437  0.5103  0.6193
 2377SOL     OW17809   0.950   6.016   4.547 -0.5470 -0.9050 -0.0395
 2377SOL    HW117810   1.003   6.101   4.544 -1.0694 -0.5788 -0.0797
 2377SOL    HW217811   1.012   5.938   4.537 -0.0291 -0.5424  0.3351
 2378SOL     OW17812   1.661   7.466   0.814 -0.2896  0.4312 -0.1061
 2378SOL    HW117813   1.569   7.493   0.841 -0.0511  1.7693 -0.5890
 2378SOL    HW217814   1.704   7.540   0.763  1.2514  0.0404  0.5872
 2379SOL     OW17815   0.818   1.074   3.865  0.5729  0.7880  0.2844
 2379SOL    HW117816   0.909   1.033   3.858  0.3963  0.4685 -0.1363
 2379SOL    HW217817   0.769   1.035   3.943  0.8257  1.0234  0.5641
 2380SOL     OW17818   9.313   4.648   1.917  0.7194  0.1464 -0.2440
 2380SOL    HW117819   9.325   4.561   1.965 -0.1041  0.2930  0.2308
 2380SOL    HW217820   9.216   4.674   1.917  0.9527  1.0575 -0.3892
 2381SOL     OW17821   6.792   7.556   2.128  0.2844 -0.0245 -0.3122
 2381SOL    HW117822   6.884   7.520   2.144  0.6064  0.4049 -1.1184
 2381SOL    HW217823   6.758   7.523   2.040  0.4407  1.3202 -0.8933
 2382SOL     OW17824   1.689   3.820   3.135  0.3527  0.3227 -0.4443
 2382SOL    HW117825   1.616   3.870   3.091  0.3875  1.2362  0.5111
 2382SOL    HW217826   1.651   3.742   3.185  0.2964 -0.6032 -1.8943
 2383SOL     OW17827   2.340   3.467   3.921 -0.3440  0.1290 -0.1537
 2383SOL    HW117828   2.425   3.434   3.881  0.4165  1.1903  0.5622
 2383SOL    HW217829   2.264   3.447   3.859  0.3453 -1.2638 -0.5698
 2384SOL     OW17830   4.410   3.246   3.293 -0.1273 -0.1200  0.2064
 2384SOL    HW117831   4.347   3.245   3.215 -1.1500 -1.3916  1.0278
 2384SOL    HW217832   4.459   3.333   3.295 -2.0974  1.0378 -0.2720
 2385SOL     OW17833   8.556   8.844   2.594  0.5328  0.1283  0.0569
 2385SOL    HW117834   8.630   8.851   2.660 -0.9061  0.3004  1.7049
 2385SOL    HW217835   8.509   8.933   2.588  0.6005  0.0862 -1.1346
 2386SOL     OW17836   9.409   3.957   2.930 -0.0264 -0.4349 -0.2690
 2386SOL    HW117837   9.388   3.971   2.833 -1.1873 -0.7436 -0.0655
 2386SOL    HW217838   9.408   3.859   2.950  0.7941 -0.4032 -0.0694
 2387SOL     OW17839   9.642   0.938   3.734 -0.5566  0.4890 -0.2151
 2387SOL    HW117840   9.655   1.037   3.728  0.6884  0.4507  1.5080
 2387SOL    HW217841   9.557   0.913   3.688 -1.4333  2.4945  0.2602
 2388SOL     OW17842   7.495   7.371   3.024  0.4783 -0.4182 -0.3546
 2388SOL    HW117843   7.474   7.280   2.988 -2.3935  0.4892 -1.1057
 2388SOL    HW217844   7.516   7.433   2.948 -1.5104  0.4842 -0.2070
 2389SOL     OW17845   3.635   2.593   0.607 -0.0282 -0.0109 -0.0067
 2389SOL    HW117846   3.698   2.666   0.579  0.2808 -0.4041 -0.3317
 2389SOL    HW217847   3.686   2.508   0.620 -0.2399  0.0411  1.2652
 2390SOL     OW17848   3.067   5.346   0.821 -0.1211 -0.2240 -0.2747
 2390SOL    HW117849   2.987   5.343   0.881  0.0757 -0.9048 -0.0534
 2390SOL    HW217850   3.091   5.442   0.804 -2.1221  0.0518 -1.8505
 2391SOL     OW17851   2.042   4.032   1.184  0.7700 -0.1452 -0.2903
 2391SOL    HW117852   2.033   3.970   1.107  2.4929  0.1110 -0.7280
 2391SOL    HW217853   2.099   3.989   1.255 -1.1621 -0.5584  1.0377
 2392SOL     OW17854   3.227   2.590   1.554  0.0835 -0.2310 -0.2369
 2392SOL    HW117855   3.323   2.574   1.575  0.4996 -0.9007 -2.5112
 2392SOL    HW217856   3.177   2.503   1.557 -0.0026 -0.2222 -1.1804
 2393SOL     OW17857   8.158   9.916   0.525  0.4476 -0.5599  0.4658
 2393SOL    HW117858   8.242   9.921   0.579  1.2577  0.9094 -0.8968
 2393SOL    HW217859   8.167   9.847   0.454 -0.5457 -2.3570  2.0588
 2394SOL     OW17860   8.169   7.870   3.543  0.3406  0.0204 -0.1149
 2394SOL    HW117861   8.123   7.791   3.584 -0.8423  0.8978  0.2936
 2394SOL    HW217862   8.162   7.864   3.443  0.1009 -0.3050 -0.0806
 2395SOL     OW17863   0.573   8.907   3.157  0.0903  0.3026 -0.1821
 2395SOL    HW117864   0.583   8.946   3.066 -1.1779 -0.3037 -0.5873
 2395SOL    HW217865   0.547   8.811   3.149  2.4188 -0.4504  0.8056
 2396SOL     OW17866   4.288   1.662   2.169  0.0574  0.2360  0.4087
 2396SOL    HW117867   4.260   1.641   2.262 -0.9944  0.0331  0.0592
 2396SOL    HW217868   4.382   1.697   2.169  0.1151  0.1004  1.5171
 2397SOL     OW17869   1.198   3.537   4.584 -0.5373  0.2607  0.0091
 2397SOL    HW117870   1.104   3.517   4.612 -0.3620  0.6671  0.8922
 2397SOL    HW217871   1.209   3.516   4.487 -1.2765 -0.7075  0.1321
 2398SOL     OW17872   7.824   4.574   4.527  0.4571 -0.4721  0.0245
 2398SOL    HW117873   7.836   4.500   4.593 -1.7155 -1.4312 -0.6048
 2398SOL    HW217874   7.907   4.630   4.524  1.1749 -1.3405  2.3994
 2399SOL     OW17875   8.925   5.244   3.807 -0.2727 -0.3395 -0.0785
 2399SOL    HW117876   8.845   5.295   3.837 -0.3257 -1.4267  1.6841
 2399SOL    HW217877   8.922   5.232   3.708 -1.1958  1.4366 -0.2848
 2400SOL     OW17878   8.104   4.862   1.090  0.6000 -0.0989  0.6362
 2400SOL    HW117879   8.167   4.931   1.125  0.6466  0.0235  0.3145
 2400SOL    HW217880   8.040   4.905   1.025  1.0039 -0.4718 -0.0174
 2401SOL     OW17881   9.188   5.390   1.235  0.3139  0.8301 -0.2409
 2401SOL    HW117882   9.123   5.368   1.162  0.9338  0.1055 -0.5796
 2401SOL    HW217883   9.157   5.350   1.321  0.4239  0.3098 -0.4462
 2402SOL     OW17884   9.304   6.915   4.034  0.3451 -0.4001  0.5611
 2402SOL    HW117885   9.240   6.840   4.047 -1.1299  0.8064  0.4932
 2402SOL    HW217886   9.334   6.950   4.123  1.0152 -1.0667  0.5915
 2403SOL     OW17887   2.340   1.553   2.612  0.2922 -0.1923  0.0222
 2403SOL    HW117888   2.292   1.505   2.685 -0.5394  0.4200 -0.1111
 2403SOL    HW217889   2.436   1.565   2.637  0.5207 -1.9710  0.0163
 2404SOL     OW17890   4.838   9.367   2.246  0.6894 -0.6455  0.0792
 2404SOL    HW117891   4.773   9.353   2.171  0.5377 -1.3027  0.3252
 2404SOL    HW217892   4.845   9.465   2.266 -0.8541 -0.6294  0.5943
 2405SOL     OW17893   9.987   1.119   2.296 -0.0302 -0.3575 -0.3150
 2405SOL    HW117894   9.987   1.053   2.221 -1.0073 -0.6306 -0.0847
 2405SOL    HW217895  10.076   1.119   2.340  0.2539 -0.8800 -0.8857
 2406SOL     OW17896   8.765   8.810   2.045  0.1983 -0.0572 -0.2047
 2406SOL    HW117897   8.784   8.727   1.992  0.3543  0.7804 -1.4935
 2406SOL    HW217898   8.838   8.877   2.028  0.9304 -0.2151  2.0562
 2407SOL     OW17899   8.762   9.393   3.210 -0.8229 -0.1081 -0.0364
 2407SOL    HW117900   8.813   9.381   3.295  0.8346 -1.0817 -1.1528
 2407SOL    HW217901   8.726   9.486   3.205  1.4544  0.8107  0.4303
 2408SOL     OW17902   6.731   9.365   1.848 -0.0461  0.5951 -0.5318
 2408SOL    HW117903   6.775   9.380   1.759 -0.5273 -0.5332 -0.9801
 2408SOL    HW217904   6.768   9.281   1.889  0.3482  1.2379  0.4514
 2409SOL     OW17905   9.556   4.470   4.652 -0.2585  0.7415 -0.4570
 2409SOL    HW117906   9.468   4.457   4.697  0.0819  1.3521  0.4037
 2409SOL    HW217907   9.595   4.559   4.679  1.1091  0.0226  0.0313
 2410SOL     OW17908   5.522   6.546   2.856 -0.0010 -0.1808 -0.3636
 2410SOL    HW117909   5.557   6.453   2.863  0.2153 -0.1484 -0.9919
 2410SOL    HW217910   5.481   6.560   2.766  0.8045  0.6187 -0.6087
 2411SOL     OW17911   5.826   2.574   0.624  0.2784 -0.8406 -0.5211
 2411SOL    HW117912   5.785   2.576   0.533 -0.4185  0.8377 -0.1978
 2411SOL    HW217913   5.769   2.519   0.685  0.2342 -1.1738 -0.8609
 2412SOL     OW17914   0.180   0.587   3.793 -0.5869 -0.2421  0.2364
 2412SOL    HW117915   0.215   0.609   3.702 -1.9229  2.8411  0.3936
 2412SOL    HW217916   0.255   0.593   3.859 -0.6142  3.0515  0.0888
 2413SOL     OW17917   8.863   8.681   2.445 -0.0999 -0.1770  0.1291
 2413SOL    HW117918   8.811   8.742   2.385 -0.3141 -2.9427 -2.6216
 2413SOL    HW217919   8.800   8.620   2.492  0.3792 -0.8260 -0.0740
 2414SOL     OW17920   9.088   5.347   2.511 -0.4095 -0.5181 -0.3913
 2414SOL    HW117921   9.099   5.322   2.607  0.9602 -0.7496 -0.5986
 2414SOL    HW217922   9.147   5.424   2.490 -0.7903 -0.3992 -1.0223
 2415SOL     OW17923   1.764   8.215   0.554 -0.5787  0.4443 -0.2880
 2415SOL    HW117924   1.821   8.261   0.623 -0.1785 -1.3849  0.6238
 2415SOL    HW217925   1.674   8.197   0.592 -1.3232  2.0303 -1.2476
 2416SOL     OW17926   0.465   8.377   1.331 -0.5604  0.5537  0.2317
 2416SOL    HW117927   0.443   8.421   1.243  2.6883 -0.1113 -0.9905
 2416SOL    HW217928   0.430   8.283   1.331  1.1512 -0.1314 -1.2464
 2417SOL     OW17929   5.307   8.200   2.872 -0.1854  0.1816 -0.0817
 2417SOL    HW117930   5.380   8.153   2.822 -0.2550 -0.4426  0.4109
 2417SOL    HW217931   5.316   8.299   2.857  1.9629  0.2868  1.5634
 2418SOL     OW17932   5.306   9.153   1.115  0.3835 -0.0264  0.6002
 2418SOL    HW117933   5.228   9.106   1.073  1.2510 -0.0534 -1.0459
 2418SOL    HW217934   5.296   9.252   1.102  1.2445 -0.0970 -0.8101
 2419SOL     OW17935   7.298   9.530   3.328  1.2338 -0.6240 -0.6458
 2419SOL    HW117936   7.277   9.622   3.362  1.5042 -0.4163 -1.0397
 2419SOL    HW217937   7.383   9.532   3.276  1.6894 -1.2622  0.0606
 2420SOL     OW17938   2.254   3.702   0.342  0.5317  0.2024 -0.0434
 2420SOL    HW117939   2.263   3.776   0.276 -1.0843  0.8562  0.4148
 2420SOL    HW217940   2.196   3.630   0.304 -1.8801  1.3739  1.2252
 2421SOL     OW17941   4.092   9.009   0.620 -0.3268  0.7127  0.6247
 2421SOL    HW117942   4.108   9.032   0.524 -1.2196  2.9916  0.9889
 2421SOL    HW217943   3.995   8.990   0.634 -0.5727  2.4972  1.4739
 2422SOL     OW17944   3.501   8.908   2.390 -0.5053  0.3082  0.1069
 2422SOL    HW117945   3.494   9.007   2.378 -0.4260  0.6552  2.7920
 2422SOL    HW217946   3.416   8.873   2.428 -0.0227 -0.4591  0.4822
 2423SOL     OW17947   1.106   9.451   4.491 -0.6790  0.3177 -0.4927
 2423SOL    HW117948   1.110   9.373   4.429  2.3778 -0.9789  1.2516
 2423SOL    HW217949   1.190   9.505   4.482  0.2574 -0.4006  3.1039
 2424SOL     OW17950   3.990   5.531   1.351 -0.2780  0.5529  0.3287
 2424SOL    HW117951   3.988   5.625   1.317  1.1827  0.5798  0.2772
 2424SOL    HW217952   4.084   5.507   1.376 -0.9875 -0.1839  2.3392
 2425SOL     OW17953   4.704   0.380   3.680  0.3985 -0.5830 -0.3494
 2425SOL    HW117954   4.727   0.459   3.624  0.3073 -0.3813 -0.1017
 2425SOL    HW217955   4.614   0.345   3.652 -0.1282  0.1622  0.3774
 2426SOL     OW17956   9.663   8.924   4.527  0.5889  0.1604  0.2658
 2426SOL    HW117957   9.743   8.869   4.550  1.5966  0.5596 -2.1369
 2426SOL    HW217958   9.683   8.981   4.448 -1.7873  0.9427  0.1785
 2427SOL     OW17959   4.531   0.878   0.687  0.2917  0.1801  0.0420
 2427SOL    HW117960   4.622   0.843   0.662  0.7842  0.8142  0.9118
 2427SOL    HW217961   4.461   0.811   0.661  1.0071 -0.3412 -0.5823
 2428SOL     OW17962   8.542   0.260   4.686 -0.0030  0.0783  0.0195
 2428SOL    HW117963   8.451   0.229   4.713 -0.0189 -1.2022 -1.4306
 2428SOL    HW217964   8.537   0.354   4.653 -1.0255 -0.4141 -1.2564
 2429SOL     OW17965   7.676   2.885   0.831  0.0857 -0.1149 -0.1745
 2429SOL    HW117966   7.735   2.965   0.825  1.1938 -0.7796  1.5622
 2429SOL    HW217967   7.622   2.877   0.747  0.9583  1.6637 -0.9236
 2430SOL     OW17968   9.640   6.956   2.382 -0.3126  0.2296 -0.1519
 2430SOL    HW117969   9.569   7.023   2.360 -1.2001 -0.4574  0.5371
 2430SOL    HW217970   9.629   6.926   2.477  0.0436 -0.9001 -0.4507
 2431SOL     OW17971   3.273   7.293   0.892 -0.3108 -0.2492 -0.1859
 2431SOL    HW117972   3.366   7.267   0.915  0.2031  1.8130  0.1972
 2431SOL    HW217973   3.243   7.243   0.810  2.3343  1.4400 -2.2815
 2432SOL     OW17974   3.128   1.470   4.091  0.4277  0.1260 -0.6619
 2432SOL    HW117975   3.095   1.550   4.041  3.7917  1.7356 -0.4710
 2432SOL    HW217976   3.152   1.497   4.185  2.9342 -0.7406 -1.0145
 2433SOL     OW17977   8.475   7.632   3.441  0.1527 -0.3290  0.2848
 2433SOL    HW117978   8.472   7.732   3.429 -1.1842 -0.4594 -0.5648
 2433SOL    HW217979   8.559   7.596   3.401 -0.0961  0.2788 -0.8020
 2434SOL     OW17980   4.903   0.665   0.795  0.0510  0.1959 -0.1708
 2434SOL    HW117981   4.950   0.598   0.737 -0.7146 -0.1620 -0.3866
 2434SOL    HW217982   4.850   0.728   0.737 -1.4420 -0.7202  0.1649
 2435SOL     OW17983   1.113   9.127   2.986  0.1421 -0.4032 -0.0549
 2435SOL    HW117984   1.150   9.084   2.903 -2.5152  0.0262 -1.5082
 2435SOL    HW217985   1.141   9.223   2.989  1.4555 -0.7824  0.3333
 2436SOL     OW17986   6.775   9.605   2.032 -0.4710  0.4960 -0.6256
 2436SOL    HW117987   6.864   9.637   2.000  0.7253 -0.9311  1.1651
 2436SOL    HW217988   6.748   9.524   1.979 -0.7585  0.9960 -1.2448
 2437SOL     OW17989   3.730   7.319   3.255  0.0305  0.1961  0.2638
 2437SOL    HW117990   3.765   7.369   3.176  0.6688 -1.2537 -0.3695
 2437SOL    HW217991   3.803   7.308   3.322  0.1975 -0.9247 -0.1079
 2438SOL     OW17992   3.562   1.760   2.952 -0.4798  0.2098  0.1669
 2438SOL    HW117993   3.577   1.713   2.866 -1.1686 -0.5862  0.4754
 2438SOL    HW217994   3.644   1.756   3.008 -0.8140 -1.4072  0.5634
 2439SOL     OW17995   2.690   5.650   2.815  0.0671 -0.0874  0.0632
 2439SOL    HW117996   2.633   5.726   2.785 -0.9397 -0.5449  0.8084
 2439SOL    HW217997   2.666   5.568   2.762  1.6919  0.2842 -1.2923
 2440SOL     OW17998   9.497   6.164   1.313  0.4264  0.3247 -0.1278
 2440SOL    HW117999   9.494   6.106   1.394 -0.6190  1.0112  0.3314
 2440SOL    HW218000   9.523   6.109   1.233  1.0159 -0.4385  0.5841
 2441SOL     OW18001   9.138   5.794   1.748 -0.0765 -0.0662 -0.0928
 2441SOL    HW118002   9.055   5.755   1.789  0.1700  0.2353  0.7106
 2441SOL    HW218003   9.167   5.738   1.671 -0.6608 -0.5376  0.0274
 2442SOL     OW18004   3.791   9.003   1.335  0.3063  0.1593  0.1079
 2442SOL    HW118005   3.888   8.995   1.311  0.0812  0.3903 -0.9119
 2442SOL    HW218006   3.768   8.933   1.403  0.7439 -1.1846 -1.1020
 2443SOL     OW18007   0.734   9.291   3.507  0.0300  0.2671  0.5128
 2443SOL    HW118008   0.651   9.247   3.473 -1.4561  1.9285  1.8969
 2443SOL    HW218009   0.795   9.222   3.546 -1.1818 -0.8339  0.4911
 2444SOL     OW18010   2.334   1.145   1.282  0.1294 -0.0414 -0.0897
 2444SOL    HW118011   2.421   1.133   1.234  0.2409 -2.1647  0.5946
 2444SOL    HW218012   2.276   1.065   1.266 -0.6697  0.1887  1.5829
 2445SOL     OW18013   3.487   2.398   3.858  0.2912  0.2346 -0.4609
 2445SOL    HW118014   3.530   2.473   3.807 -2.0262  1.6759 -0.3453
 2445SOL    HW218015   3.494   2.314   3.804  0.7253  1.0416 -1.7021
 2446SOL     OW18016   2.749   2.087   0.706  0.0516  0.1213 -0.3732
 2446SOL    HW118017   2.650   2.089   0.720 -0.3133 -1.1097 -2.5379
 2446SOL    HW218018   2.786   2.179   0.719 -1.3940  0.6228  0.3072
 2447SOL     OW18019   8.568   1.972   4.133  0.0868  0.0964  0.0801
 2447SOL    HW118020   8.653   1.963   4.082  0.6513  1.8400  0.6583
 2447SOL    HW218021   8.588   1.977   4.231 -0.5941  1.2766  0.1728
 2448SOL     OW18022   1.539   5.767   0.751  0.3270  0.1641  0.3726
 2448SOL    HW118023   1.626   5.814   0.765  0.0171  0.6434  0.7284
 2448SOL    HW218024   1.469   5.834   0.727 -0.1727 -0.0919  1.1130
 2449SOL     OW18025   4.027   8.493   0.567 -0.0037  0.4859  0.5406
 2449SOL    HW118026   3.929   8.484   0.547  0.2683  0.7052 -0.9268
 2449SOL    HW218027   4.040   8.498   0.666 -1.2136 -3.1084  0.9828
 2450SOL     OW18028   3.065   8.574   3.848 -0.1047  0.2911 -0.1278
 2450SOL    HW118029   3.130   8.617   3.786 -0.7157 -0.0505 -1.0192
 2450SOL    HW218030   2.972   8.598   3.820 -0.3925 -0.1496  0.4418
 2451SOL     OW18031   2.435   5.876   1.500 -0.3583  0.6015 -0.1735
 2451SOL    HW118032   2.517   5.874   1.442  0.0710  0.9643  0.4244
 2451SOL    HW218033   2.354   5.885   1.442  0.1294  1.8886 -0.6590
 2452SOL     OW18034   1.693   0.386   4.622  0.5014  0.2126 -0.4605
 2452SOL    HW118035   1.783   0.403   4.583  0.5674 -1.6128 -1.1322
 2452SOL    HW218036   1.670   0.289   4.614  0.0343 -0.0306  3.0410
 2453SOL     OW18037   6.339   8.236   2.810  0.2850 -0.3280  0.3343
 2453SOL    HW118038   6.277   8.193   2.875  0.5874  0.8635  1.4488
 2453SOL    HW218039   6.287   8.276   2.735 -0.3188  0.6861  1.2759
 2454SOL     OW18040   1.924   6.819   4.006  0.5138 -0.0733  0.7092
 2454SOL    HW118041   1.948   6.841   4.101  0.4145  2.5092  0.1565
 2454SOL    HW218042   2.007   6.801   3.954  0.7182  0.6924  0.7653
 2455SOL     OW18043   4.237   1.383   0.600 -0.6693  0.3011 -0.0536
 2455SOL    HW118044   4.253   1.289   0.570  0.1945  0.6590 -0.7440
 2455SOL    HW218045   4.243   1.444   0.521  1.1453  1.2030  0.7471
 2456SOL     OW18046   2.851   1.275   0.045 -0.1580 -0.3595  0.5884
 2456SOL    HW118047   2.819   1.324  -0.036 -0.6133  0.2004  1.0968
 2456SOL    HW218048   2.938   1.313   0.075  1.1308 -2.0756 -0.9638
 2457SOL     OW18049   1.306   7.558   3.081 -0.1713  0.0868  0.0067
 2457SOL    HW118050   1.335   7.468   3.048 -2.0258 -0.1265 -1.0938
 2457SOL    HW218051   1.322   7.626   3.010  1.2984  0.6604  0.8681
 2458SOL     OW18052   5.271   9.857   2.514 -0.1188  0.4336 -0.7002
 2458SOL    HW118053   5.366   9.836   2.533  0.5170  2.1212 -1.8711
 2458SOL    HW218054   5.230   9.905   2.592  0.2967  0.6407 -0.6085
 2459SOL     OW18055   9.335   5.664   3.842  0.0246 -0.1456 -0.0452
 2459SOL    HW118056   9.339   5.609   3.924 -0.6989  0.3696  0.3505
 2459SOL    HW218057   9.263   5.628   3.781 -0.4357  0.3371  0.2062
 2460SOL     OW18058   4.375   1.373   2.588 -0.4095 -0.2114 -0.4575
 2460SOL    HW118059   4.341   1.365   2.682 -0.9431  0.6882 -0.5704
 2460SOL    HW218060   4.459   1.319   2.579 -1.4546 -1.9582 -0.0152
 2461SOL     OW18061   3.467   5.041   2.504  0.6188 -0.0607 -0.1580
 2461SOL    HW118062   3.409   4.982   2.559 -0.1801  0.2540 -0.6593
 2461SOL    HW218063   3.501   5.116   2.560 -0.2135  0.2761 -0.1090
 2462SOL     OW18064   1.857   8.971   4.713 -0.0339  0.0117 -0.0106
 2462SOL    HW118065   1.934   8.988   4.774 -0.7910 -0.1773  1.0163
 2462SOL    HW218066   1.775   8.952   4.767 -0.5414 -0.9433 -1.0881
 2463SOL     OW18067   0.836   2.940   4.463  0.1900 -0.0138 -0.4244
 2463SOL    HW118068   0.851   2.847   4.496 -1.6661  0.1911  1.1148
 2463SOL    HW218069   0.793   2.937   4.373  0.9192 -0.6278 -0.7583
 2464SOL     OW18070   1.176   7.390   0.479 -0.0292 -0.2507  0.6527
 2464SOL    HW118071   1.116   7.340   0.542 -0.1928 -2.1251 -0.9477
 2464SOL    HW218072   1.183   7.340   0.393 -1.9814  3.6083 -1.8991
 2465SOL     OW18073   8.561   7.115   3.414 -0.5871 -0.2295 -0.2573
 2465SOL    HW118074   8.551   7.196   3.471  0.3710  0.4685 -1.0623
 2465SOL    HW218075   8.549   7.033   3.470  0.6874  0.4313  1.0146
 2466SOL     OW18076   1.515   1.462   0.492  0.1006  0.3240 -0.3844
 2466SOL    HW118077   1.513   1.462   0.592  0.4779  0.9185 -0.3735
 2466SOL    HW218078   1.436   1.412   0.457  0.1765 -0.2119  0.2156
 2467SOL     OW18079   6.503   0.181   3.039 -0.1465 -0.1850  0.3023
 2467SOL    HW118080   6.586   0.141   3.003  1.5271  1.3048  2.3419
 2467SOL    HW218081   6.502   0.280   3.020 -1.1262 -0.0727  0.8511
 2468SOL     OW18082   1.034   0.006   2.703  0.4265  0.4716 -0.0297
 2468SOL    HW118083   1.062   0.039   2.794 -0.7701  1.5943 -0.0570
 2468SOL    HW218084   0.975  -0.073   2.713 -0.8266  1.4320  0.2287
 2469SOL     OW18085   3.746   4.210   4.582 -0.5651 -0.4013  0.2810
 2469SOL    HW118086   3.735   4.136   4.516  0.8548 -0.7766  0.4536
 2469SOL    HW218087   3.774   4.173   4.670 -0.5297  0.2834  0.5634
 2470SOL     OW18088   8.515   6.399   3.327  0.2968 -0.2459  0.1998
 2470SOL    HW118089   8.467   6.424   3.243 -0.7682  0.8353  1.1248
 2470SOL    HW218090   8.551   6.481   3.371  0.4642 -0.7572  1.0344
 2471SOL     OW18091   8.839   9.575   3.673  0.0767 -0.2311  0.1641
 2471SOL    HW118092   8.806   9.516   3.747  1.0115  0.0032  0.7724
 2471SOL    HW218093   8.922   9.536   3.634  0.0629  0.0959 -0.1941
 2472SOL     OW18094   8.711   3.750   0.702  0.3425 -0.7464  0.3902
 2472SOL    HW118095   8.784   3.758   0.634 -0.8190  2.4374 -0.5896
 2472SOL    HW218096   8.747   3.776   0.792  0.3602  1.2465 -0.1659
 2473SOL     OW18097   1.068   3.736   2.092 -0.1785  0.6820 -0.1592
 2473SOL    HW118098   1.088   3.681   2.012  0.5301  1.5698 -0.5910
 2473SOL    HW218099   0.969   3.748   2.100 -0.4567 -1.7378  0.6799
 2474SOL     OW18100   3.818   6.613   2.018 -0.3904 -0.0360  0.0311
 2474SOL    HW118101   3.720   6.633   2.024 -0.2916 -0.1906  3.1214
 2474SOL    HW218102   3.831   6.515   2.005 -0.6255 -0.0025 -0.4938
 2475SOL     OW18103   3.359   6.915   2.255  0.1071  0.3559  0.6065
 2475SOL    HW118104   3.380   6.906   2.157 -2.2260 -3.2529  0.3161
 2475SOL    HW218105   3.427   6.865   2.308  1.5343  2.5513  0.8922
 2476SOL     OW18106   8.903   5.643   1.832  0.1546 -0.4381 -0.3662
 2476SOL    HW118107   8.828   5.660   1.768 -1.4012 -1.6100  1.1019
 2476SOL    HW218108   8.879   5.679   1.922  1.3509 -0.8154  0.1125
 2477SOL     OW18109   0.425   5.117   3.049 -0.5829  0.1904  0.1331
 2477SOL    HW118110   0.371   5.035   3.065 -1.0755 -0.1109 -2.8374
 2477SOL    HW218111   0.367   5.188   3.008  0.3915  1.2068  0.4690
 2478SOL     OW18112   9.967   9.709   0.717 -0.7208  0.0174  0.1101
 2478SOL    HW118113   9.931   9.796   0.686  1.3577  1.4344  1.5269
 2478SOL    HW218114   9.918   9.680   0.799 -0.0583  0.8826  0.8180
 2479SOL     OW18115   2.444   0.881   1.747 -0.0325  0.2523 -0.3428
 2479SOL    HW118116   2.520   0.855   1.806 -0.8472  0.9642  1.0364
 2479SOL    HW218117   2.415   0.974   1.768 -1.3591 -0.0445 -0.7806
 2480SOL     OW18118   8.883   0.342   1.309 -0.2060  0.2866  0.2403
 2480SOL    HW118119   8.821   0.419   1.294 -0.2590  0.2817  0.4366
 2480SOL    HW218120   8.847   0.261   1.263  0.1094  0.5068 -0.4117
 2481SOL     OW18121   2.814   8.212   2.654  0.2884 -0.7162  0.2013
 2481SOL    HW118122   2.758   8.295   2.645  1.1170 -0.1969 -0.2907
 2481SOL    HW218123   2.757   8.136   2.684 -0.4600  0.0664  0.7837
 2482SOL     OW18124   9.201   7.335   4.336 -0.2745 -0.3345 -0.0033
 2482SOL    HW118125   9.160   7.300   4.252 -2.5372  0.1703  0.8594
 2482SOL    HW218126   9.174   7.431   4.348 -1.8774 -1.0550  2.4608
 2483SOL     OW18127   0.968   2.436   1.110 -0.1533  0.2985 -0.3988
 2483SOL    HW118128   0.989   2.532   1.089  0.2830  0.1307 -0.7409
 2483SOL    HW218129   1.007   2.412   1.198 -1.5848  0.8720  0.4075
 2484SOL     OW18130   1.532   8.493   3.824  0.1953  1.1839  0.4150
 2484SOL    HW118131   1.531   8.427   3.900  1.0825  0.4431 -0.2066
 2484SOL    HW218132   1.525   8.444   3.737  1.9245  1.8356 -0.0972
 2485SOL     OW18133   9.189   5.679   1.501  0.1947 -0.2959  0.2572
 2485SOL    HW118134   9.165   5.772   1.470 -1.3907 -0.6910  0.2344
 2485SOL    HW218135   9.288   5.671   1.508  0.3536  1.4163  0.2801
 2486SOL     OW18136   8.238   1.859   3.638  0.1868  0.3016 -0.1109
 2486SOL    HW118137   8.213   1.950   3.670  1.1007  0.5762 -0.1543
 2486SOL    HW218138   8.301   1.867   3.561 -0.7555 -0.3650 -0.9684
 2487SOL     OW18139   9.772   9.216   0.703 -0.2171 -0.1743  0.6676
 2487SOL    HW118140   9.793   9.295   0.645  1.8484 -1.2361 -0.0676
 2487SOL    HW218141   9.856   9.165   0.722 -1.5695 -2.3903  0.8334
 2488SOL     OW18142   1.342   9.520   2.661  0.2678  0.2257 -0.0098
 2488SOL    HW118143   1.285   9.574   2.722  0.1913  0.5893 -0.4064
 2488SOL    HW218144   1.411   9.579   2.618  0.8487 -0.1800  0.3544
 2489SOL     OW18145   2.683   8.964   1.014 -0.0872 -0.5348 -0.6576
 2489SOL    HW118146   2.767   8.936   1.060  0.6571  2.0220 -0.4179
 2489SOL    HW218147   2.634   9.030   1.071 -1.7966 -1.2701 -1.2215
 2490SOL     OW18148   4.528   0.991   2.728  0.1597 -0.0703 -0.6012
 2490SOL    HW118149   4.584   0.910   2.748  1.0949  0.5545 -0.6918
 2490SOL    HW218150   4.582   1.057   2.676 -0.7415  0.4322 -0.9112
 2491SOL     OW18151   9.891   3.426   3.405 -0.2674  0.6622  0.6005
 2491SOL    HW118152   9.814   3.485   3.378  0.1894  1.8388  1.7937
 2491SOL    HW218153   9.953   3.478   3.463  1.1258 -0.4702  0.1482
 2492SOL     OW18154   0.661   5.219   3.510 -0.5837  0.6853  0.1563
 2492SOL    HW118155   0.634   5.149   3.575 -0.3082  0.9657  0.5791
 2492SOL    HW218156   0.761   5.222   3.504 -0.6132  0.5420 -0.4086
 2493SOL     OW18157   9.128   5.577   3.708  0.2581  0.1484  0.0485
 2493SOL    HW118158   9.110   5.537   3.618 -1.4776 -1.0188  0.8756
 2493SOL    HW218159   9.086   5.668   3.712  0.1817  0.1295 -0.2680
 2494SOL     OW18160   9.104   2.663   0.477  0.0805  0.1196  0.2050
 2494SOL    HW118161   9.183   2.709   0.436 -1.1906  0.4232 -1.9759
 2494SOL    HW218162   9.109   2.671   0.577  2.0930  1.2736  0.0446
 2495SOL     OW18163   1.788   1.743   3.286  0.6693 -0.7809  0.3234
 2495SOL    HW118164   1.826   1.650   3.285 -0.3330 -1.2003 -0.3691
 2495SOL    HW218165   1.705   1.745   3.230  0.7799  0.5827  0.1896
 2496SOL     OW18166   1.414   8.441   2.535 -0.2638  0.1613  0.2785
 2496SOL    HW118167   1.498   8.447   2.481  0.1406  1.0465  1.0001
 2496SOL    HW218168   1.382   8.532   2.559 -2.0059 -0.1246 -0.8354
 2497SOL     OW18169   5.331   9.483   3.938 -0.5161  0.0616  0.2934
 2497SOL    HW118170   5.339   9.388   3.907  1.0077  0.1076  0.5478
 2497SOL    HW218171   5.271   9.533   3.875 -1.2638 -1.0328  0.1074
 2498SOL     OW18172   1.919   4.833   3.322  0.2203  0.3396  0.5465
 2498SOL    HW118173   1.906   4.930   3.341 -2.6826 -0.0647  0.7537
 2498SOL    HW218174   1.935   4.784   3.408 -0.8656  0.2752  0.7173
 2499SOL     OW18175   1.812   2.610   1.837 -0.3061  0.0005  0.1808
 2499SOL    HW118176   1.837   2.515   1.854 -1.4899 -0.6856 -1.7260
 2499SOL    HW218177   1.880   2.653   1.778  1.1294  0.8757  2.4122
 2500SOL     OW18178   4.326   4.824   1.232  0.5153 -0.1630 -0.1648
 2500SOL    HW118179   4.302   4.772   1.314 -0.9893  0.5494 -0.1249
 2500SOL    HW218180   4.424   4.818   1.216  0.9206  0.1075  1.9880
 2501SOL     OW18181   4.259   0.971   1.355 -0.0582  0.0429  0.0160
 2501SOL    HW118182   4.284   0.891   1.409 -0.9528  0.1705  0.6299
 2501SOL    HW218183   4.162   0.966   1.331 -0.0638  0.8315 -0.1284
 2502SOL     OW18184   7.535   7.488   2.775 -0.1666 -0.3938 -0.2047
 2502SOL    HW118185   7.564   7.423   2.705 -1.6757 -0.6657 -0.5917
 2502SOL    HW218186   7.595   7.568   2.773  0.0194 -0.5538 -1.5738
 2503SOL     OW18187   3.422   1.511   2.600 -0.2880  0.0359  0.0181
 2503SOL    HW118188   3.479   1.586   2.634 -1.5409  0.5364  1.0638
 2503SOL    HW218189   3.423   1.437   2.666  0.2514 -0.5247 -0.6137
 2504SOL     OW18190   9.123   6.923   3.530 -0.5233  0.0842 -0.3566
 2504SOL    HW118191   9.034   6.888   3.503  0.0969 -0.9305 -1.1319
 2504SOL    HW218192   9.174   6.852   3.578  0.6079  0.0215 -1.6189
 2505SOL     OW18193   1.026   0.591   2.835  0.2122 -0.4424 -0.1596
 2505SOL    HW118194   0.975   0.515   2.874  0.3774 -1.5525 -2.0401
 2505SOL    HW218195   1.124   0.573   2.838  0.6178  1.7879  3.6457
 2506SOL     OW18196   4.092   1.723   1.602  0.5594  0.2294  0.4142
 2506SOL    HW118197   4.032   1.781   1.546  1.7258  0.2571 -0.8350
 2506SOL    HW218198   4.143   1.781   1.666  0.3640  0.3775  0.4368
 2507SOL     OW18199   8.394   8.434   0.843 -0.0638  0.7699 -0.9036
 2507SOL    HW118200   8.340   8.491   0.780 -0.1081  0.8098 -0.8288
 2507SOL    HW218201   8.477   8.483   0.870  1.5997 -0.5194 -3.4842
 2508SOL     OW18202   3.231   2.603   4.530 -0.2274  0.0470  0.0298
 2508SOL    HW118203   3.301   2.658   4.576 -1.4964 -0.3470  2.5130
 2508SOL    HW218204   3.232   2.510   4.567 -1.9877  0.0191  0.0210
 2509SOL     OW18205   3.514   1.783   0.376 -0.3195 -0.2303 -0.4365
 2509SOL    HW118206   3.550   1.698   0.338 -0.1308 -1.1107  1.6218
 2509SOL    HW218207   3.419   1.769   0.405 -0.1667  0.1258  0.2636
 2510SOL     OW18208   0.314   2.268   1.295  0.0428 -0.0611  0.6997
 2510SOL    HW118209   0.364   2.319   1.225  0.0412  0.1184  0.8292
 2510SOL    HW218210   0.282   2.181   1.257 -0.8951  0.5180  0.1576
 2511SOL     OW18211   4.378   9.598   3.857  0.0220  0.0545 -0.1404
 2511SOL    HW118212   4.398   9.661   3.932 -1.9590  0.8707 -0.2905
 2511SOL    HW218213   4.435   9.622   3.778  1.9238 -0.6398  0.9736
 2512SOL     OW18214   1.650   2.676   3.434 -0.1706  0.3576 -0.0159
 2512SOL    HW118215   1.632   2.578   3.434 -0.5898  0.4217  1.7010
 2512SOL    HW218216   1.588   2.722   3.370 -1.3012 -0.2533  0.6436
 2513SOL     OW18217   0.452   6.474   3.854  0.4290  0.4674 -0.1357
 2513SOL    HW118218   0.493   6.394   3.811 -0.9741 -0.9270  1.0347
 2513SOL    HW218219   0.355   6.479   3.830  0.4031  1.5668  0.1604
 2514SOL     OW18220   1.644   0.252   3.970  0.0471 -0.5928 -0.0953
 2514SOL    HW118221   1.617   0.199   3.890  0.7656 -1.9403  0.5318
 2514SOL    HW218222   1.744   0.253   3.977  0.1636  2.7260 -1.3221
 2515SOL     OW18223   1.316   5.890   1.276  0.4262 -0.1017  0.0193
 2515SOL    HW118224   1.289   5.798   1.307  2.2736 -0.1967  1.4338
 2515SOL    HW218225   1.310   5.954   1.352 -0.5818  0.9150 -0.8980
 2516SOL     OW18226   9.919   1.158   3.685 -0.0185  0.3227  0.3065
 2516SOL    HW118227   9.964   1.099   3.753 -0.5254 -1.8027 -1.1661
 2516SOL    HW218228   9.837   1.198   3.726  0.1099 -0.2957  1.1943
 2517SOL     OW18229   8.781   4.793   1.315  0.2543  0.2999  0.5919
 2517SOL    HW118230   8.733   4.706   1.299  0.2503  0.1653  1.3197
 2517SOL    HW218231   8.732   4.867   1.268 -0.4433  0.1026  1.0074
 2518SOL     OW18232   2.287   0.925   4.398  0.5872 -0.3546  0.3281
 2518SOL    HW118233   2.273   0.985   4.319  0.5037  1.2454  1.5388
 2518SOL    HW218234   2.236   0.841   4.384  2.4841 -1.1322 -2.4129
 2519SOL     OW18235   1.089   8.184   2.687  0.0004  0.3057 -0.0711
 2519SOL    HW118236   1.146   8.121   2.636 -0.5696 -0.9279  0.7845
 2519SOL    HW218237   1.055   8.256   2.626 -1.3875 -1.6297 -1.6556
 2520SOL     OW18238   4.028   8.015   2.865 -0.4184  0.2779  0.1390
 2520SOL    HW118239   4.002   8.050   2.775  3.5836 -3.3723 -2.6644
 2520SOL    HW218240   3.953   7.962   2.903 -2.1512  1.8182 -1.0239
 2521SOL     OW18241   1.886   7.411   0.968 -0.4325 -0.0180  0.2652
 2521SOL    HW118242   1.861   7.436   1.061 -0.3141  2.5541 -0.3536
 2521SOL    HW218243   1.807   7.425   0.907  0.1765  0.5266 -0.4000
 2522SOL     OW18244   5.920   6.768   2.382 -0.1210 -0.1746 -0.6258
 2522SOL    HW118245   6.014   6.740   2.364 -0.2790 -1.8697  1.0331
 2522SOL    HW218246   5.857   6.697   2.349 -0.6041 -1.0656  2.0882
 2523SOL     OW18247   8.408   0.491   3.762  0.4976  0.1182  0.0610
 2523SOL    HW118248   8.382   0.401   3.795  2.7319 -0.1962  1.0296
 2523SOL    HW218249   8.325   0.546   3.746 -0.8342 -1.8199  0.1907
 2524SOL     OW18250   7.982   4.632   0.138 -0.2994 -0.9775 -0.0194
 2524SOL    HW118251   7.971   4.730   0.123  0.9944 -1.0826 -1.7380
 2524SOL    HW218252   7.893   4.587   0.130 -0.5623 -0.2235 -1.3846
 2525SOL     OW18253   4.787   0.082   2.160  0.1394  0.3486 -0.4815
 2525SOL    HW118254   4.835  -0.000   2.190  1.3246  1.1657 -0.0978
 2525SOL    HW218255   4.757   0.071   2.065 -0.6537 -0.9351 -0.0867
 2526SOL     OW18256   1.344   4.832   4.685 -0.3592 -0.3092  0.0356
 2526SOL    HW118257   1.247   4.856   4.681 -0.2772  0.3247  1.5674
 2526SOL    HW218258   1.395   4.888   4.619 -0.7874  0.6728  0.5228
 2527SOL     OW18259   2.959   3.648   4.679  0.4154  0.7956  0.3239
 2527SOL    HW118260   2.976   3.550   4.688  1.5916  0.8453 -1.1160
 2527SOL    HW218261   2.863   3.667   4.701 -0.1987 -0.8802 -0.7503
 2528SOL     OW18262   3.829   2.075   3.158  0.4853 -0.2368 -0.5401
 2528SOL    HW118263   3.815   1.988   3.112 -0.3155  0.3267 -1.3783
 2528SOL    HW218264   3.847   2.059   3.255  0.1953 -1.3185 -0.6611
 2529SOL     OW18265   7.457   7.953   2.859  0.2940 -0.2854 -0.2910
 2529SOL    HW118266   7.419   8.046   2.863  1.5237  0.1936  0.6309
 2529SOL    HW218267   7.551   7.954   2.894  0.5562 -1.7582 -0.9247
 2530SOL     OW18268   1.563   2.540   3.130 -0.3460  0.4087 -0.5595
 2530SOL    HW118269   1.511   2.576   3.207  0.2404 -0.4090  0.2296
 2530SOL    HW218270   1.503   2.532   3.050 -0.9779  1.1649 -0.1647
 2531SOL     OW18271   9.670   9.721   4.421 -0.0197 -0.2154  0.5968
 2531SOL    HW118272   9.754   9.726   4.474  1.1473 -1.6977 -1.0672
 2531SOL    HW218273   9.638   9.626   4.418 -1.1534  0.1687  0.2935
 2532SOL     OW18274   3.658   0.363   0.886  0.5105 -0.0373 -0.4238
 2532SOL    HW118275   3.636   0.267   0.872  0.0459  0.3432 -2.3375
 2532SOL    HW218276   3.727   0.371   0.958  1.4080 -1.8750 -1.0619
 2533SOL     OW18277   2.610   0.109   0.069 -0.0166  0.4239 -0.0886
 2533SOL    HW118278   2.559   0.152   0.143  0.2025 -1.3535  1.1200
 2533SOL    HW218279   2.642   0.179   0.005 -2.7569  1.7036 -0.1298
 2534SOL     OW18280   3.031   1.697   2.654 -0.9225  0.0139 -0.2416
 2534SOL    HW118281   3.027   1.778   2.712 -3.4945 -0.2328 -0.0249
 2534SOL    HW218282   3.070   1.621   2.705 -0.4149  0.5603  0.1975
 2535SOL     OW18283   8.609   2.953   4.484 -0.5296  0.0161 -0.5300
 2535SOL    HW118284   8.595   2.903   4.569  2.2883  0.0468  0.0007
 2535SOL    HW218285   8.626   2.888   4.410  0.5219  0.1076 -0.3668
 2536SOL     OW18286   0.865   4.984   0.048 -0.2697 -0.0527 -0.3321
 2536SOL    HW118287   0.787   4.943   0.001 -1.2267 -0.2018  1.3413
 2536SOL    HW218288   0.866   5.083   0.034 -1.7323  0.1662  1.0017
 2537SOL     OW18289   3.558   2.692   1.663  0.3129  0.1923 -0.5626
 2537SOL    HW118290   3.482   2.755   1.676 -0.7277 -0.8614 -1.3271
 2537SOL    HW218291   3.531   2.600   1.692  0.6606 -0.5536 -2.4918
 2538SOL     OW18292   3.824   8.979   2.121  0.5015 -0.3818 -0.1188
 2538SOL    HW118293   3.834   8.967   2.220 -0.0935 -0.3112 -0.0464
 2538SOL    HW218294   3.727   8.973   2.097  0.4884  1.1353 -0.4877
 2539SOL     OW18295   2.028   3.227   1.507 -0.1436  0.1379  0.3545
 2539SOL    HW118296   2.111   3.243   1.454 -0.4934 -0.4609 -0.3787
 2539SOL    HW218297   1.972   3.309   1.506 -0.0440  0.2035 -0.0129
 2540SOL     OW18298   3.694   7.840   2.296  0.1345  0.0636  0.0648
 2540SOL    HW118299   3.715   7.831   2.393 -1.9022 -2.8133  0.3282
 2540SOL    HW218300   3.600   7.873   2.285  0.1013 -0.3105 -0.8911
 2541SOL     OW18301   9.403   4.840   4.165 -1.0257  0.2090  0.0938
 2541SOL    HW118302   9.448   4.786   4.237 -1.7711  0.4541  0.7420
 2541SOL    HW218303   9.426   4.801   4.076 -0.4648 -0.3692  0.4835
 2542SOL     OW18304   3.787   7.685   3.817 -0.2608  0.3840 -0.6282
 2542SOL    HW118305   3.877   7.653   3.787 -0.2962 -0.9331  0.6087
 2542SOL    HW218306   3.720   7.612   3.806 -1.0534  1.1550 -0.9616
 2543SOL     OW18307   0.100   1.473   0.866 -0.1291 -0.8629  0.3435
 2543SOL    HW118308   0.125   1.451   0.772  0.4125 -0.7074  0.4489
 2543SOL    HW218309   0.003   1.498   0.870  0.2790  0.9626 -0.4856
 2544SOL     OW18310   2.598   0.482   0.799 -0.5056 -0.0275 -0.0086
 2544SOL    HW118311   2.597   0.524   0.708  1.4348  2.0265  0.8678
 2544SOL    HW218312   2.536   0.531   0.860  1.2232  1.1427  0.8302
 2545SOL     OW18313   1.726   8.218   0.279  0.0301  0.1865  0.2659
 2545SOL    HW118314   1.704   8.224   0.377 -1.2685 -0.5323  0.0310
 2545SOL    HW218315   1.804   8.157   0.266 -1.7166 -2.1984  0.6148
 2546SOL     OW18316   0.583   9.525   4.317 -0.3538 -0.2838  0.0669
 2546SOL    HW118317   0.498   9.477   4.297  0.7646 -1.7555 -1.4073
 2546SOL    HW218318   0.660   9.464   4.296  1.0817  1.5423 -0.0755
 2547SOL     OW18319   0.384   1.819   4.746  0.1850 -0.1650 -0.4644
 2547SOL    HW118320   0.442   1.850   4.671  0.1828 -1.0721 -0.8537
 2547SOL    HW218321   0.405   1.723   4.767  1.0142  0.4262  1.4939
 2548SOL     OW18322   8.666   8.069   0.778  0.0194 -0.6942  0.0607
 2548SOL    HW118323   8.635   8.007   0.705 -0.6896 -0.3638  0.0785
 2548SOL    HW218324   8.718   8.017   0.845  0.2420 -1.0980 -0.4198
 2549SOL     OW18325   8.263   1.348   2.903  0.0550  0.6267  0.2694
 2549SOL    HW118326   8.308   1.261   2.923  0.2559  0.8742  0.9085
 2549SOL    HW218327   8.184   1.332   2.844 -0.1342 -0.0371  0.6977
 2550SOL     OW18328   3.927   9.800   3.296  0.1875  0.9053  0.2691
 2550SOL    HW118329   3.948   9.703   3.308  0.6216  1.1308  1.3710
 2550SOL    HW218330   3.996   9.841   3.236  0.2162  0.6162  0.1013
 2551SOL     OW18331   3.195   8.459   4.316 -0.0269 -0.7550 -0.3988
 2551SOL    HW118332   3.191   8.558   4.329  0.7321 -0.6319 -1.0501
 2551SOL    HW218333   3.281   8.424   4.353 -0.3946 -1.2060  0.0335
 2552SOL     OW18334   2.894   9.456   0.759 -0.0609  0.7158  0.1375
 2552SOL    HW118335   2.831   9.481   0.685 -0.3776  1.9788  0.8327
 2552SOL    HW218336   2.861   9.372   0.803  0.5471 -0.5030 -1.6360
 2553SOL     OW18337   2.988   5.829   3.714 -0.1634  0.2138  0.1428
 2553SOL    HW118338   2.891   5.844   3.697  0.3519  0.6825 -2.7276
 2553SOL    HW218339   3.029   5.913   3.751 -0.5824  0.4391  0.0927
 2554SOL     OW18340   3.460   9.872   1.562  0.6768 -0.0758  0.1456
 2554SOL    HW118341   3.495   9.799   1.621  0.1223 -0.1162  0.4232
 2554SOL    HW218342   3.376   9.842   1.517  0.4109  0.4171  0.3100
 2555SOL     OW18343   5.481   9.284   1.753 -0.1638 -0.4659 -0.0008
 2555SOL    HW118344   5.545   9.207   1.762 -0.6093 -0.8821 -0.3478
 2555SOL    HW218345   5.478   9.313   1.657  0.3299  0.2726  0.2030
 2556SOL     OW18346   4.040   0.547   4.461 -0.5519  0.4608 -0.2342
 2556SOL    HW118347   3.940   0.554   4.459 -0.4651  1.7239 -0.0598
 2556SOL    HW218348   4.072   0.514   4.372 -1.0473  1.0190 -0.6196
 2557SOL     OW18349   0.390   5.345   1.329 -0.3642  0.2269  0.2767
 2557SOL    HW118350   0.444   5.429   1.319  0.0371  0.0737  1.1039
 2557SOL    HW218351   0.302   5.366   1.371 -0.5583  0.3364 -0.1812
 2558SOL     OW18352   2.243   0.136   2.250 -0.0756  0.6121 -0.8184
 2558SOL    HW118353   2.151   0.133   2.289  0.4217 -0.1879  0.3372
 2558SOL    HW218354   2.263   0.048   2.207  2.1820 -1.2974  3.8112
 2559SOL     OW18355   7.846   8.092   4.048 -0.1087  0.0734 -0.0994
 2559SOL    HW118356   7.807   8.156   4.113  0.9000  0.0489  0.5431
 2559SOL    HW218357   7.939   8.121   4.024 -0.0138 -0.5917 -0.5695
 2560SOL     OW18358   0.356   8.701   2.847  0.2482 -0.1346  0.2681
 2560SOL    HW118359   0.291   8.668   2.916 -0.9033 -1.6103 -1.4660
 2560SOL    HW218360   0.447   8.666   2.868 -0.6900 -3.4118 -0.7375
 2561SOL     OW18361   4.336   0.813   1.743 -0.5000  0.3735  0.1440
 2561SOL    HW118362   4.251   0.847   1.785 -1.0529 -0.1132 -0.5692
 2561SOL    HW218363   4.406   0.884   1.749 -0.9623  0.7899  0.7239
 2562SOL     OW18364   2.756   0.711   1.387  0.1004  0.5200  0.3022
 2562SOL    HW118365   2.838   0.665   1.421 -0.4131 -1.6686 -1.2669
 2562SOL    HW218366   2.684   0.706   1.456  0.6672  0.6927  0.9077
 2563SOL     OW18367   2.643   4.156   3.806  0.0528  0.4599  0.4704
 2563SOL    HW118368   2.737   4.138   3.778 -0.5469 -0.7959 -0.7700
 2563SOL    HW218369   2.580   4.118   3.739 -1.3702 -0.0122  2.0225
 2564SOL     OW18370   3.030   6.526   2.013 -0.3595 -0.6483  0.4376
 2564SOL    HW118371   3.050   6.596   1.944 -0.6024 -2.3691 -1.4219
 2564SOL    HW218372   2.966   6.563   2.080 -0.2891  0.9928 -0.3621
 2565SOL     OW18373   1.068   2.128   4.124 -0.4228  0.3035  0.3908
 2565SOL    HW118374   1.148   2.069   4.115 -0.6906  0.0589 -0.4219
 2565SOL    HW218375   1.021   2.134   4.036  0.4291  2.8845  0.0616
 2566SOL     OW18376   0.134   9.465   4.123 -0.2468 -0.0322 -0.5279
 2566SOL    HW118377   0.145   9.457   4.222 -2.4484 -0.6411 -0.3230
 2566SOL    HW218378   0.134   9.374   4.081  0.5746  0.2172 -1.0910
 2567SOL     OW18379   3.161   5.371   1.305  0.5130  0.3147 -0.2745
 2567SOL    HW118380   3.071   5.329   1.311  1.0112 -0.7836 -0.4599
 2567SOL    HW218381   3.165   5.450   1.367 -0.4260  0.1171  0.0449
 2568SOL     OW18382   1.716   2.267   1.782 -0.3320 -0.1900 -0.4746
 2568SOL    HW118383   1.632   2.229   1.820 -1.7247  0.9118 -2.3787
 2568SOL    HW218384   1.785   2.195   1.775 -0.5169 -0.7298  2.6758
 2569SOL     OW18385   4.140   7.724   1.125  0.1897 -0.0971  0.2878
 2569SOL    HW118386   4.198   7.651   1.088  0.6180  1.1445 -1.5908
 2569SOL    HW218387   4.146   7.804   1.065 -1.3241  1.0112  1.5854
 2570SOL     OW18388   5.296   4.616   1.158  0.1711  0.2539 -0.1346
 2570SOL    HW118389   5.258   4.702   1.191 -0.2200  0.0112  0.0460
 2570SOL    HW218390   5.393   4.628   1.136  0.4668  0.3814  1.2052
 2571SOL     OW18391   5.919   8.665   2.641 -0.0072 -0.7018 -0.5022
 2571SOL    HW118392   5.960   8.692   2.728 -2.4268 -1.7515  1.0295
 2571SOL    HW218393   5.929   8.740   2.576  1.7062  0.1715  0.7125
 2572SOL     OW18394   2.245   6.122   1.564 -0.2457 -0.1031 -0.3476
 2572SOL    HW118395   2.342   6.113   1.584 -0.1934  1.1010  0.0121
 2572SOL    HW218396   2.230   6.119   1.465  0.2954  0.8629 -0.4661
 2573SOL     OW18397   2.621   3.705   1.721 -0.1536 -0.3020  0.0646
 2573SOL    HW118398   2.527   3.736   1.711  0.0425  0.6798  1.0698
 2573SOL    HW218399   2.643   3.698   1.819  0.7489 -0.7016 -0.1640
 2574SOL     OW18400   8.213   3.669   3.082 -0.3528 -0.5336  0.0477
 2574SOL    HW118401   8.299   3.625   3.058  0.2834  1.4144 -1.4022
 2574SOL    HW218402   8.184   3.730   3.007 -0.4620  2.5694  2.4964
 2575SOL     OW18403   0.029   1.064   4.135 -0.4330 -0.3036  0.1538
 2575SOL    HW118404   0.024   1.149   4.082  0.6043 -0.6307 -0.4790
 2575SOL    HW218405   0.002   1.083   4.229  1.0053  1.0189  0.3290
 2576SOL     OW18406   9.401   0.920   4.627 -0.1818  0.4629 -0.4624
 2576SOL    HW118407   9.374   0.880   4.715 -1.0105  0.9166 -0.5071
 2576SOL    HW218408   9.458   1.000   4.644  1.8628 -0.9607 -0.3769
 2577SOL     OW18409   2.786   1.080   3.826 -0.5414 -0.1067 -0.9397
 2577SOL    HW118410   2.713   1.058   3.761 -0.8144 -1.6911 -0.1342
 2577SOL    HW218411   2.777   1.021   3.907  0.0413  1.5220  0.3503
 2578SOL     OW18412   4.444   0.680   4.036  0.5637  0.3914  0.0514
 2578SOL    HW118413   4.371   0.749   4.036  0.1488 -0.0322  1.2737
 2578SOL    HW218414   4.464   0.652   3.942 -1.8808 -0.5814 -0.2090
 2579SOL     OW18415   3.659   8.604   1.642 -0.5701  0.0245 -0.5267
 2579SOL    HW118416   3.564   8.630   1.629  0.0207  1.6244 -1.7369
 2579SOL    HW218417   3.674   8.578   1.738 -2.0831  0.2677 -0.2204
 2580SOL     OW18418   2.412   6.282   2.510 -0.5225 -0.3211 -0.2057
 2580SOL    HW118419   2.404   6.232   2.595  0.7819  0.2264  0.2513
 2580SOL    HW218420   2.498   6.334   2.509 -0.9668  0.4299 -1.4411
 2581SOL     OW18421   1.861   5.150   2.417  0.2699  0.2040  0.0103
 2581SOL    HW118422   1.873   5.161   2.516  0.1413  0.5501 -0.0129
 2581SOL    HW218423   1.931   5.087   2.382 -1.4613 -2.2481  0.7934
 2582SOL     OW18424   5.316   9.657   1.997  0.5455 -0.3283  0.4690
 2582SOL    HW118425   5.389   9.656   2.065  0.9830  1.1397  0.0421
 2582SOL    HW218426   5.354   9.636   1.907  0.2353 -0.7809  0.4447
 2583SOL     OW18427   8.891   6.775   2.573  0.2320 -0.6396 -0.1417
 2583SOL    HW118428   8.841   6.823   2.646 -1.8204  0.0077 -1.9262
 2583SOL    HW218429   8.949   6.840   2.524 -0.0444 -0.6420 -0.4699
 2584SOL     OW18430   2.850   7.762   1.995 -0.3463 -0.4826  0.1122
 2584SOL    HW118431   2.792   7.807   1.927  0.1649  0.5629  0.3651
 2584SOL    HW218432   2.813   7.671   2.015 -0.8114 -0.5802 -1.1548
 2585SOL     OW18433   9.939   2.324   4.634  0.0142 -0.2414 -0.4504
 2585SOL    HW118434   9.935   2.225   4.652  0.5596 -0.3029 -0.6598
 2585SOL    HW218435   9.995   2.340   4.553  0.3495  0.2801 -0.1129
 2586SOL     OW18436   0.451   7.391   0.151 -0.2986 -0.2766 -0.2119
 2586SOL    HW118437   0.483   7.317   0.211  0.5123 -0.7278 -1.1749
 2586SOL    HW218438   0.386   7.448   0.200 -3.4106 -3.4993 -0.4426
 2587SOL     OW18439   1.629   0.876   3.023 -0.6151 -0.3309 -0.1482
 2587SOL    HW118440   1.666   0.870   2.930  0.6242 -2.6195  0.4471
 2587SOL    HW218441   1.641   0.968   3.059  1.0646 -0.0619 -1.3716
 2588SOL     OW18442   4.865   8.198   2.852 -0.5086  0.3758 -0.3606
 2588SOL    HW118443   4.945   8.159   2.897  0.3595  2.4505 -0.0378
 2588SOL    HW218444   4.862   8.166   2.757  0.5816  0.1202 -0.3163
 2589SOL     OW18445   9.880   7.275   4.025 -0.2954 -0.2458  0.0035
 2589SOL    HW118446   9.822   7.332   4.083  0.3639  0.0745  0.3598
 2589SOL    HW218447   9.831   7.192   4.000 -0.9080  0.0232  0.2928
 2590SOL     OW18448   4.942   7.040   3.225  0.1769 -0.3416 -0.0029
 2590SOL    HW118449   4.981   7.097   3.297 -1.1192  0.6475 -0.0627
 2590SOL    HW218450   5.007   7.032   3.149  0.3323  1.1226 -0.0273
 2591SOL     OW18451   7.175   7.289   1.423  0.0622  0.5062  0.5536
 2591SOL    HW118452   7.143   7.365   1.366  1.8091  0.9114  0.0812
 2591SOL    HW218453   7.161   7.312   1.519 -1.8092  0.3176  0.3441
 2592SOL     OW18454   8.120   2.946   2.346 -0.0728 -0.0669  0.2681
 2592SOL    HW118455   8.020   2.950   2.343 -0.0965 -1.2535 -1.3010
 2592SOL    HW218456   8.157   3.013   2.281  0.1364 -0.4480 -0.0011
 2593SOL     OW18457   1.064   8.208   1.432 -0.0344  0.1941  0.6989
 2593SOL    HW118458   1.049   8.182   1.527  1.6378 -0.3073  0.8406
 2593SOL    HW218459   1.142   8.157   1.396 -1.5966 -0.7723 -1.4097
 2594SOL     OW18460   7.351   9.215   1.245  0.0536 -0.1644 -0.2849
 2594SOL    HW118461   7.255   9.199   1.225  0.2162  1.6810 -2.7018
 2594SOL    HW218462   7.378   9.159   1.324 -2.1255 -3.2286 -1.5929
 2595SOL     OW18463   1.649   4.763   1.503  0.1915  0.0002 -0.4654
 2595SOL    HW118464   1.706   4.685   1.529 -1.2940 -0.7443  0.6735
 2595SOL    HW218465   1.676   4.844   1.556  0.8246 -0.1051 -0.6331
 2596SOL     OW18466   9.142   9.072   3.613 -0.6348 -0.2793  0.1712
 2596SOL    HW118467   9.129   9.089   3.515  0.3901 -0.8708 -0.0739
 2596SOL    HW218468   9.225   9.017   3.627 -0.2862  0.5298  1.4276
 2597SOL     OW18469   1.089   2.351   3.827 -0.0398 -0.5124 -0.0809
 2597SOL    HW118470   1.099   2.405   3.743 -1.5483  2.1875  1.3851
 2597SOL    HW218471   1.165   2.372   3.888 -1.2316  0.9249  0.9615
 2598SOL     OW18472   2.921   3.656   3.012  0.0230 -0.2057 -0.0544
 2598SOL    HW118473   3.006   3.608   2.992 -0.1598 -0.5556  0.0037
 2598SOL    HW218474   2.941   3.747   3.048  0.3687 -0.1105 -0.4821
 2599SOL     OW18475   4.410   1.025   2.446  0.0095  0.5066  0.1451
 2599SOL    HW118476   4.440   1.037   2.540  1.2021  1.9825 -0.4109
 2599SOL    HW218477   4.480   0.976   2.395  0.3432  1.6551 -0.5112
 2600SOL     OW18478   3.076   7.455   2.160  0.1647  0.7126 -0.5227
 2600SOL    HW118479   3.138   7.409   2.096  1.3111 -0.5309  1.4330
 2600SOL    HW218480   3.108   7.549   2.174  0.0333  0.9288 -1.5817
 2601SOL     OW18481   9.966   0.414   2.054 -0.2336  0.4200 -0.1798
 2601SOL    HW118482   9.873   0.448   2.038 -0.0848  0.2845 -1.3221
 2601SOL    HW218483   9.976   0.323   2.014  0.1145  0.0420  0.7588
 2602SOL     OW18484   7.457   7.237   1.391 -0.5441  0.0776  0.4236
 2602SOL    HW118485   7.361   7.215   1.373 -0.1226 -0.7059 -1.0146
 2602SOL    HW218486   7.485   7.196   1.478 -1.3844 -0.0728  0.6281
 2603SOL     OW18487   1.029   5.898   3.021  0.2916  0.4116  0.2385
 2603SOL    HW118488   1.047   5.978   2.962 -0.0215  0.8974  0.7978
 2603SOL    HW218489   0.930   5.881   3.024  0.2826  0.5642  0.8517
 2604SOL     OW18490   3.263   8.386   3.879 -0.7165  0.1308 -0.3743
 2604SOL    HW118491   3.190   8.448   3.851  0.3775  0.7677 -1.9047
 2604SOL    HW218492   3.347   8.439   3.895 -0.2346 -0.7467  0.0663
 2605SOL     OW18493   1.560   1.139   4.684 -0.4688 -0.1066  0.2862
 2605SOL    HW118494   1.654   1.106   4.683 -1.2142 -2.2699  0.0872
 2605SOL    HW218495   1.553   1.218   4.746  1.6534  0.7110 -0.4709
 2606SOL     OW18496   7.632   9.592   1.075  0.5456 -0.2910 -0.0566
 2606SOL    HW118497   7.678   9.524   1.132  0.5165 -1.4291 -1.3822
 2606SOL    HW218498   7.572   9.546   1.010  1.5060  0.9478 -1.8398
 2607SOL     OW18499   5.173   2.366   1.771  0.5525 -0.1798 -0.2490
 2607SOL    HW118500   5.128   2.346   1.858 -1.2969  2.2971 -0.5997
 2607SOL    HW218501   5.148   2.458   1.740  2.7290 -0.2659 -2.4497
 2608SOL     OW18502   4.585   2.114   1.687 -0.1483  0.1362 -0.4274
 2608SOL    HW118503   4.573   2.183   1.616 -0.4451 -0.2538 -0.7567
 2608SOL    HW218504   4.679   2.119   1.722 -0.0694  0.4821 -0.6823
 2609SOL     OW18505   7.651   2.070   0.442  0.1255  0.1975  0.6671
 2609SOL    HW118506   7.594   2.127   0.383  1.2652  0.8988  0.2290
 2609SOL    HW218507   7.710   2.129   0.497  1.7578 -0.5678 -0.2365
 2610SOL     OW18508   0.792   1.323   1.344  0.3321 -0.2888 -0.5699
 2610SOL    HW118509   0.750   1.407   1.379 -0.9364 -0.7730 -0.9207
 2610SOL    HW218510   0.785   1.251   1.414  0.4076 -0.4254 -0.7030
 2611SOL     OW18511   9.871   1.560   1.109 -0.1232  0.0525  0.2684
 2611SOL    HW118512   9.912   1.609   1.033 -0.7520  2.4823  1.4530
 2611SOL    HW218513   9.823   1.479   1.075  2.7680 -1.0149 -1.4779
 2612SOL     OW18514   1.595   8.197   3.127  0.2803 -0.2842  0.1596
 2612SOL    HW118515   1.596   8.297   3.120 -3.1294 -0.2133  0.0146
 2612SOL    HW218516   1.623   8.158   3.039 -2.5743  0.6151 -1.2238
 2613SOL     OW18517   7.646   0.904   2.419  0.3241  0.6257  0.0527
 2613SOL    HW118518   7.732   0.880   2.374 -0.0854  0.2456 -0.5352
 2613SOL    HW218519   7.659   0.903   2.518  0.6673 -0.7444  0.0069
 2614SOL     OW18520   7.990   8.124   2.340 -0.9907 -0.4251  0.3090
 2614SOL    HW118521   8.064   8.191   2.339  0.2386 -1.7670 -0.1696
 2614SOL    HW218522   7.964   8.103   2.246 -2.9889  1.0962  0.4814
 2615SOL     OW18523   9.566   0.468   1.023  0.0587  0.1922 -0.1553
 2615SOL    HW118524   9.657   0.427   1.020 -1.0974 -2.4308 -0.4968
 2615SOL    HW218525   9.496   0.396   1.018 -2.0476  2.1933 -0.4889
 2616SOL     OW18526   8.106   7.116   2.395 -0.3739  0.4432  0.2810
 2616SOL    HW118527   8.160   7.108   2.311 -3.0557 -2.1461 -1.2867
 2616SOL    HW218528   8.166   7.142   2.471  2.7531 -0.7013 -1.6888
 2617SOL     OW18529   0.328   3.833   0.596  0.3869 -0.4839 -0.5079
 2617SOL    HW118530   0.283   3.864   0.679  1.3528  1.4640 -0.6621
 2617SOL    HW218531   0.295   3.886   0.518  0.5007 -1.3385 -1.1467
 2618SOL     OW18532   2.809   2.007   4.626 -0.5146  0.3670  0.2175
 2618SOL    HW118533   2.854   1.924   4.661  1.1319  2.1049  2.3493
 2618SOL    HW218534   2.845   2.087   4.674 -2.7155  2.2569 -1.2027
 2619SOL     OW18535   3.390   5.104   2.257  0.3204  0.5522  0.3290
 2619SOL    HW118536   3.378   5.098   2.356  1.4566 -1.2262  0.3769
 2619SOL    HW218537   3.372   5.015   2.215  0.3461  1.1594 -1.0056
 2620SOL     OW18538   9.526   7.789   3.586 -0.0964 -0.4787  0.0622
 2620SOL    HW118539   9.592   7.838   3.642  0.9575  0.6466 -2.0961
 2620SOL    HW218540   9.569   7.708   3.547 -0.6519 -0.9446  0.4072
 2621SOL     OW18541   1.622   3.803   3.629  0.1217  0.5255  0.3154
 2621SOL    HW118542   1.614   3.883   3.569 -0.1574  1.0914  1.1048
 2621SOL    HW218543   1.659   3.830   3.717 -1.6288  0.1014  1.2106
 2622SOL     OW18544   3.084   7.541   3.258  0.5867  0.0054 -0.5846
 2622SOL    HW118545   3.070   7.480   3.336 -0.7565  2.8567  1.5246
 2622SOL    HW218546   2.997   7.559   3.214  1.1023 -0.3002 -1.7370
 2623SOL     OW18547   3.214   5.848   0.092  0.2964  0.1310  0.4530
 2623SOL    HW118548   3.122   5.812   0.078  0.3612  0.1829 -0.0974
 2623SOL    HW218549   3.210   5.948   0.098  0.3326  0.1436  0.2820
 2624SOL     OW18550   8.494   2.460   0.896  0.1702 -0.3044 -0.4593
 2624SOL    HW118551   8.424   2.403   0.852 -0.2131 -1.2971  1.4211
 2624SOL    HW218552   8.584   2.419   0.880 -0.0370 -1.0724  0.2649
 2625SOL     OW18553   8.907   4.244   2.579 -0.0433 -0.4024 -0.3848
 2625SOL    HW118554   8.950   4.182   2.513 -2.4287 -0.1632 -2.2416
 2625SOL    HW218555   8.863   4.190   2.651 -1.4111 -0.8967 -1.5537
 2626SOL     OW18556   8.408   4.217   4.278 -0.2798  0.0940 -0.3792
 2626SOL    HW118557   8.366   4.132   4.310 -0.0964  0.3598  0.5717
 2626SOL    HW218558   8.473   4.196   4.204 -0.0779 -0.6187 -0.0055
 2627SOL     OW18559   8.046   8.946   0.706 -0.1655  0.3645  0.4606
 2627SOL    HW118560   8.017   8.938   0.611  1.9599  1.5190 -0.3113
 2627SOL    HW218561   8.049   8.855   0.748 -1.1416 -0.1473 -0.5502
 2628SOL     OW18562   8.928   7.147   0.486  0.2016 -0.4774 -0.4880
 2628SOL    HW118563   8.874   7.211   0.432  1.0780 -0.6060 -1.5260
 2628SOL    HW218564   8.938   7.183   0.579  0.7457  0.9267 -1.0782
 2629SOL     OW18565   2.648   7.731   2.379  0.4380  0.4019  0.3813
 2629SOL    HW118566   2.703   7.770   2.305  1.2135  0.2498  0.8724
 2629SOL    HW218567   2.709   7.693   2.448 -0.2981 -0.1429  0.7258
 2630SOL     OW18568   5.132   2.716   2.037 -0.2842 -0.2629  0.0410
 2630SOL    HW118569   5.056   2.669   1.993  0.6421 -1.4171 -0.3670
 2630SOL    HW218570   5.179   2.653   2.100  1.7117 -0.2935 -1.4208
 2631SOL     OW18571   2.119   3.289   0.559 -0.4639 -0.2338 -0.1441
 2631SOL    HW118572   2.170   3.313   0.476 -0.7623 -0.4667 -0.4001
 2631SOL    HW218573   2.038   3.348   0.567 -0.6955 -0.5287 -0.2783
 2632SOL     OW18574   3.288   4.323   4.012 -0.1119 -0.8685  0.1632
 2632SOL    HW118575   3.238   4.247   3.972  0.0555 -1.0861  0.3682
 2632SOL    HW218576   3.226   4.379   4.067 -0.8671  0.7606 -2.2552
 2633SOL     OW18577   4.423   1.205   1.596  0.4210  0.3340  0.8913
 2633SOL    HW118578   4.435   1.204   1.497 -0.5960 -2.9808  0.7311
 2633SOL    HW218579   4.325   1.201   1.619  0.7090 -1.9429  1.9460
 2634SOL     OW18580   9.604   7.927   1.396 -0.8298  0.1355 -0.5780
 2634SOL    HW118581   9.575   7.903   1.304  2.2188  2.1094 -2.1364
 2634SOL    HW218582   9.669   8.003   1.392  1.5232 -1.5523  2.9853
 2635SOL     OW18583   9.602   4.099   0.104 -0.0770 -1.2130  0.1312
 2635SOL    HW118584   9.669   4.050   0.048  0.7029 -0.5440  0.4554
 2635SOL    HW218585   9.639   4.112   0.196 -0.3386 -0.1871  0.1023
 2636SOL     OW18586   4.169   3.021   4.748 -0.1139 -0.4455  0.0712
 2636SOL    HW118587   4.084   2.985   4.710  0.1337 -0.3863 -0.5483
 2636SOL    HW218588   4.166   3.121   4.749 -0.4287 -0.4588  0.9305
 2637SOL     OW18589   7.427   8.056   2.190  0.4435 -0.2156  0.0085
 2637SOL    HW118590   7.406   7.997   2.268  2.6178 -1.8553 -0.6112
 2637SOL    HW218591   7.462   8.001   2.115  2.3984  1.8375 -0.6296
 2638SOL     OW18592   9.057   8.991   2.867 -0.2114 -0.5129 -0.1018
 2638SOL    HW118593   9.142   9.043   2.867  0.9015 -2.2744 -1.2401
 2638SOL    HW218594   8.985   9.046   2.826  0.7193  0.5039 -0.3918
 2639SOL     OW18595   9.683   7.078   0.450 -0.3554  0.4474 -0.7408
 2639SOL    HW118596   9.692   7.102   0.353 -2.9150  0.1736 -1.0849
 2639SOL    HW218597   9.613   7.136   0.492 -1.1406 -1.2149  0.2860
 2640SOL     OW18598   4.823   0.855   1.238 -0.0236 -0.3424  0.1489
 2640SOL    HW118599   4.844   0.799   1.157  1.4797 -0.2309  0.4543
 2640SOL    HW218600   4.800   0.795   1.314 -0.7783 -0.4684 -0.1738
 2641SOL     OW18601   1.984   8.563   4.306 -0.6285 -0.3299  0.2415
 2641SOL    HW118602   1.990   8.465   4.326 -2.9622 -0.7215 -0.7882
 2641SOL    HW218603   2.060   8.590   4.246 -0.9360 -1.8912 -0.8814
 2642SOL     OW18604   2.889   4.083   0.492 -0.4692 -0.0076  0.6669
 2642SOL    HW118605   2.957   4.060   0.562 -1.3991 -1.0587  1.2569
 2642SOL    HW218606   2.819   4.011   0.489 -0.7770  0.3376 -0.9228
 2643SOL     OW18607   9.493   6.797   2.200  0.0650 -0.4359 -0.5761
 2643SOL    HW118608   9.434   6.878   2.195  0.8198  0.2182  0.8550
 2643SOL    HW218609   9.563   6.811   2.270  0.7855 -1.9572 -0.9717
 2644SOL     OW18610   2.046   6.640   1.830 -0.0541  0.7252  0.5098
 2644SOL    HW118611   2.114   6.568   1.818  0.6697  1.5869 -0.5695
 2644SOL    HW218612   2.036   6.660   1.928 -0.9878 -1.5102  0.9048
 2645SOL     OW18613   0.471   9.446   2.637  0.0819 -0.2518  0.2656
 2645SOL    HW118614   0.530   9.513   2.683  0.6834 -1.1982  0.8849
 2645SOL    HW218615   0.482   9.456   2.538  1.1286 -0.2706  0.3692
 2646SOL     OW18616   1.381   9.937   3.288 -0.0363  0.7465  0.2062
 2646SOL    HW118617   1.295   9.889   3.303 -0.5071  1.1516 -1.0853
 2646SOL    HW218618   1.458   9.877   3.312 -0.6215 -0.5622 -1.0900
 2647SOL     OW18619   7.641   1.358   4.244  0.3022 -0.1614  0.0602
 2647SOL    HW118620   7.614   1.284   4.183  1.6816 -0.4353 -0.2481
 2647SOL    HW218621   7.661   1.321   4.335 -0.5210  0.0583  0.3292
 2648SOL     OW18622   4.317   1.377   2.845  0.0273 -0.5168  0.0907
 2648SOL    HW118623   4.219   1.385   2.831 -0.0017 -1.0351 -0.0105
 2648SOL    HW218624   4.340   1.282   2.868  0.5658 -0.5084 -0.4136
 2649SOL     OW18625   8.100   5.470   3.659 -0.3867 -0.7969  0.2057
 2649SOL    HW118626   8.063   5.460   3.751 -0.3272 -0.5408  0.2572
 2649SOL    HW218627   8.026   5.463   3.592 -0.6408  0.4692  0.3459
 2650SOL     OW18628   9.176   1.164   4.295 -0.0180  0.1715 -0.5341
 2650SOL    HW118629   9.159   1.116   4.381 -0.4130  1.1472 -0.0636
 2650SOL    HW218630   9.230   1.105   4.234  2.1482  0.3050  1.2037
 2651SOL     OW18631   2.343   5.928   3.226 -0.2149 -0.3812 -0.0601
 2651SOL    HW118632   2.262   5.982   3.250 -0.8151 -1.4726  0.3838
 2651SOL    HW218633   2.385   5.967   3.144  1.2115  2.7277  2.0511
 2652SOL     OW18634   8.998   6.767   4.502 -0.1678  0.3426 -0.1235
 2652SOL    HW118635   9.020   6.708   4.579  2.2583  0.2773 -0.8027
 2652SOL    HW218636   9.065   6.841   4.496 -0.1791  0.2346 -2.2497
 2653SOL     OW18637   1.928   8.070   2.460 -0.0831  0.5814  0.3124
 2653SOL    HW118638   1.936   8.161   2.502  1.2598  0.5490  0.1461
 2653SOL    HW218639   1.970   8.002   2.519  3.5342  0.7937 -1.9079
 2654SOL     OW18640   4.300   1.588   1.441 -0.1360 -0.2825 -0.4280
 2654SOL    HW118641   4.212   1.634   1.453  0.3881  0.5034  0.5014
 2654SOL    HW218642   4.361   1.611   1.518  1.0212 -0.5004 -1.2611
 2655SOL     OW18643   2.515   2.220   1.521 -0.0813 -0.3713 -0.0800
 2655SOL    HW118644   2.469   2.295   1.472  0.8885 -0.2785 -0.8591
 2655SOL    HW218645   2.455   2.185   1.593 -1.7284 -0.8526 -1.6707
 2656SOL     OW18646   4.932   9.355   3.513  0.3684 -0.2654 -0.4068
 2656SOL    HW118647   5.009   9.370   3.452  0.4762  0.5834 -0.0612
 2656SOL    HW218648   4.864   9.427   3.501  0.6724  0.2517  0.9112
 2657SOL     OW18649   9.017   3.637   3.345 -0.9730  0.5135 -0.5713
 2657SOL    HW118650   8.956   3.559   3.336 -1.5899  0.8774  0.3746
 2657SOL    HW218651   9.055   3.639   3.437  0.2770  0.4311 -1.0807
 2658SOL     OW18652   8.732   0.695   1.511 -0.1511 -0.1187  0.9186
 2658SOL    HW118653   8.642   0.731   1.488 -0.4000 -1.8636 -1.0203
 2658SOL    HW218654   8.740   0.686   1.611 -2.5302 -0.9569  1.0682
 2659SOL     OW18655   9.960   4.541   4.363  1.2606  0.1197 -0.0386
 2659SOL    HW118656   9.893   4.537   4.288  0.6279 -0.4251  0.5529
 2659SOL    HW218657   9.998   4.450   4.378  2.4248  0.4968 -0.6207
 2660SOL     OW18658   8.683   2.049   1.364  0.0004  0.0604 -0.6243
 2660SOL    HW118659   8.604   2.019   1.418 -0.3228  0.6752 -0.7435
 2660SOL    HW218660   8.755   1.981   1.370  1.2814  1.6367  3.4053
 2661SOL     OW18661   8.096   9.225   2.227  0.0132  0.6263  1.0577
 2661SOL    HW118662   8.178   9.199   2.177 -1.2217 -0.4953 -0.4450
 2661SOL    HW218663   8.087   9.168   2.309 -0.9584 -1.5169 -0.5008
 2662SOL     OW18664   2.709   3.716   4.656 -0.0148  0.2810 -0.3823
 2662SOL    HW118665   2.638   3.767   4.705  0.1302  3.2156 -3.0076
 2662SOL    HW218666   2.674   3.625   4.632 -1.9350  0.7347  0.6149
 2663SOL     OW18667   2.687   3.417   1.757  0.0562  0.1666  0.1176
 2663SOL    HW118668   2.655   3.511   1.768 -0.0732  0.2106 -0.6301
 2663SOL    HW218669   2.619   3.354   1.797  0.4710  0.4189  1.2448
 2664SOL     OW18670   4.790   1.090   2.083  0.1045  0.1725  0.3338
 2664SOL    HW118671   4.702   1.044   2.080  0.5898 -0.7693  0.3935
 2664SOL    HW218672   4.843   1.056   2.161  0.8160  0.1853 -0.1391
 2665SOL     OW18673   1.853   3.277   1.171  0.0252 -0.3019 -0.5228
 2665SOL    HW118674   1.940   3.319   1.146 -0.3020  0.6989 -0.0162
 2665SOL    HW218675   1.811   3.330   1.245 -0.1254 -1.8471  0.5337
 2666SOL     OW18676   4.205   0.888   3.149  0.4227  0.3488  0.2005
 2666SOL    HW118677   4.247   0.918   3.235 -1.7703  3.1387  0.3523
 2666SOL    HW218678   4.115   0.929   3.140 -0.6914 -2.4550 -1.9694
 2667SOL     OW18679   1.385   4.460   1.933  0.0217  0.2756  0.5709
 2667SOL    HW118680   1.421   4.518   2.006  1.3848 -0.2602  0.3476
 2667SOL    HW218681   1.286   4.454   1.941 -0.0005  1.5127  1.4216
 2668SOL     OW18682   9.230   1.881   4.644 -0.2298  0.5989 -0.2931
 2668SOL    HW118683   9.141   1.856   4.682  1.1935 -0.3066  2.6263
 2668SOL    HW218684   9.267   1.960   4.694  1.1910  0.1035 -0.5301
 2669SOL     OW18685   0.485   6.730   3.749  0.0956 -0.4923 -0.2812
 2669SOL    HW118686   0.483   6.772   3.840 -1.1809  0.3655 -0.6923
 2669SOL    HW218687   0.450   6.636   3.756  0.4669 -0.5998  0.1938
 2670SOL     OW18688   0.439   2.601   2.465  0.3191 -0.3121 -0.1633
 2670SOL    HW118689   0.347   2.601   2.504 -0.6231 -0.6580 -2.3238
 2670SOL    HW218690   0.483   2.689   2.485 -0.5317 -0.0871  0.7653
 2671SOL     OW18691   2.498   3.174   0.022 -0.0646 -0.3316 -0.0204
 2671SOL    HW118692   2.472   3.096   0.078 -1.1993 -0.5484 -0.8386
 2671SOL    HW218693   2.497   3.148  -0.075 -0.0584  0.5903 -0.2758
 2672SOL     OW18694   0.472   1.654   3.871 -0.5761  0.6693  0.4063
 2672SOL    HW118695   0.433   1.652   3.963 -0.0364 -0.7176  0.6181
 2672SOL    HW218696   0.568   1.682   3.876  0.0567 -1.4370  0.5125
 2673SOL     OW18697   8.063   3.439   4.122  0.0644  0.1150 -0.0143
 2673SOL    HW118698   7.966   3.448   4.143  0.1154 -0.8261  0.6718
 2673SOL    HW218699   8.110   3.525   4.144 -0.5240  0.3887  0.1829
 2674SOL     OW18700   8.783   1.416   4.511 -0.1397 -0.3738 -0.0817
 2674SOL    HW118701   8.779   1.355   4.590 -3.0016  0.7437  0.6982
 2674SOL    HW218702   8.766   1.363   4.428 -1.3617 -0.8463  0.4648
 2675SOL     OW18703   2.383   4.239   2.298 -0.0823  0.3536  0.4512
 2675SOL    HW118704   2.414   4.201   2.386  0.2025  1.0263  0.6407
 2675SOL    HW218705   2.359   4.164   2.237  1.9861 -0.2045  0.2742
 2676SOL     OW18706   1.277   8.603   3.729 -0.2035 -0.4831  0.1666
 2676SOL    HW118707   1.212   8.541   3.683  0.0921 -0.4600 -0.2835
 2676SOL    HW218708   1.369   8.564   3.724  0.1572  0.5239 -1.0767
 2677SOL     OW18709   5.240   9.501   1.616 -0.1252  0.0571 -0.1445
 2677SOL    HW118710   5.225   9.546   1.705 -0.3509 -0.1841 -0.0607
 2677SOL    HW218711   5.212   9.405   1.622  1.6130 -0.4468  0.0536
 2678SOL     OW18712   8.632   2.470   3.600 -0.1289 -0.2876 -0.3653
 2678SOL    HW118713   8.681   2.414   3.533 -0.4168 -0.8439 -0.1164
 2678SOL    HW218714   8.644   2.430   3.691 -1.1648 -0.5111 -0.3243
 2679SOL     OW18715   9.642   0.555   4.731 -0.0245 -0.0848 -0.3151
 2679SOL    HW118716   9.657   0.464   4.691  0.9201  0.4250 -1.1432
 2679SOL    HW218717   9.605   0.616   4.661 -0.1959  0.2947  0.1094
 2680SOL     OW18718   4.864   7.986   4.554 -0.5499  0.0225  0.4650
 2680SOL    HW118719   4.929   7.947   4.619 -0.8523  1.4458  1.6604
 2680SOL    HW218720   4.909   7.999   4.465  0.1711 -0.9689  0.6786
 2681SOL     OW18721   1.741   7.479   0.431 -0.3807 -0.1415 -0.1900
 2681SOL    HW118722   1.728   7.577   0.441 -0.1034 -0.2305  1.1001
 2681SOL    HW218723   1.668   7.430   0.478  1.1401 -0.5691  1.8152
 2682SOL     OW18724   8.738   6.704   2.967  0.1554  0.4228 -0.0994
 2682SOL    HW118725   8.836   6.683   2.961 -0.1304 -0.3682 -2.2665
 2682SOL    HW218726   8.726   6.804   2.969  0.9561  0.5322 -0.4090
 2683SOL     OW18727   0.370   6.425   4.563 -0.6176  0.2955 -0.6958
 2683SOL    HW118728   0.302   6.463   4.626  0.0577  0.6229 -0.1570
 2683SOL    HW218729   0.461   6.431   4.605 -0.1053  0.8916 -1.8627
 2684SOL     OW18730   1.818   7.111   1.347  0.5505 -0.1343 -0.1793
 2684SOL    HW118731   1.874   7.189   1.319  2.7270 -1.9425 -1.0999
 2684SOL    HW218732   1.861   7.066   1.425 -0.2942 -0.8377 -0.1111
 2685SOL     OW18733   4.776   9.515   4.037 -0.2092  0.9424  0.2579
 2685SOL    HW118734   4.797   9.605   4.000 -0.3442  1.4985  1.5203
 2685SOL    HW218735   4.847   9.450   4.008 -0.1526  1.4287 -0.7159
 2686SOL     OW18736   8.877   2.007   1.667 -0.2290  0.2917  0.5143
 2686SOL    HW118737   8.955   2.053   1.709  0.4074  0.2412 -0.5813
 2686SOL    HW218738   8.897   1.990   1.570 -2.0907  1.4093 -0.0958
 2687SOL     OW18739   2.234   9.186   2.845 -0.5076 -0.0162  0.0954
 2687SOL    HW118740   2.151   9.133   2.858 -0.0405 -1.0990 -1.1057
 2687SOL    HW218741   2.240   9.258   2.913 -1.9029 -0.5917  0.8351
 2688SOL     OW18742   9.440   3.360   2.541 -0.7620  0.4496  0.3388
 2688SOL    HW118743   9.438   3.389   2.446  0.5099 -0.5320 -0.0105
 2688SOL    HW218744   9.375   3.414   2.595 -1.6166  0.8772 -1.1137
 2689SOL     OW18745   4.684   0.634   4.583 -0.4711  0.4607 -0.3948
 2689SOL    HW118746   4.740   0.552   4.572 -1.1280 -0.2077  1.0699
 2689SOL    HW218747   4.602   0.625   4.527 -0.5641  0.0815 -0.2028
 2690SOL     OW18748   2.442   0.177   0.287  0.0343 -0.4106  0.8359
 2690SOL    HW118749   2.347   0.194   0.260  0.1935  0.6344  0.9084
 2690SOL    HW218750   2.450   0.186   0.387  0.6730  1.9513  0.6135
 2691SOL     OW18751   0.211   3.353   1.396 -0.2825 -0.2284 -0.0530
 2691SOL    HW118752   0.232   3.301   1.479  0.4147 -0.4810 -0.3821
 2691SOL    HW218753   0.149   3.428   1.418  0.3944  0.0901  0.8090
 2692SOL     OW18754   9.545   5.509   2.842 -0.4375 -0.1358 -0.0321
 2692SOL    HW118755   9.592   5.510   2.753 -1.8257 -1.6360 -0.8172
 2692SOL    HW218756   9.469   5.444   2.838 -0.8855  0.2382  2.0821
 2693SOL     OW18757   7.526   6.799   2.663  0.0982  0.0326 -0.2036
 2693SOL    HW118758   7.491   6.892   2.675  1.1894  0.3975  0.2586
 2693SOL    HW218759   7.595   6.780   2.733  2.5594  0.1772 -2.5154
 2694SOL     OW18760   1.146   7.800   0.997 -0.2499 -0.0500  0.2908
 2694SOL    HW118761   1.079   7.738   0.955 -0.7093  0.6171  0.0289
 2694SOL    HW218762   1.226   7.808   0.937 -0.3651 -0.0683  0.1347
 2695SOL     OW18763   5.542   8.848   3.049  0.6300 -0.4509 -0.8199
 2695SOL    HW118764   5.571   8.849   3.144 -1.7676  0.3261 -0.0796
 2695SOL    HW218765   5.528   8.754   3.019  2.2345 -0.7478 -0.7082
 2696SOL     OW18766   8.721   5.895   4.713 -0.1915  0.2249  0.1861
 2696SOL    HW118767   8.790   5.891   4.641  0.3977  1.8847  0.6429
 2696SOL    HW218768   8.630   5.896   4.672  0.1296  0.7451 -0.5261
 2697SOL     OW18769   0.728   8.861   1.073  0.3682 -0.2770  0.1558
 2697SOL    HW118770   0.696   8.832   1.163 -2.8291  1.6172 -0.2940
 2697SOL    HW218771   0.759   8.782   1.021 -2.2106 -2.0392  1.2158
 2698SOL     OW18772   3.072   4.758   1.324  0.6921  0.0602  0.1155
 2698SOL    HW118773   2.992   4.756   1.384  1.1923  0.3119  0.7928
 2698SOL    HW218774   3.065   4.684   1.257  0.1301 -0.2185  0.4767
 2699SOL     OW18775   5.188   9.763   1.554 -0.0832 -0.1334 -0.4754
 2699SOL    HW118776   5.204   9.665   1.568  0.4242 -0.1119 -0.8475
 2699SOL    HW218777   5.256   9.815   1.607  0.1705 -0.0023 -0.9269
 2700SOL     OW18778   7.975   8.883   3.712 -0.3119  0.5445 -0.2664
 2700SOL    HW118779   8.065   8.906   3.751 -0.8882  2.2154  0.1251
 2700SOL    HW218780   7.934   8.965   3.672 -3.0310  0.5467  2.3629
 2701SOL     OW18781   1.708   9.301   4.665 -0.0565  0.4741 -0.5858
 2701SOL    HW118782   1.803   9.281   4.639  0.3117 -0.9801  1.7575
 2701SOL    HW218783   1.695   9.400   4.666  2.1408  0.7882  1.4047
 2702SOL     OW18784   1.790   8.301   0.817  0.3431  0.1160  0.8413
 2702SOL    HW118785   1.804   8.397   0.794  1.0130 -0.4399 -1.2038
 2702SOL    HW218786   1.835   8.280   0.904  2.3982  1.0837  0.0543
 2703SOL     OW18787   1.977   1.533   3.259  0.0259 -0.4046  0.4680
 2703SOL    HW118788   1.976   1.457   3.195 -1.8847 -0.4174  0.5010
 2703SOL    HW218789   2.039   1.511   3.335 -0.6540 -2.0034  0.5765
 2704SOL     OW18790   8.896   7.453   0.975 -0.3019 -0.2290 -0.3661
 2704SOL    HW118791   8.984   7.490   1.002  0.5103 -2.2540 -0.1309
 2704SOL    HW218792   8.823   7.495   1.030  0.5903  0.8602 -0.0035
 2705SOL     OW18793   9.342   1.649   3.827  1.0575 -0.3125 -0.3789
 2705SOL    HW118794   9.420   1.693   3.784  1.7067 -0.6805  0.4026
 2705SOL    HW218795   9.290   1.718   3.879  1.0376 -0.1220 -0.6531
 2706SOL     OW18796   5.139   7.556   3.139 -0.1535  1.0515  0.2676
 2706SOL    HW118797   5.150   7.485   3.070 -2.4357  0.4076  0.5422
 2706SOL    HW218798   5.230   7.587   3.169  0.8630 -0.3645 -1.2365
 2707SOL     OW18799   4.051   4.170   2.416  0.2869 -1.2184 -0.2257
 2707SOL    HW118800   3.954   4.158   2.439  0.4029  1.5284  2.0728
 2707SOL    HW218801   4.063   4.257   2.367  1.5808 -1.6183 -0.6393
 2708SOL     OW18802   8.450   7.975   3.778 -0.4755 -0.5259 -0.4406
 2708SOL    HW118803   8.444   7.882   3.742 -0.8963 -1.0395  0.9468
 2708SOL    HW218804   8.505   8.031   3.715  1.5670 -2.2375 -0.2556
 2709SOL     OW18805   0.356   8.583   4.624 -0.4264  1.0583 -1.0452
 2709SOL    HW118806   0.372   8.678   4.596  0.3381  1.4403  0.6224
 2709SOL    HW218807   0.379   8.573   4.721 -0.8718 -0.7480 -1.1175
 2710SOL     OW18808   3.979   2.000   3.642 -0.3479  0.3733  0.2616
 2710SOL    HW118809   4.059   2.048   3.679 -0.3150  0.1237  0.5150
 2710SOL    HW218810   3.953   1.926   3.704 -1.1948  0.8792  0.5239
 2711SOL     OW18811   9.171   0.711   3.634 -0.2685  0.9218 -0.6624
 2711SOL    HW118812   9.127   0.663   3.559  2.4347  0.4190 -1.9783
 2711SOL    HW218813   9.136   0.805   3.639 -3.0461 -0.1187 -0.2608
 2712SOL     OW18814   1.238   9.516   3.685 -0.7059  0.0903  0.4088
 2712SOL    HW118815   1.247   9.612   3.710 -3.3784  0.5130 -0.1097
 2712SOL    HW218816   1.165   9.505   3.618  0.6746 -2.1074 -0.8267
 2713SOL     OW18817   8.270   7.767   1.433 -0.3358 -0.0381  0.5254
 2713SOL    HW118818   8.184   7.815   1.416 -0.5264 -0.0327  1.4888
 2713SOL    HW218819   8.251   7.674   1.464  0.0257 -0.6730 -1.0952
 2714SOL     OW18820   9.172   4.784   2.688  0.4568  1.0895 -0.5396
 2714SOL    HW118821   9.092   4.727   2.708  1.8980 -1.0586 -0.7442
 2714SOL    HW218822   9.160   4.829   2.600 -0.0433 -0.0976 -1.0836
 2715SOL     OW18823   1.666   7.929   4.591 -0.3865 -0.4035  0.3788
 2715SOL    HW118824   1.572   7.924   4.559 -0.4092  1.6250  0.0769
 2715SOL    HW218825   1.670   7.984   4.674  0.9782  2.6477 -1.5999
 2716SOL     OW18826   8.724   2.723   0.322 -0.3665 -0.2132  0.1897
 2716SOL    HW118827   8.719   2.726   0.222 -2.0141 -2.0549  0.1753
 2716SOL    HW218828   8.703   2.813   0.359 -1.6128  0.0419 -1.0932
 2717SOL     OW18829   4.038   7.618   3.048  0.3075  0.3479  0.2329
 2717SOL    HW118830   3.998   7.692   3.103  0.5294  0.7414 -0.1288
 2717SOL    HW218831   4.002   7.624   2.955  1.8658  1.2463 -0.3365
 2718SOL     OW18832   8.057   8.733   4.613 -0.2701 -0.2324  0.2228
 2718SOL    HW118833   8.110   8.780   4.684 -0.9987 -0.1640  0.7296
 2718SOL    HW218834   8.034   8.798   4.540  0.5655 -0.3272 -0.1301
 2719SOL     OW18835   2.981   6.279   4.303 -0.4495 -0.0594  1.0056
 2719SOL    HW118836   2.899   6.335   4.285 -0.4331  0.3595  2.2161
 2719SOL    HW218837   2.956   6.203   4.364 -1.0887 -3.0060 -2.7131
 2720SOL     OW18838   9.359   1.777   1.745  0.2258 -0.1345 -0.2517
 2720SOL    HW118839   9.379   1.679   1.752  0.0281 -0.1077  0.9211
 2720SOL    HW218840   9.347   1.815   1.837 -0.4534  0.8337 -0.7271
 2721SOL     OW18841   1.290   9.980   0.447 -0.0545 -0.3271  0.3605
 2721SOL    HW118842   1.360   9.959   0.515 -0.0647 -1.6613 -0.0343
 2721SOL    HW218843   1.224   9.905   0.442 -1.3157  0.7532  0.4610
 2722SOL     OW18844   5.967   0.734   3.014 -0.3553  0.2305 -0.1348
 2722SOL    HW118845   5.925   0.677   2.942  0.1786  0.4873 -0.6494
 2722SOL    HW218846   5.969   0.682   3.099 -0.9867 -0.0835 -0.3036
 2723SOL     OW18847   0.438   5.353   1.846  0.0281  0.0680  0.8444
 2723SOL    HW118848   0.367   5.393   1.904 -0.3193 -1.0794  1.2264
 2723SOL    HW218849   0.402   5.272   1.800  0.1964  1.1711 -1.2638
 2724SOL     OW18850   0.626   3.460   0.871 -0.4785  0.1217 -0.1533
 2724SOL    HW118851   0.655   3.490   0.780  0.2192  1.1232  0.3805
 2724SOL    HW218852   0.682   3.382   0.900  0.9199  1.2881  0.3724
 2725SOL     OW18853   3.664   0.524   3.836  0.0731  0.3013 -0.1107
 2725SOL    HW118854   3.601   0.563   3.903 -0.4956 -0.9160  0.0824
 2725SOL    HW218855   3.625   0.439   3.800  1.1509  0.0657 -0.7306
 2726SOL     OW18856   8.401   1.376   0.148  0.1316  0.0369 -0.0901
 2726SOL    HW118857   8.347   1.358   0.231 -0.6837 -0.7296 -0.7788
 2726SOL    HW218858   8.366   1.458   0.103  0.3625  0.2638  0.1417
 2727SOL     OW18859   4.134   7.109   1.460  0.2893  0.6704 -0.2271
 2727SOL    HW118860   4.151   7.199   1.418  0.3608  1.5767  1.7002
 2727SOL    HW218861   4.035   7.095   1.469  0.2894  0.8123  0.0021
 2728SOL     OW18862   4.843   7.469   1.189 -0.3494 -0.0650  0.9133
 2728SOL    HW118863   4.893   7.556   1.190 -1.2385  0.4453  1.1213
 2728SOL    HW218864   4.759   7.478   1.241 -1.9192 -0.1619 -1.4976
 2729SOL     OW18865   4.671   7.596   1.698 -0.1190  0.5777 -0.3561
 2729SOL    HW118866   4.650   7.532   1.772 -1.4352 -0.5471 -1.6559
 2729SOL    HW218867   4.728   7.550   1.629  1.7580  1.8531  0.3101
 2730SOL     OW18868   2.348   1.449   1.667 -0.1189  0.4626  0.1425
 2730SOL    HW118869   2.308   1.359   1.685  3.7937 -1.3665  0.3085
 2730SOL    HW218870   2.384   1.487   1.753  1.8317  0.2958 -0.5724
 2731SOL     OW18871   1.722   6.992   3.676 -0.1551  0.5689 -0.0827
 2731SOL    HW118872   1.708   7.026   3.769 -0.6859  0.1357 -0.0006
 2731SOL    HW218873   1.812   6.950   3.669 -1.4704 -2.6032  1.2329
 2732SOL     OW18874   3.414   2.279   4.330 -0.7005  0.0252 -0.0698
 2732SOL    HW118875   3.368   2.285   4.419  0.5938 -0.8332  0.6771
 2732SOL    HW218876   3.357   2.225   4.267 -0.0418 -2.3405  1.3133
 2733SOL     OW18877   3.488   2.436   1.615 -0.0222  0.3586 -0.2710
 2733SOL    HW118878   3.462   2.379   1.692 -1.9870  1.1428 -0.3331
 2733SOL    HW218879   3.572   2.400   1.573  0.4598 -0.6793  1.5570
 2734SOL     OW18880   6.420   9.951   2.049 -0.1830 -0.4135 -0.4144
 2734SOL    HW118881   6.478  10.032   2.056  0.7121 -1.1593  1.0996
 2734SOL    HW218882   6.469   9.872   2.085 -2.0108 -1.1211  0.6115
 2735SOL     OW18883   3.092   3.078   2.031 -0.0878 -0.5221  0.0312
 2735SOL    HW118884   3.181   3.039   2.006 -0.9761 -1.4555 -1.7318
 2735SOL    HW218885   3.059   3.137   1.957 -1.4852 -1.1226  0.1600
 2736SOL     OW18886   1.799   7.143   1.919 -0.3209  0.0223 -0.2766
 2736SOL    HW118887   1.895   7.155   1.893  0.0679 -2.2950 -0.0104
 2736SOL    HW218888   1.744   7.126   1.837 -0.2594 -0.0941 -0.2941
 2737SOL     OW18889   2.971   5.356   3.484 -0.0590  0.0285  0.0658
 2737SOL    HW118890   2.988   5.304   3.567 -0.6839 -0.0364  0.1586
 2737SOL    HW218891   3.058   5.381   3.441  0.2525 -0.5235  0.3720
 2738SOL     OW18892   8.283   9.992   1.914  0.2192  0.1274  0.1758
 2738SOL    HW118893   8.271  10.091   1.915 -0.6942  0.0149  2.0181
 2738SOL    HW218894   8.329   9.965   1.829 -1.1639  1.9428 -1.1954
 2739SOL     OW18895   8.514   1.815   1.380 -0.5101  0.0213  0.5677
 2739SOL    HW118896   8.479   1.811   1.474  0.5019 -0.0470  0.9522
 2739SOL    HW218897   8.440   1.796   1.316 -1.1966  0.0013  1.3590
 2740SOL     OW18898   3.316   8.084   4.237 -0.8305  0.9717  0.0203
 2740SOL    HW118899   3.258   8.158   4.204 -0.2068  0.5021 -2.2144
 2740SOL    HW218900   3.344   8.026   4.161  1.2796  0.2627  1.2601
 2741SOL     OW18901   9.596   0.235   0.691 -0.4035  0.4217  0.1725
 2741SOL    HW118902   9.632   0.288   0.615  0.9424  0.6689  0.9682
 2741SOL    HW218903   9.496   0.245   0.695 -0.4119  0.8971 -1.1709
 2742SOL     OW18904   0.897   5.733   1.814 -0.3691  0.3035  0.1248
 2742SOL    HW118905   0.936   5.746   1.905 -0.5076  0.0736  0.2167
 2742SOL    HW218906   0.798   5.747   1.818 -0.1948  1.7299 -0.2712
 2743SOL     OW18907   4.143   2.867   3.437 -0.3323  0.4236  0.1817
 2743SOL    HW118908   4.242   2.861   3.453  0.0052  2.1942 -0.9762
 2743SOL    HW218909   4.100   2.780   3.458  1.9903 -1.5094 -2.5563
 2744SOL     OW18910   7.700   2.278   1.652 -0.2359 -0.4874  0.4415
 2744SOL    HW118911   7.741   2.195   1.615  2.0123  0.1424  1.4606
 2744SOL    HW218912   7.690   2.346   1.578 -0.9651 -1.2040 -0.1342
 2745SOL     OW18913   0.625   7.753   1.722  0.0743  0.2248 -0.3517
 2745SOL    HW118914   0.544   7.767   1.779  0.0807 -1.4056  0.0639
 2745SOL    HW218915   0.673   7.841   1.710 -2.5051  1.5188 -1.7795
 2746SOL     OW18916   3.776   3.334   1.754  0.1273  0.2515 -0.3495
 2746SOL    HW118917   3.741   3.397   1.823  1.8223 -0.1339  0.8932
 2746SOL    HW218918   3.725   3.248   1.760 -1.8972  1.3169 -1.7651
 2747SOL     OW18919   2.778   0.793   0.246  0.1715  0.1662  0.4330
 2747SOL    HW118920   2.772   0.778   0.344  0.1082  2.0008  0.7293
 2747SOL    HW218921   2.688   0.820   0.211  0.3938  0.3756  0.0155
 2748SOL     OW18922   1.593   0.886   1.209 -0.6511 -0.0726  0.2953
 2748SOL    HW118923   1.495   0.904   1.206 -0.5189  0.6846  0.3468
 2748SOL    HW218924   1.638   0.936   1.136 -0.5820 -2.3883 -1.3178
 2749SOL     OW18925   0.134   6.243   3.868  0.4053 -0.3370 -0.3359
 2749SOL    HW118926   0.040   6.254   3.834  0.3343 -1.9029 -0.7165
 2749SOL    HW218927   0.134   6.252   3.968 -0.2204 -0.6342 -0.3013
 2750SOL     OW18928   1.256   4.479   0.679 -0.5040 -0.2811  0.3221
 2750SOL    HW118929   1.332   4.542   0.661 -0.8784  0.0620 -0.0982
 2750SOL    HW218930   1.207   4.508   0.761 -1.4510  0.7424 -0.5805
 2751SOL     OW18931   8.599   8.314   3.655 -0.3417 -0.6293  0.7303
 2751SOL    HW118932   8.525   8.374   3.685 -1.2196 -1.4910  0.3124
 2751SOL    HW218933   8.683   8.338   3.704 -1.0261 -0.0189  1.6344
 2752SOL     OW18934   2.270   1.248   2.105 -0.2874  0.1166  0.8730
 2752SOL    HW118935   2.191   1.291   2.061 -0.5373 -1.2088 -0.0036
 2752SOL    HW218936   2.242   1.206   2.191 -0.2287  0.9332  1.2900
 2753SOL     OW18937   8.347   4.785   3.781 -0.4903 -0.8507 -0.2455
 2753SOL    HW118938   8.425   4.841   3.750 -0.3391 -0.4997  0.7372
 2753SOL    HW218939   8.380   4.695   3.808 -0.4532 -0.7769 -0.0410
 2754SOL     OW18940   9.827   5.355   2.081  0.0861 -0.0767  0.0867
 2754SOL    HW118941   9.890   5.430   2.102  0.2979  0.0747 -1.0549
 2754SOL    HW218942   9.856   5.310   1.997 -0.6057 -0.8143  0.2430
 2755SOL     OW18943   5.810   9.929   1.251  0.0097 -0.1340 -0.6271
 2755SOL    HW118944   5.841   9.955   1.160  0.8242 -0.5981 -0.4869
 2755SOL    HW218945   5.777   9.834   1.248  0.7172 -0.3950 -0.2863
 2756SOL     OW18946   7.954   2.197   4.614  0.8198 -0.3052  0.3113
 2756SOL    HW118947   7.934   2.135   4.538 -0.9207  0.8254 -0.1621
 2756SOL    HW218948   8.053   2.201   4.628  1.0267 -2.1248 -0.5424
 2757SOL     OW18949   0.759   1.756   4.044  0.4140 -0.0535 -0.5529
 2757SOL    HW118950   0.795   1.779   3.954 -0.0740 -1.9743 -1.2475
 2757SOL    HW218951   0.748   1.657   4.052  1.7096 -0.0237  2.0924
 2758SOL     OW18952   4.975   0.888   1.548 -0.4164  0.5147 -0.0412
 2758SOL    HW118953   4.910   0.964   1.556 -2.1477 -0.7422 -1.5703
 2758SOL    HW218954   4.925   0.805   1.521  1.5419 -0.9881  0.8407
 2759SOL     OW18955   8.226   8.734   4.218 -0.2956  0.4363  0.4025
 2759SOL    HW118956   8.274   8.654   4.254 -0.5624 -0.2756 -0.7877
 2759SOL    HW218957   8.159   8.765   4.285  1.1555  0.8567  1.6804
 2760SOL     OW18958   8.663   4.565   2.628 -0.3575  0.3141 -0.0061
 2760SOL    HW118959   8.721   4.641   2.598 -1.6167  1.2567 -0.1211
 2760SOL    HW218960   8.606   4.595   2.705 -1.6583 -0.1738 -0.7685
 2761SOL     OW18961   4.379   1.169   0.427  0.0487 -0.3251 -0.1247
 2761SOL    HW118962   4.478   1.165   0.441  0.3964 -1.3065 -2.6553
 2761SOL    HW218963   4.359   1.219   0.343 -1.5853 -0.6572  0.0425
 2762SOL     OW18964   9.531   8.558   2.403  0.3844  0.1982 -0.4565
 2762SOL    HW118965   9.520   8.524   2.496 -0.3204  0.0858 -0.5794
 2762SOL    HW218966   9.466   8.513   2.343 -0.0962  1.2560 -0.7465
 2763SOL     OW18967   2.311   0.177   4.392 -0.2930 -0.1434  0.4263
 2763SOL    HW118968   2.313   0.132   4.481  1.3110  0.1176  0.5249
 2763SOL    HW218969   2.337   0.273   4.402 -1.3929  0.2271 -0.1369
 2764SOL     OW18970   6.292   8.162   2.230  0.4780  0.2582 -0.1831
 2764SOL    HW118971   6.322   8.080   2.278  0.0816 -0.6373 -1.4478
 2764SOL    HW218972   6.254   8.137   2.141 -0.5340  1.7260 -0.1851
 2765SOL     OW18973   1.565   8.357   2.794  0.3872  0.4780 -0.1242
 2765SOL    HW118974   1.557   8.333   2.697 -0.1405  0.5864 -0.1097
 2765SOL    HW218975   1.492   8.422   2.818 -1.3915 -1.9128  1.0808
 2766SOL     OW18976   0.378   1.836   3.655  0.2162  0.7709  0.4983
 2766SOL    HW118977   0.298   1.885   3.689  0.5824  1.3316  0.5482
 2766SOL    HW218978   0.382   1.745   3.697 -0.8135  0.4455 -0.0806
 2767SOL     OW18979   2.057   7.238   4.671 -0.0918 -0.5975 -0.3958
 2767SOL    HW118980   1.981   7.240   4.737 -0.8414  0.3466 -1.2565
 2767SOL    HW218981   2.144   7.232   4.719 -0.6874 -1.0099  0.6348
 2768SOL     OW18982   8.706   5.791   3.687  0.0968  0.3871 -0.2585
 2768SOL    HW118983   8.791   5.801   3.739  0.3773 -2.0534 -0.2028
 2768SOL    HW218984   8.635   5.847   3.730  1.0319  0.5483  1.1424
 2769SOL     OW18985   8.347   0.934   4.063  0.3721  0.0610  0.1621
 2769SOL    HW118986   8.402   0.891   3.991 -0.0149  0.6272 -0.4714
 2769SOL    HW218987   8.272   0.872   4.088  0.1977  0.0935 -0.2875
 2770SOL     OW18988   2.260   0.404   1.372 -0.0599 -0.5343  0.4326
 2770SOL    HW118989   2.312   0.431   1.291 -0.0923 -1.4509  0.1090
 2770SOL    HW218990   2.320   0.408   1.452  0.7466 -2.3739 -0.0583
 2771SOL     OW18991   0.810   2.551   1.888  0.2831 -0.4420  0.1798
 2771SOL    HW118992   0.752   2.620   1.931  1.3779 -0.6168  1.9950
 2771SOL    HW218993   0.905   2.584   1.885  0.8043 -1.8136  1.0266
 2772SOL     OW18994   8.386   3.775   1.419 -0.3489 -0.2291 -0.1907
 2772SOL    HW118995   8.350   3.868   1.417 -0.0819 -0.1482 -1.8477
 2772SOL    HW218996   8.316   3.713   1.456 -0.9332  0.4514 -0.1519
 2773SOL     OW18997   4.302   1.915   0.384 -0.0188  0.4791  0.5045
 2773SOL    HW118998   4.393   1.889   0.352  0.0664  0.2544  0.9267
 2773SOL    HW218999   4.291   1.887   0.479 -2.0829 -3.3405 -0.7852
 2774SOL     OW19000   3.335   0.081   0.897 -0.1902  0.1798  0.2717
 2774SOL    HW119001   3.339   0.155   0.830  1.6839 -0.4401 -0.3595
 2774SOL    HW219002   3.263   0.016   0.870  0.8376 -0.3013 -1.4443
 2775SOL     OW19003   1.016   6.299   1.031 -0.4775 -0.2053  0.5216
 2775SOL    HW119004   1.064   6.213   1.049 -0.4210 -0.5065 -1.0019
 2775SOL    HW219005   0.924   6.278   0.997 -0.4364  0.3476  0.0813
 2776SOL     OW19006   9.552   4.182   4.613 -0.4423  0.2941 -0.0408
 2776SOL    HW119007   9.551   4.149   4.708 -0.9190 -0.0703 -0.1731
 2776SOL    HW219008   9.553   4.282   4.612  0.4151  0.2948  0.3578
 2777SOL     OW19009   8.755   3.216   0.894 -0.2651  0.1148  0.3729
 2777SOL    HW119010   8.854   3.215   0.883 -0.1175  1.6455  1.4554
 2777SOL    HW219011   8.731   3.173   0.982 -0.4199  1.6037  1.0649
 2778SOL     OW19012   9.344   0.074   1.100  0.6601  0.3554  0.5680
 2778SOL    HW119013   9.333   0.145   1.030 -2.1431  0.4226  1.0058
 2778SOL    HW219014   9.359   0.117   1.189 -2.3484  0.5253  1.0574
 2779SOL     OW19015   4.559   1.038   4.042 -0.2361  0.0324 -0.1344
 2779SOL    HW119016   4.568   1.137   4.059 -2.6149  0.4196 -1.0232
 2779SOL    HW219017   4.509   1.023   3.957 -0.2839 -1.9548  0.2320
 2780SOL     OW19018   4.123   1.021   1.820  0.2232  1.2580  0.4322
 2780SOL    HW119019   4.117   1.091   1.749 -1.2866  1.8450  1.1021
 2780SOL    HW219020   4.061   1.045   1.895 -0.2069 -0.7193  0.7319
 2781SOL     OW19021   2.048   9.396   2.447  0.1744  0.2556  0.2481
 2781SOL    HW119022   2.060   9.469   2.381 -1.2734  1.8567  1.6908
 2781SOL    HW219023   1.960   9.351   2.431  0.3211 -0.0844  0.3887
 2782SOL     OW19024   2.048   4.535   2.363 -0.1163 -0.0169  0.5921
 2782SOL    HW119025   2.059   4.478   2.444 -0.9795 -0.7503  0.2071
 2782SOL    HW219026   2.016   4.625   2.390  0.8763  0.1692  1.1752
 2783SOL     OW19027   3.601   8.522   2.264  0.0292 -0.5492 -0.2493
 2783SOL    HW119028   3.581   8.424   2.255 -1.2852 -0.1886 -1.3277
 2783SOL    HW219029   3.531   8.575   2.217  1.0853  0.9032 -0.2244
 2784SOL     OW19030   0.583   9.989   1.332 -0.1384 -0.2726 -0.1784
 2784SOL    HW119031   0.642   9.966   1.255  0.0939 -1.0215  0.2213
 2784SOL    HW219032   0.623  10.065   1.383  0.0872 -0.2733 -0.3536
 2785SOL     OW19033   9.822   9.857   2.650 -0.2157 -0.7109  0.4825
 2785SOL    HW119034   9.877   9.936   2.627  0.2765 -0.5414  2.1403
 2785SOL    HW219035   9.778   9.872   2.739 -0.4797 -2.0910  0.6023
 2786SOL     OW19036   0.471   7.900   3.403  0.1096  0.3566 -0.0806
 2786SOL    HW119037   0.556   7.886   3.453  0.7530  0.9428 -0.9916
 2786SOL    HW219038   0.485   7.970   3.332 -0.6129 -0.9403 -1.5204
 2787SOL     OW19039   0.116   4.743   1.475 -0.0927  0.0838  0.3363
 2787SOL    HW119040   0.187   4.777   1.537  0.8237  0.4274 -0.8942
 2787SOL    HW219041   0.042   4.704   1.529 -0.4272  2.5655  1.7383
 2788SOL     OW19042   5.103   0.381   3.815  0.1333  0.2582 -0.0445
 2788SOL    HW119043   5.163   0.302   3.799 -0.4398  0.1234 -1.5599
 2788SOL    HW219044   5.012   0.349   3.841  0.5658  0.4618  1.8200
 2789SOL     OW19045   1.897   6.558   0.588  0.0147 -0.5681 -0.0850
 2789SOL    HW119046   1.811   6.523   0.551  1.2737  0.7139 -4.4182
 2789SOL    HW219047   1.956   6.481   0.614 -0.6877 -1.5408 -1.3388
 2790SOL     OW19048   7.052   9.810   3.664 -0.2483  0.6621 -0.2576
 2790SOL    HW119049   7.101   9.727   3.691 -0.9035 -0.1696 -1.5640
 2790SOL    HW219050   6.984   9.832   3.734  2.2889  2.1334  1.8369
 2791SOL     OW19051   4.580   3.367   0.941 -0.2862  0.3210  0.2345
 2791SOL    HW119052   4.618   3.408   0.858 -1.4545  1.6248  0.3352
 2791SOL    HW219053   4.587   3.432   1.017 -1.2913 -0.0102  0.6192
 2792SOL     OW19054   2.825   0.528   3.654  0.3412  0.0558 -0.5417
 2792SOL    HW119055   2.847   0.449   3.597 -1.3801 -0.3439 -0.6801
 2792SOL    HW219056   2.892   0.536   3.728  0.5156 -1.5486 -0.5204
 2793SOL     OW19057   7.605   0.272   0.743 -0.2446 -0.3513  0.4760
 2793SOL    HW119058   7.507   0.277   0.763 -0.3568  4.0759 -0.8060
 2793SOL    HW219059   7.618   0.228   0.654 -0.9823 -1.4842  0.9067
 2794SOL     OW19060   8.133   0.871   2.014  0.3054  0.7697 -0.6604
 2794SOL    HW119061   8.122   0.967   1.989 -2.7990  1.0276  1.3263
 2794SOL    HW219062   8.074   0.815   1.956  0.3447  0.3447 -0.2896
 2795SOL     OW19063   1.261   9.656   1.585 -0.2879  0.6392 -0.1509
 2795SOL    HW119064   1.223   9.697   1.667  0.4996 -0.5983  0.8574
 2795SOL    HW219065   1.354   9.624   1.603 -0.3558 -0.2875 -1.3071
 2796SOL     OW19066   3.077   0.869   4.101  0.0372 -0.3541 -0.9098
 2796SOL    HW119067   3.121   0.922   4.029  2.1974 -0.8257  0.0380
 2796SOL    HW219068   3.040   0.932   4.170  0.0928  0.0039 -1.2006
 2797SOL     OW19069   2.065   0.595   1.806 -0.1338 -0.9959  0.3734
 2797SOL    HW119070   2.018   0.562   1.724  0.6544 -2.2390  0.4105
 2797SOL    HW219071   2.004   0.589   1.884 -0.3047 -1.4912  0.2051
 2798SOL     OW19072   1.046   6.335   3.149  0.1669 -0.4524 -0.4690
 2798SOL    HW119073   1.042   6.351   3.248  0.0973 -0.7711 -0.4200
 2798SOL    HW219074   1.042   6.423   3.101  0.1749 -0.2992 -0.1897
 2799SOL     OW19075   9.879   8.741   1.780  0.6196 -0.0376 -0.4708
 2799SOL    HW119076   9.967   8.718   1.739  0.6267  2.6207 -2.0392
 2799SOL    HW219077   9.886   8.829   1.827 -1.4881  0.7753 -1.6234
 2800SOL     OW19078   0.421   8.039   1.269  0.5612  0.0449  0.3417
 2800SOL    HW119079   0.338   8.081   1.305  0.8087  1.2838 -0.5036
 2800SOL    HW219080   0.397   7.981   1.191  0.2817 -0.9944  1.1936
 2801SOL     OW19081   3.263   1.128   1.492 -0.4003 -0.2505  0.8647
 2801SOL    HW119082   3.216   1.092   1.412  0.2322  1.0922 -0.1437
 2801SOL    HW219083   3.345   1.074   1.511 -0.8507 -0.9031  0.9446
 2802SOL     OW19084   2.612   3.124   4.167  0.4496  0.1944  0.1827
 2802SOL    HW119085   2.516   3.100   4.152  0.2013  0.1406  1.7267
 2802SOL    HW219086   2.617   3.218   4.202  1.2556  1.6743 -3.7043
 2803SOL     OW19087   3.847   4.367   0.470 -0.9877 -0.0556 -0.6751
 2803SOL    HW119088   3.822   4.418   0.552 -0.5421  0.9341 -1.1403
 2803SOL    HW219089   3.821   4.420   0.389 -0.8346 -0.7265 -1.1646
 2804SOL     OW19090   9.600   1.365   4.199 -0.4261  0.7286 -0.6839
 2804SOL    HW119091   9.619   1.299   4.126 -0.4602  0.4228 -0.4191
 2804SOL    HW219092   9.524   1.424   4.172 -1.2817 -0.2113 -0.3835
 2805SOL     OW19093   9.478   2.685   2.169  0.1278 -0.0223 -0.1651
 2805SOL    HW119094   9.399   2.625   2.158  0.0070  0.2699 -0.9430
 2805SOL    HW219095   9.480   2.751   2.094  1.5346 -0.5251 -0.5806
 2806SOL     OW19096   0.361   2.939   3.499 -0.1133 -0.7509  0.0747
 2806SOL    HW119097   0.269   2.974   3.516 -0.4193 -0.8591 -1.3263
 2806SOL    HW219098   0.401   2.988   3.421  1.2366 -0.3028  1.0303
 2807SOL     OW19099   0.110   7.337   4.173  0.2575 -0.2209  0.2142
 2807SOL    HW119100   0.154   7.427   4.180  1.6403 -0.7447 -1.4462
 2807SOL    HW219101   0.036   7.340   4.106 -0.1017 -0.1807  0.6067
 2808SOL     OW19102   9.858   5.948   0.592  0.1293  0.1713  0.1446
 2808SOL    HW119103   9.930   5.879   0.589  0.8836  1.0009 -2.0129
 2808SOL    HW219104   9.896   6.037   0.565 -1.4158  0.8849  0.2526
 2809SOL     OW19105   7.571   0.570   3.540  0.0276  0.5951 -0.2072
 2809SOL    HW119106   7.559   0.641   3.610  2.5397  2.5054 -1.6114
 2809SOL    HW219107   7.666   0.572   3.507 -0.6630 -1.4052 -2.4311
 2810SOL     OW19108   4.618   8.541   0.989 -0.3351  0.2163  0.4720
 2810SOL    HW119109   4.637   8.495   0.902 -0.2250  0.2790  0.4620
 2810SOL    HW219110   4.612   8.474   1.062  0.8271  0.2722  0.6257
 2811SOL     OW19111   7.752   7.970   2.747 -0.0574  0.4982 -0.0646
 2811SOL    HW119112   7.826   7.952   2.681 -0.1835  1.5080 -0.4949
 2811SOL    HW219113   7.791   8.003   2.833 -0.0582  2.4728 -0.7848
 2812SOL     OW19114   8.333   9.274   3.709  0.5043 -0.0174 -0.8659
 2812SOL    HW119115   8.356   9.265   3.612  1.0063  2.7263 -1.0520
 2812SOL    HW219116   8.416   9.262   3.764  0.3297 -0.9629 -0.7973
 2813SOL     OW19117   0.228   6.248   3.613  0.2989 -0.0443  0.8503
 2813SOL    HW119118   0.178   6.251   3.700  2.2512 -0.5910  2.0297
 2813SOL    HW219119   0.246   6.153   3.589  3.2845  0.1951  1.9682
 2814SOL     OW19120   3.522   9.143   1.299 -0.4263 -0.6507 -0.6017
 2814SOL    HW119121   3.590   9.070   1.289 -0.9954 -1.4344  0.9484
 2814SOL    HW219122   3.549   9.202   1.376 -0.6687 -0.0217 -1.0023
 2815SOL     OW19123   9.053   1.593   4.209  0.1131 -0.6881 -0.5296
 2815SOL    HW119124   9.087   1.684   4.233 -1.8348  0.0007 -0.2198
 2815SOL    HW219125   9.096   1.525   4.268  2.2459 -0.0879 -1.3466
 2816SOL     OW19126   4.781   8.424   4.504  0.0635  0.0449 -0.0234
 2816SOL    HW119127   4.709   8.414   4.574  1.0742 -1.1145  0.8776
 2816SOL    HW219128   4.869   8.400   4.544  0.9514  1.3509 -1.1615
 2817SOL     OW19129   8.208   5.216   3.014  0.1128 -0.5196  0.8505
 2817SOL    HW119130   8.172   5.242   2.924  1.0014 -2.1106  0.0026
 2817SOL    HW219131   8.168   5.274   3.084 -2.9601 -1.2181 -0.2165
 2818SOL     OW19132   1.251   0.007   4.086 -0.4777 -0.3725  0.3198
 2818SOL    HW119133   1.311  -0.065   4.051  0.2753 -0.2813  1.3925
 2818SOL    HW219134   1.235  -0.008   4.183 -1.9761 -0.2302  0.0933
 2819SOL     OW19135   1.927   2.624   3.343 -0.0155  0.2128 -0.3677
 2819SOL    HW119136   1.862   2.639   3.417 -0.2150  0.4035 -0.5799
 2819SOL    HW219137   1.878   2.599   3.260  0.1916  0.2267 -0.4956
 2820SOL     OW19138   1.543   9.953   0.116  0.3307  0.0185  0.4547
 2820SOL    HW119139   1.631   9.945   0.163 -0.1626  0.1893  1.4267
 2820SOL    HW219140   1.486  10.021   0.163  0.6902  1.8857 -1.7439
 2821SOL     OW19141   6.777   9.474   3.165 -0.3565 -0.2830  0.6192
 2821SOL    HW119142   6.774   9.496   3.068 -0.4769 -2.8991 -0.0077
 2821SOL    HW219143   6.858   9.517   3.207  0.7645 -0.7352 -1.0548
 2822SOL     OW19144   4.855   2.892   1.473 -0.2355  0.4022 -0.0836
 2822SOL    HW119145   4.864   2.802   1.516  0.5989  0.8948  0.8057
 2822SOL    HW219146   4.866   2.884   1.374 -2.2332 -0.7618 -0.2307
 2823SOL     OW19147   2.539   0.648   3.736  0.7927  0.4969 -0.3123
 2823SOL    HW119148   2.589   0.677   3.655  0.6877 -1.6829 -1.1886
 2823SOL    HW219149   2.443   0.633   3.712  0.9080 -0.8495  0.0236
 2824SOL     OW19150   1.594   4.304   1.233 -0.6481  0.3048  0.1425
 2824SOL    HW119151   1.669   4.257   1.188 -1.3091  0.0701 -0.7180
 2824SOL    HW219152   1.511   4.250   1.226 -1.2421  1.2412 -0.2020
 2825SOL     OW19153   9.102   5.010   1.587  0.0414 -0.1267  0.7745
 2825SOL    HW119154   9.074   4.996   1.682 -0.8971 -1.5200  0.3218
 2825SOL    HW219155   9.075   4.930   1.533  2.3864 -0.2477 -0.2572
 2826SOL     OW19156   7.612   5.153   3.496  0.1785 -0.2260  0.5243
 2826SOL    HW119157   7.563   5.073   3.530 -0.5222 -0.1334 -0.2591
 2826SOL    HW219158   7.572   5.182   3.409  2.1134 -0.6399 -0.5461
 2827SOL     OW19159   2.394   0.087   3.364  0.0809  0.2587  0.1003
 2827SOL    HW119160   2.489   0.086   3.331  0.8542 -0.9801  2.2661
 2827SOL    HW219161   2.365   0.182   3.376  1.5587  0.6559  0.7527
 2828SOL     OW19162   8.993   7.728   4.660 -0.1286  0.0555  0.1000
 2828SOL    HW119163   8.922   7.787   4.620  0.5249 -0.0119 -1.1919
 2828SOL    HW219164   9.075   7.733   4.603  1.2276  0.8370  2.0524
 2829SOL     OW19165   4.700   3.106   1.063  0.0584 -0.0398  0.3208
 2829SOL    HW119166   4.653   3.190   1.035 -1.6321 -0.5187  1.6707
 2829SOL    HW219167   4.787   3.099   1.014  0.7144  3.0423  0.9568
 2830SOL     OW19168   7.743   1.757   2.469  0.0213 -0.8662 -0.3282
 2830SOL    HW119169   7.758   1.660   2.449  0.2947 -0.4656 -2.2229
 2830SOL    HW219170   7.825   1.796   2.511  0.2615 -1.2498 -0.4357
 2831SOL     OW19171   2.400   1.824   1.590 -0.3124  0.0215 -0.2907
 2831SOL    HW119172   2.394   1.732   1.550 -0.8354 -0.0225 -0.1119
 2831SOL    HW219173   2.492   1.861   1.573  0.2574 -0.9584  0.5571
 2832SOL     OW19174   9.438   7.227   0.228 -0.3579 -0.2352 -0.1576
 2832SOL    HW119175   9.466   7.291   0.156  0.9809 -0.6882 -0.0403
 2832SOL    HW219176   9.351   7.258   0.266 -0.4497  0.7180 -1.0957
 2833SOL     OW19177   3.437   5.058   4.272  0.0868  0.1991  0.3431
 2833SOL    HW119178   3.482   4.975   4.240  1.5648  0.9357  0.4573
 2833SOL    HW219179   3.411   5.047   4.368  1.7058  0.4417  0.8127
 2834SOL     OW19180   9.430   6.312   2.993 -0.2107  0.3619 -0.2788
 2834SOL    HW119181   9.374   6.231   3.010 -0.5186  0.8627  1.2552
 2834SOL    HW219182   9.504   6.290   2.930 -0.7088 -0.9287 -0.4200
 2835SOL     OW19183   3.856   9.778   0.308 -0.2423 -0.7665 -0.0445
 2835SOL    HW119184   3.828   9.871   0.285  1.1595 -0.2428  0.3364
 2835SOL    HW219185   3.840   9.761   0.405  0.7827 -0.4664  0.1725
 2836SOL     OW19186   2.931   7.317   4.467 -0.5511  0.0157  0.7469
 2836SOL    HW119187   2.885   7.404   4.452  0.6610  0.4013 -0.7712
 2836SOL    HW219188   2.936   7.266   4.381  1.2931 -0.2863  1.0154
 2837SOL     OW19189   9.696   5.607   3.623 -0.0921 -0.2022  0.0041
 2837SOL    HW119190   9.609   5.642   3.587  0.6400  1.1763 -0.4577
 2837SOL    HW219191   9.771   5.662   3.586  1.0954 -2.2908 -0.7306
 2838SOL     OW19192   3.154   2.953   2.899  0.6430  0.0081 -0.2561
 2838SOL    HW119193   3.121   2.858   2.897 -0.2811  0.3063  0.2458
 2838SOL    HW219194   3.203   2.973   2.815  0.1677 -0.6889 -0.7042
 2839SOL     OW19195   2.194   6.685   0.686 -0.8790 -0.2468 -0.2915
 2839SOL    HW119196   2.166   6.749   0.758 -1.5099 -0.1326 -0.6410
 2839SOL    HW219197   2.124   6.681   0.615 -0.4566 -0.6938 -0.6875
 2840SOL     OW19198   6.877   9.775   1.147 -0.1841  0.4577  1.0493
 2840SOL    HW119199   6.790   9.757   1.192  0.8220 -1.0587  2.4911
 2840SOL    HW219200   6.910   9.690   1.104  0.6248  0.9830  0.6287
 2841SOL     OW19201   7.581   8.139   2.607 -0.0632  0.0224 -0.1132
 2841SOL    HW119202   7.526   8.069   2.560  0.4000 -1.9181  2.1633
 2841SOL    HW219203   7.658   8.096   2.653  0.6136  2.1312  0.7896
 2842SOL     OW19204   7.714   8.024   2.264 -0.2213  0.4554 -0.0258
 2842SOL    HW119205   7.768   8.097   2.305  0.0968  0.1103  0.1806
 2842SOL    HW219206   7.652   8.062   2.196  2.8177  0.4583 -2.8740
 2843SOL     OW19207   9.146   7.389   0.021  0.0712  0.6288 -0.0536
 2843SOL    HW119208   9.081   7.392  -0.055  1.2488 -0.9183 -1.1574
 2843SOL    HW219209   9.233   7.428  -0.008  0.0254  1.6052  1.0583
 2844SOL     OW19210   5.089   9.254   3.099  0.3319  0.4302 -0.2069
 2844SOL    HW119211   4.996   9.260   3.062  1.1064  0.2640 -2.2468
 2844SOL    HW219212   5.089   9.199   3.182 -1.0981 -1.2191 -1.2643
 2845SOL     OW19213   2.433   6.195   3.653 -0.4560  0.4374  0.4833
 2845SOL    HW119214   2.355   6.254   3.629  0.8790  2.2115  0.4389
 2845SOL    HW219215   2.446   6.126   3.582 -0.9133  1.2238 -0.3720
 2846SOL     OW19216   4.191   0.315   0.051 -0.1093  0.1483  0.0174
 2846SOL    HW119217   4.137   0.370  -0.013  1.7843  1.0579 -0.8290
 2846SOL    HW219218   4.190   0.219   0.021 -0.2607  0.3645 -0.6825
 2847SOL     OW19219   1.726   4.345   3.285  1.1481  0.2834  0.2826
 2847SOL    HW119220   1.682   4.434   3.297  0.3093  0.0281 -0.8209
 2847SOL    HW219221   1.664   4.284   3.235  1.5681 -1.0404  1.3497
 2848SOL     OW19222   9.409   5.243   2.083  0.5348  0.3586  0.2978
 2848SOL    HW119223   9.342   5.233   2.010 -0.9750  0.1640  1.6940
 2848SOL    HW219224   9.466   5.323   2.064 -1.0661  1.4276 -0.1446
 2849SOL     OW19225   2.745   3.837   0.474  0.5014  0.0018 -0.2464
 2849SOL    HW119226   2.650   3.811   0.458  0.2012 -0.4486  2.1567
 2849SOL    HW219227   2.802   3.801   0.400 -0.9329 -1.3165 -0.7325
 2850SOL     OW19228   9.355   1.737   1.473  1.0166  0.2034  0.2577
 2850SOL    HW119229   9.345   1.741   1.573 -0.2114  2.2758  0.0839
 2850SOL    HW219230   9.439   1.785   1.446  0.5240  1.0411  0.1913
 2851SOL     OW19231   3.532   2.658   1.103 -0.1459 -0.2635  0.2715
 2851SOL    HW119232   3.570   2.732   1.047  1.5089 -1.3009 -0.0160
 2851SOL    HW219233   3.559   2.672   1.199  0.1326 -0.4643  0.2233
 2852SOL     OW19234   9.746   5.880   2.200  0.4554 -0.6576 -0.2575
 2852SOL    HW119235   9.658   5.891   2.154  1.4054  0.1712 -1.9104
 2852SOL    HW219236   9.743   5.927   2.288 -0.5303 -0.0886 -0.5835
 2853SOL     OW19237   9.227   6.042   1.693  0.2553  0.2777  0.0844
 2853SOL    HW119238   9.324   6.045   1.670  0.2035  1.3429 -0.0523
 2853SOL    HW219239   9.203   5.952   1.728  1.0096 -0.3981 -1.1209
 2854SOL     OW19240   0.361   5.993   4.492  0.4464  0.2193  0.5498
 2854SOL    HW119241   0.278   5.956   4.534  0.1331 -0.1113 -0.3429
 2854SOL    HW219242   0.336   6.062   4.424  0.9624  0.9715  1.1044
 2855SOL     OW19243   7.764   8.671   2.950 -0.3460  0.1226 -0.2365
 2855SOL    HW119244   7.829   8.602   2.918  0.9945  0.6873  1.2080
 2855SOL    HW219245   7.720   8.715   2.871 -1.6297 -2.7311 -1.1577
 2856SOL     OW19246   8.695   5.061   0.544 -0.1435 -0.4609 -0.2560
 2856SOL    HW119247   8.599   5.090   0.541 -0.0935 -0.2493  0.0554
 2856SOL    HW219248   8.707   4.995   0.618  0.0298 -0.1729 -0.0243
 2857SOL     OW19249   8.922   1.370   1.215  0.1412  0.8439 -0.1180
 2857SOL    HW119250   8.960   1.379   1.307  2.1810  0.7531 -0.9178
 2857SOL    HW219251   8.982   1.417   1.150  0.5230 -1.9187 -1.8135
 2858SOL     OW19252   8.814   7.824   3.585  0.3140  0.6512  0.5990
 2858SOL    HW119253   8.832   7.921   3.573 -0.2352  0.5415 -1.2529
 2858SOL    HW219254   8.785   7.784   3.498 -1.4261 -0.7550  1.7914
 2859SOL     OW19255   0.728   6.774   2.979  0.1095 -0.1273  0.3113
 2859SOL    HW119256   0.722   6.824   2.893 -0.7004  0.2854  0.6004
 2859SOL    HW219257   0.796   6.817   3.038 -0.1536  0.2732  0.3237
 2860SOL     OW19258   7.956   1.818   0.617 -0.3727 -0.4994 -0.5245
 2860SOL    HW119259   7.865   1.815   0.659  0.2227  1.5701  0.9919
 2860SOL    HW219260   7.952   1.780   0.525 -2.2103 -2.9993  0.5122
 2861SOL     OW19261   7.687   1.283   3.200 -0.0699  0.0381 -0.2756
 2861SOL    HW119262   7.677   1.350   3.126 -0.3628 -0.6309 -0.8407
 2861SOL    HW219263   7.705   1.193   3.161 -1.8538 -0.6337  0.4001
 2862SOL     OW19264   2.935   4.114   2.027 -0.3129  0.2765 -0.4639
 2862SOL    HW119265   3.026   4.129   2.066 -0.2043 -0.9998 -0.2204
 2862SOL    HW219266   2.871   4.093   2.101 -0.9079  1.6263 -0.5862
 2863SOL     OW19267   9.016   2.878   3.475 -0.0688  0.2756 -0.0852
 2863SOL    HW119268   9.083   2.804   3.466 -0.5096 -0.1887  0.4301
 2863SOL    HW219269   8.986   2.885   3.570 -2.9557 -1.4678 -0.8193
 2864SOL     OW19270   2.501   2.568   4.748 -0.1472  0.3977 -0.2283
 2864SOL    HW119271   2.469   2.660   4.772  0.2593  0.6957 -0.8219
 2864SOL    HW219272   2.558   2.533   4.822 -0.5323  0.5114  0.1246
 2865SOL     OW19273   6.968   8.395   2.254  0.0062 -0.4087 -0.3901
 2865SOL    HW119274   6.968   8.486   2.296  2.6024 -0.3817 -0.3417
 2865SOL    HW219275   6.938   8.402   2.159  2.0547  0.8381 -0.9773
 2866SOL     OW19276   8.527   0.100   0.566  0.5472 -0.3404  0.5790
 2866SOL    HW119277   8.625   0.115   0.580  0.5571  1.3433 -1.1586
 2866SOL    HW219278   8.513   0.038   0.489  0.2573 -1.8845  1.8394
 2867SOL     OW19279   1.884   0.489   1.595 -0.5161  0.1101 -0.4188
 2867SOL    HW119280   1.795   0.471   1.553  0.7133 -1.0110 -2.6033
 2867SOL    HW219281   1.912   0.583   1.573 -0.7267  0.1445 -0.5464
 2868SOL     OW19282   6.808   9.786   2.548  0.0562 -0.1492  0.0354
 2868SOL    HW119283   6.892   9.810   2.598 -0.3851  0.5092  0.4560
 2868SOL    HW219284   6.825   9.796   2.449  0.3104  0.5108  0.1387
 2869SOL     OW19285   3.971   7.798   3.233 -0.4680 -0.0743 -0.8787
 2869SOL    HW119286   3.972   7.896   3.213  1.3817  0.0472 -0.2274
 2869SOL    HW219287   3.912   7.781   3.313  2.5729  1.0756  1.7067
 2870SOL     OW19288   2.372   2.093   2.825  0.5814  0.4664  0.1913
 2870SOL    HW119289   2.380   2.045   2.913 -0.3297  0.9359  0.5307
 2870SOL    HW219290   2.281   2.076   2.786  1.1352 -0.1085 -0.8835
 2871SOL     OW19291   2.300   2.538   0.362 -0.2571  0.0911  0.6024
 2871SOL    HW119292   2.298   2.599   0.284  2.0792 -0.0497  0.4162
 2871SOL    HW219293   2.208   2.502   0.379 -1.5160  3.0758  0.2955
 2872SOL     OW19294   7.654   8.635   2.417  0.3489 -0.2561  0.1710
 2872SOL    HW119295   7.642   8.657   2.320 -1.3650  0.2741  0.4760
 2872SOL    HW219296   7.632   8.539   2.432 -1.4431  0.1622  0.3508
 2873SOL     OW19297   8.037   3.797   4.461 -0.0391  0.1239  0.3711
 2873SOL    HW119298   8.008   3.888   4.492  0.4468  0.4660 -0.1849
 2873SOL    HW219299   7.985   3.772   4.379 -0.6744 -0.4028  0.9259
 2874SOL     OW19300   8.331   1.047   0.697 -0.3175  0.4508 -0.0505
 2874SOL    HW119301   8.271   1.099   0.758 -1.1906 -1.1677  0.5184
 2874SOL    HW219302   8.279   0.972   0.657  0.8969  0.0570 -0.9163
 2875SOL     OW19303   0.791   3.718   2.412 -1.3832 -0.0160 -0.5234
 2875SOL    HW119304   0.803   3.641   2.475 -0.6707  0.4969 -0.0335
 2875SOL    HW219305   0.695   3.746   2.412 -0.9938  1.4276  2.0189
 2876SOL     OW19306   2.965   4.676   3.133  0.1089 -0.2492  0.6334
 2876SOL    HW119307   2.907   4.722   3.066 -0.0960  0.2189  1.1204
 2876SOL    HW219308   2.966   4.730   3.218  1.1363 -0.3375  0.6739
 2877SOL     OW19309   5.608   7.575   2.168  0.2157 -0.2829 -0.4477
 2877SOL    HW119310   5.514   7.607   2.156 -0.0078 -1.0982 -0.9182
 2877SOL    HW219311   5.627   7.502   2.103  1.0646 -0.3688 -0.1125
 2878SOL     OW19312   9.233   4.274   2.001  0.0698  0.0016  0.1207
 2878SOL    HW119313   9.275   4.183   2.007 -2.4277 -1.1032  1.7943
 2878SOL    HW219314   9.302   4.344   2.020  1.6093 -1.6317  0.7214
 2879SOL     OW19315   6.111   0.564   3.513  0.7859 -0.1307 -0.3694
 2879SOL    HW119316   6.067   0.613   3.588  1.7628 -1.8617  1.3650
 2879SOL    HW219317   6.136   0.630   3.441 -2.3294  1.2114 -0.3050
 2880SOL     OW19318   3.825   9.996   1.811  0.1207 -0.1993  0.0897
 2880SOL    HW119319   3.769   9.913   1.808  1.8341 -1.4211  1.0481
 2880SOL    HW219320   3.920   9.973   1.790  0.4185  1.7336 -0.8318
 2881SOL     OW19321   9.778   0.552   2.964  0.0068  0.6404 -0.1342
 2881SOL    HW119322   9.862   0.498   2.954 -0.9197 -0.9355  0.3730
 2881SOL    HW219323   9.752   0.555   3.061 -0.5179  1.1141 -0.2882
 2882SOL     OW19324   6.472   9.669   0.659  0.5306  0.7424  0.0766
 2882SOL    HW119325   6.478   9.736   0.585 -1.5671  1.2501  0.3389
 2882SOL    HW219326   6.540   9.597   0.644  1.6029  1.9768 -1.1620
 2883SOL     OW19327   5.047   1.555   0.835 -0.1817 -0.3618  0.1407
 2883SOL    HW119328   5.029   1.458   0.854  1.8863 -0.8563 -0.2766
 2883SOL    HW219329   4.963   1.607   0.847 -0.4344 -1.5574  4.6158
 2884SOL     OW19330   8.607   8.070   3.561 -0.3645 -0.6267 -0.0340
 2884SOL    HW119331   8.551   8.039   3.484  0.5424  1.9874 -1.8341
 2884SOL    HW219332   8.590   8.167   3.577  0.9493 -0.6822  1.7849
 2885SOL     OW19333   9.305   4.056   0.104  0.0441 -0.0718  0.0927
 2885SOL    HW119334   9.268   4.149   0.098  0.5233  0.0308 -1.6329
 2885SOL    HW219335   9.393   4.052   0.058  0.2841 -1.2644  0.6369
 2886SOL     OW19336   9.978   0.744   3.851  0.8558 -0.1158 -0.3663
 2886SOL    HW119337  10.052   0.677   3.842  0.7258 -0.4403  0.9214
 2886SOL    HW219338   9.905   0.704   3.906  1.4608  1.6592  1.7739
 2887SOL     OW19339   8.565   3.240   3.249 -0.5925  0.2211 -0.4191
 2887SOL    HW119340   8.506   3.317   3.273  1.8007  1.7267  0.8244
 2887SOL    HW219341   8.642   3.236   3.313  0.0383 -2.4068 -1.2878
 2888SOL     OW19342   2.930   3.483   0.243 -0.6670 -0.3049  0.2118
 2888SOL    HW119343   3.007   3.499   0.306 -0.6542  0.7378 -0.0653
 2888SOL    HW219344   2.965   3.459   0.153 -0.6677  0.5764 -0.0201
 2889SOL     OW19345   8.566   3.046   1.781  0.0442  0.5889 -0.0471
 2889SOL    HW119346   8.510   3.114   1.830  0.2002  0.6041  0.1109
 2889SOL    HW219347   8.506   2.984   1.731 -0.2812 -1.3723  2.6956
 2890SOL     OW19348   1.364   0.643   2.256  0.2311 -0.2060  0.1996
 2890SOL    HW119349   1.379   0.600   2.345  0.4028 -1.0316 -0.2238
 2890SOL    HW219350   1.451   0.678   2.221 -0.0351  1.1635  0.8837
 2891SOL     OW19351   2.820   8.343   3.352  0.0197  0.0107 -0.0900
 2891SOL    HW119352   2.737   8.305   3.311  0.2863 -1.5892  0.8333
 2891SOL    HW219353   2.818   8.329   3.451  0.9724  0.7880  0.0471
 2892SOL     OW19354   5.741   0.600   2.161 -0.7018 -0.2017  0.7455
 2892SOL    HW119355   5.800   0.641   2.091 -0.8420 -0.8181  0.2540
 2892SOL    HW219356   5.660   0.560   2.116 -0.9957 -0.2413  1.3060
 2893SOL     OW19357   2.745   6.146   1.763 -0.1321 -0.1617  0.3618
 2893SOL    HW119358   2.665   6.103   1.720  2.2569 -1.3620 -3.0876
 2893SOL    HW219359   2.738   6.245   1.751 -1.3437 -0.2198  0.5031
 2894SOL     OW19360   1.119   0.084   2.981  0.2707 -0.0363 -1.0766
 2894SOL    HW119361   1.155  -0.003   3.014  0.5845  0.2307 -0.7108
 2894SOL    HW219362   1.085   0.137   3.058  0.1667  0.2090 -1.2898
 2895SOL     OW19363   9.570   6.692   4.172  0.0907 -0.2020 -0.5765
 2895SOL    HW119364   9.527   6.705   4.083 -0.6532 -0.4864 -0.2553
 2895SOL    HW219365   9.594   6.595   4.184  2.6961  0.2571 -1.6084
 2896SOL     OW19366   8.472   7.921   1.523 -0.0713  0.4722  0.6841
 2896SOL    HW119367   8.403   7.867   1.475  1.0094 -0.5202  0.2057
 2896SOL    HW219368   8.480   8.011   1.481 -0.5401  0.3184  0.2653
 2897SOL     OW19369   3.364   9.409   3.314 -0.0210 -0.0428  0.2243
 2897SOL    HW119370   3.429   9.445   3.381  1.7851 -0.1535 -1.4221
 2897SOL    HW219371   3.393   9.319   3.284 -1.8444 -0.8023  0.6443
 2898SOL     OW19372   7.340   8.487   2.129  0.4721  0.5312 -0.6264
 2898SOL    HW119373   7.356   8.580   2.095 -0.8845  0.9800 -0.0415
 2898SOL    HW219374   7.312   8.490   2.224  3.1173 -0.6685  0.2315
 2899SOL     OW19375   2.958   5.886   2.458  0.1063 -0.2400 -0.0011
 2899SOL    HW119376   3.051   5.923   2.456  0.2594 -0.6206  0.0604
 2899SOL    HW219377   2.943   5.840   2.546 -1.1183  2.3487  1.1941
 2900SOL     OW19378   3.498   2.994   0.684 -0.2834 -0.2083  0.5221
 2900SOL    HW119379   3.445   3.052   0.622 -0.5813 -1.7987 -0.7349
 2900SOL    HW219380   3.595   3.016   0.675 -0.2748 -0.7392 -0.8714
 2901SOL     OW19381   8.064   8.206   3.965  0.5439  0.5155 -0.1919
 2901SOL    HW119382   8.009   8.289   3.973  1.2449  1.0785 -1.1149
 2901SOL    HW219383   8.092   8.194   3.870  1.4213 -0.1560  0.1509
 2902SOL     OW19384   8.141   0.849   3.598  0.4856 -0.4858 -0.1157
 2902SOL    HW119385   8.130   0.837   3.500  0.3247  0.6383 -0.2425
 2902SOL    HW219386   8.062   0.900   3.634  0.4032 -1.1392  0.6366
 2903SOL     OW19387   9.232   0.032   0.853  0.8060  0.1159  0.1571
 2903SOL    HW119388   9.291  -0.047   0.836  0.6908  0.0145  0.2369
 2903SOL    HW219389   9.187   0.022   0.941  1.4573  0.6814  0.5572
 2904SOL     OW19390   9.380   0.941   1.715  0.8725  0.1667 -0.5984
 2904SOL    HW119391   9.417   0.901   1.631 -0.4350  1.6505 -1.8995
 2904SOL    HW219392   9.455   0.960   1.779  1.7884 -1.7753 -1.0519
 2905SOL     OW19393   4.458   8.679   0.129 -0.0233  0.1843 -0.0015
 2905SOL    HW119394   4.556   8.664   0.125 -0.3827 -2.5767  0.4711
 2905SOL    HW219395   4.432   8.703   0.223 -0.0616 -1.1642  0.3352
 2906SOL     OW19396   1.310   7.589   2.029  0.5171 -0.6579  0.4967
 2906SOL    HW119397   1.375   7.514   2.025 -0.4708 -1.5906  1.6536
 2906SOL    HW219398   1.228   7.560   2.078 -1.5991 -0.1181 -2.6291
 2907SOL     OW19399   1.555   0.517   0.933  0.0183 -0.7778  0.2613
 2907SOL    HW119400   1.475   0.521   0.993 -0.6700  0.6430 -0.7082
 2907SOL    HW219401   1.615   0.595   0.952 -0.1839 -0.3389 -0.8180
 2908SOL     OW19402   4.777   9.892   4.302 -0.2877 -0.6250 -0.6315
 2908SOL    HW119403   4.833   9.857   4.227 -1.4206  0.1678 -1.8751
 2908SOL    HW219404   4.770   9.822   4.373  1.5864 -1.0379 -0.8094
 2909SOL     OW19405   2.811   1.345   1.788  0.3009 -0.2677 -0.2002
 2909SOL    HW119406   2.811   1.371   1.692  1.6820 -0.9254 -0.3938
 2909SOL    HW219407   2.775   1.253   1.798  0.2234 -0.2266 -0.1049
 2910SOL     OW19408   7.156   9.309   2.010  0.5959  0.0957  0.1150
 2910SOL    HW119409   7.064   9.275   2.029  0.9660 -1.1526 -0.3187
 2910SOL    HW219410   7.164   9.333   1.913  0.5614  0.7425  0.2672
 2911SOL     OW19411   3.023   0.177   3.912  0.1357  0.4864 -0.2005
 2911SOL    HW119412   2.979   0.121   3.841 -1.9667  1.3058  0.4385
 2911SOL    HW219413   3.092   0.122   3.959 -0.7198 -1.0736 -0.7250
 2912SOL     OW19414   7.719   6.530   3.183 -0.7332  0.1953  0.8348
 2912SOL    HW119415   7.800   6.476   3.160 -1.1859  0.5246 -1.7196
 2912SOL    HW219416   7.639   6.489   3.138 -1.6116  1.1434  1.5323
 2913SOL     OW19417   8.322   4.988   1.717 -0.2995 -0.8047  0.0192
 2913SOL    HW119418   8.310   5.082   1.748 -1.3782 -1.0335  0.2816
 2913SOL    HW219419   8.280   4.925   1.782 -0.0943 -1.4394 -0.4577
 2914SOL     OW19420   3.413   0.059   3.062  0.1990 -0.1817 -0.1745
 2914SOL    HW119421   3.440   0.140   3.010 -5.2211  2.1168  0.2102
 2914SOL    HW219422   3.384  -0.013   2.998  2.5753 -0.8953 -0.4683
 2915SOL     OW19423   2.736   6.412   4.242  0.6074  0.0411 -0.0031
 2915SOL    HW119424   2.655   6.448   4.287  0.0643  0.1817 -1.0780
 2915SOL    HW219425   2.709   6.356   4.164  1.5776  1.1034 -1.1075
 2916SOL     OW19426   0.123   0.748   2.283  0.4688 -0.1284 -0.0358
 2916SOL    HW119427   0.219   0.774   2.289  0.6371 -1.0081  1.6045
 2916SOL    HW219428   0.075   0.810   2.221  2.0967  0.2728 -0.9352
 2917SOL     OW19429   9.732   6.105   1.124  0.0785 -0.5619  0.1425
 2917SOL    HW119430   9.772   6.077   1.037  0.3073 -0.6579  0.2787
 2917SOL    HW219431   9.740   6.030   1.190 -2.4886 -1.4811 -0.5321
 2918SOL     OW19432   0.433   9.636   1.744 -0.1971  0.0049 -0.3662
 2918SOL    HW119433   0.479   9.550   1.723  0.0770 -0.8604  3.4952
 2918SOL    HW219434   0.490   9.692   1.804 -2.9259  0.1327  2.2293
 2919SOL     OW19435   9.328   2.971   0.803  0.5503 -0.7276  0.3733
 2919SOL    HW119436   9.351   2.874   0.806 -0.8957 -1.1004 -0.2225
 2919SOL    HW219437   9.258   2.987   0.733  1.1696  0.8295  0.0839
 2920SOL     OW19438   0.485   4.037   2.538  0.1731  0.6704 -0.1864
 2920SOL    HW119439   0.487   4.009   2.635 -2.0699  1.6203  0.1617
 2920SOL    HW219440   0.393   4.022   2.501  0.5926  1.8098 -1.7358
 2921SOL     OW19441   1.168   9.659   2.797 -0.2005  0.4329 -0.6482
 2921SOL    HW119442   1.239   9.660   2.867 -1.6731 -0.6038  0.9091
 2921SOL    HW219443   1.083   9.694   2.836 -0.9147  0.3053 -2.0645
 2922SOL     OW19444   0.626   2.494   3.103 -0.1272 -0.1583  0.3380
 2922SOL    HW119445   0.638   2.565   3.172 -1.2144  0.6595 -0.2986
 2922SOL    HW219446   0.695   2.507   3.031 -0.8564  0.7722 -0.2027
 2923SOL     OW19447   1.189   0.281   4.012 -0.0942 -0.2455  0.4262
 2923SOL    HW119448   1.101   0.302   4.054  1.8552  1.9988  3.5540
 2923SOL    HW219449   1.221   0.192   4.045 -0.3098 -0.1845  0.8061
 2924SOL     OW19450   2.085   7.146   4.100  0.3914 -0.2316  0.2366
 2924SOL    HW119451   2.167   7.172   4.049 -0.4559 -0.9749 -1.5742
 2924SOL    HW219452   2.110   7.118   4.193  2.4168 -2.1867 -0.8489
 2925SOL     OW19453   3.846   2.035   3.428  0.1097  0.1129  0.3114
 2925SOL    HW119454   3.754   2.044   3.465  0.1035 -0.3833  0.4235
 2925SOL    HW219455   3.911   2.019   3.502  0.0592 -1.1566  0.0966
 2926SOL     OW19456   8.825   6.954   1.252  0.1939 -0.1797  0.0735
 2926SOL    HW119457   8.878   7.016   1.309  0.1147 -0.8544  0.8903
 2926SOL    HW219458   8.852   6.860   1.271 -0.4859 -0.4630 -0.3350
 2927SOL     OW19459   6.989   0.554   3.565  0.5139 -0.6287  0.6246
 2927SOL    HW119460   7.009   0.480   3.630 -4.9523 -2.7275  0.2061
 2927SOL    HW219461   6.944   0.629   3.613 -0.2482 -0.6201 -0.0898
 2928SOL     OW19462   2.902   1.483   2.465  0.0286  0.2738  0.3706
 2928SOL    HW119463   2.942   1.574   2.480  0.3807 -0.1252  1.8728
 2928SOL    HW219464   2.832   1.490   2.395  1.1918  1.4005 -0.7194
 2929SOL     OW19465   0.224   0.271   1.846  0.3164  0.2783  0.2815
 2929SOL    HW119466   0.237   0.221   1.760 -1.1726 -0.3624  0.4053
 2929SOL    HW219467   0.133   0.251   1.882  0.3718  1.7076  1.2526
 2930SOL     OW19468   3.155   5.089   0.790  0.4220  0.5359 -0.1036
 2930SOL    HW119469   3.088   5.163   0.790  1.0731  1.1304  0.8297
 2930SOL    HW219470   3.137   5.028   0.866  1.0211  0.7678  0.2246
 2931SOL     OW19471   8.057   0.431   3.058  0.2775 -0.1132 -0.5820
 2931SOL    HW119472   8.134   0.478   3.015 -0.1053  1.8321  0.7912
 2931SOL    HW219473   7.973   0.457   3.011  0.2050 -0.3971 -0.6064
 2932SOL     OW19474   1.660   6.114   3.597 -0.0109  0.5611 -0.1222
 2932SOL    HW119475   1.726   6.042   3.577  1.3979  1.7309  0.2163
 2932SOL    HW219476   1.607   6.090   3.679  2.0552  0.9590  1.3668
 2933SOL     OW19477   4.868   0.748   4.400  0.4850 -0.2775  0.3991
 2933SOL    HW119478   4.818   0.753   4.486  1.7116 -1.0890  1.1716
 2933SOL    HW219479   4.803   0.733   4.325 -0.4817 -0.6612  1.2992
 2934SOL     OW19480   2.482   6.414   0.482  0.2262  0.8946  0.6187
 2934SOL    HW119481   2.459   6.495   0.428  2.8136  0.9954 -0.4216
 2934SOL    HW219482   2.548   6.440   0.553 -0.8738  0.1722  1.9262
 2935SOL     OW19483   9.106   5.163   0.770 -0.0605 -0.0234 -0.0177
 2935SOL    HW119484   9.054   5.188   0.688 -0.8125 -0.9242  0.1771
 2935SOL    HW219485   9.144   5.245   0.812 -0.7606  0.5702 -0.5397
 2936SOL     OW19486   2.617   9.408   2.623  0.3101 -0.0391  0.0782
 2936SOL    HW119487   2.651   9.502   2.628  0.5193 -0.0871 -0.4378
 2936SOL    HW219488   2.539   9.404   2.561  1.7008 -0.6072 -1.6725
 2937SOL     OW19489   4.214   3.292   1.133  0.0688  0.2452  0.2247
 2937SOL    HW119490   4.147   3.366   1.130  1.4192  1.4800 -0.4539
 2937SOL    HW219491   4.228   3.262   1.227 -0.4129  0.9313  0.5119
 2938SOL     OW19492   9.384   7.031   3.460  0.6788  0.2936  0.4518
 2938SOL    HW119493   9.382   7.058   3.364 -0.2384 -0.3782  0.2835
 2938SOL    HW219494   9.309   6.968   3.479  0.6810  0.6548  1.6799
 2939SOL     OW19495   5.278   0.036   3.206  0.7360  0.4026 -0.5008
 2939SOL    HW119496   5.324  -0.008   3.283  1.1965  0.2235 -0.8758
 2939SOL    HW219497   5.306  -0.008   3.120 -0.3357  0.1168 -0.7107
 2940SOL     OW19498   6.674   0.307   3.635  0.3964  0.5583 -0.2216
 2940SOL    HW119499   6.637   0.395   3.605  0.5957  0.7964  0.2272
 2940SOL    HW219500   6.602   0.238   3.631  0.5359  0.4771 -1.7019
 2941SOL     OW19501   9.219   1.977   2.624  0.1722  0.1311 -0.0794
 2941SOL    HW119502   9.283   1.978   2.547  0.4646 -0.9259  0.1400
 2941SOL    HW219503   9.218   1.886   2.665  0.6101  0.8882  1.6597
 2942SOL     OW19504   8.314   6.937   3.881  0.0400 -0.2484 -0.4134
 2942SOL    HW119505   8.324   6.991   3.798 -0.2886 -1.0042 -0.9491
 2942SOL    HW219506   8.402   6.933   3.929  0.5498 -0.8721 -1.3798
 2943SOL     OW19507   3.156   2.058   3.683  0.0885  0.4941  0.6024
 2943SOL    HW119508   3.133   2.104   3.768  0.6556  0.4868  0.7651
 2943SOL    HW219509   3.073   2.042   3.629 -0.2663  0.5006  1.1494
 2944SOL     OW19510   8.982   3.151   3.793 -0.3744 -0.3612 -0.2141
 2944SOL    HW119511   9.024   3.151   3.884 -0.8577 -1.0733  0.0159
 2944SOL    HW219512   8.995   3.061   3.751 -1.0991 -0.3708 -0.4151
 2945SOL     OW19513   0.648   3.137   4.562 -0.4461  0.0074 -0.5967
 2945SOL    HW119514   0.646   3.119   4.660 -0.1751 -0.2885 -0.6466
 2945SOL    HW219515   0.702   3.067   4.515 -2.9385 -1.5101 -1.3130
 2946SOL     OW19516   1.468   3.893   0.117  0.0962 -0.1330 -0.2654
 2946SOL    HW119517   1.394   3.849   0.068 -0.2017 -0.8862  0.8426
 2946SOL    HW219518   1.523   3.948   0.054 -0.7862 -0.4037 -1.2641
 2947SOL     OW19519   8.543   6.197   1.396  0.0625 -0.4323  0.1803
 2947SOL    HW119520   8.561   6.268   1.327 -0.0169 -0.3406  0.2533
 2947SOL    HW219521   8.535   6.108   1.351  1.7021 -0.6267  0.2450
 2948SOL     OW19522   1.361   8.817   0.367 -0.2429 -0.0561  0.0791
 2948SOL    HW119523   1.447   8.818   0.317  1.0229 -0.4567  2.1714
 2948SOL    HW219524   1.307   8.898   0.344  1.9644  1.6722  0.8601
 2949SOL     OW19525   4.557   7.792   3.964  0.0199 -0.5049 -0.2744
 2949SOL    HW119526   4.604   7.876   3.936  3.1372 -1.3955  1.9099
 2949SOL    HW219527   4.463   7.793   3.932  0.7679  2.6247 -2.5391
 2950SOL     OW19528   9.405   4.068   1.772 -0.7093 -1.0653 -0.0629
 2950SOL    HW119529   9.336   4.019   1.720 -1.3785 -1.6261  1.3385
 2950SOL    HW219530   9.384   4.063   1.870  1.1666 -1.0363  0.3698
 2951SOL     OW19531   8.184   5.394   0.549 -0.1004  0.1697 -0.1867
 2951SOL    HW119532   8.191   5.353   0.458  0.1745 -0.5262  0.1462
 2951SOL    HW219533   8.090   5.424   0.565 -0.2331 -0.0427 -0.5584
 2952SOL     OW19534   9.032   8.630   3.324  0.5300  0.0708  0.2921
 2952SOL    HW119535   9.093   8.572   3.270  0.7974  0.1015  0.5569
 2952SOL    HW219536   8.971   8.681   3.264  0.1972 -0.5991  0.0605
 2953SOL     OW19537   8.315   8.118   1.763 -0.6652 -0.4217 -0.0548
 2953SOL    HW119538   8.288   8.205   1.804 -2.2825 -0.9081 -0.0724
 2953SOL    HW219539   8.415   8.114   1.755 -0.6845  2.7451 -2.9490
 2954SOL     OW19540   4.194   3.988   2.559  0.2467  0.4186  0.5661
 2954SOL    HW119541   4.215   4.047   2.637 -3.5016  1.0323  1.2238
 2954SOL    HW219542   4.133   4.036   2.496  0.0388 -1.4793 -0.7278
 2955SOL     OW19543   1.300   9.501   1.125 -0.5294 -0.6742  0.0536
 2955SOL    HW119544   1.334   9.494   1.031 -0.4889 -1.4748  0.1247
 2955SOL    HW219545   1.223   9.563   1.129  0.4577  0.5835 -0.2475
 2956SOL     OW19546   5.523   1.150   1.864 -0.1312  0.0326 -0.3547
 2956SOL    HW119547   5.615   1.134   1.900 -1.1370 -0.7830  1.9630
 2956SOL    HW219548   5.503   1.085   1.791  0.8701 -0.2433 -0.3800
 2957SOL     OW19549   1.548   3.627   1.327 -0.3492 -0.7222  0.2775
 2957SOL    HW119550   1.579   3.684   1.251 -1.4272  0.8987  1.0126
 2957SOL    HW219551   1.469   3.573   1.298  0.7556 -1.9588 -0.4623
 2958SOL     OW19552   8.620   0.571   3.592  0.1716 -0.3661  0.6202
 2958SOL    HW119553   8.666   0.498   3.542  0.2197  0.8657 -1.1909
 2958SOL    HW219554   8.538   0.535   3.637  0.7218 -1.7236  0.5312
 2959SOL     OW19555   8.934   7.838   1.639  0.6896  0.3642 -0.6059
 2959SOL    HW119556   8.991   7.839   1.721  0.6293 -0.7942 -0.5398
 2959SOL    HW219557   8.886   7.925   1.631  1.5790  0.9156 -0.0388
 2960SOL     OW19558   0.069   9.858   2.063 -0.2411  0.3192  0.4667
 2960SOL    HW119559   0.078   9.776   2.006  0.1164  0.3746  0.4434
 2960SOL    HW219560   0.112   9.936   2.016  0.2663  0.3139  0.9236
 2961SOL     OW19561   7.815   0.451   1.732  0.1469 -0.5087 -0.5079
 2961SOL    HW119562   7.718   0.478   1.733 -0.7836 -3.6208  0.6399
 2961SOL    HW219563   7.864   0.503   1.662 -1.8526  2.6987  0.3446
 2962SOL     OW19564   8.385   1.812   1.625 -0.1782  0.0317 -0.6262
 2962SOL    HW119565   8.398   1.797   1.723 -1.6802 -2.4489 -0.7727
 2962SOL    HW219566   8.299   1.861   1.610  0.6941  1.5817 -0.6492
 2963SOL     OW19567   7.650   8.600   1.618 -0.0145  0.0890  0.4017
 2963SOL    HW119568   7.750   8.607   1.618  0.1059 -1.5002  0.5983
 2963SOL    HW219569   7.621   8.540   1.543 -0.9825  2.4949 -1.1893
 2964SOL     OW19570   8.438   4.618   4.380 -0.1971 -0.0495 -0.3698
 2964SOL    HW119571   8.490   4.640   4.298  0.1209 -0.0590 -0.1744
 2964SOL    HW219572   8.340   4.623   4.361 -0.1535  2.4431 -0.1069
 2965SOL     OW19573   5.946   1.017   2.947  0.2203  0.5538 -0.0894
 2965SOL    HW119574   5.939   0.920   2.971  1.1314 -0.0110 -2.0591
 2965SOL    HW219575   5.858   1.050   2.915  0.2570  0.0091 -0.7559
 2966SOL     OW19576   7.066   6.713   3.298 -0.4392 -0.4970 -0.4263
 2966SOL    HW119577   7.030   6.620   3.303  0.2418 -0.8887 -2.4441
 2966SOL    HW219578   7.163   6.713   3.321 -0.8356  0.0113  1.3524
 2967SOL     OW19579   9.747   1.649   0.197  0.2485 -0.5634 -0.4075
 2967SOL    HW119580   9.839   1.665   0.161 -0.0723 -0.6070 -1.2592
 2967SOL    HW219581   9.694   1.596   0.131 -0.7796  0.5232 -0.4691
 2968SOL     OW19582   9.185   5.471   4.653 -0.0088  0.3145  0.0055
 2968SOL    HW119583   9.119   5.466   4.727  0.0303  1.0422  0.0929
 2968SOL    HW219584   9.276   5.489   4.690  0.0429  0.4755 -0.1982
 2969SOL     OW19585   9.694   7.506   1.470 -0.5069  0.5372 -0.1467
 2969SOL    HW119586   9.610   7.545   1.432  0.2040  1.7129 -0.5230
 2969SOL    HW219587   9.767   7.574   1.466  0.3167 -0.2902  0.7073
 2970SOL     OW19588   2.180   7.378   4.324  0.0828  0.2397  0.1707
 2970SOL    HW119589   2.265   7.418   4.360  0.9022 -1.5695  0.2672
 2970SOL    HW219590   2.102   7.423   4.368  0.9993  1.2022  0.8540
 2971SOL     OW19591   2.063   6.327   0.325 -0.0461  0.3678  0.0688
 2971SOL    HW119592   1.963   6.322   0.326 -0.0877  1.2479  1.0641
 2971SOL    HW219593   2.101   6.240   0.358 -0.5072  0.6282  1.3130
 2972SOL     OW19594   3.109   4.581   1.131 -0.6206  0.0012 -0.5325
 2972SOL    HW119595   3.180   4.584   1.062 -0.8071  3.0598 -0.6986
 2972SOL    HW219596   3.026   4.542   1.092  0.8770 -3.4789 -0.3630
 2973SOL     OW19597   1.705   0.534   4.351  0.0140  0.2847 -0.5986
 2973SOL    HW119598   1.786   0.560   4.404 -0.3724 -0.2820  0.2857
 2973SOL    HW219599   1.693   0.435   4.355 -1.2682  0.4596  0.0690
 2974SOL     OW19600   7.694   1.894   0.737 -0.1957 -0.1572  0.2034
 2974SOL    HW119601   7.708   1.972   0.799 -1.9549 -0.2641  0.7748
 2974SOL    HW219602   7.659   1.927   0.650 -3.4640 -0.4734  1.3294
 2975SOL     OW19603   7.445   9.271   0.987  0.1292 -0.6655 -0.0356
 2975SOL    HW119604   7.430   9.267   1.086  0.5871  2.8954  0.2430
 2975SOL    HW219605   7.361   9.300   0.942  0.3510 -0.8370 -0.5626
 2976SOL     OW19606   1.395   8.552   2.916  0.3710 -0.1258 -0.5073
 2976SOL    HW119607   1.304   8.511   2.912  0.8740 -1.1679 -1.7482
 2976SOL    HW219608   1.387   8.650   2.934 -0.8933 -0.5982  1.6373
 2977SOL     OW19609   2.822   1.005   2.653  0.2941  0.4466 -0.2179
 2977SOL    HW119610   2.906   1.057   2.637 -0.3160  0.9535 -1.9223
 2977SOL    HW219611   2.763   1.011   2.572 -0.7586 -1.0831  0.4045
 2978SOL     OW19612   3.403   8.696   4.088 -0.3945  0.0157 -0.0899
 2978SOL    HW119613   3.309   8.729   4.074  0.6312  1.6609 -3.6630
 2978SOL    HW219614   3.425   8.628   4.018  1.1129 -0.3891  0.7471
 2979SOL     OW19615   1.295   7.206   2.175 -0.8168 -0.4173 -0.2067
 2979SOL    HW119616   1.379   7.223   2.123 -1.3492  1.5335 -0.4740
 2979SOL    HW219617   1.216   7.213   2.113 -1.2608 -0.9998  0.2894
 2980SOL     OW19618   2.301   9.952   1.365 -0.8817  0.4920  0.3521
 2980SOL    HW119619   2.256   9.981   1.280 -1.1213 -3.6245 -1.0459
 2980SOL    HW219620   2.235   9.906   1.424  0.0784  0.1626  1.1871
 2981SOL     OW19621   0.788   9.347   4.254 -0.2822 -0.4560  0.1709
 2981SOL    HW119622   0.789   9.343   4.154 -0.4719 -0.0674  0.1523
 2981SOL    HW219623   0.822   9.261   4.291 -3.1987 -1.8620 -0.2198
 2982SOL     OW19624   1.680   2.775   2.306 -0.6598  0.3184 -0.3585
 2982SOL    HW119625   1.723   2.823   2.383  0.2116 -0.4820 -0.3289
 2982SOL    HW219626   1.715   2.681   2.302 -0.2331  0.5435 -2.1010
 2983SOL     OW19627   1.201   7.120   0.323 -0.0041 -0.5594 -0.5189
 2983SOL    HW119628   1.150   7.168   0.252  1.1327 -2.0988 -2.4524
 2983SOL    HW219629   1.202   7.022   0.303  1.7374 -0.8339  0.7108
 2984SOL     OW19630   3.160   6.988   4.576 -0.2551 -0.7973  0.0021
 2984SOL    HW119631   3.112   6.988   4.488 -0.5556 -1.8930  0.1571
 2984SOL    HW219632   3.251   6.947   4.564  0.3642  0.5633 -0.1279
 2985SOL     OW19633   6.637   1.580   2.508  0.1466  0.3416  0.2816
 2985SOL    HW119634   6.727   1.624   2.510 -0.0929  0.9547 -1.2559
 2985SOL    HW219635   6.607   1.560   2.601  1.6672  0.5589  0.8297
 2986SOL     OW19636   2.462   2.366   4.282 -0.2499 -0.6465 -0.0377
 2986SOL    HW119637   2.391   2.417   4.233  0.1660  0.6364  0.6670
 2986SOL    HW219638   2.453   2.268   4.262 -0.8461 -0.2721 -1.6863
 2987SOL     OW19639   3.587   1.871   0.804 -0.1482  0.8697 -0.3484
 2987SOL    HW119640   3.640   1.878   0.720 -1.2880 -1.7641 -1.3496
 2987SOL    HW219641   3.490   1.861   0.781 -0.2207 -2.5852  1.1158
 2988SOL     OW19642   5.910   8.407   2.542  0.4525  0.2988 -0.7225
 2988SOL    HW119643   5.991   8.367   2.584 -0.4372 -0.6748  0.1015
 2988SOL    HW219644   5.907   8.505   2.563 -0.2713 -0.2556  2.0554
 2989SOL     OW19645   8.009   6.843   1.792 -0.0844 -0.2428 -0.2650
 2989SOL    HW119646   8.065   6.849   1.709  1.2793 -2.0759  0.4586
 2989SOL    HW219647   8.030   6.920   1.852  0.8786 -0.3167 -0.4902
 2990SOL     OW19648   8.668   6.965   2.981  0.3304 -0.1561  0.0610
 2990SOL    HW119649   8.708   6.986   3.071 -1.6033  1.0978  0.6756
 2990SOL    HW219650   8.572   6.995   2.980  0.4652  0.2938 -2.6036
 2991SOL     OW19651   7.733   6.328   1.791  0.4004  0.7976 -0.9741
 2991SOL    HW119652   7.759   6.350   1.697  0.6427 -0.7919 -1.2949
 2991SOL    HW219653   7.770   6.238   1.815  0.1371  1.0967  0.5599
 2992SOL     OW19654   1.619   9.095   4.474 -0.2107  0.0929 -0.3084
 2992SOL    HW119655   1.692   9.066   4.412  0.2273 -1.1577  0.7527
 2992SOL    HW219656   1.650   9.172   4.529 -0.3645  0.7732 -1.1709
 2993SOL     OW19657   2.781   2.980   4.537  0.6413 -0.1642 -0.3673
 2993SOL    HW119658   2.870   2.941   4.559  0.6205  0.7713  1.4976
 2993SOL    HW219659   2.750   2.947   4.448  1.9527 -2.0389 -0.1363
 2994SOL     OW19660   1.440   3.102   3.138 -0.2767  0.4230  0.2315
 2994SOL    HW119661   1.492   3.112   3.054  1.6875  1.3423  1.5319
 2994SOL    HW219662   1.342   3.099   3.116  0.3026 -1.8262 -2.2708
 2995SOL     OW19663   3.968   1.501   2.961 -0.5467  0.3012  0.7400
 2995SOL    HW119664   3.880   1.507   2.913 -1.0438  0.0147  1.6201
 2995SOL    HW219665   4.031   1.569   2.923 -1.0935  0.3996 -0.0010
 2996SOL     OW19666   3.922   2.140   0.150  1.0763 -0.1024 -0.0644
 2996SOL    HW119667   3.965   2.218   0.104 -1.9145  0.6236 -1.7793
 2996SOL    HW219668   3.940   2.057   0.097  0.7146  0.1337 -0.5665
 2997SOL     OW19669   0.833   8.377   3.849  0.0935  0.1305  0.8147
 2997SOL    HW119670   0.908   8.360   3.913  0.5850 -1.5037 -0.1598
 2997SOL    HW219671   0.751   8.329   3.880  0.2195 -0.3289  0.4485
 2998SOL     OW19672   3.980   0.789   2.312 -0.0251 -0.5310  0.0437
 2998SOL    HW119673   3.954   0.848   2.389  1.6685 -1.0494  1.0505
 2998SOL    HW219674   4.079   0.774   2.315 -0.3650 -3.0308 -0.4696
 2999SOL     OW19675   2.025   0.458   2.357  0.3051 -0.0843 -0.1673
 2999SOL    HW119676   2.111   0.453   2.306 -1.1307 -0.1658 -2.6233
 2999SOL    HW219677   1.983   0.368   2.362 -0.5295  0.2866 -0.5118
 3000SOL     OW19678   9.637   0.865   2.482 -0.3962  0.1688  0.4170
 3000SOL    HW119679   9.672   0.934   2.545 -0.4263 -0.0025  0.6216
 3000SOL    HW219680   9.711   0.833   2.423 -0.1810 -0.2646  0.9158
 3001SOL     OW19681   3.984   0.690   2.884 -0.0976  0.7846 -0.3267
 3001SOL    HW119682   4.014   0.772   2.837 -1.8148  0.6947 -1.6157
 3001SOL    HW219683   3.884   0.690   2.892  0.1194  1.1513  3.9487
 3002SOL     OW19684   9.872   8.479   1.505  0.3121 -0.0076  0.1840
 3002SOL    HW119685   9.802   8.427   1.455  0.3461  0.0014  0.1272
 3002SOL    HW219686   9.829   8.558   1.548  0.4525  0.5206 -0.6359
 3003SOL     OW19687   1.756   7.594   3.954  0.0842 -0.0279 -0.2111
 3003SOL    HW119688   1.736   7.575   4.050 -1.8537  1.4585 -0.2794
 3003SOL    HW219689   1.680   7.561   3.898  0.2762  0.9266 -1.0401
 3004SOL     OW19690   1.292   3.972   0.636 -0.0146  0.5448 -0.5231
 3004SOL    HW119691   1.298   4.011   0.544 -1.5155 -1.3601 -1.4501
 3004SOL    HW219692   1.210   3.916   0.643  1.5057 -1.5363  1.1310
 3005SOL     OW19693   1.763   2.841   2.046 -0.2026  0.0384  0.6558
 3005SOL    HW119694   1.768   2.761   1.986 -1.1887  0.6606 -0.2726
 3005SOL    HW219695   1.701   2.822   2.122 -1.6610  0.4407 -0.4046
 3006SOL     OW19696   4.203   3.290   4.663 -0.2364  0.1910 -0.1740
 3006SOL    HW119697   4.243   3.380   4.674 -0.6767  0.4151 -0.3809
 3006SOL    HW219698   4.268   3.229   4.618 -0.1715  0.5788 -0.6018
 3007SOL     OW19699   6.906   9.461   3.958 -0.4415 -0.3489  0.1950
 3007SOL    HW119700   6.978   9.511   3.909  0.7166 -1.0263  1.2123
 3007SOL    HW219701   6.817   9.502   3.935  0.5712  3.0928  2.0676
 3008SOL     OW19702   5.322   0.109   1.574 -0.2188  0.1275 -0.1458
 3008SOL    HW119703   5.381   0.177   1.617 -0.3372  1.0345 -1.3918
 3008SOL    HW219704   5.239   0.098   1.628  0.0445  0.5648  0.3535
 3009SOL     OW19705   1.501   3.735   1.567 -0.2636 -0.2810  0.2449
 3009SOL    HW119706   1.496   3.835   1.567 -1.6912 -0.3259 -1.5594
 3009SOL    HW219707   1.509   3.702   1.473 -3.5391 -1.9897  0.5127
 3010SOL     OW19708   9.768   0.847   1.318  0.1595 -0.3976 -0.4351
 3010SOL    HW119709   9.719   0.780   1.263 -2.6713  2.2670 -1.3175
 3010SOL    HW219710   9.731   0.939   1.301  1.6042  0.9956  3.2049
 3011SOL     OW19711   3.879   9.458   2.529  0.1147  0.5280  1.1669
 3011SOL    HW119712   3.823   9.525   2.480  1.1830 -0.9365 -2.1799
 3011SOL    HW219713   3.976   9.481   2.518  0.4751 -1.3878  0.2326
 3012SOL     OW19714   6.270   8.963   3.716  0.1262  0.2716  0.2655
 3012SOL    HW119715   6.365   8.932   3.703 -0.3407 -0.6845 -1.0259
 3012SOL    HW219716   6.257   9.050   3.669  0.1497 -0.0148 -0.2766
 3013SOL     OW19717   3.888   7.275   1.083 -0.5093 -0.4115  0.0461
 3013SOL    HW119718   3.916   7.181   1.104  0.7435 -0.2837 -0.9932
 3013SOL    HW219719   3.950   7.339   1.128 -2.1994 -0.0424  1.9119
 3014SOL     OW19720   1.137   0.816   1.283  0.0089  0.0303 -0.0021
 3014SOL    HW119721   1.079   0.779   1.210 -0.2713  0.0504  0.2082
 3014SOL    HW219722   1.146   0.747   1.356 -2.6755  1.3230  1.6167
 3015SOL     OW19723   0.434   5.726   4.409  0.1535 -0.3991 -0.6815
 3015SOL    HW119724   0.366   5.653   4.399 -1.7324  1.5000 -2.3118
 3015SOL    HW219725   0.389   5.807   4.445  1.7293  0.6776 -1.1234
 3016SOL     OW19726   2.401   8.744   4.363 -0.4435 -0.1936 -0.0522
 3016SOL    HW119727   2.463   8.791   4.425 -1.0882  0.3566  0.1712
 3016SOL    HW219728   2.391   8.797   4.279 -2.5777  0.9649  0.9251
 3017SOL     OW19729   5.710   9.110   1.823 -0.0024  0.5879 -0.1047
 3017SOL    HW119730   5.788   9.161   1.787 -0.0269  1.4603  1.0676
 3017SOL    HW219731   5.706   9.020   1.779  0.1660  1.4982 -2.0251
 3018SOL     OW19732   8.982   4.343   2.915 -0.0794 -0.0668 -0.3846
 3018SOL    HW119733   8.942   4.420   2.964 -0.2525 -0.0007 -0.6299
 3018SOL    HW219734   9.069   4.370   2.874  0.2579 -0.2301  0.2054
 3019SOL     OW19735   0.711   8.275   3.458 -0.5748  0.6002 -0.4344
 3019SOL    HW119736   0.631   8.306   3.510 -0.5763  0.0248 -0.0862
 3019SOL    HW219737   0.754   8.354   3.413 -2.6885  0.5955 -2.5641
 3020SOL     OW19738   0.621   0.720   2.853 -0.3186 -0.4698  0.5564
 3020SOL    HW119739   0.637   0.621   2.857 -0.1455 -0.5058 -0.8037
 3020SOL    HW219740   0.688   0.767   2.911  0.5238 -1.0531  0.0668
 3021SOL     OW19741   6.538   0.556   2.745  0.2715 -0.2665 -0.1278
 3021SOL    HW119742   6.501   0.505   2.668 -0.4558  0.2688 -0.1428
 3021SOL    HW219743   6.630   0.524   2.766  0.8002  0.1490 -1.7537
 3022SOL     OW19744   2.148   2.879   3.934  0.0117  0.2140  0.0784
 3022SOL    HW119745   2.162   2.800   3.994  1.0452 -0.6816 -1.3141
 3022SOL    HW219746   2.236   2.908   3.897 -0.6748  0.4337 -1.4032
 3023SOL     OW19747   9.617   6.261   2.521  0.6662  0.2791  0.0363
 3023SOL    HW119748   9.606   6.330   2.450  1.1523  0.1350 -0.1797
 3023SOL    HW219749   9.566   6.178   2.495 -1.2462  1.1071  1.0499
 3024SOL     OW19750   8.477   7.660   0.212 -0.3568  0.0722 -0.1110
 3024SOL    HW119751   8.377   7.664   0.216 -0.4755 -1.9979 -0.5886
 3024SOL    HW219752   8.507   7.565   0.221  1.5452  0.6186 -0.4854
 3025SOL     OW19753   1.646   7.416   3.754  0.1911 -0.6103 -0.5075
 3025SOL    HW119754   1.725   7.439   3.697 -0.4052  1.1370 -0.6625
 3025SOL    HW219755   1.664   7.330   3.802  2.4012  0.0276 -0.1187
 3026SOL     OW19756   8.583   5.027   3.974 -0.3796  1.0188 -1.1177
 3026SOL    HW119757   8.653   5.092   4.003  0.7355 -0.0488 -1.3761
 3026SOL    HW219758   8.605   4.993   3.883  0.1096 -1.1692 -0.2196
 3027SOL     OW19759   4.910   6.122   1.819  0.0219 -0.5843  0.1292
 3027SOL    HW119760   4.850   6.201   1.818  1.3409  0.4618  1.3938
 3027SOL    HW219761   4.864   6.044   1.777 -1.6529  0.5802 -0.2256
 3028SOL     OW19762   2.451   6.746   3.145  0.3265 -0.1952 -0.3439
 3028SOL    HW119763   2.518   6.777   3.078  0.1715 -0.5314 -0.6551
 3028SOL    HW219764   2.377   6.813   3.153 -0.2815 -0.7283 -1.4037
 3029SOL     OW19765   9.342   8.950   3.977  0.2324  0.2310 -0.6094
 3029SOL    HW119766   9.404   9.007   4.032  0.1177  0.5305 -0.7866
 3029SOL    HW219767   9.255   8.940   4.026  0.4844 -0.3414 -0.2786
 3030SOL     OW19768   2.574   4.443   3.565 -0.2672  0.3142 -0.9680
 3030SOL    HW119769   2.603   4.380   3.493 -0.0565  0.0779 -0.6777
 3030SOL    HW219770   2.500   4.402   3.617 -0.0426  0.2517 -0.6979
 3031SOL     OW19771   0.133   0.168   0.599  0.2200 -0.2867 -0.2586
 3031SOL    HW119772   0.147   0.236   0.527 -0.1047 -0.6455 -0.6620
 3031SOL    HW219773   0.066   0.202   0.665 -0.8027 -0.6802 -1.0758
 3032SOL     OW19774   1.436   4.389   3.476  0.2051  0.1638  0.6012
 3032SOL    HW119775   1.500   4.316   3.501  0.2781  0.7877  2.2960
 3032SOL    HW219776   1.488   4.469   3.445  0.1731 -0.0252  0.0589
 3033SOL     OW19777   9.968   7.388   3.775  0.0408  0.3736  0.4365
 3033SOL    HW119778   9.928   7.344   3.694  0.1518 -0.0210  0.5935
 3033SOL    HW219779   9.933   7.343   3.857 -0.1150  0.8138  0.6084
 3034SOL     OW19780   4.743   3.600   0.482 -0.0704  0.2523  0.2873
 3034SOL    HW119781   4.824   3.642   0.523  2.2750 -2.1162 -1.7163
 3034SOL    HW219782   4.704   3.534   0.546  1.6202 -1.0358  0.0272
 3035SOL     OW19783   5.366   7.773   2.180 -0.3577 -0.5920 -1.0638
 3035SOL    HW119784   5.311   7.838   2.232 -1.5310 -1.6597 -0.9215
 3035SOL    HW219785   5.378   7.806   2.087 -0.5377  0.0553 -0.8581
 3036SOL     OW19786   4.106   2.750   3.989  0.1058  0.0491  0.3169
 3036SOL    HW119787   4.151   2.756   4.078  1.5289  0.7635 -0.4263
 3036SOL    HW219788   4.139   2.824   3.930  0.5374 -1.4676 -1.4048
 3037SOL     OW19789   2.427   7.747   2.210  0.8086  0.3415 -0.0608
 3037SOL    HW119790   2.515   7.728   2.253  1.6489  2.9366 -0.5795
 3037SOL    HW219791   2.363   7.779   2.279  0.8285  0.2851 -0.0153
 3038SOL     OW19792   1.223   9.634   4.128 -0.5265 -0.0075 -0.1049
 3038SOL    HW119793   1.275   9.570   4.071  2.3725  1.7423  0.4624
 3038SOL    HW219794   1.131   9.645   4.091 -0.1613 -2.3406 -1.8191
 3039SOL     OW19795   3.651   0.134   2.747 -0.0078  0.3381 -0.2489
 3039SOL    HW119796   3.741   0.162   2.779 -0.5158  1.4593  0.2596
 3039SOL    HW219797   3.582   0.162   2.814 -0.6807 -1.0587 -0.3340
 3040SOL     OW19798   4.310   2.811   1.353  0.8392 -0.4717 -0.3787
 3040SOL    HW119799   4.397   2.804   1.402  1.1345 -1.6076 -1.0527
 3040SOL    HW219800   4.246   2.866   1.407  2.0630  0.6125 -0.0173
 3041SOL     OW19801   1.466   6.677   1.244 -0.5059  0.6786  0.1789
 3041SOL    HW119802   1.501   6.771   1.250 -0.5009  0.7613 -1.0175
 3041SOL    HW219803   1.543   6.615   1.225 -0.6566  0.5583 -0.0372
 3042SOL     OW19804   6.686   9.293   2.562  0.2186 -0.5337 -0.1233
 3042SOL    HW119805   6.705   9.231   2.638 -0.3267 -0.0666  0.3983
 3042SOL    HW219806   6.595   9.273   2.525  0.3873 -0.6040 -0.5021
 3043SOL     OW19807   6.215   0.242   1.414  0.9978 -0.4119 -0.0474
 3043SOL    HW119808   6.152   0.276   1.484  0.0958 -0.3242 -0.8919
 3043SOL    HW219809   6.301   0.293   1.419  0.6142  0.1936  0.4272
 3044SOL     OW19810   3.860   1.222   2.628  0.3807  0.4143 -0.4176
 3044SOL    HW119811   3.772   1.214   2.581  0.1218  1.2050 -0.0800
 3044SOL    HW219812   3.867   1.151   2.698 -0.0401  0.4129 -0.3761
 3045SOL     OW19813   0.418   7.888   1.048  0.2664  0.1593 -0.1300
 3045SOL    HW119814   0.324   7.903   1.017  0.1843 -1.0242 -0.4647
 3045SOL    HW219815   0.481   7.899   0.972  0.5439  2.3014  0.3739
 3046SOL     OW19816   4.629   7.270   1.748 -0.3510 -0.1844  0.2314
 3046SOL    HW119817   4.612   7.172   1.744 -0.4825 -0.1253 -0.6717
 3046SOL    HW219818   4.595   7.314   1.665  2.4468  0.2073 -0.7542
 3047SOL     OW19819   1.832   1.857   0.412  0.7269  0.0692  0.4284
 3047SOL    HW119820   1.743   1.817   0.432  1.5072 -0.0973  3.7337
 3047SOL    HW219821   1.822   1.955   0.396  0.0910  0.2753  2.0182
 3048SOL     OW19822   3.003   9.057   2.758 -0.3331 -0.2822  0.0042
 3048SOL    HW119823   2.954   9.140   2.733  0.0387  0.1817  0.8236
 3048SOL    HW219824   2.964   9.019   2.842 -0.9964 -1.3593 -0.7636
 3049SOL     OW19825   2.973   9.660   1.096 -0.0312  0.1249  0.2773
 3049SOL    HW119826   3.037   9.603   1.148  0.2875  0.6620  0.4784
 3049SOL    HW219827   2.931   9.727   1.157 -0.5608 -0.0331  0.0833
 3050SOL     OW19828   3.755   1.694   4.361 -0.1488 -0.1075  0.3994
 3050SOL    HW119829   3.741   1.785   4.320 -0.4404 -0.2173  0.2538
 3050SOL    HW219830   3.843   1.658   4.332  0.6363  0.7849  1.6774
 3051SOL     OW19831   2.237   7.084   0.323  0.4524  0.6246  0.5011
 3051SOL    HW119832   2.254   7.003   0.266  2.8070  0.0842  1.9386
 3051SOL    HW219833   2.323   7.120   0.358 -0.4981  4.1502 -0.5609
 3052SOL     OW19834   9.996   4.986   0.306  0.0900  0.4912  0.2425
 3052SOL    HW119835   9.993   4.944   0.215 -1.8484  0.1701  0.4337
 3052SOL    HW219836  10.075   4.953   0.356 -0.4711 -1.6356 -0.2379
 3053SOL     OW19837   8.858   3.545   2.140 -0.0105  0.5055 -0.4878
 3053SOL    HW119838   8.867   3.451   2.172  1.0677  0.8194  0.1617
 3053SOL    HW219839   8.826   3.603   2.215  4.2904  1.5824  0.6590
 3054SOL     OW19840   3.769   8.785   1.007 -0.0243  0.3008 -0.2000
 3054SOL    HW119841   3.863   8.753   1.004 -0.2038 -0.2079 -0.4783
 3054SOL    HW219842   3.759   8.866   0.949  0.5652  1.2273  0.9792
 3055SOL     OW19843   9.835   1.430   4.546  0.0531  0.0606  0.1552
 3055SOL    HW119844   9.822   1.528   4.536  2.7846  0.2849 -1.5648
 3055SOL    HW219845   9.774   1.382   4.483 -0.1227  0.6880 -0.1528
 3056SOL     OW19846   2.625   4.413   3.099 -0.5850  0.0973  0.0069
 3056SOL    HW119847   2.561   4.435   3.025 -0.4818  1.5809  0.3333
 3056SOL    HW219848   2.713   4.386   3.060 -0.1982  1.9265 -0.4218
 3057SOL     OW19849   2.328   7.550   0.423 -0.0947 -0.0299  0.6762
 3057SOL    HW119850   2.362   7.542   0.517 -1.1978 -3.3701  0.8849
 3057SOL    HW219851   2.402   7.531   0.358  0.1507  0.0852  0.9212
 3058SOL     OW19852   8.634   6.138   1.852  0.2047  0.0741 -0.1158
 3058SOL    HW119853   8.544   6.159   1.813  1.1806 -0.5619 -2.7833
 3058SOL    HW219854   8.693   6.100   1.781  2.8880  1.3087  1.3899
 3059SOL     OW19855   2.769   8.392   4.510  0.0178 -0.1389  0.3290
 3059SOL    HW119856   2.862   8.354   4.515 -0.3288 -0.7640  2.7469
 3059SOL    HW219857   2.737   8.389   4.415  2.0228 -0.9767 -0.3624
 3060SOL     OW19858   7.987   2.510   3.852 -0.2315  0.0993  0.2406
 3060SOL    HW119859   8.013   2.590   3.906 -1.0276  0.9964 -0.6742
 3060SOL    HW219860   8.052   2.436   3.869 -0.9605  0.0539  3.0610
 3061SOL     OW19861   3.383   9.778   4.109 -0.2553 -0.2327  0.3298
 3061SOL    HW119862   3.381   9.843   4.034 -0.5372  0.5438  1.0040
 3061SOL    HW219863   3.316   9.705   4.092 -0.2867 -0.0809 -0.1884
 3062SOL     OW19864   6.121   9.056   3.217  0.3657 -0.3262  0.6873
 3062SOL    HW119865   6.146   8.960   3.203 -0.5745 -0.4749 -0.0588
 3062SOL    HW219866   6.046   9.080   3.155 -1.9280 -0.1671  3.4155
 3063SOL     OW19867   5.479   6.826   2.402  0.1669 -0.3071  0.0736
 3063SOL    HW119868   5.478   6.906   2.461  0.8829 -1.0013  1.0528
 3063SOL    HW219869   5.447   6.851   2.310 -3.3618  0.2885  1.3735
 3064SOL     OW19870   0.145   5.562   3.276  0.1899 -0.4454  0.1687
 3064SOL    HW119871   0.227   5.506   3.261  0.6782  0.2276  0.3338
 3064SOL    HW219872   0.074   5.536   3.209  1.6405  1.1706 -2.0484
 3065SOL     OW19873   2.353   3.694   2.271  0.5577 -0.3613  0.2767
 3065SOL    HW119874   2.257   3.708   2.296  0.5459 -0.6368  0.3813
 3065SOL    HW219875   2.392   3.781   2.241  0.3312 -0.2088  0.4237
 3066SOL     OW19876   8.740   5.250   2.135  1.2499  0.2084 -0.2087
 3066SOL    HW119877   8.759   5.277   2.229  1.1595  0.8453 -0.3749
 3066SOL    HW219878   8.719   5.331   2.080 -0.1351 -0.3064 -0.4521
 3067SOL     OW19879   8.567   1.119   1.754 -0.0628 -0.1962 -0.2838
 3067SOL    HW119880   8.541   1.070   1.837 -0.7273  0.7718  0.0939
 3067SOL    HW219881   8.551   1.062   1.674 -0.0826 -0.8732  0.2013
 3068SOL     OW19882   2.739   8.965   3.891  0.8802 -0.2506  0.1167
 3068SOL    HW119883   2.798   8.886   3.876  1.4226 -0.0022  0.9352
 3068SOL    HW219884   2.771   9.041   3.834  0.7829 -0.4000 -0.1405
 3069SOL     OW19885   3.725   1.555   2.262  0.1018 -0.0630 -0.0370
 3069SOL    HW119886   3.755   1.645   2.229  0.1628 -0.0020  0.1834
 3069SOL    HW219887   3.635   1.563   2.304 -0.6492 -0.4171 -1.5292
 3070SOL     OW19888   1.574   4.297   1.586 -0.0759  0.2996  0.0998
 3070SOL    HW119889   1.578   4.296   1.486  0.6929 -1.8765  0.1394
 3070SOL    HW219890   1.663   4.325   1.622  0.1404 -0.5487  0.2131
 3071SOL     OW19891   0.329   9.832   2.706  0.1249  0.1872  0.9285
 3071SOL    HW119892   0.233   9.848   2.730  0.2614  0.1435  1.5101
 3071SOL    HW219893   0.381   9.814   2.789  0.4090 -1.0010  0.4967
 3072SOL     OW19894   7.641   8.331   2.831 -0.3464 -0.1864  0.4097
 3072SOL    HW119895   7.569   8.389   2.869  0.1103 -0.3312  1.5059
 3072SOL    HW219896   7.613   8.298   2.741 -1.3965  0.2346  0.5758
 3073SOL     OW19897   2.497   6.487   4.317  0.3753  0.2647  0.2089
 3073SOL    HW119898   2.424   6.453   4.258  0.8847 -2.1674  0.9344
 3073SOL    HW219899   2.458   6.534   4.396 -0.3570  0.8831 -0.5235
 3074SOL     OW19900   9.008   6.595   4.719 -0.0139  0.4063 -0.0959
 3074SOL    HW119901   8.908   6.604   4.721 -0.0333  0.7608 -1.7591
 3074SOL    HW219902   9.032   6.498   4.719 -0.4640  0.2613 -2.2556
 3075SOL     OW19903   0.324   6.953   1.656 -0.2092  0.5472 -0.1528
 3075SOL    HW119904   0.394   6.891   1.620 -1.0833 -0.3797 -0.2827
 3075SOL    HW219905   0.287   6.915   1.741 -1.4136  0.4077 -0.7246
 3076SOL     OW19906   7.727   9.255   4.134 -0.2830  0.3164 -0.3104
 3076SOL    HW119907   7.659   9.208   4.191 -0.1957  1.7397  1.0234
 3076SOL    HW219908   7.780   9.188   4.082 -1.6527 -0.9012 -0.1710
 3077SOL     OW19909   0.393   7.435   0.521 -0.5021  0.1097 -0.4053
 3077SOL    HW119910   0.367   7.525   0.486  1.1595  0.2566 -1.2866
 3077SOL    HW219911   0.310   7.384   0.547 -1.5170  1.4204 -1.0309
 3078SOL     OW19912   2.196   1.843   2.629  0.1754 -0.6234 -0.5223
 3078SOL    HW119913   2.290   1.861   2.599  0.2719 -1.9654 -1.0512
 3078SOL    HW219914   2.191   1.848   2.729  0.5723  0.5217 -0.5555
 3079SOL     OW19915   9.908   8.702   0.408 -0.0026 -0.2788 -0.0997
 3079SOL    HW119916   9.847   8.628   0.436 -0.1382  0.1437  0.7281
 3079SOL    HW219917   9.856   8.771   0.359 -0.1567 -0.0121  0.4378
 3080SOL     OW19918   3.979   8.104   2.577  0.4844 -0.4965  0.2212
 3080SOL    HW119919   4.046   8.137   2.510  1.3937 -0.3498  1.1879
 3080SOL    HW219920   3.889   8.095   2.533  0.7060  1.1736 -0.6073
 3081SOL     OW19921   1.921   2.711   4.161 -0.1083 -0.4944 -0.5247
 3081SOL    HW119922   1.941   2.747   4.252 -0.5956 -0.9790 -0.2238
 3081SOL    HW219923   2.006   2.684   4.116  0.1677  0.1093 -0.3675
 3082SOL     OW19924   4.836   1.124   1.320  0.7041 -0.2992  0.5232
 3082SOL    HW119925   4.846   1.027   1.301 -1.2090 -0.5998  0.9087
 3082SOL    HW219926   4.762   1.162   1.264  2.4144  1.2871 -0.7243
 3083SOL     OW19927   9.999   4.828   1.922 -0.2621  0.5331 -0.2123
 3083SOL    HW119928   9.906   4.798   1.901  0.4106 -1.9109  0.0557
 3083SOL    HW219929   9.997   4.899   1.992 -1.8760 -0.7481  1.1008
 3084SOL     OW19930   0.580   2.567   2.228 -0.3424 -0.1699  0.1845
 3084SOL    HW119931   0.521   2.524   2.159 -1.8949 -1.6408  2.3690
 3084SOL    HW219932   0.525   2.593   2.307  1.8150 -0.7228  1.8949
 3085SOL     OW19933   0.852   8.103   2.798 -0.2487  0.1160 -0.7239
 3085SOL    HW119934   0.795   8.132   2.722  1.1262  0.9618 -1.4384
 3085SOL    HW219935   0.947   8.126   2.780  0.3865 -1.5904  0.3067
 3086SOL     OW19936   8.075   3.155   0.349 -0.1832 -0.2879 -0.0806
 3086SOL    HW119937   8.161   3.180   0.394  0.5746  0.2042 -1.7592
 3086SOL    HW219938   7.998   3.183   0.407  0.7104  2.9561 -0.3558
 3087SOL     OW19939   2.435   9.017   3.349 -0.0023  0.2598 -0.1816
 3087SOL    HW119940   2.340   8.996   3.329  0.4146 -2.7806  0.8690
 3087SOL    HW219941   2.441   9.070   3.434 -0.6799 -0.5036  0.3439
 3088SOL     OW19942   0.185   4.284   2.493 -0.3835  0.2616 -0.1629
 3088SOL    HW119943   0.181   4.231   2.408  1.8280 -1.3913  0.7121
 3088SOL    HW219944   0.222   4.375   2.473  1.1188 -0.4729 -0.8563
 3089SOL     OW19945   2.643   9.378   4.594 -0.1199 -0.7570 -0.3939
 3089SOL    HW119946   2.697   9.426   4.524 -0.5857  1.1199  0.4848
 3089SOL    HW219947   2.553   9.421   4.601 -0.7371 -2.1151  0.0795
 3090SOL     OW19948   9.389   6.664   2.878  0.2096  0.3444  0.5443
 3090SOL    HW119949   9.444   6.621   2.806 -0.7808 -0.1170  0.0494
 3090SOL    HW219950   9.354   6.593   2.939 -0.6761  0.5175  0.2528
 3091SOL     OW19951   2.111   9.577   2.791 -0.2132 -0.1569  0.1536
 3091SOL    HW119952   2.158   9.520   2.723  3.7054  3.0097  0.0329
 3091SOL    HW219953   2.128   9.674   2.770  0.1963  0.9183  5.0194
 3092SOL     OW19954   1.481   1.325   2.080  0.2000 -0.1291  0.3425
 3092SOL    HW119955   1.486   1.419   2.115  0.3409  0.0027 -0.0255
 3092SOL    HW219956   1.573   1.292   2.060 -0.0535  1.0205 -3.0899
 3093SOL     OW19957   1.469   0.665   1.910 -0.2923 -0.1259  0.0732
 3093SOL    HW119958   1.505   0.737   1.851 -2.1296  0.9395  0.2048
 3093SOL    HW219959   1.522   0.660   1.994 -0.6278  1.5992  0.3975
 3094SOL     OW19960   6.885   9.223   0.729 -0.0244 -0.2387 -0.2738
 3094SOL    HW119961   6.801   9.228   0.784  0.2166 -1.6952  0.2430
 3094SOL    HW219962   6.931   9.312   0.731 -2.2636  1.0117 -1.7140
 3095SOL     OW19963   1.988   7.141   0.769  0.1106 -0.1940 -0.4041
 3095SOL    HW119964   1.962   7.235   0.789  1.2010  0.0843 -0.2859
 3095SOL    HW219965   2.079   7.122   0.805 -1.0610 -2.0352  1.7050
 3096SOL     OW19966   9.564   5.762   2.957  0.1112 -0.2185  0.1950
 3096SOL    HW119967   9.539   5.669   2.931  0.2847 -0.0099 -0.7301
 3096SOL    HW219968   9.500   5.827   2.916  0.3344  0.1098  0.3599
 3097SOL     OW19969   0.514   9.910   3.769  0.4930 -0.0547 -0.5471
 3097SOL    HW119970   0.601   9.896   3.817 -0.6109  0.0319  1.5445
 3097SOL    HW219971   0.449   9.838   3.796 -0.1447 -0.0244 -1.9515
 3098SOL     OW19972   2.666   6.553   3.839  0.3726  0.6050 -0.3856
 3098SOL    HW119973   2.633   6.526   3.748  1.2297  2.6139 -1.3289
 3098SOL    HW219974   2.762   6.527   3.848  0.1788  0.0495  0.1083
 3099SOL     OW19975   7.667   0.852   2.688  0.2880  0.1913  0.1122
 3099SOL    HW119976   7.660   0.950   2.707 -1.1942  0.2560 -0.6462
 3099SOL    HW219977   7.593   0.803   2.734 -0.2018 -0.3027 -1.1664
 3100SOL     OW19978   1.922   9.891   2.353 -0.5046 -0.2886  0.6850
 3100SOL    HW119979   1.922   9.900   2.452  3.2141  1.1991  0.6158
 3100SOL    HW219980   1.967   9.805   2.327  2.7234  1.4345  0.2597
 3101SOL     OW19981   1.307   8.674   1.173 -0.5742  0.3027 -0.2665
 3101SOL    HW119982   1.306   8.750   1.238 -0.8304 -0.4152  0.5839
 3101SOL    HW219983   1.330   8.590   1.221 -0.5160 -0.1951 -1.1607
 3102SOL     OW19984   4.166   9.977   3.467  0.0625  0.1185  0.1573
 3102SOL    HW119985   4.185   9.907   3.536 -2.6766 -0.7334  0.1171
 3102SOL    HW219986   4.170   9.935   3.376  1.8785  0.8367 -0.1171
 3103SOL     OW19987   9.581   2.306   3.199  0.2648  0.1085  0.3317
 3103SOL    HW119988   9.654   2.357   3.242 -0.6556  1.3476  0.4496
 3103SOL    HW219989   9.608   2.210   3.190  1.8719  0.5449  0.3911
 3104SOL     OW19990   9.410   4.268   3.938 -0.5875 -0.0200 -0.0395
 3104SOL    HW119991   9.433   4.260   3.841 -0.8465  0.7504 -0.1695
 3104SOL    HW219992   9.313   4.244   3.951 -0.1597 -1.5921  0.2526
 3105SOL     OW19993   0.646   3.094   2.574 -0.7868  0.1465  0.0565
 3105SOL    HW119994   0.738   3.129   2.591  0.3506 -1.9682 -1.5079
 3105SOL    HW219995   0.611   3.051   2.658  0.8858 -1.6950 -0.1392
 3106SOL     OW19996   9.036   9.914   1.037  0.1357 -0.4964 -0.0346
 3106SOL    HW119997   9.023   9.873   1.127  0.3819  0.2389  0.3398
 3106SOL    HW219998   8.953   9.964   1.011 -0.2931 -1.5070 -0.6391
 3107SOL     OW19999   1.029   0.909   3.831 -0.0632 -0.3283 -0.3890
 3107SOL    HW120000   1.108   0.853   3.855  0.5514  0.5602 -0.3313
 3107SOL    HW220001   0.977   0.864   3.758  0.3507 -1.0382 -0.2466
 3108SOL     OW20002   3.567   8.880   2.131 -0.3783  0.1305 -0.5011
 3108SOL    HW120003   3.486   8.930   2.100  0.1087  0.4264 -1.3229
 3108SOL    HW220004   3.566   8.874   2.231 -1.0450  0.7540 -0.4600
 3109SOL     OW20005   8.647   2.345   3.839  0.0171  0.2633  0.3217
 3109SOL    HW120006   8.746   2.351   3.843  0.1986 -1.7615 -0.2971
 3109SOL    HW220007   8.610   2.335   3.931  0.4180  0.5370  0.5146
 3110SOL     OW20008   4.037   0.975   2.815 -0.0425  0.6155  0.2530
 3110SOL    HW120009   4.099   1.008   2.743 -1.4605 -0.8751 -1.7239
 3110SOL    HW220010   3.945   1.010   2.798 -0.3730  0.2842  1.3644
 3111SOL     OW20011   2.165   9.486   0.799 -0.6271  0.0274  0.0988
 3111SOL    HW120012   2.238   9.462   0.863 -0.8766 -0.6642  0.1245
 3111SOL    HW220013   2.115   9.565   0.834 -1.3560 -0.9049  1.2331
 3112SOL     OW20014   9.577   5.837   3.336  0.1344  0.2853  0.3481
 3112SOL    HW120015   9.567   5.913   3.401 -0.2594 -0.3214  1.0025
 3112SOL    HW220016   9.634   5.866   3.260  2.0377  0.4929  1.8168
 3113SOL     OW20017   8.753   6.861   1.611  0.0082 -0.0466 -0.2469
 3113SOL    HW120018   8.840   6.864   1.660  0.3454  0.3280 -0.8567
 3113SOL    HW220019   8.757   6.791   1.540  0.0438  0.4346 -0.7160
 3114SOL     OW20020   8.695   6.658   1.379  0.2257  0.6252  0.3479
 3114SOL    HW120021   8.662   6.581   1.435  0.1418  0.9879  0.7981
 3114SOL    HW220022   8.648   6.742   1.406  0.8315  0.9685  0.3474
 3115SOL     OW20023   1.440   3.279   3.331 -0.5407 -0.1894 -0.2637
 3115SOL    HW120024   1.418   3.204   3.269  0.5538 -1.1358  0.4733
 3115SOL    HW220025   1.537   3.301   3.323 -0.4036 -0.3059  1.1104
 3116SOL     OW20026   0.440   3.042   3.890  0.3534  0.2633  0.0189
 3116SOL    HW120027   0.341   3.052   3.882  0.2673  0.6196  1.3732
 3116SOL    HW220028   0.465   3.026   3.985  1.7226  1.6601 -0.0707
 3117SOL     OW20029   8.748   9.982   3.728  0.2559 -0.3572  0.1927
 3117SOL    HW120030   8.671   9.921   3.705 -1.1287  1.1211  0.7958
 3117SOL    HW220031   8.769   9.974   3.825  0.3926 -0.2061  0.1745
 3118SOL     OW20032   7.107   8.176   1.841 -0.0084 -0.6206  0.0043
 3118SOL    HW120033   7.161   8.170   1.925 -1.0801 -2.2568  0.6151
 3118SOL    HW220034   7.139   8.107   1.776  0.6424  0.4648 -0.8340
 3119SOL     OW20035   3.557   4.098   0.125  0.1502  0.0262  0.7979
 3119SOL    HW120036   3.557   4.169   0.196 -0.3520  0.0622  0.7629
 3119SOL    HW220037   3.480   4.112   0.063  0.8007  0.2132  0.0223
 3120SOL     OW20038   0.618   5.109   2.721 -0.4022  0.4804 -0.2614
 3120SOL    HW120039   0.717   5.095   2.722 -0.3753  0.6361 -0.5697
 3120SOL    HW220040   0.598   5.200   2.685 -0.6736  0.3030 -0.5616
 3121SOL     OW20041   8.554   6.973   3.662  0.1497 -0.0159  0.4726
 3121SOL    HW120042   8.549   7.056   3.718  0.6966  1.1667 -1.1864
 3121SOL    HW220043   8.647   6.937   3.666  0.0655 -0.2065  0.7060
 3122SOL     OW20044   2.114   3.640   2.645 -0.3504  0.0634 -0.6758
 3122SOL    HW120045   2.054   3.565   2.618 -1.2318  0.3893  0.3471
 3122SOL    HW220046   2.111   3.712   2.575  0.3135 -0.7365 -1.5413
 3123SOL     OW20047   9.358   1.844   2.009  0.4815 -0.7172 -0.2348
 3123SOL    HW120048   9.284   1.883   2.064  0.5845 -1.3614  0.3680
 3123SOL    HW220049   9.438   1.905   2.011  0.4165 -0.6460  0.1673
 3124SOL     OW20050   8.793   5.221   1.476 -0.2017 -0.1658 -0.1292
 3124SOL    HW120051   8.884   5.227   1.437 -0.8707  2.4851 -1.3987
 3124SOL    HW220052   8.799   5.188   1.570  1.8835 -1.6464 -0.7517
 3125SOL     OW20053   3.116   6.368   2.231 -0.1625  0.0285 -0.2504
 3125SOL    HW120054   3.088   6.416   2.148 -0.8828 -0.0141 -0.0369
 3125SOL    HW220055   3.067   6.281   2.237 -1.8465  1.0608  1.3798
 3126SOL     OW20056   7.448   8.671   3.333 -0.6861  0.0274  0.3936
 3126SOL    HW120057   7.462   8.577   3.301  0.9034  0.6729 -0.8938
 3126SOL    HW220058   7.521   8.730   3.297 -2.7725  2.1518 -0.5056
 3127SOL     OW20059   7.868   1.741   3.830  0.0667  0.5784  0.2112
 3127SOL    HW120060   7.944   1.677   3.831  0.9499  1.6060  0.9506
 3127SOL    HW220061   7.817   1.733   3.744  0.8101 -0.3401 -0.1427
 3128SOL     OW20062   7.855   7.183   2.477 -0.4896 -0.6376  0.3442
 3128SOL    HW120063   7.943   7.164   2.434  0.5276 -0.4825  2.3050
 3128SOL    HW220064   7.801   7.099   2.480 -0.2201 -0.8421 -0.4293
 3129SOL     OW20065   5.665   8.339   1.615  0.3160  0.3101  0.0101
 3129SOL    HW120066   5.601   8.346   1.691 -0.7504  0.9743 -0.9369
 3129SOL    HW220067   5.636   8.266   1.553  0.2304  0.8864 -0.6412
 3130SOL     OW20068   8.821   5.558   0.368 -0.7093  0.1550 -0.2991
 3130SOL    HW120069   8.813   5.651   0.332 -0.7894  0.8966  1.5970
 3130SOL    HW220070   8.912   5.544   0.406  0.0539 -1.2970 -2.5821
 3131SOL     OW20071   1.861   3.177   3.811 -0.0926  0.0887  0.1968
 3131SOL    HW120072   1.846   3.091   3.859 -0.4689  0.8535  1.4758
 3131SOL    HW220073   1.891   3.159   3.717 -1.4947 -1.4351  0.0230
 3132SOL     OW20074   2.069   2.301   0.257 -0.2353 -0.1097  0.7498
 3132SOL    HW120075   2.150   2.272   0.206  0.3450 -0.7423  2.0163
 3132SOL    HW220076   2.065   2.253   0.344  0.7499  3.5667  2.9234
 3133SOL     OW20077   1.468   3.604   2.492  0.3876 -0.2212  0.3760
 3133SOL    HW120078   1.526   3.607   2.574  1.3173 -0.2652 -0.2774
 3133SOL    HW220079   1.515   3.648   2.416 -1.1353  1.2729  0.2602
 3134SOL     OW20080   8.891   9.798   0.666  0.3259  1.1318  0.0435
 3134SOL    HW120081   8.874   9.712   0.714  0.0824  1.5151  0.6628
 3134SOL    HW220082   8.806   9.851   0.663  0.6148  1.6080  0.1973
 3135SOL     OW20083   0.522   3.261   2.431 -0.9423 -0.1874 -0.0823
 3135SOL    HW120084   0.551   3.259   2.335 -1.4147  0.8006 -0.2583
 3135SOL    HW220085   0.576   3.197   2.484  2.3228  2.3862 -0.1621
 3136SOL     OW20086   3.351   2.237   1.846  0.4931 -0.2270 -0.2377
 3136SOL    HW120087   3.382   2.142   1.853  2.3072  0.2261 -1.5967
 3136SOL    HW220088   3.253   2.242   1.866  1.0006 -1.9003  2.9758
 3137SOL     OW20089   2.228   4.694   3.770  0.1542  0.4686  0.0679
 3137SOL    HW120090   2.229   4.614   3.711  1.9241 -0.1333  0.8516
 3137SOL    HW220091   2.161   4.681   3.843  1.0921 -0.7674  0.7514
 3138SOL     OW20092   0.461   6.354   2.484  0.3807 -0.0078 -0.3551
 3138SOL    HW120093   0.557   6.371   2.507  0.5649 -0.0454 -1.0680
 3138SOL    HW220094   0.453   6.340   2.385 -0.2756 -0.6002 -0.2234
 3139SOL     OW20095   2.273   3.280   2.123 -0.1211  0.4664 -0.3081
 3139SOL    HW120096   2.275   3.318   2.030  0.5951  2.2945  0.4297
 3139SOL    HW220097   2.336   3.203   2.128 -0.3817  0.1638 -1.4200
 3140SOL     OW20098   9.627   7.606   1.083  0.2586 -0.1749 -0.7321
 3140SOL    HW120099   9.627   7.514   1.044  0.8290 -0.6585  0.3765
 3140SOL    HW220100   9.630   7.673   1.009  0.4370 -1.0551 -1.5399
 3141SOL     OW20101   0.403   4.816   2.232  0.3153  0.3197 -0.0445
 3141SOL    HW120102   0.358   4.765   2.305  0.4266 -0.5005 -0.5342
 3141SOL    HW220103   0.498   4.786   2.225  0.9086  1.9443  0.8936
 3142SOL     OW20104   0.444   0.407   0.567  0.9372 -0.3287 -0.2622
 3142SOL    HW120105   0.496   0.337   0.518  1.5365 -0.0046 -0.0828
 3142SOL    HW220106   0.358   0.424   0.518  2.1842  1.0621 -2.0466
 3143SOL     OW20107   6.893   9.638   2.285 -0.1855 -0.0679  0.2052
 3143SOL    HW120108   6.898   9.549   2.332 -1.9789 -0.1630  0.2502
 3143SOL    HW220109   6.853   9.625   2.195  1.9760  0.3282 -0.8555
 3144SOL     OW20110   3.727   9.680   2.454  0.1767 -0.2910  0.0437
 3144SOL    HW120111   3.735   9.748   2.527 -0.7951  1.6657 -1.6249
 3144SOL    HW220112   3.635   9.641   2.453 -0.2399  0.6953 -0.9853
 3145SOL     OW20113   8.283   8.995   0.923 -0.6133 -1.4390  0.0962
 3145SOL    HW120114   8.254   8.981   0.828 -0.9035 -1.1879  0.1484
 3145SOL    HW220115   8.318   8.909   0.960  0.4751 -1.3060 -0.5774
 3146SOL     OW20116   1.808   9.246   2.463  0.4298 -0.3469  0.1934
 3146SOL    HW120117   1.723   9.289   2.492  0.1420 -1.0215  0.3732
 3146SOL    HW220118   1.864   9.224   2.543 -0.1529 -1.7820  0.2238
 3147SOL     OW20119   8.335   6.109   3.130  0.2930 -0.6088  0.1821
 3147SOL    HW120120   8.409   6.042   3.131  1.0902  0.2633  2.9425
 3147SOL    HW220121   8.372   6.200   3.109 -0.0841 -0.2712  0.9775
 3148SOL     OW20122   4.063   0.243   0.311 -0.1890 -0.5327  0.0793
 3148SOL    HW120123   4.102   0.237   0.219 -0.5743  0.9103 -0.1905
 3148SOL    HW220124   4.136   0.230   0.378  0.2128 -0.9159 -0.4228
 3149SOL     OW20125   3.722   3.308   4.657  0.0075  0.4290 -0.0145
 3149SOL    HW120126   3.679   3.398   4.649  1.3013  0.9091 -1.7137
 3149SOL    HW220127   3.652   3.240   4.678 -1.5103  1.3090 -2.0315
 3150SOL     OW20128   1.765   4.741   4.549 -0.3939 -0.0501 -0.0930
 3150SOL    HW120129   1.736   4.646   4.536  1.1907 -0.5623  0.0082
 3150SOL    HW220130   1.747   4.793   4.465 -0.2141 -0.7127 -0.5454
 3151SOL     OW20131   3.611   0.486   3.028  0.1127  0.1003 -0.4439
 3151SOL    HW120132   3.690   0.448   3.076  0.6019 -1.2141 -2.2359
 3151SOL    HW220133   3.642   0.544   2.953 -0.5862 -1.3342 -1.8797
 3152SOL     OW20134   9.177   1.839   4.249  0.1236  0.4412 -0.0283
 3152SOL    HW120135   9.100   1.898   4.277  0.8301  1.6126 -0.4950
 3152SOL    HW220136   9.250   1.846   4.318  0.6701  1.0178 -0.6575
 3153SOL     OW20137   8.384   8.644   3.184  0.0968  0.1515 -0.1816
 3153SOL    HW120138   8.385   8.679   3.091  0.1216  0.6131 -0.0077
 3153SOL    HW220139   8.443   8.701   3.242 -0.0657 -0.0222  0.1552
 3154SOL     OW20140   4.948   8.888   3.146  0.6446  0.7688  0.0517
 3154SOL    HW120141   5.009   8.920   3.074 -0.1012  0.4420 -0.7263
 3154SOL    HW220142   4.919   8.794   3.127  0.8574  0.4920  1.0472
 3155SOL     OW20143   4.301   0.625   4.592  0.0192 -0.0830  0.0929
 3155SOL    HW120144   4.233   0.552   4.591 -0.4416  0.3342  0.9576
 3155SOL    HW220145   4.381   0.597   4.538  0.0105 -1.3699  0.7466
 3156SOL     OW20146   5.105   8.690   2.880  0.9714 -0.0246  0.1691
 3156SOL    HW120147   5.048   8.640   2.945 -1.0828 -0.1222 -1.6373
 3156SOL    HW220148   5.099   8.788   2.901  2.7423 -0.2545  1.9495
 3157SOL     OW20149   2.290   6.791   2.654  0.1709 -0.3887  0.3160
 3157SOL    HW120150   2.385   6.779   2.624  0.0037  0.7134 -0.6704
 3157SOL    HW220151   2.232   6.812   2.575 -0.1056  3.5947  1.4730
 3158SOL     OW20152   2.167   2.584   1.227 -0.3609  0.0327 -0.3308
 3158SOL    HW120153   2.121   2.661   1.271 -1.0050 -0.0523 -0.8294
 3158SOL    HW220154   2.204   2.613   1.139 -1.2488 -0.3857 -0.8618
 3159SOL     OW20155   9.620   6.197   2.786 -0.3147 -0.0709 -0.2098
 3159SOL    HW120156   9.622   6.221   2.689  0.8077  0.0206 -0.1738
 3159SOL    HW220157   9.569   6.112   2.798 -0.9168  0.1992 -0.8118
 3160SOL     OW20158   6.982   9.173   4.169  0.6502  0.4160  0.1101
 3160SOL    HW120159   6.961   9.259   4.215  3.8738  1.9581 -1.1321
 3160SOL    HW220160   6.993   9.189   4.071  1.2661 -1.4330 -0.1513
 3161SOL     OW20161   3.913   8.200   0.673 -0.1450 -0.3912  0.5350
 3161SOL    HW120162   3.894   8.289   0.632  0.7175 -0.6452 -0.4351
 3161SOL    HW220163   3.850   8.132   0.635 -1.1764 -0.0862  1.6960
 3162SOL     OW20164   3.772   6.321   2.605 -0.9120  0.3668 -0.0484
 3162SOL    HW120165   3.738   6.395   2.546 -0.8236  0.5274  0.1028
 3162SOL    HW220166   3.861   6.346   2.643 -0.5209 -0.1513 -0.6174
 3163SOL     OW20167   5.071   0.479   0.364  0.2306  0.0666  0.4662
 3163SOL    HW120168   5.099   0.562   0.412 -0.8277  0.2786  0.7323
 3163SOL    HW220169   4.995   0.500   0.303  1.7959 -0.1305 -1.6043
 3164SOL     OW20170   9.742   7.682   1.750  0.1206  0.4659  0.2096
 3164SOL    HW120171   9.755   7.737   1.667 -0.9636  0.8714  0.3096
 3164SOL    HW220172   9.832   7.657   1.787  0.6162  1.3070 -0.4028
 3165SOL     OW20173   0.808   5.168   0.484 -0.0691 -0.3135  0.0501
 3165SOL    HW120174   0.849   5.164   0.576  0.1394  0.9414  0.0083
 3165SOL    HW220175   0.732   5.232   0.484  0.1564 -0.0474 -0.7490
 3166SOL     OW20176   3.120   9.898   1.209  0.0688  0.4430 -0.1152
 3166SOL    HW120177   3.153   9.991   1.225  0.1969  0.4910 -0.6404
 3166SOL    HW220178   3.046   9.899   1.142  0.3993  0.1173 -0.4895
 3167SOL     OW20179   4.279   2.092   3.303 -0.1193 -0.5141  0.1966
 3167SOL    HW120180   4.370   2.080   3.342 -0.6296 -2.7137  0.7960
 3167SOL    HW220181   4.278   2.061   3.208 -0.0403  0.3496 -0.0930
 3168SOL     OW20182   1.862   1.311   3.414  0.2309  0.3746  0.2381
 3168SOL    HW120183   1.923   1.272   3.483  0.8253 -1.4738 -1.2990
 3168SOL    HW220184   1.812   1.388   3.454  0.7156 -0.5191  2.6624
 3169SOL     OW20185   4.728   1.201   2.354 -0.4409  0.1155 -0.5841
 3169SOL    HW120186   4.799   1.131   2.350 -1.2573 -0.6954 -1.0721
 3169SOL    HW220187   4.743   1.267   2.280  1.5860  1.7040  1.1796
 3170SOL     OW20188   3.285   4.320   1.142 -0.1578 -0.1207  0.2501
 3170SOL    HW120189   3.361   4.326   1.077 -0.8016 -0.7346 -0.5831
 3170SOL    HW220190   3.321   4.318   1.235  1.0012 -2.5556 -0.1947
 3171SOL     OW20191   9.137   4.426   1.283  0.5570 -0.6084  0.2503
 3171SOL    HW120192   9.098   4.366   1.352  2.3064 -0.2933  1.5405
 3171SOL    HW220193   9.235   4.406   1.271  0.8676  1.0709 -0.2618
 3172SOL     OW20194   1.014   9.557   3.519  0.0913  0.3608  0.2108
 3172SOL    HW120195   0.948   9.629   3.541 -1.4733 -1.2792  0.9999
 3172SOL    HW220196   0.992   9.519   3.429  0.6956  0.5944 -0.0414
 3173SOL     OW20197   0.117   5.411   1.814  0.4063 -0.1370 -0.1721
 3173SOL    HW120198   0.019   5.405   1.837  0.4049 -0.5900 -0.2871
 3173SOL    HW220199   0.128   5.394   1.716  0.5358  0.5518 -0.2762
 3174SOL     OW20200   9.144   7.060   3.113 -0.1260  0.6249 -0.3269
 3174SOL    HW120201   9.051   7.048   3.148 -0.0344  1.0047  0.0483
 3174SOL    HW220202   9.155   7.006   3.030 -0.2871 -0.4136  0.3298
 3175SOL     OW20203   8.903   8.227   3.349  0.1172 -0.2961  0.2810
 3175SOL    HW120204   8.905   8.270   3.439 -0.8956 -1.0272  0.6734
 3175SOL    HW220205   8.808   8.223   3.316  0.5926  0.8491 -1.2565
 3176SOL     OW20206   9.451   7.202   2.391 -0.0455 -0.1086  0.1470
 3176SOL    HW120207   9.383   7.249   2.447 -0.3873 -1.2479  0.7010
 3176SOL    HW220208   9.461   7.250   2.304 -2.4224 -0.5797 -0.4250
 3177SOL     OW20209   5.989   6.419   2.368  0.1798 -0.2598  0.3011
 3177SOL    HW120210   5.961   6.467   2.284  2.2285 -0.2795 -0.4171
 3177SOL    HW220211   6.020   6.327   2.344  0.8182 -0.2439  1.0728
 3178SOL     OW20212   8.355   9.038   3.096  0.4616 -0.0101 -0.4716
 3178SOL    HW120213   8.268   8.997   3.069 -0.6626  0.8593  1.7467
 3178SOL    HW220214   8.372   9.119   3.039  0.8039 -1.2629 -2.2201
 3179SOL     OW20215   3.133   9.475   1.258 -0.1262 -0.2990 -0.1323
 3179SOL    HW120216   3.198   9.435   1.193  0.0596 -0.5010  0.1756
 3179SOL    HW220217   3.042   9.436   1.243  0.3553 -2.0034  1.1629
 3180SOL     OW20218   4.712   2.952   2.271  0.5518 -0.0268 -0.2486
 3180SOL    HW120219   4.731   2.960   2.369  0.6264  1.2268 -0.3645
 3180SOL    HW220220   4.735   2.860   2.240 -0.3441 -0.7248  1.1077
 3181SOL     OW20221   1.393   0.594   4.119 -0.1195 -0.0845 -0.4615
 3181SOL    HW120222   1.331   0.669   4.142  1.2238  0.8534  0.1998
 3181SOL    HW220223   1.371   0.560   4.028 -0.4894  1.3999 -0.9541
 3182SOL     OW20224   4.063   9.717   1.791  0.7483  0.2308 -0.0536
 3182SOL    HW120225   4.047   9.709   1.890 -0.0348 -0.9293 -0.2729
 3182SOL    HW220226   4.140   9.779   1.775  1.0797  0.1804  1.2952
 3183SOL     OW20227   2.726   2.409   3.171 -0.4674  0.1580 -0.1302
 3183SOL    HW120228   2.650   2.400   3.108 -0.6205  0.2380  0.0442
 3183SOL    HW220229   2.698   2.461   3.252 -1.5485 -3.5030  1.9948
 3184SOL     OW20230   1.769   0.529   2.792 -0.4616 -0.4527  0.3948
 3184SOL    HW120231   1.829   0.454   2.821 -0.0893 -0.5522 -0.6230
 3184SOL    HW220232   1.797   0.614   2.837 -0.7770 -0.8901  1.4213
 3185SOL     OW20233   8.881   4.946   3.645  0.5062 -0.4353 -0.4026
 3185SOL    HW120234   8.897   5.037   3.607 -0.6504  0.0655  0.2891
 3185SOL    HW220235   8.810   4.951   3.716 -0.4828 -2.0692 -1.2372
 3186SOL     OW20236   8.574   9.856   3.387 -0.2474 -0.3922  0.0398
 3186SOL    HW120237   8.580   9.824   3.481 -2.1767 -3.2918 -0.7347
 3186SOL    HW220238   8.624   9.793   3.327 -1.8511 -0.4652 -1.2521
 3187SOL     OW20239   2.833   8.824   2.566  0.5350  0.0186 -0.1955
 3187SOL    HW120240   2.871   8.798   2.655 -1.4100  0.0847  0.6707
 3187SOL    HW220241   2.763   8.894   2.579  0.7934  0.5954 -1.8599
 3188SOL     OW20242   3.164   3.831   0.273 -0.0984  0.6938  0.6432
 3188SOL    HW120243   3.166   3.743   0.320 -0.4818 -0.5725 -1.6315
 3188SOL    HW220244   3.253   3.848   0.230 -0.0805  1.3462  0.9303
 3189SOL     OW20245   4.114   9.644   1.369 -0.2785 -0.1493 -0.7488
 3189SOL    HW120246   4.148   9.561   1.325  1.4069 -0.8409  1.7661
 3189SOL    HW220247   4.014   9.648   1.360 -0.2322 -1.6439 -2.1996
 3190SOL     OW20248   0.403   7.411   4.384  0.5364 -0.0280  0.4988
 3190SOL    HW120249   0.449   7.387   4.470 -3.3284  0.0659  2.7502
 3190SOL    HW220250   0.365   7.328   4.342 -0.5233  0.3346  0.7236
 3191SOL     OW20251   3.653   8.735   4.535 -0.4050 -0.5698 -0.1971
 3191SOL    HW120252   3.654   8.719   4.436  2.5746 -2.8669  0.1397
 3191SOL    HW220253   3.733   8.788   4.561 -0.7178 -0.7312  1.1126
 3192SOL     OW20254   4.103   0.285   2.951 -0.2084 -0.6361 -0.1906
 3192SOL    HW120255   4.180   0.341   2.920 -1.3046 -0.3344 -2.4388
 3192SOL    HW220256   4.046   0.338   3.014  0.5527 -0.3519  0.2688
 3193SOL     OW20257   0.641   7.677   2.730 -0.2547 -0.1806 -0.2732
 3193SOL    HW120258   0.553   7.670   2.777 -0.8890 -2.6197 -1.7112
 3193SOL    HW220259   0.638   7.749   2.661 -0.3979  1.1816  1.1418
 3194SOL     OW20260   2.183   7.836   0.720 -0.1398 -0.0887  0.4446
 3194SOL    HW120261   2.165   7.796   0.630 -0.9523  0.1180  0.5160
 3194SOL    HW220262   2.251   7.909   0.710 -0.7525  0.4102 -0.1063
 3195SOL     OW20263   5.772   9.839   3.353 -0.2771 -0.8986  0.3902
 3195SOL    HW120264   5.716   9.899   3.295 -2.0241 -1.4614  1.4772
 3195SOL    HW220265   5.852   9.889   3.385 -1.8942  0.9979  1.5755
 3196SOL     OW20266   3.927   7.785   0.017  0.0481  0.3243  0.3506
 3196SOL    HW120267   3.886   7.780   0.108 -2.2887 -0.3979 -0.7006
 3196SOL    HW220268   3.868   7.840  -0.043  1.5320  0.7473 -0.7351
 3197SOL     OW20269   8.154   9.610   1.810 -0.4526  0.0810 -0.5759
 3197SOL    HW120270   8.153   9.605   1.910  0.7463  2.2388 -0.4285
 3197SOL    HW220271   8.066   9.647   1.777 -1.7215 -2.7355 -0.5000
 3198SOL     OW20272   0.640   3.119   0.373  0.4691 -0.2644  0.0850
 3198SOL    HW120273   0.583   3.039   0.393 -1.9978  1.5199  0.3306
 3198SOL    HW220274   0.642   3.179   0.453 -0.6555  1.6770 -1.3324
 3199SOL     OW20275   4.497   2.256   0.051 -0.2863  0.5850  0.5065
 3199SOL    HW120276   4.523   2.168   0.011 -1.1740  0.2908  0.5649
 3199SOL    HW220277   4.417   2.244   0.109 -1.8450  1.8227 -1.3058
 3200SOL     OW20278   2.773   3.784   2.801 -0.6428 -0.0963  0.0746
 3200SOL    HW120279   2.846   3.736   2.850  1.1564 -0.2557 -2.6543
 3200SOL    HW220280   2.749   3.733   2.719 -1.0259  1.9547 -1.1311
 3201SOL     OW20281   2.909   3.088   3.538  0.7583 -0.0918 -0.3938
 3201SOL    HW120282   2.937   3.180   3.513 -0.3643 -0.0344 -1.4927
 3201SOL    HW220283   2.892   3.034   3.455 -2.0944 -0.1919  0.1775
 3202SOL     OW20284   9.867   8.356   2.816  0.4759  0.1980 -0.7601
 3202SOL    HW120285   9.821   8.405   2.891 -0.6862 -1.4335 -0.3699
 3202SOL    HW220286   9.839   8.396   2.729  0.2044  0.7762 -0.4142
 3203SOL     OW20287   0.872   0.206   1.179 -0.1451  0.1239 -0.1117
 3203SOL    HW120288   0.912   0.296   1.197 -0.8322  0.4864 -0.3630
 3203SOL    HW220289   0.787   0.217   1.128 -1.3602 -0.5174  1.7032
 3204SOL     OW20290   8.418   9.422   1.218 -0.2557  0.6526  0.2967
 3204SOL    HW120291   8.494   9.452   1.277  0.4447 -2.2204  0.9524
 3204SOL    HW220292   8.339   9.401   1.275  0.3011 -1.7755  0.2202
 3205SOL     OW20293   2.670   3.184   2.560 -0.1309 -0.2841 -0.2643
 3205SOL    HW120294   2.763   3.179   2.598 -0.2516 -0.9575 -0.0603
 3205SOL    HW220295   2.673   3.232   2.472  0.3534  0.0316 -0.0812
 3206SOL     OW20296   8.507   8.605   2.486 -0.7137 -0.6540  0.1448
 3206SOL    HW120297   8.583   8.545   2.511 -0.3675  0.0416  0.7595
 3206SOL    HW220298   8.518   8.693   2.530 -1.1615 -0.0859 -0.8557
 3207SOL     OW20299   0.048   5.418   3.547  0.9316 -0.1412 -0.0921
 3207SOL    HW120300   0.044   5.473   3.630 -1.3424 -0.8011  0.2887
 3207SOL    HW220301  -0.010   5.459   3.477  0.0556 -1.4514 -0.1591
 3208SOL     OW20302   3.629   1.018   3.600  0.1163  0.7604 -0.1807
 3208SOL    HW120303   3.687   0.947   3.639  0.6662  1.8488  1.0471
 3208SOL    HW220304   3.657   1.107   3.637  0.5138  1.8274 -2.8991
 3209SOL     OW20305   7.688   7.551   1.912  0.2793 -0.1457  0.3418
 3209SOL    HW120306   7.644   7.469   1.949  0.1703 -0.0858  0.3449
 3209SOL    HW220307   7.667   7.560   1.815 -1.3033  0.9142  0.7584
 3210SOL     OW20308   0.638   6.659   0.662  0.5763  0.6935  0.5742
 3210SOL    HW120309   0.726   6.648   0.710 -0.4709  0.1005  2.3973
 3210SOL    HW220310   0.577   6.715   0.717 -0.9632 -0.7141  0.3354
 3211SOL     OW20311   8.614   0.805   4.670  0.2833  0.0526 -0.0987
 3211SOL    HW120312   8.682   0.794   4.742 -0.6550 -0.5577  0.6969
 3211SOL    HW220313   8.655   0.854   4.593  1.2440  0.8099  0.8890
 3212SOL     OW20314   1.096   7.827   0.627 -0.4549  0.3314  0.2037
 3212SOL    HW120315   1.153   7.802   0.548 -2.3222 -0.7035 -0.8328
 3212SOL    HW220316   1.068   7.745   0.676  0.9980  0.9839  2.2255
 3213SOL     OW20317   9.205   9.277   2.580  0.5376  0.1407  0.7724
 3213SOL    HW120318   9.241   9.193   2.541  1.6643  0.7818  0.4008
 3213SOL    HW220319   9.113   9.294   2.545  1.3503  0.4634 -1.2824
 3214SOL     OW20320   2.041   8.387   1.797  0.4293 -0.0973 -0.1417
 3214SOL    HW120321   1.967   8.401   1.732 -0.1062 -1.1154  0.2240
 3214SOL    HW220322   2.040   8.291   1.828  0.5026  0.4309  1.5572
 3215SOL     OW20323   4.832   3.550   1.931 -0.4856 -0.0822  0.0370
 3215SOL    HW120324   4.745   3.505   1.953 -0.6763 -0.7049 -1.8727
 3215SOL    HW220325   4.816   3.646   1.912 -0.9168 -0.3657 -1.1172
 3216SOL     OW20326   4.444   8.438   1.594  0.1215 -0.0544  0.3491
 3216SOL    HW120327   4.484   8.377   1.662 -0.3610  0.0575  0.7322
 3216SOL    HW220328   4.345   8.421   1.587  0.3347 -0.7970 -1.0680
 3217SOL     OW20329   7.008   0.210   3.156 -0.1729 -0.2366  0.7104
 3217SOL    HW120330   7.047   0.267   3.228  0.0428  1.0852 -0.4344
 3217SOL    HW220331   6.936   0.260   3.108  0.0459 -0.8893 -0.3311
 3218SOL     OW20332   3.269   7.579   1.314  0.1484 -0.2455 -0.4884
 3218SOL    HW120333   3.214   7.609   1.236 -0.9257  1.3699  0.8544
 3218SOL    HW220334   3.366   7.577   1.288 -0.1737  0.5173 -1.7923
 3219SOL     OW20335   7.897   4.756   3.798 -0.8707 -0.1423  0.0162
 3219SOL    HW120336   7.869   4.841   3.754 -0.7593  0.6384  1.4273
 3219SOL    HW220337   7.819   4.693   3.802 -0.7563 -0.3992 -1.6965
 3220SOL     OW20338   1.672   6.814   1.867  0.0252  0.1228 -0.4164
 3220SOL    HW120339   1.743   6.775   1.925 -0.6567 -1.3716 -0.5788
 3220SOL    HW220340   1.677   6.914   1.871  0.9575  0.0253  1.0028
 3221SOL     OW20341   9.141   0.227   3.218  0.5659 -0.0503  0.2624
 3221SOL    HW120342   9.041   0.229   3.216  0.5855  0.4624 -0.5638
 3221SOL    HW220343   9.173   0.231   3.312 -0.1826  0.6751  0.4886
 3222SOL     OW20344   3.336   8.529   0.507  0.3192 -0.4626  0.2975
 3222SOL    HW120345   3.290   8.524   0.418  2.3091 -0.0387 -0.7755
 3222SOL    HW220346   3.280   8.583   0.570 -0.4149  0.4803 -1.1332
 3223SOL     OW20347   2.355   4.665   0.226 -0.2441  0.0395 -0.1333
 3223SOL    HW120348   2.412   4.737   0.264 -1.7076  1.1586 -0.0206
 3223SOL    HW220349   2.406   4.615   0.156  0.9317  0.8907  0.1100
 3224SOL     OW20350   1.097   8.660   2.690 -0.4836  0.1911 -0.4755
 3224SOL    HW120351   0.999   8.664   2.669 -0.7546  0.9913  0.8516
 3224SOL    HW220352   1.109   8.632   2.786  0.6692 -2.5325 -1.3817
 3225SOL     OW20353   2.839   1.208   1.275  0.4305  0.3806 -0.6864
 3225SOL    HW120354   2.881   1.122   1.304  0.9513  0.4744 -1.1419
 3225SOL    HW220355   2.836   1.272   1.351 -1.3648 -0.5786  0.0650
 3226SOL     OW20356   9.671   5.016   4.428  0.0122 -0.4047  0.4631
 3226SOL    HW120357   9.609   4.941   4.404  0.4813 -0.7536  0.3255
 3226SOL    HW220358   9.633   5.102   4.394  1.0240 -0.9718 -2.2796
 3227SOL     OW20359   2.567   2.070   1.056  0.0726  0.3681 -0.2807
 3227SOL    HW120360   2.640   2.010   1.023 -0.4073  0.2144 -1.0742
 3227SOL    HW220361   2.535   2.128   0.981  0.4091  1.4961  0.4304
 3228SOL     OW20362   8.423   2.955   2.739  0.1351  0.4835 -0.3241
 3228SOL    HW120363   8.358   2.913   2.676 -0.4983 -0.2002  0.7695
 3228SOL    HW220364   8.396   3.050   2.757 -0.9199  0.0249  0.5926
 3229SOL     OW20365   9.696   8.911   3.802  0.3277 -0.6999  0.2084
 3229SOL    HW120366   9.779   8.856   3.816  0.2024 -1.2855 -1.3122
 3229SOL    HW220367   9.623   8.876   3.861  1.2186 -0.0226  1.7537
 3230SOL     OW20368   5.420   0.070   1.958  0.3927 -0.0635  0.0779
 3230SOL    HW120369   5.458  -0.012   1.915  1.2436  0.9472 -1.1424
 3230SOL    HW220370   5.331   0.049   1.997 -0.4874 -0.9975 -2.3437
 3231SOL     OW20371   5.543   8.021   3.184 -0.0441 -0.6535  0.4107
 3231SOL    HW120372   5.537   7.931   3.141 -1.0007  0.0538 -0.9639
 3231SOL    HW220373   5.617   8.074   3.142 -0.4786 -0.2420  0.1587
 3232SOL     OW20374   3.376   0.407   2.666 -0.5996  0.2278 -0.2459
 3232SOL    HW120375   3.311   0.377   2.595 -1.3061  0.3848  0.3300
 3232SOL    HW220376   3.449   0.460   2.623 -0.3966 -0.6481 -1.0129
 3233SOL     OW20377   1.453   1.519   1.170 -0.1099 -0.1015 -0.6772
 3233SOL    HW120378   1.421   1.552   1.259  0.2071  1.1669 -1.0181
 3233SOL    HW220379   1.494   1.429   1.180 -0.9112 -0.3646  0.3065
 3234SOL     OW20380   0.680   0.405   2.785 -0.0929 -0.1075  0.4803
 3234SOL    HW120381   0.713   0.426   2.877 -1.7788 -0.8672  1.2737
 3234SOL    HW220382   0.706   0.312   2.760  0.0436 -0.0320  0.3422
 3235SOL     OW20383   2.778   0.562   2.884 -0.5472  0.6894 -0.4509
 3235SOL    HW120384   2.754   0.480   2.831 -0.5651  2.1987 -2.8407
 3235SOL    HW220385   2.877   0.565   2.896 -0.4374  0.8879 -1.3420
 3236SOL     OW20386   2.028   9.982   4.027 -0.1887  0.2203  0.1857
 3236SOL    HW120387   1.974   9.934   3.958  1.5176 -0.8241 -0.4656
 3236SOL    HW220388   2.053   9.919   4.100  2.0759  0.0902 -0.6758
 3237SOL     OW20389   2.544   1.173   0.367  0.4035 -0.4383  0.1673
 3237SOL    HW120390   2.527   1.085   0.413 -1.4765 -1.3155 -2.0638
 3237SOL    HW220391   2.479   1.183   0.291  0.0691  3.2524  0.8525
 3238SOL     OW20392   3.144   1.974   2.781 -0.3096 -0.4328  0.5613
 3238SOL    HW120393   3.211   2.029   2.732 -0.6273  0.4768  1.1352
 3238SOL    HW220394   3.157   1.986   2.880 -0.8028 -0.8793  0.6841
 3239SOL     OW20395   3.819   8.697   0.367 -0.7436  0.3165 -0.2058
 3239SOL    HW120396   3.743   8.697   0.433 -0.1886 -1.8938  0.4574
 3239SOL    HW220397   3.792   8.748   0.286 -3.1405 -0.8784 -0.2028
 3240SOL     OW20398   2.517   9.431   1.465  0.1500  0.1301 -0.4842
 3240SOL    HW120399   2.500   9.371   1.543  0.1247  1.7642  0.8021
 3240SOL    HW220400   2.609   9.469   1.471  0.6608 -0.8174 -2.0190
 3241SOL     OW20401   4.056   3.105   2.150  0.0456 -0.2868  0.3023
 3241SOL    HW120402   4.097   3.016   2.130  2.2522  0.4402  1.4062
 3241SOL    HW220403   4.122   3.178   2.129 -1.2372  1.0172  0.6909
 3242SOL     OW20404   1.230   2.987   3.845  0.5358 -0.2147 -0.2694
 3242SOL    HW120405   1.241   2.964   3.942  0.5437  0.3054 -0.1477
 3242SOL    HW220406   1.238   2.903   3.790  0.1377 -0.5636  0.2068
 3243SOL     OW20407   4.652   0.265   4.680  0.0209 -0.1797  0.0135
 3243SOL    HW120408   4.562   0.309   4.687  0.2869  0.3062  0.4477
 3243SOL    HW220409   4.721   0.333   4.655  0.2031 -0.6310 -0.7276
 3244SOL     OW20410   9.874   6.710   4.426  0.5431  0.4054 -0.1552
 3244SOL    HW120411   9.816   6.644   4.474  0.1980  1.6352  1.1571
 3244SOL    HW220412   9.857   6.801   4.462  2.9114  0.8648 -0.1170
 3245SOL     OW20413   2.276   0.263   3.641 -0.0101 -0.0641  0.1272
 3245SOL    HW120414   2.278   0.281   3.740 -0.5297 -0.0403  0.1328
 3245SOL    HW220415   2.362   0.295   3.600  0.8820 -1.5478  0.8238
 3246SOL     OW20416   1.091   3.531   1.298  0.1654  0.0769  0.1973
 3246SOL    HW120417   1.189   3.513   1.302  0.5303  2.2150  1.8811
 3246SOL    HW220418   1.062   3.544   1.203  1.9655  1.7217 -0.1463
 3247SOL     OW20419   8.438   9.805   4.071 -0.2318 -0.6688 -0.7608
 3247SOL    HW120420   8.512   9.853   4.118 -0.0760 -2.3557  0.7701
 3247SOL    HW220421   8.351   9.832   4.113 -0.0103 -3.0126  1.3254
 3248SOL     OW20422   3.666   9.041   1.784  0.2822 -0.1808  0.0519
 3248SOL    HW120423   3.692   9.097   1.862  1.9216  2.4503 -2.2960
 3248SOL    HW220424   3.583   9.078   1.742  0.8763 -0.0080 -0.9884
 3249SOL     OW20425   7.465   0.667   3.910  0.1004 -0.7343 -0.2502
 3249SOL    HW120426   7.390   0.627   3.858 -0.1864  0.0719 -0.4645
 3249SOL    HW220427   7.511   0.596   3.963 -1.5318 -1.0563  0.7632
 3250SOL     OW20428   2.639   7.012   1.373 -0.3653  0.2143  0.1649
 3250SOL    HW120429   2.572   7.085   1.390  0.4421  1.3369 -1.2952
 3250SOL    HW220430   2.717   7.050   1.324  0.6160 -1.4162  0.4376
 3251SOL     OW20431   9.711   6.333   0.551  0.1094  0.0644 -0.1826
 3251SOL    HW120432   9.756   6.308   0.637 -3.3494 -0.4627  1.5649
 3251SOL    HW220433   9.722   6.259   0.485  2.2709  0.2025 -0.0095
 3252SOL     OW20434   9.928   7.676   3.744 -0.5641  0.2653  0.5129
 3252SOL    HW120435   9.918   7.596   3.803 -2.8583  0.0744 -0.0967
 3252SOL    HW220436   9.963   7.647   3.655 -0.4005  0.0854  0.6354
 3253SOL     OW20437   9.390   6.674   1.015  0.6733 -0.4350 -0.5883
 3253SOL    HW120438   9.485   6.706   1.011  0.5064  0.0426 -0.8171
 3253SOL    HW220439   9.338   6.718   0.942 -0.6450  2.3600  1.9368
 3254SOL     OW20440   4.742   1.479   1.245  0.3820 -1.0583 -0.4060
 3254SOL    HW120441   4.670   1.473   1.314 -0.3319  1.3437 -0.8869
 3254SOL    HW220442   4.708   1.440   1.159 -0.1847 -0.4254 -0.4818
 3255SOL     OW20443   3.614   1.468   1.981 -0.5366 -0.2085  0.1022
 3255SOL    HW120444   3.654   1.518   2.057 -1.0454  0.6346 -0.1799
 3255SOL    HW220445   3.654   1.500   1.895  0.4118 -1.5140  0.0395
 3256SOL     OW20446   9.935   7.557   0.933  0.8586  0.8529  0.1347
 3256SOL    HW120447   9.843   7.551   0.894  0.9933  1.6490 -0.3121
 3256SOL    HW220448   9.928   7.562   1.032  0.4827 -0.4484  0.1794
 3257SOL     OW20449   6.770   0.148   4.266  0.1079  0.4399 -0.3918
 3257SOL    HW120450   6.717   0.184   4.189 -0.0694  1.3010  0.1375
 3257SOL    HW220451   6.759   0.048   4.269 -0.5093  0.4793 -1.0074
 3258SOL     OW20452   8.763   2.848   3.393 -0.7182  0.1569  0.4471
 3258SOL    HW120453   8.860   2.872   3.393 -0.7991  0.5313 -0.7441
 3258SOL    HW220454   8.713   2.914   3.450 -0.7191  1.9420 -1.5678
 3259SOL     OW20455   4.877   8.319   2.427 -0.1727 -0.0940  0.4788
 3259SOL    HW120456   4.847   8.233   2.468  1.2326 -0.0095  1.7174
 3259SOL    HW220457   4.859   8.316   2.328 -1.6648 -1.1257  0.7641
 3260SOL     OW20458   8.691   0.425   2.836 -0.2076  0.0138  0.2188
 3260SOL    HW120459   8.638   0.501   2.798 -0.8106 -0.7081 -0.3982
 3260SOL    HW220460   8.630   0.358   2.876  0.1109 -1.4952 -1.7320
 3261SOL     OW20461   4.957   7.920   0.995 -0.1875 -0.0680 -0.4410
 3261SOL    HW120462   4.957   8.013   1.033 -1.2158 -0.3922  0.3521
 3261SOL    HW220463   5.019   7.863   1.048 -0.5843 -0.1757 -0.0916
 3262SOL     OW20464   3.717   5.992   1.551  0.1390 -0.1659 -1.0513
 3262SOL    HW120465   3.639   5.930   1.541  0.3754 -0.0153 -4.0445
 3262SOL    HW220466   3.754   5.983   1.644 -3.4355 -0.2159  0.4791
 3263SOL     OW20467   8.738   0.687   4.015 -0.1385  0.3551 -0.4307
 3263SOL    HW120468   8.765   0.698   3.920  0.7084  0.9260 -0.1229
 3263SOL    HW220469   8.648   0.643   4.019  0.1320 -0.3198 -1.4783
 3264SOL     OW20470   3.470   8.726   0.221 -0.0301  0.7072  0.1949
 3264SOL    HW120471   3.531   8.679   0.157 -0.8556 -1.0070  0.6174
 3264SOL    HW220472   3.506   8.817   0.241  1.2823  0.5107 -1.1556
 3265SOL     OW20473   3.733   7.226   1.519  0.1527 -0.2549  0.0696
 3265SOL    HW120474   3.639   7.242   1.550 -0.1991  2.0906 -1.9923
 3265SOL    HW220475   3.796   7.282   1.573  0.2734 -0.9860  0.7064
 3266SOL     OW20476   3.933   2.756   1.366 -0.3171 -0.5019  0.1031
 3266SOL    HW120477   3.965   2.689   1.432  0.7997 -0.9679 -0.8958
 3266SOL    HW220478   3.976   2.844   1.384 -0.5986 -0.4408  0.4679
 3267SOL     OW20479   4.440   9.720   0.359  0.4463 -0.2852 -0.4585
 3267SOL    HW120480   4.450   9.810   0.316  1.5208 -0.2960 -0.2561
 3267SOL    HW220481   4.379   9.663   0.304 -1.8648  1.2320  0.4658
 3268SOL     OW20482   0.696   6.006   1.078 -0.0994  0.1251  0.2521
 3268SOL    HW120483   0.730   5.912   1.079 -0.8126 -0.1288  1.6638
 3268SOL    HW220484   0.738   6.057   1.153  1.3337  1.3369 -1.3273
 3269SOL     OW20485   1.887   2.365   3.888 -0.0341 -0.2104  0.1739
 3269SOL    HW120486   1.936   2.293   3.936  1.0350  0.9023  0.7792
 3269SOL    HW220487   1.821   2.407   3.951 -0.5920 -0.5917 -0.1520
 3270SOL     OW20488   2.339   6.243   2.794  0.7038  0.1167 -0.5064
 3270SOL    HW120489   2.370   6.331   2.830 -1.6047  2.1557 -3.3034
 3270SOL    HW220490   2.253   6.218   2.838  1.7141 -1.1577  0.8057
 3271SOL     OW20491   1.784   2.660   3.045  0.4080  0.4998  0.0250
 3271SOL    HW120492   1.796   2.754   3.076  0.5225  0.8185 -0.9705
 3271SOL    HW220493   1.700   2.622   3.084  0.3339  1.0376  0.3846
 3272SOL     OW20494   7.507   9.626   3.140 -0.1946 -0.0691  0.2421
 3272SOL    HW120495   7.605   9.636   3.156  0.2300 -2.0774 -0.9717
 3272SOL    HW220496   7.490   9.614   3.042 -1.5282 -1.1663  0.5897
 3273SOL     OW20497   6.271   7.400   2.710  0.1829  0.5539 -0.2468
 3273SOL    HW120498   6.184   7.394   2.662  0.0447 -1.1043  0.1915
 3273SOL    HW220499   6.309   7.492   2.699 -0.6958  0.7192 -2.0409
 3274SOL     OW20500   2.163   2.378   4.396 -0.0362  0.3714  0.6506
 3274SOL    HW120501   2.183   2.305   4.461 -0.2416  1.0787  1.5044
 3274SOL    HW220502   2.187   2.466   4.436  0.1541  0.7854 -0.3558
 3275SOL     OW20503   1.318   2.829   0.676 -0.0769 -0.2425  0.1134
 3275SOL    HW120504   1.357   2.742   0.648 -0.0157 -0.1925  0.0434
 3275SOL    HW220505   1.373   2.904   0.639 -0.1569 -0.1736  0.1335
 3276SOL     OW20506   9.586   4.589   0.617 -0.1887 -0.1845  0.2459
 3276SOL    HW120507   9.519   4.634   0.677  1.7611 -0.6953  2.8683
 3276SOL    HW220508   9.593   4.492   0.641  0.1405 -0.5536 -1.2853
 3277SOL     OW20509   9.554   0.115   2.062  0.6046  0.5625 -0.2107
 3277SOL    HW120510   9.488   0.105   1.987  0.8037  0.6538 -0.3977
 3277SOL    HW220511   9.647   0.118   2.025  0.8746 -1.8210  0.2346
 3278SOL     OW20512   8.598   0.494   0.322  0.8210 -0.2068 -0.1016
 3278SOL    HW120513   8.622   0.517   0.227 -2.3677  0.7002 -0.7445
 3278SOL    HW220514   8.665   0.535   0.384  2.0602  0.5299 -1.8744
 3279SOL     OW20515   8.054   4.040   0.686 -0.5449  0.3242  0.3358
 3279SOL    HW120516   7.963   4.065   0.652 -0.1993 -0.6928 -1.3682
 3279SOL    HW220517   8.079   4.101   0.761 -2.5831  0.6919  0.7434
 3280SOL     OW20518   8.416   2.256   0.366  0.3383  0.2264 -0.0856
 3280SOL    HW120519   8.339   2.281   0.424 -1.1979 -3.4892 -0.3783
 3280SOL    HW220520   8.460   2.174   0.403  0.2183 -1.3814 -3.3688
 3281SOL     OW20521   1.250   4.170   2.838 -0.3065 -0.2515  0.0407
 3281SOL    HW120522   1.225   4.078   2.807  0.6506 -0.2143 -0.8472
 3281SOL    HW220523   1.340   4.194   2.803  0.8054 -0.1806  2.8090
 3282SOL     OW20524   4.040   9.052   0.330 -0.1478  0.0339  0.7002
 3282SOL    HW120525   3.960   9.111   0.335  1.2441  2.1221 -0.9225
 3282SOL    HW220526   4.011   8.957   0.322 -2.4388  0.6527  1.2819
 3283SOL     OW20527   7.674   8.474   4.321  0.4242  0.0606 -0.1617
 3283SOL    HW120528   7.589   8.426   4.343  0.3871  1.0085  1.8086
 3283SOL    HW220529   7.656   8.542   4.250 -0.1599 -0.7121 -0.7624
 3284SOL     OW20530   0.165   1.168   2.017 -0.2539  0.2984  0.4468
 3284SOL    HW120531   0.205   1.133   1.932  0.5923 -1.3127  1.4673
 3284SOL    HW220532   0.066   1.176   2.007 -0.2523 -0.6534 -0.4452
 3285SOL     OW20533   9.107   5.769   4.366 -0.5310  0.5323 -0.3799
 3285SOL    HW120534   9.175   5.699   4.388  0.7876  2.5677  2.2961
 3285SOL    HW220535   9.150   5.843   4.314 -0.9233  1.2728  0.3221
 3286SOL     OW20536   4.795   1.584   3.170 -0.2946  0.1515  0.0539
 3286SOL    HW120537   4.717   1.540   3.126  0.0673  0.8652 -1.3344
 3286SOL    HW220538   4.876   1.527   3.159 -0.2871  0.1506  0.1171
 3287SOL     OW20539   8.885   0.973   4.086 -0.2090 -1.1584 -0.2253
 3287SOL    HW120540   8.935   1.004   4.167  0.1817  0.0037 -0.8982
 3287SOL    HW220541   8.892   0.874   4.078  0.5521 -1.1746  0.6399
 3288SOL     OW20542   1.762   9.012   1.656  0.4173 -0.7372 -0.4256
 3288SOL    HW120543   1.825   9.004   1.733  0.3552 -1.0013 -0.4015
 3288SOL    HW220544   1.669   9.029   1.690  0.6838  0.9775 -0.5002
 3289SOL     OW20545   8.111   9.588   2.069 -0.6580  0.6736 -0.2607
 3289SOL    HW120546   8.115   9.559   2.165 -1.0766 -2.4363 -1.1141
 3289SOL    HW220547   8.096   9.687   2.065 -0.4450  0.9099  2.8554
 3290SOL     OW20548   2.810   3.195   2.135  0.6644  1.0017 -0.0170
 3290SOL    HW120549   2.869   3.115   2.131 -1.5189 -0.8193  2.4611
 3290SOL    HW220550   2.782   3.221   2.043  2.2636 -0.4023 -0.9267
 3291SOL     OW20551   7.594   0.653   1.809  0.9125  0.8417 -0.0843
 3291SOL    HW120552   7.518   0.600   1.771  2.9876 -1.3672 -1.2772
 3291SOL    HW220553   7.636   0.708   1.736  1.3431  0.9618  0.2521
 3292SOL     OW20554   3.951   3.384   4.546 -0.2519 -0.2564  0.2475
 3292SOL    HW120555   4.029   3.358   4.604  0.5748  0.1118 -0.6837
 3292SOL    HW220556   3.870   3.333   4.575  0.1610 -0.1121  1.6946
 3293SOL     OW20557   0.604   9.803   4.365  0.9784  0.4448  0.0744
 3293SOL    HW120558   0.585   9.851   4.279  0.2569  0.1412  0.0617
 3293SOL    HW220559   0.574   9.708   4.358 -0.4714  0.7925  1.1554
 3294SOL     OW20560   4.428   9.979   1.236 -0.3648  0.6014  0.4703
 3294SOL    HW120561   4.415   9.893   1.284 -0.8288 -0.5563 -1.6552
 3294SOL    HW220562   4.343  10.005   1.190 -0.1896  2.1218  0.9591
 3295SOL     OW20563   0.847   9.531   4.539  0.6766 -0.2369 -0.1282
 3295SOL    HW120564   0.947   9.538   4.534  0.5825 -0.1633 -2.2647
 3295SOL    HW220565   0.813   9.483   4.458 -0.9749 -0.8453  0.9120
 3296SOL     OW20566   0.572   6.135   4.011 -0.5528  0.0680 -0.4505
 3296SOL    HW120567   0.481   6.147   4.050  0.1595 -1.0211  1.5868
 3296SOL    HW220568   0.634   6.096   4.079  1.7653  1.8975 -1.4260
 3297SOL     OW20569   7.893   0.686   4.335  0.0515  0.6246  0.1700
 3297SOL    HW120570   7.942   0.768   4.366  2.1579 -0.9390  1.1176
 3297SOL    HW220571   7.959   0.622   4.296 -1.3645 -1.2105  0.7516
 3298SOL     OW20572   0.272   3.816   4.281 -0.5167 -0.0061 -0.8278
 3298SOL    HW120573   0.333   3.738   4.276 -1.5484 -0.8305 -0.6594
 3298SOL    HW220574   0.205   3.812   4.207 -0.7493  0.5605 -0.6577
 3299SOL     OW20575   9.598   5.339   1.765 -0.0788 -0.4516  0.6425
 3299SOL    HW120576   9.513   5.299   1.731  0.4364 -0.6151 -0.4527
 3299SOL    HW220577   9.582   5.378   1.856 -1.5801  0.4680 -0.0118
 3300SOL     OW20578   3.159   8.953   1.639  0.2385  0.6510 -0.2630
 3300SOL    HW120579   3.183   8.998   1.725  1.0163 -0.4533  0.1057
 3300SOL    HW220580   3.209   8.995   1.564  0.2596  1.0051 -0.0491
 3301SOL     OW20581   4.096   9.920   3.149 -0.3347 -0.2643  0.2770
 3301SOL    HW120582   4.075  10.016   3.169 -1.5540 -0.4686  0.0354
 3301SOL    HW220583   4.140   9.914   3.060 -0.5296  0.0408  0.1570
 3302SOL     OW20584   8.126   6.393   2.256  0.3564  0.1353  0.1587
 3302SOL    HW120585   8.063   6.349   2.320  0.5686  0.5481  0.6510
 3302SOL    HW220586   8.178   6.323   2.207  0.2058 -0.1773  0.4405
 3303SOL     OW20587   8.195   2.151   2.294  0.3137 -0.5213 -0.4442
 3303SOL    HW120588   8.197   2.053   2.272  0.4958 -0.7308  0.4888
 3303SOL    HW220589   8.243   2.167   2.379 -0.4712  0.2683 -0.1375
 3304SOL     OW20590   2.344   5.102   4.522  0.3383  0.0197  0.5383
 3304SOL    HW120591   2.412   5.028   4.518 -0.7618 -0.9579 -0.1656
 3304SOL    HW220592   2.277   5.081   4.594  0.0125  0.3190  0.3186
 3305SOL     OW20593   8.070   7.624   1.187 -0.4914 -0.1789  0.5554
 3305SOL    HW120594   8.018   7.594   1.267 -1.2759  0.6370  0.3570
 3305SOL    HW220595   8.059   7.723   1.175 -0.2188 -0.2637 -0.4395
 3306SOL     OW20596   7.214   9.023   1.908 -0.3038  0.2934  0.4426
 3306SOL    HW120597   7.143   9.083   1.945  0.1034  1.7267 -1.0017
 3306SOL    HW220598   7.184   8.928   1.911 -1.2495  0.6287  2.1443
 3307SOL     OW20599   4.595   0.783   0.987 -0.4094  0.0484 -0.2081
 3307SOL    HW120600   4.599   0.882   0.978  0.5402 -0.0098 -0.4765
 3307SOL    HW220601   4.532   0.745   0.919  0.1472  0.3627 -0.9022
 3308SOL     OW20602   3.146   3.672   4.447  0.3219 -0.0586  0.1833
 3308SOL    HW120603   3.111   3.724   4.369  0.3784 -1.2559 -0.6595
 3308SOL    HW220604   3.082   3.679   4.524 -0.0501  0.6067 -0.1867
 3309SOL     OW20605   3.403   8.347   4.434  0.1236 -0.2093  0.2902
 3309SOL    HW120606   3.424   8.348   4.532 -0.8190 -1.5119  0.5140
 3309SOL    HW220607   3.438   8.263   4.393 -1.8311 -0.9361  0.0584
 3310SOL     OW20608   9.303   0.579   3.239  0.0700 -0.2705 -0.8501
 3310SOL    HW120609   9.394   0.557   3.274 -0.0878 -0.0813 -0.3094
 3310SOL    HW220610   9.310   0.655   3.175  0.3665 -0.6404 -1.2570
 3311SOL     OW20611   1.606   0.211   4.232  0.1590 -0.3751 -0.1807
 3311SOL    HW120612   1.590   0.221   4.134  0.3321 -3.3030 -0.5496
 3311SOL    HW220613   1.548   0.138   4.267  2.3705 -1.4488  1.2993
 3312SOL     OW20614   3.170   5.660   3.604  0.0296 -0.7102  0.2270
 3312SOL    HW120615   3.252   5.671   3.661 -0.0392 -2.3937  0.6991
 3312SOL    HW220616   3.094   5.709   3.646 -0.1874 -2.4746  1.9864
 3313SOL     OW20617   8.746   7.894   1.961  0.7197 -0.5949 -0.5866
 3313SOL    HW120618   8.774   7.804   1.927 -2.0955 -1.7406 -0.0300
 3313SOL    HW220619   8.758   7.897   2.060  0.6169 -0.4454 -0.5797
 3314SOL     OW20620   9.957   6.463   0.033  0.0717 -0.4575  0.3409
 3314SOL    HW120621   9.909   6.549   0.045 -0.2093 -0.2343 -2.1451
 3314SOL    HW220622   9.911   6.391   0.084 -1.2204  0.3471  0.3137
 3315SOL     OW20623   0.730   0.643   2.505  0.1070  0.1194  0.1112
 3315SOL    HW120624   0.763   0.731   2.541 -0.3848  1.2884 -2.1951
 3315SOL    HW220625   0.668   0.602   2.570 -0.4362  1.9790  0.8079
 3316SOL     OW20626   0.900   7.938   2.478  0.1601  0.1884  0.5709
 3316SOL    HW120627   0.864   8.028   2.456 -0.5284  0.1843  1.6584
 3316SOL    HW220628   0.993   7.946   2.515  0.1578  0.4299  0.5210
 3317SOL     OW20629   8.189   5.439   2.124  0.6055 -0.3250  0.2893
 3317SOL    HW120630   8.133   5.521   2.132  0.8110 -0.1084 -0.4902
 3317SOL    HW220631   8.237   5.423   2.210  0.7629  0.5127  0.3594
 3318SOL     OW20632   6.074   7.151   2.904  0.1929  0.3560 -0.5868
 3318SOL    HW120633   6.075   7.143   2.804  1.5220  0.3051 -0.5743
 3318SOL    HW220634   6.128   7.077   2.944  0.2979  0.8213  0.1399
 3319SOL     OW20635   7.234   9.297   2.668 -0.2002 -0.3159 -0.2078
 3319SOL    HW120636   7.168   9.286   2.742  0.2899  0.8955  0.4256
 3319SOL    HW220637   7.295   9.218   2.666  0.5418  0.1954  1.4543
 3320SOL     OW20638   0.830   9.687   0.454 -0.0413  0.8798  0.3044
 3320SOL    HW120639   0.860   9.694   0.549  0.5559  0.6756  0.1358
 3320SOL    HW220640   0.730   9.688   0.450 -0.0539  2.8614  0.7718
 3321SOL     OW20641   3.016   7.555   0.481 -0.1160 -0.1003 -0.1129
 3321SOL    HW120642   3.057   7.627   0.538 -0.1793  1.1237 -1.5766
 3321SOL    HW220643   3.086   7.516   0.421 -0.5710  0.3772 -0.9658
 3322SOL     OW20644   1.424   0.261   2.248  0.2514  0.5034  0.3296
 3322SOL    HW120645   1.325   0.248   2.253  0.5635 -1.2906  3.0928
 3322SOL    HW220646   1.459   0.222   2.163 -1.2427 -0.0233 -0.0540
 3323SOL     OW20647   9.124   4.398   3.993 -0.5056 -0.6895 -0.5561
 3323SOL    HW120648   9.090   4.385   4.086 -0.0509 -2.5296 -0.6285
 3323SOL    HW220649   9.119   4.495   3.969 -4.1396 -0.6509  0.0128
 3324SOL     OW20650   6.252   9.800   1.196  0.8268 -0.0740 -0.3031
 3324SOL    HW120651   6.156   9.809   1.223  0.6614 -0.2762 -0.8283
 3324SOL    HW220652   6.268   9.849   1.111  0.7079 -1.7758 -1.3376
 3325SOL     OW20653   1.375   6.778   3.721  0.0377  0.8000  0.1988
 3325SOL    HW120654   1.407   6.764   3.815 -0.1097 -0.0350  0.1226
 3325SOL    HW220655   1.349   6.874   3.709  1.5520  1.2753  0.5577
 3326SOL     OW20656   1.580   8.713   1.013 -0.0931  0.0765  0.1218
 3326SOL    HW120657   1.493   8.681   1.050 -0.1961 -0.2602 -0.4167
 3326SOL    HW220658   1.653   8.693   1.078 -0.4650  0.7029  0.7499
 3327SOL     OW20659   1.032   5.057   1.979  0.1015  0.0942  0.1077
 3327SOL    HW120660   0.944   5.061   2.026  0.0740  0.4624  0.0288
 3327SOL    HW220661   1.069   4.964   1.983  0.7054  0.4022  1.9475
 3328SOL     OW20662   2.611   7.473   0.208 -0.3460  0.1987  0.6049
 3328SOL    HW120663   2.632   7.448   0.113 -1.9190  0.7006  0.0981
 3328SOL    HW220664   2.653   7.407   0.270  0.6200 -0.1973 -0.4461
 3329SOL     OW20665   9.016   0.874   3.838 -0.2803  0.1108 -0.1805
 3329SOL    HW120666   8.956   0.801   3.807 -1.5053  1.3984 -0.8775
 3329SOL    HW220667   8.967   0.931   3.904  1.2851 -0.7816  1.8345
 3330SOL     OW20668   1.975   5.804   0.229 -0.2170 -0.0315  0.4258
 3330SOL    HW120669   1.938   5.722   0.272  1.8227  0.1618  2.6948
 3330SOL    HW220670   1.974   5.879   0.295 -0.4203  1.3003 -1.0549
 3331SOL     OW20671   4.628   2.847   1.118 -0.1914 -0.0540 -0.9958
 3331SOL    HW120672   4.659   2.942   1.115 -0.8241  0.2033  0.1854
 3331SOL    HW220673   4.706   2.788   1.140 -0.3065  0.4957  1.0402
 3332SOL     OW20674   5.237   0.142   3.741 -0.3187  0.6857  0.1060
 3332SOL    HW120675   5.167   0.099   3.684 -1.5034  2.0527  0.4881
 3332SOL    HW220676   5.239   0.098   3.831 -0.0297  0.0353 -0.2129
 3333SOL     OW20677   8.086   2.757   3.968 -0.0732  0.1200  0.5138
 3333SOL    HW120678   8.094   2.813   3.885 -2.9728 -0.7462 -0.4170
 3333SOL    HW220679   8.144   2.795   4.039  1.0859  1.9648 -1.3452
 3334SOL     OW20680   0.280   7.810   2.598  0.2623  0.5280 -0.3558
 3334SOL    HW120681   0.270   7.903   2.562  1.2293  1.0729  0.7479
 3334SOL    HW220682   0.279   7.744   2.523  0.9324  1.5438 -1.2581
 3335SOL     OW20683   1.559   8.584   2.149  1.1157  0.0750 -0.1194
 3335SOL    HW120684   1.642   8.613   2.197 -0.4642  1.9296  1.6053
 3335SOL    HW220685   1.497   8.661   2.141 -0.4095 -1.2635 -1.4778
 3336SOL     OW20686   1.045   3.077   4.562 -0.4758 -0.2665 -0.5184
 3336SOL    HW120687   1.000   3.131   4.633  0.2334 -1.2889  0.7136
 3336SOL    HW220688   0.983   3.004   4.532  0.0497 -1.2012  0.6341
 3337SOL     OW20689   9.468   3.372   3.266  0.0809  0.1402 -0.3756
 3337SOL    HW120690   9.510   3.370   3.175 -0.9180  1.1178 -0.8758
 3337SOL    HW220691   9.527   3.324   3.331  1.4747  0.6261 -1.2556
 3338SOL     OW20692   0.648   7.840   0.049  0.0095 -0.1694 -0.0145
 3338SOL    HW120693   0.662   7.742   0.036  1.9853  0.2623 -1.4313
 3338SOL    HW220694   0.736   7.885   0.058 -0.8860  1.4798  0.6359
 3339SOL     OW20695   9.549   7.887   3.905 -0.2589 -0.0852  0.1778
 3339SOL    HW120696   9.623   7.931   3.854  0.4507 -1.0339  0.3829
 3339SOL    HW220697   9.577   7.874   4.000 -0.1346 -1.7267 -0.0635
 3340SOL     OW20698   2.746   4.524   4.388  0.4414  0.4776  0.1446
 3340SOL    HW120699   2.694   4.524   4.303  1.5160  0.4090 -0.5221
 3340SOL    HW220700   2.793   4.612   4.398 -0.6320  0.9395  1.2656
 3341SOL     OW20701   4.547   9.963   4.162 -0.0377 -0.0582 -0.4148
 3341SOL    HW120702   4.511  10.051   4.192  2.1230  0.8943 -0.5474
 3341SOL    HW220703   4.629   9.940   4.214 -1.1443 -2.5084  0.3360
 3342SOL     OW20704   9.841   9.224   1.006  0.9135  0.0019  0.2470
 3342SOL    HW120705   9.744   9.249   1.008  0.5629 -1.2783  0.0159
 3342SOL    HW220706   9.875   9.216   1.099  0.5111 -0.5729  0.3502
 3343SOL     OW20707   8.202   3.946   1.132  0.3564 -0.3352  0.3163
 3343SOL    HW120708   8.123   3.891   1.157 -0.5066  0.4791 -0.5826
 3343SOL    HW220709   8.200   4.033   1.181  0.6559 -0.2890  0.2510
 3344SOL     OW20710   4.537   4.579   0.821  0.3651 -0.1510  0.0928
 3344SOL    HW120711   4.619   4.594   0.875  0.0850  0.2685  0.4095
 3344SOL    HW220712   4.465   4.642   0.851 -0.2843 -0.9581  0.2560
 3345SOL     OW20713   3.923   8.152   1.401 -0.4986  0.0006  0.3661
 3345SOL    HW120714   3.927   8.231   1.462 -0.4706  1.2438 -1.2181
 3345SOL    HW220715   4.013   8.137   1.361 -0.8368  0.0023 -0.3948
 3346SOL     OW20716   3.987   9.364   3.956 -0.4764 -0.2294 -0.5300
 3346SOL    HW120717   4.017   9.366   3.861  1.4483 -1.0738  0.0354
 3346SOL    HW220718   3.991   9.270   3.991 -0.7051  0.1436  0.5335
 3347SOL     OW20719   5.948   6.868   3.048  0.1484 -0.0574 -0.3144
 3347SOL    HW120720   5.972   6.898   3.141 -1.9638 -1.7747  0.8243
 3347SOL    HW220721   5.853   6.837   3.046  0.8326 -2.1705 -2.5125
 3348SOL     OW20722   5.856   7.623   2.582 -0.0601  0.0005 -0.4129
 3348SOL    HW120723   5.858   7.694   2.652 -1.9390 -0.6539  0.3112
 3348SOL    HW220724   5.762   7.609   2.551  0.2678 -2.2945 -0.4166
 3349SOL     OW20725   9.053   7.603   3.382 -0.4914 -0.4681 -0.2253
 3349SOL    HW120726   9.114   7.527   3.402  0.1331  0.0559 -0.1497
 3349SOL    HW220727   8.961   7.580   3.415 -0.1310 -0.8466  0.5431
 3350SOL     OW20728   2.639   3.980   2.952 -0.1882  0.0256 -0.2858
 3350SOL    HW120729   2.699   3.928   2.891  0.7018  1.1197 -0.3445
 3350SOL    HW220730   2.555   4.003   2.904 -0.5684 -1.2923 -0.2861
 3351SOL     OW20731   5.343   7.108   1.688 -0.2267  0.4803 -0.1936
 3351SOL    HW120732   5.248   7.096   1.662 -0.7018 -3.4608  2.8459
 3351SOL    HW220733   5.396   7.027   1.661  1.4792  1.0571  1.2360
 3352SOL     OW20734   2.710   6.876   2.455 -0.1952 -0.2195  0.1025
 3352SOL    HW120735   2.702   6.968   2.494  0.1739 -0.8321  1.6461
 3352SOL    HW220736   2.787   6.875   2.391 -0.0480  0.4759  0.2560
 3353SOL     OW20737   7.068   9.293   3.273  0.2545  0.0765  0.0718
 3353SOL    HW120738   7.154   9.276   3.224  0.4968  0.7409  0.2686
 3353SOL    HW220739   7.075   9.378   3.324 -1.4425  1.4966 -1.9665
 3354SOL     OW20740   3.856   8.216   4.575 -0.0326  0.0222  0.6204
 3354SOL    HW120741   3.820   8.292   4.520 -1.7139 -0.8819  0.4201
 3354SOL    HW220742   3.955   8.217   4.573 -0.0615  0.7170 -1.4819
 3355SOL     OW20743   8.495   0.558   2.131 -0.3276  0.0727  0.1019
 3355SOL    HW120744   8.482   0.513   2.220 -0.7186 -1.0404 -0.5109
 3355SOL    HW220745   8.546   0.498   2.070 -2.3215 -0.2587 -1.2895
 3356SOL     OW20746   1.139   8.194   3.268 -0.1502  0.1022  0.1694
 3356SOL    HW120747   1.159   8.152   3.179 -0.0244  1.2686 -0.3603
 3356SOL    HW220748   1.192   8.279   3.277 -0.0628 -0.0807  1.4182
 3357SOL     OW20749   3.286   9.702   0.968 -0.6347 -0.0732 -0.0164
 3357SOL    HW120750   3.366   9.698   1.028 -0.3339 -0.7703 -0.4653
 3357SOL    HW220751   3.208   9.736   1.020 -0.2537 -0.2027  0.6500
 3358SOL     OW20752   4.451   3.248   2.655  0.2416 -0.1329 -0.1638
 3358SOL    HW120753   4.450   3.150   2.674  2.9803 -0.1281  0.3192
 3358SOL    HW220754   4.361   3.286   2.671 -0.0806 -2.0019  2.9495
 3359SOL     OW20755   8.868   4.041   3.955  0.4013  0.1473  0.6642
 3359SOL    HW120756   8.936   4.112   3.936  2.6445 -2.3937 -1.2032
 3359SOL    HW220757   8.844   3.994   3.870 -0.5984 -1.7334  1.9477
 3360SOL     OW20758   0.358   6.230   1.731  0.0831  0.2903 -0.4623
 3360SOL    HW120759   0.280   6.167   1.732 -0.4922  0.9773 -0.9588
 3360SOL    HW220760   0.400   6.229   1.640 -0.8314  1.6839 -0.9315
 3361SOL     OW20761   1.575   7.421   0.060 -0.1000  0.2613  0.0770
 3361SOL    HW120762   1.519   7.377   0.131 -2.6000  0.9557 -1.3975
 3361SOL    HW220763   1.672   7.411   0.083 -0.8191 -0.4928  2.9951
 3362SOL     OW20764   9.536   7.198   2.857  0.1463 -0.0822  0.0304
 3362SOL    HW120765   9.587   7.212   2.772 -0.3931  0.0266 -0.2723
 3362SOL    HW220766   9.601   7.192   2.934  0.6492 -0.4467 -0.4200
 3363SOL     OW20767   4.254   9.774   4.251 -0.7586 -0.1019  0.1294
 3363SOL    HW120768   4.218   9.850   4.197  1.3563 -0.0379 -1.2538
 3363SOL    HW220769   4.234   9.688   4.206 -1.5601 -0.2407  0.7553
 3364SOL     OW20770   5.037   7.685   1.323 -0.1554 -0.6173 -0.5209
 3364SOL    HW120771   5.127   7.651   1.348  0.4993  1.1116 -0.5198
 3364SOL    HW220772   5.036   7.785   1.326 -2.5309 -0.6423  1.1500
 3365SOL     OW20773   2.180   9.497   3.675  0.0979  0.1585  0.3816
 3365SOL    HW120774   2.177   9.442   3.758  1.7464  0.3033  0.5601
 3365SOL    HW220775   2.270   9.540   3.667 -0.6603  1.6022 -0.5439
 3366SOL     OW20776   3.899   9.960   1.053  0.1273 -0.1629  0.0409
 3366SOL    HW120777   3.877  10.058   1.051 -2.7411 -0.8062 -1.6120
 3366SOL    HW220778   3.941   9.934   0.967  0.4226 -0.4926  0.2856
 3367SOL     OW20779   2.628   9.584   2.099 -0.1608  0.7220  0.2998
 3367SOL    HW120780   2.689   9.505   2.100  1.2148  1.7083 -1.4576
 3367SOL    HW220781   2.653   9.647   2.173  1.0194  1.1186 -0.4035
 3368SOL     OW20782   6.279   8.893   2.194 -0.3980  0.1636 -0.4181
 3368SOL    HW120783   6.246   8.976   2.148 -0.9652 -0.0350 -0.3734
 3368SOL    HW220784   6.371   8.872   2.163 -0.1896  0.9059 -0.3149
 3369SOL     OW20785   8.099   1.133   0.845 -0.4845 -0.3213 -0.8931
 3369SOL    HW120786   8.143   1.220   0.870 -2.2979  0.5938 -0.8202
 3369SOL    HW220787   8.001   1.147   0.834 -0.7655 -2.3292 -1.1337
 3370SOL     OW20788   2.924   4.688   2.469  0.1573 -0.2263 -0.1367
 3370SOL    HW120789   2.926   4.671   2.370  1.0942 -0.9857  0.0010
 3370SOL    HW220790   2.972   4.613   2.516 -0.0094  0.2969  0.8632
 3371SOL     OW20791   9.374   6.997   4.301  0.2170  0.0432 -0.7963
 3371SOL    HW120792   9.442   6.966   4.367  0.4229 -0.2136 -1.1308
 3371SOL    HW220793   9.396   7.090   4.270 -0.3450  0.4999  0.1325
 3372SOL     OW20794   3.703   9.758   1.933 -0.3666 -0.3833  0.3868
 3372SOL    HW120795   3.727   9.793   2.024  2.7351  0.8346 -0.8422
 3372SOL    HW220796   3.724   9.661   1.927 -0.2334 -0.3806  0.8497
 3373SOL     OW20797   9.705   2.720   1.513 -0.1459 -0.1646  0.1370
 3373SOL    HW120798   9.792   2.675   1.495 -0.2016 -0.3673  0.3704
 3373SOL    HW220799   9.632   2.652   1.513  0.0083 -0.3950  2.4178
 3374SOL     OW20800   8.733   1.672   1.311 -0.4704  0.2721  0.1755
 3374SOL    HW120801   8.644   1.715   1.326  0.7456  2.0701  2.6642
 3374SOL    HW220802   8.782   1.665   1.399  2.0885 -0.1253 -1.2253
 3375SOL     OW20803   2.957   6.149   2.203  0.2828  0.1573 -0.1204
 3375SOL    HW120804   2.903   6.183   2.280  0.9947 -1.5605  1.1712
 3375SOL    HW220805   2.896   6.119   2.129 -0.5292 -1.2520  1.1022
 3376SOL     OW20806   3.156   5.255   2.135 -0.6247 -0.4103 -0.8913
 3376SOL    HW120807   3.198   5.167   2.157 -0.2919 -0.0694 -0.1395
 3376SOL    HW220808   3.220   5.309   2.080  0.0162  0.1798  0.4044
 3377SOL     OW20809   8.819   6.232   2.774  0.0778 -0.8943  0.1868
 3377SOL    HW120810   8.798   6.323   2.810  1.0765  0.0607 -1.5747
 3377SOL    HW220811   8.897   6.194   2.824  1.6171  0.5287 -1.0545
 3378SOL     OW20812   0.893   3.982   2.769  0.1227  0.7193  0.3308
 3378SOL    HW120813   0.855   4.075   2.774 -1.2609  0.2482 -1.2523
 3378SOL    HW220814   0.834   3.920   2.821  0.5020  0.5351  0.5442
 3379SOL     OW20815   1.309   2.399   3.266 -0.0292  0.4676  0.5615
 3379SOL    HW120816   1.368   2.405   3.346  1.2292 -0.7325 -0.2469
 3379SOL    HW220817   1.338   2.323   3.209 -0.2545  1.9159 -1.5538
 3380SOL     OW20818   5.464   0.991   1.649 -0.0919  0.1098 -0.0728
 3380SOL    HW120819   5.523   0.985   1.569 -1.2192 -2.6713 -0.7679
 3380SOL    HW220820   5.377   1.032   1.623 -0.2416 -0.2521 -0.1421
 3381SOL     OW20821   1.431   6.234   3.266 -0.5473 -0.1883  0.2637
 3381SOL    HW120822   1.487   6.154   3.290 -0.4267 -0.9841 -2.4607
 3381SOL    HW220823   1.350   6.204   3.216 -0.8575  1.3701 -0.1861
 3382SOL     OW20824   9.859   3.722   2.855  0.3152 -0.3120  0.3567
 3382SOL    HW120825   9.792   3.671   2.910  1.5026 -0.6839  1.5049
 3382SOL    HW220826   9.829   3.817   2.845  0.0386 -0.2585  1.6069
 3383SOL     OW20827   1.099   4.636   2.348 -0.3320  0.4949 -0.1935
 3383SOL    HW120828   1.142   4.564   2.294 -0.3663  0.5700 -0.3199
 3383SOL    HW220829   1.025   4.597   2.402  0.6483  0.1298  0.9315
 3384SOL     OW20830   1.636   8.478   3.099  0.1273  0.4419 -0.1619
 3384SOL    HW120831   1.667   8.564   3.141 -0.2680 -0.3514  1.8518
 3384SOL    HW220832   1.559   8.497   3.038  1.5962  1.8221 -1.6141
 3385SOL     OW20833   8.254   7.520   3.300  0.7481 -0.1829  0.3668
 3385SOL    HW120834   8.226   7.589   3.234  0.0384 -1.0028 -0.1903
 3385SOL    HW220835   8.325   7.558   3.360  0.0792  1.1494  0.3241
 3386SOL     OW20836   9.379   2.732   2.451  0.5707 -1.2373 -0.2055
 3386SOL    HW120837   9.323   2.815   2.444  1.8986 -0.2909  0.1741
 3386SOL    HW220838   9.446   2.730   2.376  0.1564 -2.2733 -0.5583
 3387SOL     OW20839   3.456   3.378   4.482 -0.5121 -0.3360  0.2786
 3387SOL    HW120840   3.415   3.389   4.573 -1.0483  1.1129 -0.1329
 3387SOL    HW220841   3.398   3.422   4.414  0.6786 -0.0763 -0.5789
 3388SOL     OW20842   0.728   6.635   3.667  0.0351 -0.0029 -0.4088
 3388SOL    HW120843   0.632   6.659   3.673  0.2873  0.8965  0.1140
 3388SOL    HW220844   0.782   6.715   3.641  0.6719 -0.4193 -0.3958
 3389SOL     OW20845   8.789   1.392   3.849 -0.4827 -0.2845 -0.4427
 3389SOL    HW120846   8.814   1.484   3.880  1.0721 -0.8891  0.1804
 3389SOL    HW220847   8.757   1.337   3.927  1.5298 -1.1961 -0.2235
 3390SOL     OW20848   4.398   4.110   1.122  0.7715 -0.0378  0.0107
 3390SOL    HW120849   4.307   4.116   1.163  0.0077  0.1576 -1.6869
 3390SOL    HW220850   4.455   4.049   1.177 -0.3286 -0.0375  1.1770
 3391SOL     OW20851   9.211   8.341   2.010  0.0820 -0.2556  0.6866
 3391SOL    HW120852   9.254   8.260   1.971  0.0626  0.5894 -1.1284
 3391SOL    HW220853   9.198   8.410   1.938 -1.0731  0.8547  1.9394
 3392SOL     OW20854   0.758   4.741   1.509 -0.2252  0.1307  0.3108
 3392SOL    HW120855   0.806   4.660   1.543 -0.9292  0.1337  1.3171
 3392SOL    HW220856   0.660   4.727   1.515 -0.3684  0.3572 -1.2114
 3393SOL     OW20857   8.293   2.988   0.973  0.4297  0.0539  0.1410
 3393SOL    HW120858   8.253   3.071   0.934 -1.1354  0.0791  1.7432
 3393SOL    HW220859   8.357   2.948   0.908 -1.4101  0.6126 -2.0637
 3394SOL     OW20860   7.808   7.805   1.041 -0.3152  0.2834  0.2539
 3394SOL    HW120861   7.882   7.843   1.096  0.1834 -0.7066  0.2715
 3394SOL    HW220862   7.759   7.735   1.093 -2.5533  2.3237  0.9740
 3395SOL     OW20863   8.756   9.360   1.612 -0.1517 -0.0287  0.2892
 3395SOL    HW120864   8.659   9.382   1.626 -0.4312 -1.3418  0.5039
 3395SOL    HW220865   8.812   9.426   1.661 -0.9243  1.0181 -0.2075
 3396SOL     OW20866   0.792   0.497   0.582  0.1954 -0.2650  0.3572
 3396SOL    HW120867   0.726   0.560   0.623  0.1109  0.5729 -1.0081
 3396SOL    HW220868   0.782   0.407   0.622 -1.5614 -0.0685  0.4150
 3397SOL     OW20869   2.004   0.417   0.092  0.7463 -0.2416  0.4867
 3397SOL    HW120870   1.929   0.454   0.146  1.4650  0.4570  1.0291
 3397SOL    HW220871   1.986   0.431  -0.005 -0.3063 -1.0246  0.5595
 3398SOL     OW20872   8.594   2.780   2.557  0.3641 -0.1865 -0.2554
 3398SOL    HW120873   8.582   2.816   2.649  2.3325 -0.5258  0.1419
 3398SOL    HW220874   8.512   2.728   2.531  0.1948 -0.9089  1.6684
 3399SOL     OW20875   0.967   7.798   1.196 -0.3327 -1.0303  0.1687
 3399SOL    HW120876   1.032   7.805   1.121 -1.1943 -0.6919 -0.5486
 3399SOL    HW220877   0.875   7.786   1.160 -0.7856 -0.6447  1.1650
 3400SOL     OW20878   2.716   2.877   3.594  0.0205  0.1387  0.4515
 3400SOL    HW120879   2.790   2.944   3.590  1.3877 -1.4058 -1.0313
 3400SOL    HW220880   2.652   2.894   3.519  0.6369 -0.5015 -0.2273
 3401SOL     OW20881   1.307   3.062   3.464  0.6790 -0.3903  0.1306
 3401SOL    HW120882   1.339   3.053   3.558  1.6413 -0.6626 -0.2181
 3401SOL    HW220883   1.366   3.127   3.416  0.9040 -1.1321 -0.6025
 3402SOL     OW20884   3.354   5.901   1.908  0.1078  0.4756 -0.7301
 3402SOL    HW120885   3.359   6.001   1.911  0.9468  0.3812  1.8302
 3402SOL    HW220886   3.265   5.873   1.871 -0.8799  2.1556  0.3526
 3403SOL     OW20887   6.213   6.913   2.978  0.4326  0.5691  0.5901
 3403SOL    HW120888   6.285   6.860   3.023 -1.0425 -1.5347  0.5449
 3403SOL    HW220889   6.124   6.886   3.015 -0.5427  1.1898 -1.2448
 3404SOL     OW20890   7.365   8.709   1.987 -0.1168  0.3081 -0.3935
 3404SOL    HW120891   7.302   8.745   1.918 -1.3565 -0.3098  0.4006
 3404SOL    HW220892   7.424   8.640   1.945 -0.8794 -0.0887 -0.8293
 3405SOL     OW20893   1.325   0.191   1.433  0.2671  0.5655 -0.6615
 3405SOL    HW120894   1.419   0.155   1.434 -0.1361 -0.4926 -0.2440
 3405SOL    HW220895   1.265   0.125   1.388 -0.4217  0.8923 -0.2186
 3406SOL     OW20896   8.883   3.798   0.472 -0.5432  0.5252 -0.4573
 3406SOL    HW120897   8.967   3.775   0.423 -0.2015  0.3029  0.2347
 3406SOL    HW220898   8.808   3.740   0.439  0.3255 -1.7034  1.3359
 3407SOL     OW20899   5.438   8.872   1.499  0.7652 -0.3098  0.2221
 3407SOL    HW120900   5.396   8.796   1.447 -0.3350  0.4025  0.0568
 3407SOL    HW220901   5.385   8.888   1.582  1.4174 -0.1917  0.6086
 3408SOL     OW20902   1.329   2.388   4.002 -0.2590 -0.1223  0.5098
 3408SOL    HW120903   1.377   2.470   3.972 -1.3785  0.5190  0.4496
 3408SOL    HW220904   1.305   2.397   4.099  2.6342 -1.8463  1.4722
 3409SOL     OW20905   9.175   5.297   3.762  0.1634 -0.2610 -0.1977
 3409SOL    HW120906   9.084   5.264   3.787 -0.5334  0.8842 -1.1375
 3409SOL    HW220907   9.178   5.397   3.771  1.5036 -0.3494  0.3797
 3410SOL     OW20908   9.692   7.817   0.899 -0.1195  0.4834  0.0074
 3410SOL    HW120909   9.663   7.907   0.929  0.6827  0.9450 -0.5848
 3410SOL    HW220910   9.679   7.809   0.800  1.3705  0.5538 -0.2019
 3411SOL     OW20911   6.460   9.634   4.040  0.7935 -0.1356  0.3127
 3411SOL    HW120912   6.407   9.568   3.986  1.8467  0.0228 -0.9477
 3411SOL    HW220913   6.525   9.681   3.980  1.0443  1.0245  1.4764
 3412SOL     OW20914   0.860   6.095   1.276  0.1996 -0.1617 -0.4719
 3412SOL    HW120915   0.905   6.007   1.262 -0.2180 -0.5216  0.4316
 3412SOL    HW220916   0.908   6.146   1.347 -0.3420 -0.2045 -0.0780
 3413SOL     OW20917   1.713   1.478   4.347  0.7602  0.0776 -0.1982
 3413SOL    HW120918   1.731   1.395   4.294  0.7509  0.7292 -1.2354
 3413SOL    HW220919   1.772   1.478   4.428  2.8225  0.3919 -1.6411
 3414SOL     OW20920   8.654   2.192   4.576  0.5700  0.0695  0.5965
 3414SOL    HW120921   8.720   2.176   4.649  0.7616 -0.3163  0.3358
 3414SOL    HW220922   8.657   2.289   4.550 -1.4115  0.8224  2.9575
 3415SOL     OW20923   8.883   8.507   1.380  0.4752 -0.5985  0.2805
 3415SOL    HW120924   8.832   8.450   1.316  0.0428  1.1463 -0.9812
 3415SOL    HW220925   8.981   8.489   1.370  0.4081 -0.3650 -0.8500
 3416SOL     OW20926   0.601   3.780   3.167 -0.1577  0.3848  0.2737
 3416SOL    HW120927   0.622   3.692   3.209 -0.2908  1.6835  3.2245
 3416SOL    HW220928   0.502   3.795   3.168  0.0150  1.5664  2.0038
 3417SOL     OW20929   1.835   6.715   1.057 -0.6352 -0.1545  0.1373
 3417SOL    HW120930   1.870   6.795   1.007  1.8315 -0.7843  0.7679
 3417SOL    HW220931   1.892   6.635   1.035 -1.6048 -1.1972  1.3413
 3418SOL     OW20932   9.135   9.303   2.201 -0.5405 -0.4059  0.3208
 3418SOL    HW120933   9.152   9.327   2.105 -1.6026 -2.3409 -0.3611
 3418SOL    HW220934   9.181   9.370   2.260  1.4493 -0.1138 -1.5128
 3419SOL     OW20935   4.260   0.163   0.999 -0.1830 -0.1264  0.4026
 3419SOL    HW120936   4.296   0.256   0.993 -2.3665  0.6038 -2.5010
 3419SOL    HW220937   4.190   0.160   1.070 -0.2308  0.4983  0.3873
 3420SOL     OW20938   0.242   0.283   2.894 -0.4220  0.3752 -0.2434
 3420SOL    HW120939   0.259   0.381   2.898  2.6295 -0.1206 -0.0860
 3420SOL    HW220940   0.272   0.247   2.806 -2.3924 -0.2952 -0.6744
 3421SOL     OW20941   7.555   0.059   3.373  0.2384 -0.4446 -0.5018
 3421SOL    HW120942   7.478   0.115   3.344 -0.8009 -1.2350  0.7307
 3421SOL    HW220943   7.563  -0.020   3.312  1.1285  0.5176 -1.6617
 3422SOL     OW20944   5.794   0.688   1.905  0.2777  0.5871  0.2050
 3422SOL    HW120945   5.720   0.754   1.893  1.8526  2.1880 -0.8103
 3422SOL    HW220946   5.762   0.597   1.876 -0.9985  1.4431 -1.1419
 3423SOL     OW20947   7.352   9.514   1.778 -0.8312 -0.0825 -0.1483
 3423SOL    HW120948   7.397   9.568   1.849 -0.4693 -0.2852 -0.2264
 3423SOL    HW220949   7.268   9.561   1.750 -1.0010 -0.0301  0.4486
 3424SOL     OW20950   1.102   6.669   3.425 -0.0788 -0.7035  0.1371
 3424SOL    HW120951   1.036   6.597   3.404  2.0979 -2.8666  0.6070
 3424SOL    HW220952   1.100   6.688   3.523 -0.7377  0.0086 -0.0029
 3425SOL     OW20953   3.198   3.525   4.066 -0.1236 -0.2148 -0.1786
 3425SOL    HW120954   3.274   3.570   4.019 -0.6763 -1.4375 -2.2840
 3425SOL    HW220955   3.166   3.448   4.012 -1.2186 -1.2676  1.9231
 3426SOL     OW20956   1.112   8.157   1.057  0.3184  0.3302 -0.0006
 3426SOL    HW120957   1.063   8.236   1.021  2.6122  2.3670  1.2593
 3426SOL    HW220958   1.058   8.115   1.131 -0.5670  1.1520 -0.1764
 3427SOL     OW20959   8.171   2.984   2.997  0.2212 -0.2907  0.2326
 3427SOL    HW120960   8.203   3.026   2.912  1.4364  0.1345  0.8960
 3427SOL    HW220961   8.129   2.896   2.976 -1.4783  0.7892 -1.0598
 3428SOL     OW20962   3.634   7.339   1.117 -0.5142 -0.5746  0.1689
 3428SOL    HW120963   3.602   7.251   1.151 -0.2810 -1.2733 -1.3737
 3428SOL    HW220964   3.730   7.330   1.089 -0.4910  0.1695  0.0129
 3429SOL     OW20965   1.272   0.362   0.350 -0.5499 -0.2039 -0.2545
 3429SOL    HW120966   1.186   0.355   0.299 -2.2490  0.2197  2.4473
 3429SOL    HW220967   1.253   0.360   0.448  2.8032 -3.3341  0.4600
 3430SOL     OW20968   8.077   6.810   2.683 -0.4003 -0.3368 -0.3858
 3430SOL    HW120969   8.009   6.786   2.614  0.7115  1.5281 -2.1679
 3430SOL    HW220970   8.056   6.901   2.720  0.7762 -0.0243 -0.4881
 3431SOL     OW20971   2.562   4.074   0.256  0.0729 -0.1203 -0.7418
 3431SOL    HW120972   2.591   4.141   0.325  1.5926 -1.4965 -0.0191
 3431SOL    HW220973   2.632   4.068   0.185  0.6704 -2.0291 -0.0168
 3432SOL     OW20974   2.552   2.601   0.989 -0.4311 -0.3486 -0.1664
 3432SOL    HW120975   2.572   2.527   1.052 -0.6687 -0.9289 -0.7723
 3432SOL    HW220976   2.579   2.575   0.897 -0.8130  0.1871 -0.4355
 3433SOL     OW20977   6.810   0.017   0.805 -0.2327 -0.0853 -0.3257
 3433SOL    HW120978   6.857   0.047   0.888 -0.8189  1.4118 -0.5108
 3433SOL    HW220979   6.841  -0.074   0.780  0.2072 -0.4130  1.3404
 3434SOL     OW20980   3.582   8.588   4.754  0.7549 -0.0955 -0.4060
 3434SOL    HW120981   3.586   8.648   4.674 -2.2195  0.9039  0.1404
 3434SOL    HW220982   3.502   8.529   4.747  0.6278 -0.2090  1.6810
 3435SOL     OW20983   1.172   3.913   1.887 -0.0846 -0.2936  0.0869
 3435SOL    HW120984   1.183   4.012   1.891  0.0624 -0.3715  1.8760
 3435SOL    HW220985   1.131   3.880   1.972  0.9778 -1.8936  0.0144
 3436SOL     OW20986   6.017   9.647   2.626 -0.3734  0.5618  0.3991
 3436SOL    HW120987   5.950   9.581   2.659 -0.9220  1.8498  1.9292
 3436SOL    HW220988   5.970   9.721   2.578 -0.1059  1.6848  1.8391
 3437SOL     OW20989   2.127   5.564   2.996 -0.1491 -0.2752 -0.2959
 3437SOL    HW120990   2.084   5.652   3.019 -1.6254 -0.9686 -0.3240
 3437SOL    HW220991   2.166   5.570   2.904  0.5004  0.6119  0.0271
 3438SOL     OW20992   3.771   0.592   4.510 -0.5329 -0.7090  0.0359
 3438SOL    HW120993   3.775   0.689   4.488  1.5754 -0.7112  0.3052
 3438SOL    HW220994   3.704   0.547   4.451 -2.1456  1.0355  0.4863
 3439SOL     OW20995   3.024   0.218   4.715 -0.8455  0.2464  0.5204
 3439SOL    HW120996   3.001   0.243   4.621 -0.1069  0.4196  0.3783
 3439SOL    HW220997   2.978   0.279   4.779 -0.3090  0.9657  0.2223
 3440SOL     OW20998   9.595   1.870   1.416 -0.1403 -0.7745  0.0278
 3440SOL    HW120999   9.646   1.801   1.365  3.0347  1.7858 -0.4158
 3440SOL    HW221000   9.642   1.888   1.503 -0.3995  1.4588 -0.2736
 3441SOL     OW21001   3.922   3.674   4.508  0.2471 -0.5463  0.5264
 3441SOL    HW121002   4.014   3.713   4.517  0.0011  0.9060 -2.5840
 3441SOL    HW221003   3.927   3.575   4.512  1.7788 -0.4319  1.7465
 3442SOL     OW21004   0.109   5.793   0.715 -0.1868 -0.0949  0.4092
 3442SOL    HW121005   0.197   5.812   0.758 -0.1609  0.6922  0.0198
 3442SOL    HW221006   0.114   5.708   0.663  0.6921  0.5559 -0.5850
 3443SOL     OW21007   6.271   8.709   1.952 -0.4372  0.1169 -0.1834
 3443SOL    HW121008   6.215   8.699   1.870 -0.4984 -0.2735 -0.0937
 3443SOL    HW221009   6.240   8.790   2.003 -1.5224 -0.6200  0.3396
 3444SOL     OW21010   8.694   1.849   2.589  0.5325  0.0191 -0.5277
 3444SOL    HW121011   8.792   1.831   2.581  0.2680 -1.3592 -0.8749
 3444SOL    HW221012   8.660   1.886   2.503  0.7988  0.7744 -0.3121
 3445SOL     OW21013   2.483   0.871   2.494  0.4764  0.3388 -0.2532
 3445SOL    HW121014   2.534   0.905   2.573  1.4716  0.6164 -1.0034
 3445SOL    HW221015   2.386   0.863   2.518  0.6305  1.2302  0.7305
 3446SOL     OW21016   3.914   1.745   3.809  0.6478  0.5809 -0.6479
 3446SOL    HW121017   3.889   1.740   3.905 -1.4638  0.5342 -1.1727
 3446SOL    HW221018   3.967   1.664   3.784  1.6206  0.8291  0.5769
 3447SOL     OW21019   1.495   8.322   4.651  0.4450 -0.7524  0.2381
 3447SOL    HW121020   1.543   8.393   4.599  0.0831  1.4750  2.8515
 3447SOL    HW221021   1.562   8.262   4.695  0.7515 -0.7471 -0.2075
 3448SOL     OW21022   8.731   1.881   0.439  0.2144 -0.1489 -0.5076
 3448SOL    HW121023   8.736   1.784   0.460  0.0756  0.4085  2.2195
 3448SOL    HW221024   8.823   1.919   0.432  0.2544 -0.1540 -0.0149
 3449SOL     OW21025   5.511   9.860   1.837  0.0191 -0.0816 -0.5567
 3449SOL    HW121026   5.475   9.769   1.856  1.7887 -0.6322  0.2421
 3449SOL    HW221027   5.608   9.854   1.814  0.1714  1.5945 -0.4451
 3450SOL     OW21028   0.873   3.149   0.013  0.1883 -0.3227  0.3226
 3450SOL    HW121029   0.915   3.232   0.051 -0.0549 -0.3657  0.6871
 3450SOL    HW221030   0.778   3.143   0.043 -0.4975  0.4821 -1.5788
 3451SOL     OW21031   9.107   1.985   3.624 -0.3019 -0.2041  0.8972
 3451SOL    HW121032   9.037   1.914   3.617  1.7772 -2.1948 -0.8758
 3451SOL    HW221033   9.087   2.058   3.558 -0.5071 -0.9688  0.0931
 3452SOL     OW21034   2.643   2.073   1.981 -0.0551  0.3130 -0.7665
 3452SOL    HW121035   2.613   2.159   1.939  0.8306  0.5682 -0.8911
 3452SOL    HW221036   2.643   2.083   2.080  0.6399  0.6713 -0.7951
 3453SOL     OW21037   9.415   7.461   1.719  0.6300  0.1749 -0.3759
 3453SOL    HW121038   9.411   7.561   1.725 -0.8454  0.1560 -0.7465
 3453SOL    HW221039   9.393   7.433   1.625  0.4046 -0.5262 -0.1158
 3454SOL     OW21040   1.751   9.431   0.267 -0.0369  0.0651  0.3535
 3454SOL    HW121041   1.842   9.440   0.307  0.6279  0.0661 -1.1104
 3454SOL    HW221042   1.744   9.343   0.219  0.0832  1.1129 -1.6617
 3455SOL     OW21043   3.257   4.317   0.718 -0.6209 -0.1526 -0.0401
 3455SOL    HW121044   3.348   4.331   0.678  0.3142 -0.8878  1.7431
 3455SOL    HW221045   3.191   4.379   0.675  0.4681 -0.4369 -2.1939
 3456SOL     OW21046   1.594   6.117   1.905  0.4476  0.2739  0.0478
 3456SOL    HW121047   1.558   6.196   1.854 -0.2180  0.7435  1.2398
 3456SOL    HW221048   1.685   6.094   1.869 -0.8456 -0.6836 -2.7188
 3457SOL     OW21049   0.562   1.118   3.020 -0.1441  0.3627  0.2707
 3457SOL    HW121050   0.535   1.023   3.000 -0.6812  0.5418  0.1440
 3457SOL    HW221051   0.518   1.148   3.104  0.7707  0.1889  0.8252
 3458SOL     OW21052   3.438   8.139   1.471 -0.3237  0.2632 -0.0257
 3458SOL    HW121053   3.518   8.188   1.507  0.1417  0.1536 -0.8806
 3458SOL    HW221054   3.448   8.128   1.372 -0.3567 -1.6450  0.1585
 3459SOL     OW21055   0.482   0.477   2.006 -0.1852 -0.4275 -0.3297
 3459SOL    HW121056   0.442   0.385   2.007  0.6767 -0.8041 -0.5894
 3459SOL    HW221057   0.516   0.499   2.098 -1.4597  0.1061  0.0261
 3460SOL     OW21058   7.848   0.402   1.062 -0.0065 -0.1959  0.2389
 3460SOL    HW121059   7.776   0.333   1.068  0.1445 -0.1957  2.2548
 3460SOL    HW221060   7.885   0.403   0.969 -0.5300 -2.3087 -0.0136
 3461SOL     OW21061   0.467   1.955   1.544 -0.1803 -0.4784  0.3712
 3461SOL    HW121062   0.453   2.051   1.566 -0.4030 -0.0641 -1.5338
 3461SOL    HW221063   0.563   1.938   1.522 -0.8618  0.2062 -3.4187
 3462SOL     OW21064   9.403   7.392   3.020 -0.5364 -0.0833  0.4434
 3462SOL    HW121065   9.473   7.460   3.046 -1.2929  1.5984 -1.7551
 3462SOL    HW221066   9.444   7.323   2.962  0.1302 -1.2985  2.3066
 3463SOL     OW21067   5.737   7.311   2.696 -0.1880 -0.3203  0.2616
 3463SOL    HW121068   5.705   7.362   2.616  0.9486  0.5627  0.3489
 3463SOL    HW221069   5.781   7.374   2.760  2.5388 -1.5882 -0.2789
 3464SOL     OW21070   2.917   0.662   0.003 -0.3727 -0.1519  0.1332
 3464SOL    HW121071   2.905   0.724   0.081 -1.0640  0.7230 -0.6461
 3464SOL    HW221072   2.836   0.669  -0.057  0.3069 -0.5439 -0.8373
 3465SOL     OW21073   0.334   6.642   1.696  0.4407  0.1527  0.5533
 3465SOL    HW121074   0.415   6.652   1.753 -0.0698 -1.5114  1.6279
 3465SOL    HW221075   0.262   6.597   1.749 -0.6017  0.0655 -0.9111
 3466SOL     OW21076   2.321   9.302   1.887  0.1092  0.3540  0.0099
 3466SOL    HW121077   2.237   9.326   1.839 -0.6722 -2.1151  0.0652
 3466SOL    HW221078   2.327   9.354   1.973 -2.8932 -1.6006  1.4828
 3467SOL     OW21079   9.775   9.988   0.906  0.0018  0.4187 -0.2463
 3467SOL    HW121080   9.799   9.999   0.810 -0.0751  0.1387 -0.2973
 3467SOL    HW221081   9.731   9.900   0.920 -0.3413  0.6245 -0.0223
 3468SOL     OW21082   1.044   7.779   1.437  0.0634  0.4805  0.0018
 3468SOL    HW121083   1.033   7.796   1.339  0.7679  2.2474  0.2168
 3468SOL    HW221084   0.953   7.766   1.478 -0.2196 -0.4732 -0.9203
 3469SOL     OW21085   0.052   8.853   2.527 -0.7598 -0.2233  0.9516
 3469SOL    HW121086   0.082   8.867   2.433  0.4197 -0.9905  1.1960
 3469SOL    HW221087  -0.047   8.859   2.532 -0.7506  1.0300 -0.1296
 3470SOL     OW21088   3.532   5.898   2.774 -0.3158 -0.3615  0.3383
 3470SOL    HW121089   3.595   5.966   2.737 -0.4616 -1.3318 -1.7917
 3470SOL    HW221090   3.460   5.944   2.826 -0.4006  1.1220 -1.0490
 3471SOL     OW21091   2.834   3.806   1.075 -0.2986 -0.0976 -0.0019
 3471SOL    HW121092   2.823   3.797   1.174 -2.1609 -1.4573 -0.3039
 3471SOL    HW221093   2.758   3.859   1.038 -0.0684 -0.3272 -0.7985
 3472SOL     OW21094   1.718   4.557   0.893  0.2981 -0.9101 -0.3169
 3472SOL    HW121095   1.673   4.552   0.803 -0.6820  1.9608 -0.0367
 3472SOL    HW221096   1.652   4.534   0.964  0.4587 -0.9089 -0.1672
 3473SOL     OW21097   2.971   8.004   4.114 -0.2492 -0.6702 -0.0578
 3473SOL    HW121098   3.038   8.073   4.086 -0.1868 -1.0784 -0.9480
 3473SOL    HW221099   2.986   7.978   4.209 -0.5139  0.8247  0.4044
 3474SOL     OW21100   2.022   9.981   0.553 -0.1976 -0.3635  0.1471
 3474SOL    HW121101   1.961   9.917   0.506  0.9474 -0.7340 -0.8408
 3474SOL    HW221102   2.116   9.950   0.545  0.3601  1.3791 -0.2145
 3475SOL     OW21103   0.765   9.871   2.806  0.6011  0.0726 -0.1125
 3475SOL    HW121104   0.817   9.813   2.870  1.0183  0.6128  0.0385
 3475SOL    HW221105   0.709   9.812   2.747  1.8213 -0.5644 -0.6669
 3476SOL     OW21106   3.085   1.333   1.543  0.3276  0.0149  0.0390
 3476SOL    HW121107   3.159   1.266   1.543  0.5626  0.2405  2.2544
 3476SOL    HW221108   3.107   1.407   1.607 -1.4224  0.5545  0.0475
 3477SOL     OW21109   3.681   0.085   0.833 -0.3721  0.3377  0.0084
 3477SOL    HW121110   3.767   0.132   0.813  0.9820 -2.2293 -0.3927
 3477SOL    HW221111   3.681   0.055   0.929  0.0088 -1.2619 -0.4683
 3478SOL     OW21112   3.872   2.541   0.412  0.6476 -0.0224  0.2545
 3478SOL    HW121113   3.861   2.488   0.496  1.7231  1.7456  1.5568
 3478SOL    HW221114   3.941   2.612   0.427 -0.5414  1.5535 -1.5220
 3479SOL     OW21115   1.998   8.126   1.870 -0.0717 -0.1972 -0.4392
 3479SOL    HW121116   1.985   8.103   1.966 -2.2221 -0.9247 -0.8819
 3479SOL    HW221117   2.052   8.054   1.825 -0.9338 -0.9584 -0.2666
 3480SOL     OW21118   8.604   9.260   0.386 -0.1546 -0.5415  0.0865
 3480SOL    HW121119   8.675   9.303   0.331  0.8977 -1.1958  0.9177
 3480SOL    HW221120   8.539   9.329   0.417 -0.6325 -0.1367 -1.7798
 3481SOL     OW21121   6.908   6.481   3.216 -0.1011 -0.3463  0.4719
 3481SOL    HW121122   6.816   6.474   3.178 -0.4250 -1.8817  1.5234
 3481SOL    HW221123   6.971   6.425   3.161 -0.2064 -1.0376  1.0575
 3482SOL     OW21124   4.421   7.212   3.102  0.7415  0.4358  0.1824
 3482SOL    HW121125   4.402   7.251   3.191  0.7123 -1.4827  1.0332
 3482SOL    HW221126   4.519   7.196   3.093  0.6808  0.1164  0.0843
 3483SOL     OW21127   0.719   3.977   3.315 -0.5096 -1.0649 -0.1435
 3483SOL    HW121128   0.812   3.943   3.330  0.3398  0.5363 -1.5828
 3483SOL    HW221129   0.671   3.916   3.252 -0.4348 -1.8740  0.5773
 3484SOL     OW21130   8.392   9.015   1.463  0.4950  0.0492 -0.7661
 3484SOL    HW121131   8.430   9.051   1.378  1.5227 -0.8656 -0.7191
 3484SOL    HW221132   8.455   8.947   1.501 -0.9800 -1.1810 -0.4339
 3485SOL     OW21133   2.395   1.277   2.830 -0.2100  0.1445  0.4335
 3485SOL    HW121134   2.481   1.323   2.810  0.3660 -0.3783  1.6542
 3485SOL    HW221135   2.331   1.341   2.873  0.3482 -0.0074  1.5096
 3486SOL     OW21136   5.898   7.052   2.385  0.2996 -0.0394 -0.2711
 3486SOL    HW121137   5.905   6.953   2.384  1.2948  0.0273 -0.9119
 3486SOL    HW221138   5.956   7.089   2.458 -1.7473 -0.0319  1.3896
 3487SOL     OW21139   1.941   5.161   4.668  0.1047  0.3089  0.9111
 3487SOL    HW121140   2.021   5.110   4.701  0.7738  0.7319 -0.0262
 3487SOL    HW221141   1.936   5.154   4.568 -1.2901 -0.0743  0.9935
 3488SOL     OW21142   5.644   7.073   3.042  0.1655  0.2668 -0.1010
 3488SOL    HW121143   5.697   7.116   3.115  1.6551 -2.5401  0.5724
 3488SOL    HW221144   5.695   7.078   2.956  0.7513 -0.8396  0.1640
 3489SOL     OW21145   8.802   5.580   3.068 -0.8286  0.4062  0.3666
 3489SOL    HW121146   8.737   5.536   3.130  0.0525 -1.7719 -0.1833
 3489SOL    HW221147   8.753   5.641   3.006 -1.8576  1.6864  2.3963
 3490SOL     OW21148   1.415   5.549   3.620  0.0957  0.2543 -0.1451
 3490SOL    HW121149   1.448   5.461   3.653  0.3969  0.2990 -0.3324
 3490SOL    HW221150   1.486   5.595   3.567  0.7563  1.6089  1.8500
 3491SOL     OW21151   0.768   8.451   2.224  0.1751 -0.3600 -0.1465
 3491SOL    HW121152   0.810   8.495   2.145  2.2567 -1.1441  0.4844
 3491SOL    HW221153   0.738   8.360   2.199  1.7359 -0.9880  0.1820
 3492SOL     OW21154   9.010   7.947   4.341  0.4309 -0.1738 -0.2259
 3492SOL    HW121155   9.038   8.022   4.400 -1.1318  0.9854 -0.9209
 3492SOL    HW221156   9.066   7.946   4.258  0.4021  0.2552 -0.2485
 3493SOL     OW21157   4.984   8.081   1.590  0.5251 -0.7073  0.1107
 3493SOL    HW121158   4.930   8.101   1.672  0.2449  2.3863 -0.7841
 3493SOL    HW221159   5.074   8.048   1.617  0.4330  0.2434  1.6572
 3494SOL     OW21160   3.661   5.690   1.167  0.1234  0.3606 -0.3033
 3494SOL    HW121161   3.642   5.599   1.203 -1.7188  1.0243  0.4572
 3494SOL    HW221162   3.671   5.684   1.067 -1.0045 -0.5272 -0.3806
 3495SOL     OW21163   5.213   8.262   3.183 -0.0672  0.3413 -0.0837
 3495SOL    HW121164   5.266   8.194   3.234 -0.0879  0.5044  0.1536
 3495SOL    HW221165   5.228   8.248   3.085 -0.0496  0.0112 -0.0354
 3496SOL     OW21166   1.899   9.294   3.973  0.0620  0.1782 -0.3564
 3496SOL    HW121167   1.908   9.204   3.930 -0.9059 -0.1350  0.0931
 3496SOL    HW221168   1.839   9.352   3.918 -1.7940 -0.4748  0.9521
 3497SOL     OW21169   8.403   9.773   1.341  0.1227  0.2563  0.2796
 3497SOL    HW121170   8.323   9.725   1.378  0.2282 -0.1165  0.0320
 3497SOL    HW221171   8.479   9.767   1.405  0.5701 -1.1210 -0.3645
 3498SOL     OW21172   3.152   3.564   3.663  0.1453 -0.9040 -0.0056
 3498SOL    HW121173   3.053   3.580   3.663  0.1503 -0.8509  1.0732
 3498SOL    HW221174   3.172   3.481   3.716  0.9276  0.7817  2.4259
 3499SOL     OW21175   2.243   6.855   0.158 -0.2729  0.2335 -0.4460
 3499SOL    HW121176   2.188   6.779   0.191  2.2101 -1.5832 -0.3315
 3499SOL    HW221177   2.212   6.882   0.067 -2.0394  0.0061  0.0739
 3500SOL     OW21178   1.617   7.274   0.626  0.1656 -0.3890  0.7349
 3500SOL    HW121179   1.636   7.327   0.708  1.6445 -0.1511  0.2568
 3500SOL    HW221180   1.653   7.181   0.637 -1.0789 -0.8556  0.9809
 3501SOL     OW21181   0.624   8.242   4.025  0.2235  0.0758 -0.0683
 3501SOL    HW121182   0.596   8.308   4.095 -2.0118 -0.1734 -0.7082
 3501SOL    HW221183   0.652   8.157   4.069 -2.7515 -0.6693  0.5075
 3502SOL     OW21184   2.185   2.624   2.816 -0.1259  0.0161  0.2743
 3502SOL    HW121185   2.085   2.618   2.813 -0.3356  2.0389  1.7997
 3502SOL    HW221186   2.221   2.637   2.724 -1.5651  2.7310  0.0368
 3503SOL     OW21187   7.197   0.391   4.360 -0.1928 -0.0324  0.4909
 3503SOL    HW121188   7.270   0.458   4.372 -0.6881  0.6953 -0.4314
 3503SOL    HW221189   7.202   0.323   4.433 -0.0349  1.3420  1.8017
 3504SOL     OW21190   7.303   6.401   2.401 -0.8794 -0.4062 -0.0761
 3504SOL    HW121191   7.207   6.407   2.429 -0.7454  1.4510  0.0619
 3504SOL    HW221192   7.346   6.491   2.410  0.5679 -0.9506 -1.2635
 3505SOL     OW21193   2.551   8.823   0.050  0.2992  0.0244  0.1451
 3505SOL    HW121194   2.535   8.724   0.044 -0.6967  0.0204  2.2489
 3505SOL    HW221195   2.512   8.857   0.135  0.0966  2.3526 -0.8519
 3506SOL     OW21196   4.886   3.755   1.675 -0.2830 -0.4025 -0.3367
 3506SOL    HW121197   4.890   3.714   1.584 -0.4105 -0.3818 -0.3520
 3506SOL    HW221198   4.972   3.803   1.693 -0.2161 -0.4944 -0.4046
 3507SOL     OW21199   2.962   6.789   2.848  0.4282  0.7877 -0.0632
 3507SOL    HW121200   2.918   6.822   2.932 -0.3080 -0.5818  0.1138
 3507SOL    HW221201   3.061   6.792   2.860  0.3386 -0.8564  1.5024
 3508SOL     OW21202   0.539   6.375   2.919 -0.1560  0.3157  0.3606
 3508SOL    HW121203   0.527   6.313   2.841  2.0357  0.9859 -0.5737
 3508SOL    HW221204   0.627   6.357   2.963  0.5957  2.8126 -0.0186
 3509SOL     OW21205   3.230   7.440   1.781  0.0319  0.0227 -0.6523
 3509SOL    HW121206   3.176   7.523   1.793 -0.3126 -0.3216  0.2925
 3509SOL    HW221207   3.206   7.397   1.694  1.0809  1.5247 -1.7112
 3510SOL     OW21208   9.236   8.986   2.535  0.0863 -0.9033 -0.0744
 3510SOL    HW121209   9.296   8.987   2.616  0.4634  1.2615 -0.3397
 3510SOL    HW221210   9.143   8.962   2.562  0.0089  0.6991  1.2028
 3511SOL     OW21211   1.396   2.366   0.435  0.3660  0.0698  0.3500
 3511SOL    HW121212   1.445   2.453   0.431  1.4345 -0.4487  1.7328
 3511SOL    HW221213   1.332   2.360   0.358 -0.7956  2.7090  1.0441
 3512SOL     OW21214   1.026   6.828   4.230  0.0872 -0.0699 -0.5307
 3512SOL    HW121215   0.945   6.790   4.187 -0.5599 -1.8218  2.1068
 3512SOL    HW221216   1.107   6.806   4.175 -0.8758 -0.8388 -1.6572
 3513SOL     OW21217   1.697   9.642   0.994 -0.0970 -0.2964 -0.3358
 3513SOL    HW121218   1.628   9.648   1.066 -0.9665  0.3581 -1.2105
 3513SOL    HW221219   1.711   9.546   0.969 -1.2328 -0.3932 -0.6498
 3514SOL     OW21220   2.990   3.912   0.102 -0.1582  0.0118  0.4996
 3514SOL    HW121221   3.043   3.910   0.187 -0.8431 -1.7590  0.9085
 3514SOL    HW221222   3.014   3.832   0.047 -0.6519  0.4832 -0.3965
 3515SOL     OW21223   9.558   1.801   3.698 -0.6048 -0.0008  0.2396
 3515SOL    HW121224   9.477   1.827   3.647 -0.8628  0.7578  1.0280
 3515SOL    HW221225   9.637   1.797   3.636 -0.7521  1.6712 -0.0793
 3516SOL     OW21226   3.185   9.967   3.810  0.5208 -0.3710 -0.6791
 3516SOL    HW121227   3.281   9.971   3.839  0.2938 -1.7540  0.2624
 3516SOL    HW221228   3.151   9.874   3.817 -1.1099  0.2259 -0.3337
 3517SOL     OW21229   1.224   7.752   3.505 -0.1393 -0.2081  0.1617
 3517SOL    HW121230   1.259   7.808   3.581 -0.4691  1.2624 -0.7413
 3517SOL    HW221231   1.300   7.700   3.465  0.0203 -1.0682  1.5510
 3518SOL     OW21232   0.165   9.934   4.623 -0.1798 -0.2175 -0.1526
 3518SOL    HW121233   0.264   9.915   4.621  0.1146  1.0400  1.8017
 3518SOL    HW221234   0.129   9.929   4.529  1.8736  0.0703 -0.9855
 3519SOL     OW21235   9.982   5.062   2.064  0.1081 -0.6841  0.3392
 3519SOL    HW121236   9.939   5.022   2.145 -1.2181  2.1578  1.1011
 3519SOL    HW221237  10.058   5.121   2.092 -0.3806  0.3453 -0.4375
 3520SOL     OW21238   4.289   1.079   2.038  0.1712  0.6525 -0.2307
 3520SOL    HW121239   4.224   1.084   2.113  1.7075  0.6601  1.1349
 3520SOL    HW221240   4.242   1.050   1.954 -1.2759 -0.8848  1.0804
 3521SOL     OW21241   8.856   1.189   3.392  0.1364 -0.0944  0.1504
 3521SOL    HW121242   8.944   1.156   3.359 -0.8513 -1.9120 -0.7278
 3521SOL    HW221243   8.804   1.228   3.316 -0.4786 -0.5310  0.3407
 3522SOL     OW21244   2.954   5.769   0.595 -0.0002 -0.5176  0.1548
 3522SOL    HW121245   3.000   5.725   0.518 -0.5639 -0.8565  0.0053
 3522SOL    HW221246   2.970   5.715   0.678  0.7525 -0.0578  0.3139
 3523SOL     OW21247   0.097   7.527   3.475  0.1179 -0.1905 -0.2606
 3523SOL    HW121248   0.124   7.432   3.489  0.4529  0.2029  1.8568
 3523SOL    HW221249   0.179   7.584   3.467 -0.0920  0.1582  0.1122
 3524SOL     OW21250   3.162   0.403   3.208  0.8389  0.1066 -0.4014
 3524SOL    HW121251   3.133   0.453   3.126  0.9788  0.6002 -0.1509
 3524SOL    HW221252   3.254   0.434   3.235  1.2120 -0.7771 -0.6458
 3525SOL     OW21253   7.215   0.609   3.123  0.6378 -0.0848 -0.1107
 3525SOL    HW121254   7.295   0.576   3.173  1.6147 -0.7542 -2.1073
 3525SOL    HW221255   7.136   0.610   3.185  1.6575 -1.5958  1.2488
 3526SOL     OW21256   4.629   0.925   1.484 -0.7302 -0.3235  0.5083
 3526SOL    HW121257   4.618   0.845   1.544  0.2346 -0.3476  0.6644
 3526SOL    HW221258   4.626   0.896   1.389 -1.4856 -0.3933  0.5502
 3527SOL     OW21259   1.246   5.375   4.684  0.0741  0.3363  0.2897
 3527SOL    HW121260   1.181   5.326   4.742  1.4464  0.8843  2.3525
 3527SOL    HW221261   1.294   5.443   4.739  0.0159  2.2506 -1.9631
 3528SOL     OW21262   4.438   0.410   1.627 -0.1097  0.1511 -0.2771
 3528SOL    HW121263   4.434   0.453   1.718  2.7202  0.2321 -0.1470
 3528SOL    HW221264   4.390   0.323   1.630  0.8001 -0.3183  1.6019
 3529SOL     OW21265   7.000   9.268   2.810  0.2530  0.2218  0.1926
 3529SOL    HW121266   6.931   9.204   2.846  0.3566 -1.5140 -2.5705
 3529SOL    HW221267   6.958   9.358   2.800 -1.4022 -0.6002 -0.6082
 3530SOL     OW21268   1.643   9.590   2.985 -0.5483  0.2576 -0.1704
 3530SOL    HW121269   1.681   9.654   3.051 -0.8657  0.8101 -0.5219
 3530SOL    HW221270   1.695   9.594   2.900 -0.4409 -0.0980 -0.1240
 3531SOL     OW21271   9.999   1.764   2.873  0.3841 -0.0452  0.2309
 3531SOL    HW121272  10.014   1.782   2.776 -0.3538 -1.0230 -0.0748
 3531SOL    HW221273   9.921   1.818   2.906 -0.4159 -0.9463 -0.1411
 3532SOL     OW21274   4.670   8.405   4.244  0.4513 -0.5304  0.2852
 3532SOL    HW121275   4.715   8.410   4.333 -0.2479 -1.1874  0.6718
 3532SOL    HW221276   4.581   8.449   4.249  0.0436 -1.3377  0.1323
 3533SOL     OW21277   8.250   6.369   0.193  0.2865  0.2473  0.1540
 3533SOL    HW121278   8.323   6.413   0.244 -1.3039 -1.4476  4.0918
 3533SOL    HW221279   8.162   6.388   0.237 -1.1114 -1.6787 -1.6682
 3534SOL     OW21280   5.766   6.912   2.151  0.0760  0.7263 -0.6202
 3534SOL    HW121281   5.794   6.994   2.100 -0.3988  0.7503 -0.8413
 3534SOL    HW221282   5.778   6.929   2.249 -2.9237  2.2143 -0.4413
 3535SOL     OW21283   3.073   7.952   0.531 -0.4492  0.1241  0.0819
 3535SOL    HW121284   3.027   7.938   0.443 -0.7138  1.0015  0.0781
 3535SOL    HW221285   3.109   8.045   0.535 -1.6309  0.5362  1.4628
 3536SOL     OW21286   1.809   6.327   4.554 -0.1944 -0.1469  0.6480
 3536SOL    HW121287   1.900   6.364   4.534 -0.4176 -0.4372 -1.0101
 3536SOL    HW221288   1.814   6.266   4.633  0.8029  0.8243  1.3427
 3537SOL     OW21289   3.159   9.463   0.880  0.1063  0.2806 -0.0461
 3537SOL    HW121290   3.170   9.556   0.916  0.6928  0.4877 -0.7493
 3537SOL    HW221291   3.090   9.463   0.808  1.5161  0.5638 -1.4317
 3538SOL     OW21292   5.489   0.465   3.043  0.2370  0.3450 -0.4982
 3538SOL    HW121293   5.454   0.409   2.967  0.1003  0.8054 -0.7760
 3538SOL    HW221294   5.495   0.560   3.013 -0.1712  0.5864  0.1925
 3539SOL     OW21295   0.034   4.991   4.757 -0.0941  0.1916 -0.3895
 3539SOL    HW121296   0.071   5.058   4.692  0.2987  0.2923 -0.0581
 3539SOL    HW221297  -0.062   4.972   4.733 -0.5813  1.7734  0.2491
 3540SOL     OW21298   9.775   0.445   1.339 -0.3365 -0.6176  0.1623
 3540SOL    HW121299   9.756   0.347   1.326 -1.0009 -0.6770  1.4724
 3540SOL    HW221300   9.753   0.470   1.433 -0.1507  0.8014 -0.1705
 3541SOL     OW21301   9.358   9.775   4.663  0.4022 -0.3407 -0.1927
 3541SOL    HW121302   9.372   9.810   4.571  0.9225 -1.4706 -0.5595
 3541SOL    HW221303   9.416   9.825   4.727  1.5692 -0.8917 -0.7899
 3542SOL     OW21304   5.147   4.891   1.268 -0.1099 -0.4033 -0.0130
 3542SOL    HW121305   5.086   4.903   1.189 -0.9749 -0.3101  0.6576
 3542SOL    HW221306   5.100   4.835   1.337  0.3387  0.1822  0.7640
 3543SOL     OW21307   3.810   7.352   2.721  0.0821 -0.1021 -0.2112
 3543SOL    HW121308   3.886   7.384   2.777  0.0626 -1.1243  0.4331
 3543SOL    HW221309   3.808   7.402   2.635  2.0292 -0.6864 -0.6218
 3544SOL     OW21310   0.715   3.861   2.923 -0.5575 -0.2242  0.1686
 3544SOL    HW121311   0.640   3.926   2.931  0.3236  0.6540  1.5254
 3544SOL    HW221312   0.709   3.794   2.996  1.4981  1.4891  1.9949
 3545SOL     OW21313   5.290   8.795   3.266 -0.1301  0.0123 -0.7995
 3545SOL    HW121314   5.195   8.783   3.295 -0.1305  1.1501 -0.2831
 3545SOL    HW221315   5.322   8.712   3.221 -1.0648 -0.7215 -0.1273
 3546SOL     OW21316   9.953   1.300   4.025  0.1029  0.1631 -0.4438
 3546SOL    HW121317   9.906   1.345   4.101 -1.0360  0.1037 -1.0921
 3546SOL    HW221318   9.981   1.369   3.957 -1.7238 -0.0752 -1.4813
 3547SOL     OW21319   0.339   3.079   4.758  0.0750 -0.2835 -0.1820
 3547SOL    HW121320   0.428   3.123   4.743  0.3045 -0.7088 -0.0618
 3547SOL    HW221321   0.266   3.142   4.730  0.4475 -0.3733 -1.3949
 3548SOL     OW21322   8.133   9.298   3.868 -0.1813 -0.3387 -0.0469
 3548SOL    HW121323   8.176   9.305   3.958 -1.2531 -2.4213  0.6743
 3548SOL    HW221324   8.203   9.305   3.797  1.0349 -1.2970  1.0381
 3549SOL     OW21325   7.585   7.267   1.987 -0.1876 -0.2329  0.0643
 3549SOL    HW121326   7.645   7.187   1.988  1.6676  1.1573  0.5019
 3549SOL    HW221327   7.505   7.247   1.929  1.0758 -1.7893 -1.1923
 3550SOL     OW21328   8.067   8.563   2.177 -0.6010  0.2324  0.0666
 3550SOL    HW121329   8.001   8.551   2.103 -0.7615  0.6150  0.1472
 3550SOL    HW221330   8.019   8.589   2.261 -0.2596  1.5192 -0.1295
 3551SOL     OW21331   0.854   0.875   4.683  0.6390  0.1129  0.0260
 3551SOL    HW121332   0.923   0.944   4.703  0.3237  0.1751  0.9189
 3551SOL    HW221333   0.843   0.815   4.762  1.3018 -1.3033 -0.9383
 3552SOL     OW21334   0.171   0.941   0.136 -0.1319 -0.2904  0.0147
 3552SOL    HW121335   0.226   1.008   0.185  1.1965 -1.6125  0.3850
 3552SOL    HW221336   0.208   0.928   0.044 -1.6587  1.0153 -0.8040
 3553SOL     OW21337   5.806   0.171   1.033  0.1668 -0.1205 -0.3016
 3553SOL    HW121338   5.802   0.268   1.055 -0.0331 -0.1570 -0.1667
 3553SOL    HW221339   5.738   0.150   0.963  1.1606  0.0915 -1.3372
 3554SOL     OW21340   0.773   0.700   0.815 -0.2083  0.1622  0.3959
 3554SOL    HW121341   0.680   0.710   0.850 -0.5696  0.6023 -0.6619
 3554SOL    HW221342   0.831   0.773   0.852 -0.9054  1.4306 -0.9507
 3555SOL     OW21343   9.153   7.634   3.987  0.0691  0.4054 -0.6472
 3555SOL    HW121344   9.083   7.658   3.920  0.2522 -0.4688 -1.1606
 3555SOL    HW221345   9.111   7.622   4.076  0.1878  4.2036 -0.0040
 3556SOL     OW21346   2.732   6.198   3.362 -0.2136  0.1489 -0.5151
 3556SOL    HW121347   2.633   6.188   3.372 -0.2030  0.2734 -0.2694
 3556SOL    HW221348   2.777   6.172   3.448 -0.0313  0.0649 -0.6356
 3557SOL     OW21349   8.955   9.540   1.804  0.0470 -0.0920  0.6072
 3557SOL    HW121350   8.985   9.446   1.822  0.9089 -0.4523 -2.4003
 3557SOL    HW221351   9.028   9.603   1.830  0.0086 -0.3416  1.3411
 3558SOL     OW21352   2.097   2.316   2.783 -0.0230 -0.1281  0.1208
 3558SOL    HW121353   2.062   2.402   2.821 -2.5778 -0.6463 -0.9676
 3558SOL    HW221354   2.160   2.335   2.708  1.4743  0.8052  1.5728
 3559SOL     OW21355   1.308   6.972   4.326  0.0972  0.6551 -0.3871
 3559SOL    HW121356   1.370   7.014   4.393 -0.1879  2.3816 -1.1750
 3559SOL    HW221357   1.223   6.947   4.371 -0.0462  1.6931 -0.0727
 3560SOL     OW21358   0.939   1.849   3.165  0.2705  0.2062  0.4197
 3560SOL    HW121359   0.959   1.793   3.245  1.5147  0.3257  0.2087
 3560SOL    HW221360   0.866   1.807   3.111  1.0964 -1.1460  0.3317
 3561SOL     OW21361   6.049   9.928   1.653 -0.0297  0.9433  0.2178
 3561SOL    HW121362   6.101   9.944   1.737 -0.4659  0.1692  0.6396
 3561SOL    HW221363   5.988  10.006   1.637  0.6829  1.4952  0.1385
 3562SOL     OW21364   2.291   9.867   0.516 -0.2614 -0.2163  1.0486
 3562SOL    HW121365   2.365   9.887   0.580  0.5754 -1.2899  0.4344
 3562SOL    HW221366   2.282   9.768   0.507 -0.4990 -0.0644 -0.3499
 3563SOL     OW21367   1.667   6.646   1.547 -0.1888 -0.0991  0.4699
 3563SOL    HW121368   1.698   6.589   1.472 -1.0639  1.7118 -1.3048
 3563SOL    HW221369   1.713   6.619   1.631  1.7966 -1.2751 -0.9706
 3564SOL     OW21370   1.090   9.850   2.071  0.0993 -0.0761 -0.8220
 3564SOL    HW121371   1.083   9.796   2.155  0.9282 -0.5276 -1.0306
 3564SOL    HW221372   1.012   9.912   2.064  1.1652  1.5990  1.4159
 3565SOL     OW21373   8.209   7.260   1.976 -0.1838 -0.0546  0.7449
 3565SOL    HW121374   8.134   7.324   1.990 -2.2260 -1.9458 -1.0986
 3565SOL    HW221375   8.274   7.297   1.910 -2.9092 -1.0540 -2.5949
 3566SOL     OW21376   5.587   7.832   2.617 -0.3883 -0.5692  0.5808
 3566SOL    HW121377   5.674   7.848   2.665 -0.5513  0.9821  0.4044
 3566SOL    HW221378   5.602   7.838   2.518 -0.7493  0.0425  0.5609
 3567SOL     OW21379   3.248   8.136   4.689  0.1846  0.1142  0.1443
 3567SOL    HW121380   3.182   8.060   4.690  0.3170 -0.0326 -1.6117
 3567SOL    HW221381   3.341   8.099   4.690  0.2474  0.2615 -0.2568
 3568SOL     OW21382   7.962   3.361   1.477 -0.9521  0.4794 -0.0241
 3568SOL    HW121383   7.948   3.401   1.386  0.2132  0.1155 -0.3701
 3568SOL    HW221384   7.968   3.435   1.545 -4.4793  0.6794  0.1803
 3569SOL     OW21385   2.163   3.115   4.740  0.3570 -0.1399 -0.0129
 3569SOL    HW121386   2.166   3.208   4.777 -0.5539  0.3735 -1.2190
 3569SOL    HW221387   2.164   3.050   4.816 -0.9287  0.8907  0.9152
 3570SOL     OW21388   4.609   0.313   0.562 -0.4801 -0.2239 -0.1544
 3570SOL    HW121389   4.699   0.277   0.588 -0.8659  0.9227  3.0292
 3570SOL    HW221390   4.545   0.237   0.549 -0.2423 -0.9058  2.4057
 3571SOL     OW21391   2.862   2.069   2.695 -0.2482 -0.1135 -0.5364
 3571SOL    HW121392   2.959   2.056   2.714 -0.1889  1.7321  0.4776
 3571SOL    HW221393   2.824   2.138   2.757 -2.1290 -0.5474 -1.1546
 3572SOL     OW21394   8.715   3.895   0.087  0.1745  0.2433 -0.1261
 3572SOL    HW121395   8.783   3.823   0.099  0.1769  0.6545  2.5935
 3572SOL    HW221396   8.758   3.984   0.104 -0.5985  0.6504 -0.2747
 3573SOL     OW21397   4.389   1.885   1.002  0.1384  0.0779  0.2390
 3573SOL    HW121398   4.416   1.855   1.093 -0.9320  1.2472  0.9657
 3573SOL    HW221399   4.429   1.975   0.984 -0.2846  0.1918 -0.1312
 3574SOL     OW21400   1.227   1.651   2.798 -0.1244  0.1342  0.2362
 3574SOL    HW121401   1.192   1.610   2.715 -1.8018  1.1926  0.3913
 3574SOL    HW221402   1.224   1.585   2.873 -1.3656  0.0657  0.1304
 3575SOL     OW21403   1.582   7.260   1.245 -0.1031 -0.3564  0.1108
 3575SOL    HW121404   1.642   7.222   1.314 -1.5387  0.4920  1.8751
 3575SOL    HW221405   1.597   7.359   1.238  0.2084 -0.4694 -0.9857
 3576SOL     OW21406   4.243   1.374   2.372  0.7234  0.4094 -0.1993
 3576SOL    HW121407   4.313   1.393   2.303  1.1521 -0.8577 -0.1183
 3576SOL    HW221408   4.287   1.351   2.459  0.2128 -0.3077 -0.1250
 3577SOL     OW21409   0.938   4.733   4.491  0.2297 -0.8678  0.1140
 3577SOL    HW121410   1.000   4.774   4.558  0.3001  1.1062 -1.1069
 3577SOL    HW221411   0.855   4.788   4.484  0.2856 -0.9468 -1.4956
 3578SOL     OW21412   9.689   8.380   4.494  0.4634  0.4292  0.1623
 3578SOL    HW121413   9.654   8.474   4.501  1.1898  0.6974  0.2203
 3578SOL    HW221414   9.649   8.324   4.567 -1.2128  0.2867 -0.8192
 3579SOL     OW21415   5.059   7.131   2.287  0.0419  0.6621  0.3165
 3579SOL    HW121416   5.108   7.121   2.201  0.8905  1.8956  0.6537
 3579SOL    HW221417   5.023   7.224   2.294  1.0072  0.9273  1.8369
 3580SOL     OW21418   8.006   5.937   2.292  0.0895  0.4748 -0.3023
 3580SOL    HW121419   8.002   6.036   2.304  0.8607  0.3507  1.0910
 3580SOL    HW221420   7.915   5.898   2.310 -0.7245  1.0953 -2.8051
 3581SOL     OW21421   4.362   3.650   2.716  0.1044 -0.0680  0.1096
 3581SOL    HW121422   4.416   3.644   2.632  2.4654 -2.5575  1.7195
 3581SOL    HW221423   4.302   3.570   2.722  0.3165 -0.1601  1.0485
 3582SOL     OW21424   3.334   6.191   1.926  0.4433  0.4554  0.3333
 3582SOL    HW121425   3.363   6.215   2.019  1.1437  0.4671  0.1145
 3582SOL    HW221426   3.238   6.216   1.914  1.2981  3.8542 -0.1086
 3583SOL     OW21427   0.358   6.405   2.212 -0.0489  0.3892 -0.1938
 3583SOL    HW121428   0.293   6.335   2.241  0.6370  0.0458  0.5349
 3583SOL    HW221429   0.369   6.401   2.112 -1.1813  0.4938 -0.3295
 3584SOL     OW21430   3.364   8.275   2.380 -0.1378 -0.3664  0.4542
 3584SOL    HW121431   3.298   8.200   2.376 -0.3781 -0.1071 -0.6731
 3584SOL    HW221432   3.422   8.272   2.299  0.9590 -0.3323  1.2289
 3585SOL     OW21433   9.678   1.086   1.205  0.3436 -0.5193  0.1745
 3585SOL    HW121434   9.593   1.137   1.191  0.6019  0.4736  2.1677
 3585SOL    HW221435   9.702   1.039   1.120 -0.6050  1.5961 -1.3154
 3586SOL     OW21436   4.213   6.514   3.118 -0.5358 -0.3606  0.2183
 3586SOL    HW121437   4.213   6.613   3.133 -2.4310 -0.2672 -0.2392
 3586SOL    HW221438   4.170   6.469   3.197 -0.5545 -0.7327 -0.0054
 3587SOL     OW21439   8.155   6.323   4.211  0.2196  0.0320  0.1821
 3587SOL    HW121440   8.211   6.360   4.137 -0.1431 -0.4848 -0.3520
 3587SOL    HW221441   8.108   6.241   4.179 -0.0733 -0.0924  0.9320
 3588SOL     OW21442   0.658   3.541   3.279 -0.8245 -0.7281 -0.0065
 3588SOL    HW121443   0.669   3.479   3.201 -0.7243 -1.2895  0.4465
 3588SOL    HW221444   0.736   3.529   3.341 -2.4852 -2.6154  1.7843
 3589SOL     OW21445   9.580   6.724   1.472 -0.2291 -0.0628 -0.1808
 3589SOL    HW121446   9.509   6.657   1.497 -1.9661  1.9484  0.4151
 3589SOL    HW221447   9.643   6.734   1.549 -2.6135  2.3075  1.5583
 3590SOL     OW21448   2.530   7.718   0.111 -0.0712 -0.1174  0.2639
 3590SOL    HW121449   2.587   7.655   0.163  0.1826 -0.3280 -0.2605
 3590SOL    HW221450   2.516   7.802   0.163 -1.0187 -0.8909  1.2775
 3591SOL     OW21451   7.565   8.302   2.168  0.6454  0.1584  0.2674
 3591SOL    HW121452   7.499   8.227   2.174  0.9851 -0.0071  2.9288
 3591SOL    HW221453   7.516   8.388   2.152  0.1117 -0.4000 -1.1744
 3592SOL     OW21454   9.587   2.112   2.267  0.1109  0.5583 -0.2302
 3592SOL    HW121455   9.592   2.206   2.233 -0.6126  1.2205  1.4627
 3592SOL    HW221456   9.656   2.098   2.338  0.8272 -0.4705 -1.1031
 3593SOL     OW21457   3.219   7.098   2.899 -0.3763 -0.7642  0.2814
 3593SOL    HW121458   3.197   7.006   2.931 -0.3669 -0.8784 -0.0424
 3593SOL    HW221459   3.305   7.096   2.848  0.0721 -0.4264  1.0138
 3594SOL     OW21460   1.914   0.804   4.553  0.3913 -0.0807 -0.2811
 3594SOL    HW121461   1.952   0.890   4.588 -0.8684  1.3598 -2.3982
 3594SOL    HW221462   1.895   0.813   4.455  1.1014 -3.0812 -0.7323
 3595SOL     OW21463   7.889   0.183   3.139  0.5191 -0.0537  0.3006
 3595SOL    HW121464   7.881   0.137   3.051 -0.0962 -0.5613  0.6236
 3595SOL    HW221465   7.965   0.249   3.136  2.3047 -2.0699  0.2762
 3596SOL     OW21466   2.630   7.932   1.901 -0.3136  0.0899 -0.3702
 3596SOL    HW121467   2.677   8.019   1.888 -1.4973  1.1153  1.9854
 3596SOL    HW221468   2.532   7.949   1.914 -0.6787 -1.6775 -0.6939
 3597SOL     OW21469   1.597   0.630   3.135  0.9477 -0.1704  0.5679
 3597SOL    HW121470   1.648   0.548   3.110  1.4424  0.7596 -1.5494
 3597SOL    HW221471   1.634   0.709   3.086 -1.9421  0.6778 -0.3467
 3598SOL     OW21472   3.787   5.512   1.601 -0.2336 -0.5076 -0.7134
 3598SOL    HW121473   3.767   5.606   1.629 -0.4160 -0.3720 -1.2918
 3598SOL    HW221474   3.865   5.512   1.538  0.0761 -0.7962 -0.3321
 3599SOL     OW21475   9.793   3.435   0.819 -0.0736  0.2046  0.4147
 3599SOL    HW121476   9.736   3.513   0.847 -1.3629 -0.4161 -0.4308
 3599SOL    HW221477   9.817   3.445   0.723  1.5474  0.6342  0.8549
 3600SOL     OW21478   1.367   8.640   1.541 -0.3564  0.0511 -0.3293
 3600SOL    HW121479   1.297   8.647   1.613 -0.2104  1.8399 -0.3445
 3600SOL    HW221480   1.354   8.554   1.491  0.0651 -1.6473  2.3607
 3601SOL     OW21481   8.075   8.851   3.469  0.0796  0.0507  0.5806
 3601SOL    HW121482   8.058   8.853   3.568  1.5214  0.9435  0.8191
 3601SOL    HW221483   8.174   8.848   3.452 -0.1506  0.2720 -0.8481
 3602SOL     OW21484   2.382   3.111   2.649  0.2496 -0.9866  0.4229
 3602SOL    HW121485   2.340   3.162   2.724 -2.1604  0.6581 -1.9763
 3602SOL    HW221486   2.462   3.160   2.616 -1.7451  1.0581 -1.5147
 3603SOL     OW21487   1.085   5.729   0.908  0.1011 -0.3236 -0.0453
 3603SOL    HW121488   1.139   5.733   0.824 -1.8000 -0.1495 -1.2911
 3603SOL    HW221489   1.094   5.639   0.949  0.2073 -0.7447 -0.9881
 3604SOL     OW21490   0.321   1.055   3.866  0.5242  1.0560  0.0959
 3604SOL    HW121491   0.234   1.023   3.829  0.3999  0.5978  0.7784
 3604SOL    HW221492   0.304   1.117   3.943  0.7985  0.9098  0.2765
 3605SOL     OW21493   9.193   9.518   2.370  0.0876 -0.8596  0.1211
 3605SOL    HW121494   9.276   9.511   2.426  0.5598  0.9244 -0.3111
 3605SOL    HW221495   9.188   9.609   2.329 -1.5520 -1.3005 -0.7199
 3606SOL     OW21496   9.366   0.255   4.012  0.2542  0.1371  0.1877
 3606SOL    HW121497   9.310   0.189   3.962 -0.3084  2.8109 -2.8750
 3606SOL    HW221498   9.450   0.274   3.961  0.2013  2.0812  0.7605
 3607SOL     OW21499   4.276   6.670   2.614 -0.4958  0.1451  0.6567
 3607SOL    HW121500   4.218   6.695   2.692 -0.5616 -0.2984  0.7507
 3607SOL    HW221501   4.219   6.660   2.532 -0.4116  0.7199  0.5257
 3608SOL     OW21502   2.527   8.884   4.552 -0.6444 -0.5458  0.2964
 3608SOL    HW121503   2.444   8.939   4.562  1.3253  2.1674  2.2185
 3608SOL    HW221504   2.558   8.852   4.641  0.9886 -0.6300 -0.2821
 3609SOL     OW21505   0.603   2.867   2.396 -0.2949 -0.7164 -0.0315
 3609SOL    HW121506   0.631   2.949   2.447 -1.5390 -0.0474 -0.3816
 3609SOL    HW221507   0.684   2.816   2.367  0.4647 -0.5625  1.7107
 3610SOL     OW21508   9.747   9.021   4.289 -0.2045 -0.2729 -0.0620
 3610SOL    HW121509   9.804   8.945   4.259 -0.2511  0.2338 -1.5091
 3610SOL    HW221510   9.774   9.104   4.239  0.6454  0.9469  2.3399
 3611SOL     OW21511   9.208   3.344   4.287 -0.7840  0.1873  0.2548
 3611SOL    HW121512   9.131   3.407   4.289 -0.9823 -0.0307 -0.6746
 3611SOL    HW221513   9.185   3.260   4.338 -1.5692 -0.3501 -0.9756
 3612SOL     OW21514   9.168   8.285   0.921 -0.1110 -0.0757  0.4511
 3612SOL    HW121515   9.098   8.237   0.974 -0.5968 -2.6462 -2.3779
 3612SOL    HW221516   9.130   8.314   0.834  1.8983 -0.0490 -0.4476
 3613SOL     OW21517   1.948   7.715   1.189 -0.3848 -0.5435 -0.2602
 3613SOL    HW121518   1.903   7.804   1.198  0.3522 -0.3028  1.2055
 3613SOL    HW221519   2.005   7.715   1.107  0.2877  0.6638  0.1894
 3614SOL     OW21520   1.993   3.458   2.071  0.1821  0.4482  0.0069
 3614SOL    HW121521   2.017   3.407   2.154  0.4305 -1.0379 -0.9629
 3614SOL    HW221522   1.935   3.536   2.096  0.7309  0.3646  1.6379
 3615SOL     OW21523   7.578   1.481   0.507  0.5818 -0.1284 -0.2759
 3615SOL    HW121524   7.570   1.529   0.419 -2.5049 -0.1058 -0.0181
 3615SOL    HW221525   7.503   1.416   0.516  1.2836 -0.6402  2.0641
 3616SOL     OW21526   8.594   6.386   1.205  0.3469 -0.3924 -0.2189
 3616SOL    HW121527   8.562   6.335   1.125 -1.8520 -0.0404  0.4023
 3616SOL    HW221528   8.614   6.480   1.178 -2.0629  0.2048 -0.0534
 3617SOL     OW21529   3.954   5.743   2.232  0.3992  0.0872 -0.4561
 3617SOL    HW121530   3.911   5.659   2.199  0.7981  0.2717 -1.4467
 3617SOL    HW221531   3.910   5.822   2.190  1.6461  0.2810 -1.4232
 3618SOL     OW21532   8.308   2.223   1.914  0.3492  0.2405  0.2771
 3618SOL    HW121533   8.246   2.293   1.876 -0.0324 -0.1587  0.1606
 3618SOL    HW221534   8.265   2.133   1.907  0.3841  0.1332  1.4522
 3619SOL     OW21535   4.190   8.778   0.790  0.0315 -0.3204 -0.3218
 3619SOL    HW121536   4.162   8.855   0.734 -1.0119 -1.3472 -1.2258
 3619SOL    HW221537   4.115   8.712   0.797  0.9239 -1.2841  0.4003
 3620SOL     OW21538   3.858   2.927   1.851 -0.9089  0.4166 -0.1896
 3620SOL    HW121539   3.863   2.866   1.772 -0.6930  0.4016 -0.1634
 3620SOL    HW221540   3.946   2.973   1.863 -0.5011 -0.6469  0.9110
 3621SOL     OW21541   7.887   9.621   1.721  0.1783  0.5939 -0.1924
 3621SOL    HW121542   7.862   9.667   1.806 -2.5786  0.6984 -0.9946
 3621SOL    HW221543   7.896   9.522   1.737 -0.5153  0.5913  0.2035
 3622SOL     OW21544   9.449   3.833   0.518 -0.0096  0.0022  0.2872
 3622SOL    HW121545   9.353   3.813   0.500  0.0489 -1.8622  1.9153
 3622SOL    HW221546   9.506   3.788   0.449 -0.2059 -0.2100  0.2639
 3623SOL     OW21547   3.039   0.503   2.520  0.5310 -0.1135  0.4315
 3623SOL    HW121548   3.099   0.441   2.468  1.6170  0.9950  0.3416
 3623SOL    HW221549   2.984   0.557   2.456 -1.0294 -1.5474  0.5208
 3624SOL     OW21550   2.067   5.989   3.709 -0.1948 -0.1008  0.0083
 3624SOL    HW121551   2.094   6.007   3.804 -1.5261 -0.2086  0.4156
 3624SOL    HW221552   2.025   5.898   3.703  0.3596 -0.3092 -0.7845
 3625SOL     OW21553   3.746   6.618   3.931  0.1100  0.3989  0.2666
 3625SOL    HW121554   3.769   6.612   4.028  0.2422  1.8545  0.3386
 3625SOL    HW221555   3.746   6.527   3.890  1.9621 -0.0335  1.1983
 3626SOL     OW21556   1.187   3.496   1.707 -0.2728  0.1427 -0.1198
 3626SOL    HW121557   1.228   3.587   1.703  0.5194 -0.0867  2.2899
 3626SOL    HW221558   1.238   3.434   1.648  0.4191  0.7725 -0.1856
 3627SOL     OW21559   8.181   0.029   4.401 -0.0505 -0.3228  0.4296
 3627SOL    HW121560   8.099   0.086   4.396  0.6752  0.8225  1.2391
 3627SOL    HW221561   8.175  -0.044   4.333 -0.2033  1.7976 -1.9487
 3628SOL     OW21562   2.572   0.389   2.734  0.5247  0.1959 -0.6817
 3628SOL    HW121563   2.545   0.440   2.652 -1.4725  0.1816 -0.0591
 3628SOL    HW221564   2.546   0.441   2.816  0.5194 -0.7923 -0.0478
 3629SOL     OW21565   7.422   2.907   3.993  0.2414 -0.4959 -0.3087
 3629SOL    HW121566   7.333   2.881   4.032  0.3883  0.2646  0.5491
 3629SOL    HW221567   7.448   2.841   3.923 -0.3836 -1.4757  0.3626
 3630SOL     OW21568   1.060   2.284   0.611 -0.1078  0.1296  0.1029
 3630SOL    HW121569   1.143   2.297   0.666 -0.0256 -0.5681  0.1551
 3630SOL    HW221570   1.045   2.363   0.553  0.8867  0.0352 -0.2859
 3631SOL     OW21571   0.781   6.251   1.913  0.0170  0.1661 -0.0815
 3631SOL    HW121572   0.777   6.291   2.004  1.1755  0.5844 -0.2013
 3631SOL    HW221573   0.688   6.232   1.880 -0.4746  1.3795  0.5842
 3632SOL     OW21574   0.308   8.252   0.649 -0.3307 -0.3656  0.2472
 3632SOL    HW121575   0.379   8.322   0.661 -0.4039 -0.5201  1.6742
 3632SOL    HW221576   0.239   8.263   0.720 -0.3831 -1.8309  0.4293
 3633SOL     OW21577   3.070   0.694   3.445  0.3205 -0.2899  0.2874
 3633SOL    HW121578   3.091   0.598   3.429 -0.3489 -0.6560  1.5649
 3633SOL    HW221579   3.082   0.715   3.542 -0.1469  0.7613  0.1237
 3634SOL     OW21580   9.024   6.564   1.481 -0.4360 -0.1049  0.1138
 3634SOL    HW121581   8.997   6.571   1.577 -1.8922 -0.7415 -0.2427
 3634SOL    HW221582   8.943   6.548   1.424  0.4954 -0.4534 -1.1409
 3635SOL     OW21583   2.083   6.953   1.830 -0.0314  0.5486  0.1123
 3635SOL    HW121584   2.113   6.975   1.923  3.7310 -2.0392 -0.3722
 3635SOL    HW221585   2.024   6.873   1.832 -1.6641  1.7381  0.4337
 3636SOL     OW21586   9.661   9.333   2.105 -0.3067  0.3746 -0.9568
 3636SOL    HW121587   9.614   9.316   2.192  2.3746  0.5103  0.5823
 3636SOL    HW221588   9.668   9.432   2.090  2.2335  0.4617  0.4533
 3637SOL     OW21589   0.652   5.072   1.879  0.0587  0.1504 -0.0294
 3637SOL    HW121590   0.744   5.062   1.841  0.3851 -0.1468  0.8460
 3637SOL    HW221591   0.586   5.076   1.803  0.9581  2.4572 -0.7419
 3638SOL     OW21592   4.685   0.387   1.409 -0.2361 -0.5467  0.0323
 3638SOL    HW121593   4.775   0.397   1.366 -0.2343  1.2710  0.4507
 3638SOL    HW221594   4.642   0.303   1.375  0.4967 -0.0655 -2.1871
 3639SOL     OW21595   4.310   3.527   4.699  0.3317  0.1551  0.3779
 3639SOL    HW121596   4.278   3.608   4.650 -0.5578 -0.2868  0.2298
 3639SOL    HW221597   4.315   3.547   4.797  0.6876  0.5725  0.2762
 3640SOL     OW21598   4.899   8.745   4.100 -0.2374  0.3593 -0.2509
 3640SOL    HW121599   4.986   8.791   4.083 -0.7117  2.1028  1.7321
 3640SOL    HW221600   4.870   8.763   4.194 -1.5042 -2.3110 -0.0976
 3641SOL     OW21601   1.200   1.419   0.600  0.0837  0.8697  0.2909
 3641SOL    HW121602   1.249   1.501   0.628 -1.0163  2.0302 -1.1038
 3641SOL    HW221603   1.252   1.371   0.530  0.8979  0.1732  1.3647
 3642SOL     OW21604   6.487   0.852   2.321  0.2413  0.5265  0.1579
 3642SOL    HW121605   6.441   0.823   2.237  0.9700  1.2217 -0.4922
 3642SOL    HW221606   6.452   0.943   2.347 -1.6521 -0.6585  1.8852
 3643SOL     OW21607   8.484   5.673   2.144 -0.7546 -0.6073  0.5746
 3643SOL    HW121608   8.464   5.693   2.048  0.8237  1.5071  0.6658
 3643SOL    HW221609   8.421   5.723   2.203 -0.1076  0.0782  0.6894
 3644SOL     OW21610   3.513   3.852   2.774  0.1112  0.3161  0.2629
 3644SOL    HW121611   3.587   3.909   2.809  1.8187 -1.5854 -0.1729
 3644SOL    HW221612   3.485   3.787   2.844  0.8445 -0.8827 -0.5372
 3645SOL     OW21613   3.460   0.364   1.237 -0.2682 -0.3975  0.5881
 3645SOL    HW121614   3.518   0.289   1.203 -1.5600 -1.6207  1.0251
 3645SOL    HW221615   3.503   0.405   1.317  2.8601  2.5770 -2.4543
 3646SOL     OW21616   1.896   7.791   4.269  0.2203  0.2880  0.0393
 3646SOL    HW121617   1.879   7.782   4.171 -2.0979 -0.7662  0.4953
 3646SOL    HW221618   1.872   7.883   4.299 -0.8566  0.0522 -0.0699
 3647SOL     OW21619   4.667   3.983   4.490  0.3341 -0.1805 -0.3710
 3647SOL    HW121620   4.754   3.955   4.530  0.5936  0.0360 -0.7793
 3647SOL    HW221621   4.610   3.902   4.476  0.6708 -0.3846 -0.5796
 3648SOL     OW21622   8.830   5.510   3.903 -0.1012 -0.3668 -0.3035
 3648SOL    HW121623   8.761   5.568   3.945  0.3283  0.4901 -0.7659
 3648SOL    HW221624   8.910   5.565   3.879 -0.4113 -0.7965 -2.4241
 3649SOL     OW21625   1.815   6.058   1.811 -0.3091  0.3889 -0.7331
 3649SOL    HW121626   1.892   5.995   1.802 -0.4393  0.3658 -1.7238
 3649SOL    HW221627   1.849   6.152   1.812 -0.2172  0.3537 -0.5128
 3650SOL     OW21628   8.959   6.482   2.595 -0.2273  0.1822 -0.0463
 3650SOL    HW121629   8.916   6.439   2.516 -1.7037  1.5770 -0.0140
 3650SOL    HW221630   8.945   6.581   2.591  1.3258  0.4595  0.9732
 3651SOL     OW21631   9.853   8.322   4.288 -0.2603  0.2309 -0.1938
 3651SOL    HW121632   9.909   8.243   4.311  2.7158  2.5881  1.0258
 3651SOL    HW221633   9.803   8.353   4.369 -1.2723 -0.2750 -0.6187
 3652SOL     OW21634   0.785   0.569   1.452 -0.2348 -0.2066 -0.2020
 3652SOL    HW121635   0.822   0.495   1.507 -1.0151 -0.6872 -0.3131
 3652SOL    HW221636   0.709   0.613   1.501  1.3246  1.6573  0.6240
 3653SOL     OW21637   8.870   8.245   4.134  0.0786 -0.2933  0.5168
 3653SOL    HW121638   8.837   8.150   4.133  2.7095 -1.2558  1.4176
 3653SOL    HW221639   8.963   8.248   4.098 -0.3547  2.1214 -0.4443
 3654SOL     OW21640   2.735   6.250   0.732 -0.1023 -0.3704  0.4529
 3654SOL    HW121641   2.773   6.165   0.767 -0.3492 -0.1755  1.2006
 3654SOL    HW221642   2.638   6.256   0.757 -0.5812 -0.7421 -1.2066
 3655SOL     OW21643   4.524   8.569   0.597 -0.2823  0.1252  0.4029
 3655SOL    HW121644   4.516   8.631   0.519  1.7460  0.6701  0.6090
 3655SOL    HW221645   4.436   8.563   0.644 -0.8430  1.8047 -0.4010
 3656SOL     OW21646   1.558   3.476   4.376  0.0153  0.2800 -0.6019
 3656SOL    HW121647   1.467   3.516   4.369  0.1330  0.8601  0.8235
 3656SOL    HW221648   1.585   3.436   4.289 -1.5931  0.1267 -1.0333
 3657SOL     OW21649   7.943   4.723   4.092  0.3704 -0.4381 -0.4245
 3657SOL    HW121650   7.927   4.758   4.000 -1.8230 -1.6756 -0.5297
 3657SOL    HW221651   7.856   4.707   4.138  1.4414  0.2079  1.9042
 3658SOL     OW21652   2.232   5.312   3.322  0.3764 -0.1602  0.0074
 3658SOL    HW121653   2.284   5.379   3.376 -2.2152  0.8239  1.3619
 3658SOL    HW221654   2.261   5.317   3.226 -0.2853  3.5099 -0.0923
 3659SOL     OW21655   1.344   6.128   4.645  0.4132 -0.1070  0.3349
 3659SOL    HW121656   1.435   6.163   4.668  0.9495 -0.9542 -0.4934
 3659SOL    HW221657   1.350   6.030   4.626 -1.0004 -0.5945  2.2118
 3660SOL     OW21658   2.441   5.338   4.201 -0.0741  0.6831 -0.2610
 3660SOL    HW121659   2.464   5.431   4.229 -0.8330  0.5205  0.9873
 3660SOL    HW221660   2.357   5.339   4.147 -0.2536  0.7067  0.0132
 3661SOL     OW21661   8.310   9.262   0.996  0.0255  0.3824  0.0935
 3661SOL    HW121662   8.350   9.299   1.080 -1.1170  0.8096  0.4642
 3661SOL    HW221663   8.306   9.162   1.002 -0.4744  0.4370  0.7466
 3662SOL     OW21664   6.499   0.239   3.338  0.1545 -0.5712  0.2036
 3662SOL    HW121665   6.452   0.223   3.251  1.0255 -2.1742 -0.0025
 3662SOL    HW221666   6.434   0.270   3.407 -1.2069 -2.6956 -0.1014
 3663SOL     OW21667   0.676   4.560   0.503  0.8048  0.1258 -0.6372
 3663SOL    HW121668   0.732   4.482   0.533 -0.3222 -0.6240 -0.4814
 3663SOL    HW221669   0.631   4.538   0.417 -2.7308 -0.9530  1.4040
 3664SOL     OW21670   7.626   0.674   4.331  0.3953  0.2640 -0.0243
 3664SOL    HW121671   7.704   0.704   4.386  1.3073 -0.4819 -0.8780
 3664SOL    HW221672   7.649   0.589   4.285 -1.1189 -0.2231  0.0923
 3665SOL     OW21673   9.362   9.987   2.318  0.5179  0.5212  0.5658
 3665SOL    HW121674   9.366   9.946   2.227  2.2308  0.2333  0.7564
 3665SOL    HW221675   9.300  10.066   2.316  0.7702  0.7003 -0.9154
 3666SOL     OW21676   0.258   6.934   0.919  1.0196  0.4619 -0.2375
 3666SOL    HW121677   0.220   6.847   0.949 -0.4131  2.5240  4.3343
 3666SOL    HW221678   0.358   6.929   0.920  0.9490 -1.2131 -0.4231
 3667SOL     OW21679   7.994   0.241   1.639  0.2460 -0.5671  0.2543
 3667SOL    HW121680   7.990   0.246   1.539  1.9979 -0.2334  0.1906
 3667SOL    HW221681   7.938   0.315   1.678  2.3533  1.4805 -0.5224
 3668SOL     OW21682   0.538   4.906   1.662  1.1387  0.2184  0.1737
 3668SOL    HW121683   0.533   4.807   1.676  0.6657  0.2038 -0.1144
 3668SOL    HW221684   0.509   4.929   1.569  1.1263  0.6439  0.2793
 3669SOL     OW21685   4.019   2.554   1.522  0.5108 -0.1067  0.7263
 3669SOL    HW121686   4.102   2.554   1.466 -0.2186 -1.6980 -0.3810
 3669SOL    HW221687   3.994   2.460   1.545 -1.5978  0.2990  0.1336
 3670SOL     OW21688   6.247   0.181   3.673  0.6285 -0.6365 -0.0131
 3670SOL    HW121689   6.276   0.085   3.669  2.3546 -0.1687  0.9658
 3670SOL    HW221690   6.218   0.203   3.766 -0.5389 -0.4134 -0.4218
 3671SOL     OW21691   0.460   2.082   0.823  0.0403 -0.0018 -0.3721
 3671SOL    HW121692   0.543   2.095   0.768  0.4600 -0.7107  0.1000
 3671SOL    HW221693   0.483   2.086   0.920 -0.4511 -0.4053 -0.2415
 3672SOL     OW21694   3.590   8.027   0.932  0.0129 -0.0943  0.1098
 3672SOL    HW121695   3.595   7.931   0.904 -0.4514 -0.6187  1.7406
 3672SOL    HW221696   3.501   8.065   0.906 -0.3712 -0.5407  0.7540
 3673SOL     OW21697   9.509   0.769   2.192  0.1527  0.0018  0.5407
 3673SOL    HW121698   9.432   0.720   2.233 -0.9217  1.6358  0.5212
 3673SOL    HW221699   9.570   0.801   2.265  0.2092 -0.2955  0.6265
 3674SOL     OW21700   4.429   0.848   4.723  0.3976 -0.2502  0.6316
 3674SOL    HW121701   4.444   0.884   4.631 -1.3884  0.1944  0.4955
 3674SOL    HW221702   4.374   0.765   4.718 -0.5472  0.3252  1.3644
 3675SOL     OW21703   4.358   1.459   0.025  0.2908  0.3947  0.2638
 3675SOL    HW121704   4.323   1.535   0.079 -1.3891  0.0476 -0.2802
 3675SOL    HW221705   4.344   1.479  -0.073 -1.6281 -1.2490  0.1595
 3676SOL     OW21706   0.977   5.528   3.832  0.5811 -0.1149 -0.1994
 3676SOL    HW121707   0.931   5.607   3.872 -1.1716 -0.7959 -0.8416
 3676SOL    HW221708   1.021   5.556   3.746 -1.8439 -0.2662 -1.5479
 3677SOL     OW21709   3.285   4.383   4.718 -0.6110 -0.9320 -0.0247
 3677SOL    HW121710   3.358   4.450   4.733 -2.1343  0.7866 -0.0649
 3677SOL    HW221711   3.325   4.292   4.705  1.5378  0.0814 -0.7273
 3678SOL     OW21712   9.626   0.785   1.940 -0.3638  0.2261  0.2852
 3678SOL    HW121713   9.574   0.728   1.877 -0.6712 -0.5891  1.2603
 3678SOL    HW221714   9.590   0.774   2.033  1.8123 -0.7027  1.0593
 3679SOL     OW21715   1.343   1.873   2.678  0.4483 -0.2845 -0.3683
 3679SOL    HW121716   1.281   1.799   2.704 -1.8063  1.8958  0.7734
 3679SOL    HW221717   1.311   1.913   2.591  1.1951 -0.1948 -0.5995
 3680SOL     OW21718   3.928   7.197   4.469 -0.0615 -0.6198  0.4620
 3680SOL    HW121719   3.860   7.197   4.543 -0.2537 -0.5359  0.2853
 3680SOL    HW221720   4.020   7.200   4.509 -0.1903  0.7378  0.6698
 3681SOL     OW21721   2.992   3.321   0.889  0.3113 -0.4148 -0.3246
 3681SOL    HW121722   3.043   3.386   0.946  0.8884 -0.5245 -0.7130
 3681SOL    HW221723   3.011   3.228   0.919  1.1527 -0.5077 -1.1256
 3682SOL     OW21724   8.662   9.350   0.692 -0.3610  0.4368 -0.2244
 3682SOL    HW121725   8.575   9.312   0.723 -2.1607  2.7137 -2.2655
 3682SOL    HW221726   8.675   9.329   0.595  1.5299 -0.1148  0.1298
 3683SOL     OW21727   4.760   4.052   0.114 -0.0266  0.1331  0.1069
 3683SOL    HW121728   4.674   4.001   0.118 -0.9004  1.4583 -1.4441
 3683SOL    HW221729   4.754   4.133   0.171  0.9529 -0.8351  1.6359
 3684SOL     OW21730   2.106   2.172   3.968  0.4743  0.2762 -0.0684
 3684SOL    HW121731   2.088   2.076   3.989 -2.3858  0.5726 -0.9330
 3684SOL    HW221732   2.163   2.178   3.885 -0.5289 -0.6740 -0.8483
 3685SOL     OW21733   3.087   4.943   2.402 -0.8709 -0.0216  0.0498
 3685SOL    HW121734   3.043   4.865   2.446 -0.5913  0.0464  0.4481
 3685SOL    HW221735   3.118   5.008   2.471  2.7363 -1.5792 -0.0109
 3686SOL     OW21736   2.420   0.012   4.605  0.4391  0.0203 -0.3322
 3686SOL    HW121737   2.446  -0.051   4.533  1.2634 -0.6088  0.5092
 3686SOL    HW221738   2.501   0.037   4.658  0.4133  3.0122 -1.6092
 3687SOL     OW21739   3.552   7.325   3.448 -0.3018  0.6698 -0.5530
 3687SOL    HW121740   3.601   7.312   3.534 -2.0722 -0.8532  0.2571
 3687SOL    HW221741   3.618   7.326   3.373  0.9353 -2.4499  0.3969
 3688SOL     OW21742   1.612   1.292   2.677 -0.4579 -0.0853  0.1397
 3688SOL    HW121743   1.524   1.318   2.636 -0.0060  0.3295 -0.5739
 3688SOL    HW221744   1.666   1.242   2.611 -1.0827 -2.4199  1.3249
 3689SOL     OW21745   7.807   3.436   4.295  0.0141  0.1986 -0.1355
 3689SOL    HW121746   7.797   3.412   4.392 -1.4968  2.1001  0.2030
 3689SOL    HW221747   7.766   3.364   4.239 -1.0985  0.1439  0.7230
 3690SOL     OW21748   8.276   1.145   3.878 -0.5002  0.2381 -0.0310
 3690SOL    HW121749   8.283   1.060   3.932  1.0731  1.0777  1.1327
 3690SOL    HW221750   8.309   1.128   3.786  0.7443 -0.1697  0.4829
 3691SOL     OW21751   8.359   8.461   3.783  0.3506  0.1538 -0.5485
 3691SOL    HW121752   8.292   8.450   3.709  0.7024  1.3315 -1.0649
 3691SOL    HW221753   8.343   8.548   3.829 -0.5560 -1.0621  1.5041
 3692SOL     OW21754   3.862   9.246   2.219 -0.0453 -0.5491 -0.0148
 3692SOL    HW121755   3.939   9.195   2.258  0.0345  0.6703  1.4632
 3692SOL    HW221756   3.896   9.305   2.145  0.6048  0.6416  1.2142
 3693SOL     OW21757   0.492   4.218   1.531  0.4251  0.2840  0.6514
 3693SOL    HW121758   0.518   4.271   1.451  0.7061 -0.3364  0.3259
 3693SOL    HW221759   0.542   4.251   1.611  0.4317  0.6510  0.4965
 3694SOL     OW21760   4.334   7.489   2.408 -0.3328 -0.0188 -0.8039
 3694SOL    HW121761   4.392   7.412   2.380 -0.4377  0.3892 -2.1761
 3694SOL    HW221762   4.291   7.528   2.327  0.4200  2.0542 -0.2245
 3695SOL     OW21763   4.384   0.569   1.864  0.4379  0.5753 -0.0171
 3695SOL    HW121764   4.346   0.565   1.956 -0.8225 -0.2277 -0.5575
 3695SOL    HW221765   4.381   0.663   1.830  0.3175  0.7667  0.5263
 3696SOL     OW21766   0.360   5.353   2.732  0.3207 -0.3368  0.2038
 3696SOL    HW121767   0.351   5.417   2.655  1.0448 -0.0123  0.3810
 3696SOL    HW221768   0.322   5.264   2.706 -1.8246  0.4995  0.3799
 3697SOL     OW21769   3.140   8.733   4.434 -0.1646 -0.5076 -0.3250
 3697SOL    HW121770   3.070   8.799   4.463  0.4860  0.5318 -1.0806
 3697SOL    HW221771   3.225   8.751   4.484  0.8900  1.1295 -2.6259
 3698SOL     OW21772   3.757   8.911   0.221  0.2709  0.1547 -0.1747
 3698SOL    HW121773   3.778   8.989   0.161 -1.5589  1.1376  0.4182
 3698SOL    HW221774   3.680   8.935   0.279 -0.1821 -2.0609  0.1448
 3699SOL     OW21775   5.741   7.255   1.766  0.1378  0.0689 -0.4759
 3699SOL    HW121776   5.799   7.201   1.826 -0.1109  0.3967  0.0626
 3699SOL    HW221777   5.775   7.249   1.672  1.0382  0.2489 -0.1661
 3700SOL     OW21778   1.105   9.173   0.776  0.3585 -0.0018  0.0599
 3700SOL    HW121779   1.099   9.103   0.848 -0.9788 -0.5454 -0.5741
 3700SOL    HW221780   1.043   9.149   0.701  0.5967  1.3790 -0.5830
 3701SOL     OW21781   9.843   6.960   2.822 -0.1218  0.0331 -0.1708
 3701SOL    HW121782   9.900   6.987   2.900 -0.1705 -0.3193 -0.0107
 3701SOL    HW221783   9.823   6.862   2.828  1.8899 -0.5319 -1.9031
 3702SOL     OW21784   1.897   9.518   1.334  0.1676 -0.7702 -0.4114
 3702SOL    HW121785   1.800   9.501   1.353  0.1493 -0.7551 -0.4889
 3702SOL    HW221786   1.937   9.437   1.290  0.5986 -1.4032  1.1125
 3703SOL     OW21787   1.202   8.772   4.214 -0.9157 -0.1176  0.3375
 3703SOL    HW121788   1.108   8.740   4.221 -0.4241 -2.0102 -1.3323
 3703SOL    HW221789   1.255   8.709   4.157  1.7698  0.0264  2.5587
 3704SOL     OW21790   9.409   9.605   2.537  0.2608  0.0091 -0.1642
 3704SOL    HW121791   9.490   9.663   2.536 -0.0940  0.5486  0.6886
 3704SOL    HW221792   9.402   9.560   2.626  1.0447 -2.1066 -1.1428
 3705SOL     OW21793   3.014   3.458   2.404  0.1428  0.1599 -0.2581
 3705SOL    HW121794   2.929   3.418   2.369  0.7553  0.9863 -2.8525
 3705SOL    HW221795   3.043   3.409   2.486 -1.8072 -1.3718 -0.4403
 3706SOL     OW21796   0.278   4.165   2.730 -0.3044 -0.1228  0.2342
 3706SOL    HW121797   0.235   4.209   2.651  0.4352  1.8522  0.8767
 3706SOL    HW221798   0.208   4.130   2.792 -0.9171  0.0363 -0.3665
 3707SOL     OW21799   8.917   5.731   2.774  1.0870  0.1973  0.1542
 3707SOL    HW121800   8.880   5.732   2.681  1.4526  0.4828  0.0081
 3707SOL    HW221801   9.006   5.684   2.774  1.5549  1.0779  0.1771
 3708SOL     OW21802   4.331   7.554   1.096 -0.4958  0.3395 -0.2683
 3708SOL    HW121803   4.332   7.509   1.007  1.3620  0.0558 -0.1280
 3708SOL    HW221804   4.352   7.487   1.168  3.0666  1.4744 -0.1301
 3709SOL     OW21805   3.709   1.653   3.638 -0.6318 -0.0870  0.3660
 3709SOL    HW121806   3.779   1.690   3.699 -0.1540 -0.0536 -0.1988
 3709SOL    HW221807   3.752   1.589   3.574 -1.0552  0.2219 -0.2305
 3710SOL     OW21808   2.404   2.095   3.370  0.2343  0.1326  0.1182
 3710SOL    HW121809   2.342   2.022   3.399  0.7717  0.3055  1.7459
 3710SOL    HW221810   2.352   2.180   3.358  0.1681  0.3166  1.6335
 3711SOL     OW21811   4.515   2.104   0.915  0.1477 -0.2383  0.1108
 3711SOL    HW121812   4.509   2.190   0.966 -1.3993 -0.6832  0.7214
 3711SOL    HW221813   4.482   2.118   0.822  0.7961  0.0429 -0.0796
 3712SOL     OW21814   9.533   9.617   1.347 -0.0346 -0.1727 -1.1697
 3712SOL    HW121815   9.620   9.649   1.383 -1.1854 -1.4959  2.9871
 3712SOL    HW221816   9.534   9.517   1.339 -1.8681 -0.4166  1.0646
 3713SOL     OW21817   3.938   9.972   1.493  0.1312 -0.5625  0.1473
 3713SOL    HW121818   3.948   9.930   1.403 -1.2515 -0.8444  0.1166
 3713SOL    HW221819   3.846  10.010   1.503  0.0806 -1.0366  1.6623
 3714SOL     OW21820   3.014   3.023   2.595 -0.8447 -1.1672  0.2171
 3714SOL    HW121821   2.973   2.937   2.625  1.0943 -2.5227 -0.8528
 3714SOL    HW221822   3.070   3.006   2.513  0.0187  1.0156  0.3166
 3715SOL     OW21823   1.627   5.716   2.605  0.4504  0.5687 -0.4169
 3715SOL    HW121824   1.686   5.781   2.557 -0.0761  0.6383 -0.9815
 3715SOL    HW221825   1.605   5.640   2.543  0.7466  0.0482  0.1093
 3716SOL     OW21826   3.466   9.588   2.531  0.1575 -0.1999  0.1397
 3716SOL    HW121827   3.409   9.667   2.553  1.4304  0.5431  0.8269
 3716SOL    HW221828   3.485   9.536   2.614 -0.6892 -1.2565 -0.3146
 3717SOL     OW21829   9.696   6.878   1.792  0.0957 -0.6261  0.1634
 3717SOL    HW121830   9.719   6.883   1.889 -0.1391 -1.8886  0.2907
 3717SOL    HW221831   9.742   6.800   1.750  0.8177  0.3605 -0.9322
 3718SOL     OW21832   8.726   6.816   2.014 -0.4229  0.1364 -0.0936
 3718SOL    HW121833   8.729   6.903   1.966  0.8750 -0.6991 -1.6018
 3718SOL    HW221834   8.819   6.779   2.021 -1.0973 -1.6829 -0.5320
 3719SOL     OW21835   0.112   7.276   1.282  0.6128 -0.3834  0.1697
 3719SOL    HW121836   0.040   7.216   1.247  0.4971 -0.0541 -0.1632
 3719SOL    HW221837   0.179   7.222   1.333 -0.6871 -0.4906  1.8370
 3720SOL     OW21838   2.899   5.662   0.840  0.1324  0.1425 -0.5415
 3720SOL    HW121839   2.882   5.666   0.939  0.1337  0.6934 -0.5621
 3720SOL    HW221840   2.844   5.589   0.800 -1.0886  0.9652 -0.3863
 3721SOL     OW21841   1.045   4.760   1.951  0.3283 -0.1764  0.6806
 3721SOL    HW121842   1.136   4.801   1.959  0.3303  0.0424 -0.4060
 3721SOL    HW221843   1.053   4.669   1.912  0.3254 -1.2721  3.1195
 3722SOL     OW21844   5.647   0.124   1.618 -0.1204 -0.1643  0.0996
 3722SOL    HW121845   5.583   0.051   1.592  0.2414 -0.2213 -0.6542
 3722SOL    HW221846   5.599   0.191   1.674 -0.6307 -0.6344  0.2353
 3723SOL     OW21847   8.873   3.470   0.814 -0.1351 -0.1465 -0.0595
 3723SOL    HW121848   8.942   3.504   0.879  0.9378 -1.9518 -0.2038
 3723SOL    HW221849   8.806   3.414   0.864 -1.6278  1.7564  0.1096
 3724SOL     OW21850   2.000   1.009   4.670 -0.2068  0.0490 -0.4368
 3724SOL    HW121851   2.098   1.000   4.652 -0.0710  0.7888 -0.0841
 3724SOL    HW221852   1.986   1.033   4.766 -0.6332  1.6477 -0.8787
 3725SOL     OW21853   3.069   3.785   2.432 -0.5776 -0.5639  0.4601
 3725SOL    HW121854   3.144   3.796   2.366 -1.8489  0.8421 -0.8085
 3725SOL    HW221855   2.982   3.779   2.382 -1.3013 -2.5357  1.8870
 3726SOL     OW21856   2.034   1.984   2.458  0.4873 -0.2873  0.2093
 3726SOL    HW121857   2.106   1.952   2.518  0.9206  2.2240  1.0992
 3726SOL    HW221858   1.952   2.006   2.512 -0.4548 -1.7162 -0.6079
 3727SOL     OW21859   0.129   2.928   2.916  0.1014  0.9965  0.2829
 3727SOL    HW121860   0.193   2.852   2.924 -0.5463  0.2748 -1.1719
 3727SOL    HW221861   0.176   3.007   2.876 -0.0379  0.2474 -1.4351
 3728SOL     OW21862   1.688   7.726   1.470 -0.1743 -0.0363 -0.0553
 3728SOL    HW121863   1.603   7.692   1.510  0.0812  0.0377  0.5477
 3728SOL    HW221864   1.752   7.650   1.461  0.1847  0.1670  0.7476
 3729SOL     OW21865   3.365   8.121   2.085  0.7701 -0.0985  0.3287
 3729SOL    HW121866   3.447   8.151   2.035  0.2586 -0.3146 -0.6626
 3729SOL    HW221867   3.284   8.159   2.041  0.3325  0.0795  1.2874
 3730SOL     OW21868   1.320   0.565   1.078  0.1824 -0.0487  0.3970
 3730SOL    HW121869   1.251   0.623   1.122  1.6084  0.3726  2.1145
 3730SOL    HW221870   1.317   0.474   1.119  0.2369 -0.2119  0.0388
 3731SOL     OW21871   1.861   0.257   4.289 -0.1325 -0.2633 -0.2911
 3731SOL    HW121872   1.892   0.191   4.357  0.9078  1.0968  0.5776
 3731SOL    HW221873   1.765   0.239   4.266 -0.5560 -0.6058  1.6911
 3732SOL     OW21874   3.983   8.644   1.472 -0.0660 -0.0921 -0.4759
 3732SOL    HW121875   4.071   8.667   1.513  0.5246 -1.8184 -0.7356
 3732SOL    HW221876   3.927   8.726   1.466  1.6790  1.1170 -0.6992
 3733SOL     OW21877   5.503   2.692   1.039  0.5766 -0.4913  0.3345
 3733SOL    HW121878   5.511   2.680   1.138 -1.9256 -1.6313  0.4245
 3733SOL    HW221879   5.580   2.647   0.994  1.4962 -0.3562  1.7172
 3734SOL     OW21880   7.934   3.748   4.735  0.4529  0.1892 -0.3081
 3734SOL    HW121881   7.989   3.799   4.669  2.0238  0.5684  1.2255
 3734SOL    HW221882   7.968   3.767   4.827 -1.3707 -0.7047  0.5770
 3735SOL     OW21883   3.835   3.719   0.035 -0.0399  0.2006 -0.0249
 3735SOL    HW121884   3.837   3.791  -0.034  2.0387  0.7657  0.5856
 3735SOL    HW221885   3.883   3.638   0.000  0.5313  0.2933  0.5280
 3736SOL     OW21886   2.048   8.578   3.413 -0.6528 -0.4509 -0.2444
 3736SOL    HW121887   2.042   8.486   3.450 -2.0615 -0.8625 -1.4229
 3736SOL    HW221888   2.138   8.617   3.433 -1.2599 -0.7315  3.2959
 3737SOL     OW21889   7.585   9.418   1.337 -0.3877  0.6271 -0.7851
 3737SOL    HW121890   7.536   9.338   1.300 -0.9456 -0.5366  2.3258
 3737SOL    HW221891   7.520   9.480   1.380  0.7041 -0.6170  2.8320
 3738SOL     OW21892   2.324   8.108   0.611 -0.5051 -0.1763  0.2681
 3738SOL    HW121893   2.398   8.116   0.545  0.2313 -0.9882  0.9909
 3738SOL    HW221894   2.236   8.110   0.563 -0.0368  1.1691 -0.5583
 3739SOL     OW21895   1.368   0.406   4.568  0.0680 -0.5208 -0.4861
 3739SOL    HW121896   1.380   0.399   4.469  0.5204  0.0962 -0.4767
 3739SOL    HW221897   1.453   0.380   4.613  0.6266  1.4756 -0.3378
 3740SOL     OW21898   3.051   4.997   1.598  0.3386  0.1496  0.1754
 3740SOL    HW121899   3.077   5.035   1.686  3.3857 -0.9111 -0.2369
 3740SOL    HW221900   3.031   4.899   1.608 -2.1372  0.6080  0.1826
 3741SOL     OW21901   2.472   6.453   1.492 -0.3816  0.4915  0.3907
 3741SOL    HW121902   2.458   6.395   1.572 -1.0448  0.2745  0.1279
 3741SOL    HW221903   2.400   6.523   1.489 -0.7490  0.0864 -0.3718
 3742SOL     OW21904   9.885   2.493   2.090  0.1668 -0.3542 -0.1670
 3742SOL    HW121905   9.806   2.453   2.136 -0.4618  1.0961  0.0216
 3742SOL    HW221906   9.855   2.552   2.015  1.1219 -1.0062 -1.0849
 3743SOL     OW21907   1.692   3.055   1.124 -0.2932  0.9245 -0.1999
 3743SOL    HW121908   1.692   3.036   1.026  2.2724 -1.9698  0.2635
 3743SOL    HW221909   1.757   3.129   1.144  1.3267 -0.3752 -0.4632
 3744SOL     OW21910   3.920   8.644   3.299  0.0210 -0.0270  0.2878
 3744SOL    HW121911   3.902   8.680   3.208  0.4850 -0.5193 -0.0058
 3744SOL    HW221912   3.844   8.586   3.329  0.3218 -0.6950 -0.2196
 3745SOL     OW21913   7.453   1.191   3.440 -0.0409 -0.4130  0.0885
 3745SOL    HW121914   7.444   1.251   3.361 -0.0766  0.2288  0.5735
 3745SOL    HW221915   7.362   1.165   3.472 -0.0151 -1.2111 -0.4869
 3746SOL     OW21916   0.520   3.661   0.429  0.1314  0.1130  0.3438
 3746SOL    HW121917   0.605   3.664   0.376  0.8792  0.2308  1.5448
 3746SOL    HW221918   0.522   3.732   0.499 -0.0947 -1.1983  1.6812
 3747SOL     OW21919   5.917   8.699   3.406 -0.5217  0.0622 -0.0233
 3747SOL    HW121920   5.853   8.722   3.479 -1.3041 -0.8128 -0.4271
 3747SOL    HW221921   5.994   8.648   3.444 -0.5307  0.2933  0.3112
 3748SOL     OW21922   9.594   5.510   2.342 -0.1042 -1.0033 -0.2047
 3748SOL    HW121923   9.656   5.437   2.314 -0.4453 -1.1208 -0.6587
 3748SOL    HW221924   9.646   5.586   2.379  0.1396 -2.4084  2.4725
 3749SOL     OW21925   2.474   4.582   1.453  0.5963  0.2205 -0.2858
 3749SOL    HW121926   2.536   4.522   1.503 -0.7246 -0.8958  0.0361
 3749SOL    HW221927   2.386   4.537   1.441 -0.1073  1.7125 -0.8981
 3750SOL     OW21928   8.773   9.139   2.508 -0.6125 -0.0754  0.4048
 3750SOL    HW121929   8.809   9.046   2.515  0.0512  0.2037  0.6931
 3750SOL    HW221930   8.844   9.200   2.473 -1.1023  0.2926  0.0321
 3751SOL     OW21931   0.207   5.130   2.618 -0.6839  0.1960 -0.1471
 3751SOL    HW121932   0.144   5.131   2.695 -1.5880 -1.2672 -0.8410
 3751SOL    HW221933   0.159   5.157   2.535 -0.0963  0.2772 -0.4647
 3752SOL     OW21934   9.887   3.966   0.758  0.1943 -0.0636  0.1617
 3752SOL    HW121935   9.865   4.035   0.689  2.1117  2.8651  2.3937
 3752SOL    HW221936   9.806   3.947   0.813 -0.6975 -0.6340 -1.3098
 3753SOL     OW21937   0.103   8.229   4.034 -0.0948  0.6486  0.2685
 3753SOL    HW121938   0.022   8.169   4.034 -0.8914  1.7025  0.5262
 3753SOL    HW221939   0.174   8.189   4.091 -0.8558  0.2552  0.9492
 3754SOL     OW21940   7.799   1.347   4.498  0.2469 -0.0934 -0.6202
 3754SOL    HW121941   7.775   1.311   4.589 -0.2138  0.6785 -0.4276
 3754SOL    HW221942   7.851   1.432   4.508  1.0689 -0.5359 -1.0747
 3755SOL     OW21943   0.005   5.357   4.371  0.1539  0.4793  0.3131
 3755SOL    HW121944  -0.008   5.310   4.458  1.4539 -0.2993  0.0939
 3755SOL    HW221945   0.070   5.431   4.383 -1.3786  1.8277  0.5012
 3756SOL     OW21946   0.088   3.670   1.121  0.2146 -0.3205 -0.0112
 3756SOL    HW121947  -0.006   3.685   1.152  0.5797 -0.1828  1.0518
 3756SOL    HW221948   0.115   3.576   1.140 -0.0726 -0.6775 -1.3189
 3757SOL     OW21949   1.914   7.902   3.725 -0.2865 -0.1962 -0.1729
 3757SOL    HW121950   1.939   7.870   3.816 -0.6626  0.8732  0.3110
 3757SOL    HW221951   1.945   7.836   3.657  1.1286 -0.3946  0.6411
 3758SOL     OW21952   1.484   5.770   2.107 -0.3281  0.0883 -0.2362
 3758SOL    HW121953   1.447   5.677   2.099  0.9039 -0.7429  2.6307
 3758SOL    HW221954   1.413   5.832   2.137 -0.7707 -0.2807 -0.5172
 3759SOL     OW21955   0.931   8.729   0.259  0.0956 -0.0616 -0.0618
 3759SOL    HW121956   1.009   8.666   0.260  1.2652  1.3917  1.5463
 3759SOL    HW221957   0.892   8.735   0.350 -1.1934  0.1062 -0.6214
 3760SOL     OW21958   9.908   1.238   1.964  0.2708 -0.2924  0.0925
 3760SOL    HW121959   9.899   1.332   1.929 -0.4900 -1.0547 -1.8190
 3760SOL    HW221960   9.829   1.216   2.021 -0.9941 -0.7310 -1.7943
 3761SOL     OW21961   1.476   2.014   1.486  0.2804 -0.2066 -0.2339
 3761SOL    HW121962   1.494   2.101   1.440 -0.4103  0.0014 -0.1255
 3761SOL    HW221963   1.562   1.970   1.511  0.6884  2.7905  4.1845
 3762SOL     OW21964   7.490   2.500   0.338  0.0019 -0.0059  0.4669
 3762SOL    HW121965   7.460   2.405   0.323 -0.8651  0.2610  0.4426
 3762SOL    HW221966   7.425   2.545   0.399  1.4537  0.0194  2.0038
 3763SOL     OW21967   1.508   0.950   0.817  0.6321  0.6149 -0.4859
 3763SOL    HW121968   1.560   0.965   0.733  0.1233  0.0634 -0.9135
 3763SOL    HW221969   1.411   0.937   0.794  0.6722 -0.8068  0.0466
 3764SOL     OW21970   9.996   7.924   1.325 -0.2124  0.5660 -0.0865
 3764SOL    HW121971  10.059   7.999   1.343 -0.8586  0.5386  2.4472
 3764SOL    HW221972   9.941   7.945   1.244  0.2266  2.4144  0.0797
 3765SOL     OW21973   3.324   3.056   3.302 -0.2871  0.1382 -0.6948
 3765SOL    HW121974   3.382   3.041   3.222 -0.9961  1.2136 -1.4206
 3765SOL    HW221975   3.244   3.110   3.276  0.5124  2.2814  1.1249
 3766SOL     OW21976   2.192   1.865   2.907  0.1422 -0.2718 -0.0984
 3766SOL    HW121977   2.144   1.796   2.962  1.7735 -0.7082  0.8026
 3766SOL    HW221978   2.250   1.920   2.967  0.0529  0.8601 -1.0465
 3767SOL     OW21979   5.390   1.155   2.446 -0.1003 -0.0101  0.0087
 3767SOL    HW121980   5.470   1.159   2.386 -0.8669  3.0330 -0.9306
 3767SOL    HW221981   5.307   1.145   2.391 -0.5039 -1.5157  0.8648
 3768SOL     OW21982   4.397   0.535   3.801  0.1945  0.3039 -0.0559
 3768SOL    HW121983   4.307   0.579   3.806 -0.3205 -0.7292 -0.1029
 3768SOL    HW221984   4.387   0.436   3.814  1.4733  0.3280  1.2326
 3769SOL     OW21985   8.077   9.838   3.949 -0.3886 -0.0357 -0.4824
 3769SOL    HW121986   8.117   9.750   3.927  0.8133  0.6107 -0.9099
 3769SOL    HW221987   7.977   9.829   3.955 -0.1470 -1.8691  1.5819
 3770SOL     OW21988   3.289   8.872   2.119  0.1988  0.5834  0.4495
 3770SOL    HW121989   3.320   8.907   2.031 -1.3625  1.5774  0.2787
 3770SOL    HW221990   3.246   8.782   2.106  2.3817 -0.5156  0.6007
 3771SOL     OW21991   2.683   6.765   1.244  0.2641  0.3880  0.2536
 3771SOL    HW121992   2.672   6.854   1.288 -1.7394 -0.6955  2.0307
 3771SOL    HW221993   2.698   6.695   1.314 -0.4799 -1.0112 -0.9580
 3772SOL     OW21994   0.610   1.157   1.164 -0.1932  0.1966  0.8291
 3772SOL    HW121995   0.605   1.181   1.261 -0.0311  2.6359  0.2691
 3772SOL    HW221996   0.680   1.212   1.119  1.7286 -2.9407 -0.1430
 3773SOL     OW21997   1.863   3.249   4.546 -0.9282 -0.5773  0.0922
 3773SOL    HW121998   1.925   3.292   4.481  1.4295 -0.9687  1.9960
 3773SOL    HW221999   1.807   3.319   4.591 -2.2882 -0.2788 -2.0249
 3774SOL     OW22000   8.497   1.266   3.477  0.3137  0.5093  0.0872
 3774SOL    HW122001   8.565   1.326   3.518  1.1111  0.2077 -0.7612
 3774SOL    HW222002   8.431   1.237   3.547 -1.2214  3.8623  0.1276
 3775SOL     OW22003   2.873   9.388   1.379  0.4191  0.0787 -0.4115
 3775SOL    HW122004   2.858   9.388   1.280  0.3966 -0.1820 -0.4091
 3775SOL    HW222005   2.858   9.481   1.415 -4.5721 -0.7266  0.0619
 3776SOL     OW22006   0.503   2.109   1.077  0.0235  0.0397  0.0200
 3776SOL    HW122007   0.503   2.044   1.152  1.7585  0.5394  0.4803
 3776SOL    HW222008   0.530   2.199   1.111 -1.3172  0.7652 -0.8003
 3777SOL     OW22009   1.092   7.269   4.707  0.1020  0.0043 -0.1407
 3777SOL    HW122010   1.127   7.352   4.663 -0.6486  0.0733 -0.6133
 3777SOL    HW222011   1.003   7.246   4.668  0.2007 -0.8894  0.1633
 3778SOL     OW22012   1.098   4.637   1.298 -0.0955 -0.2013  0.6377
 3778SOL    HW122013   1.166   4.607   1.364  0.7544  1.0189  0.3355
 3778SOL    HW222014   1.050   4.718   1.333 -0.6501 -0.4120  0.3872
 3779SOL     OW22015   3.771   8.286   1.214 -0.5577 -0.7968 -0.0708
 3779SOL    HW122016   3.832   8.234   1.274  0.4868 -1.2118 -1.4691
 3779SOL    HW222017   3.794   8.267   1.119 -1.1521  1.0913 -0.6054
 3780SOL     OW22018   6.302   9.097   1.565 -0.5702 -0.3487  0.3834
 3780SOL    HW122019   6.380   9.086   1.503  0.1678  1.4400  0.9678
 3780SOL    HW222020   6.255   9.009   1.575  0.6883 -1.1854 -0.8742
 3781SOL     OW22021   9.239   5.005   0.986  0.5546  0.1324  0.0437
 3781SOL    HW122022   9.173   4.953   1.040  2.7837 -1.4342  1.3190
 3781SOL    HW222023   9.191   5.055   0.914 -1.9035 -1.7936  0.2899
 3782SOL     OW22024   2.134   8.356   2.051 -0.0572 -0.2007  0.6694
 3782SOL    HW122025   2.225   8.325   2.021  0.4090 -0.1728  2.0310
 3782SOL    HW222026   2.075   8.367   1.971  1.4865  0.8888 -0.3403
 3783SOL     OW22027   2.323   7.349   1.930 -0.4098  0.2966  0.0475
 3783SOL    HW122028   2.406   7.365   1.985  1.2100 -0.8758 -1.9744
 3783SOL    HW222029   2.249   7.406   1.964  0.8957  0.5259  2.6600
 3784SOL     OW22030   0.210   5.550   4.514  0.2035  1.1846  0.2423
 3784SOL    HW122031   0.185   5.491   4.591 -1.2120  1.1044 -0.2751
 3784SOL    HW222032   0.176   5.642   4.530  1.3523  1.5865  0.4697
 3785SOL     OW22033   4.387   9.388   0.596  0.8048  0.0989 -0.2664
 3785SOL    HW122034   4.481   9.360   0.614  0.5712 -0.3063  0.3413
 3785SOL    HW222035   4.341   9.409   0.683  0.2128 -0.1043 -0.5280
 3786SOL     OW22036   4.662   0.717   0.085  0.1146 -0.2881  0.2114
 3786SOL    HW122037   4.681   0.690  -0.010  0.2825  1.2524 -0.2050
 3786SOL    HW222038   4.587   0.783   0.086  0.7782  0.4596  1.0737
 3787SOL     OW22039   7.529   4.468   4.098 -0.3443 -0.0177  0.1390
 3787SOL    HW122040   7.604   4.404   4.082 -1.6844 -1.6666  0.3164
 3787SOL    HW222041   7.459   4.456   4.028 -1.7099 -0.4552  1.5390
 3788SOL     OW22042   0.615   5.896   3.861 -0.6646  0.4244  0.0581
 3788SOL    HW122043   0.584   5.966   3.924 -0.3312  0.0788  0.6097
 3788SOL    HW222044   0.698   5.853   3.897 -1.5720 -1.1363  0.3563
 3789SOL     OW22045   1.395   8.819   2.045 -0.2603 -0.3851  0.4433
 3789SOL    HW122046   1.441   8.908   2.054 -2.1999  0.8806 -1.3926
 3789SOL    HW222047   1.415   8.781   1.954 -1.5817 -0.5470  0.2193
 3790SOL     OW22048   3.221   3.814   1.898  0.0834 -0.1635  0.6826
 3790SOL    HW122049   3.246   3.732   1.846 -1.1249 -1.0404  1.4696
 3790SOL    HW222050   3.301   3.872   1.907  1.2577 -1.7919  1.0829
 3791SOL     OW22051   1.495   8.134   2.139  0.3674  0.6436 -0.1588
 3791SOL    HW122052   1.498   8.089   2.050 -0.2587 -0.6754  0.4804
 3791SOL    HW222053   1.570   8.101   2.196  0.2916  0.8891  0.0845
 3792SOL     OW22054   3.122   4.107   1.394  0.0900  0.1707 -0.1637
 3792SOL    HW122055   3.045   4.044   1.403  0.8238 -0.6191  0.5878
 3792SOL    HW222056   3.092   4.189   1.346 -1.0614 -0.4165 -0.4611
 3793SOL     OW22057   2.929   5.219   3.904  0.4199  0.0065  0.0452
 3793SOL    HW122058   3.006   5.227   3.840 -0.5310 -1.2172 -1.2960
 3793SOL    HW222059   2.950   5.269   3.988  2.2506  0.5398 -0.6992
 3794SOL     OW22060   3.053   6.722   4.170  0.7741 -0.0874 -0.1346
 3794SOL    HW122061   3.114   6.648   4.140 -0.4061 -0.7454 -0.9436
 3794SOL    HW222062   2.958   6.692   4.161  0.3154  1.1312  0.6103
 3795SOL     OW22063   1.176   8.316   2.922  0.5287  0.1685  0.6100
 3795SOL    HW122064   1.133   8.287   2.836  0.8949  2.9304 -0.5573
 3795SOL    HW222065   1.220   8.237   2.965  0.5054 -1.2440 -1.8201
 3796SOL     OW22066   7.660   4.820   4.462 -0.3202  0.8831 -0.5559
 3796SOL    HW122067   7.563   4.796   4.465 -0.1085 -0.0227 -1.0582
 3796SOL    HW222068   7.716   4.742   4.488  0.2521  1.6566  0.6058
 3797SOL     OW22069   9.957   9.907   4.289 -0.4273 -0.2187 -0.0555
 3797SOL    HW122070  10.019   9.985   4.286 -0.7404  0.0483  0.3376
 3797SOL    HW222071   9.877   9.926   4.233 -0.5085 -0.2485  0.0488
 3798SOL     OW22072   8.962   2.200   2.503  0.7006  0.1232 -0.0085
 3798SOL    HW122073   9.007   2.112   2.519 -2.0621 -1.2789  0.2389
 3798SOL    HW222074   8.946   2.246   2.591 -2.7155 -1.6365  0.3569
 3799SOL     OW22075   8.791   2.541   2.171  0.5860 -0.8039 -0.5819
 3799SOL    HW122076   8.802   2.609   2.244 -0.6883 -0.4276 -0.7315
 3799SOL    HW222077   8.874   2.487   2.163  0.5269 -1.2404  1.5645
 3800SOL     OW22078   5.189   9.660   3.761 -0.2455  0.1579 -0.5993
 3800SOL    HW122079   5.234   9.655   3.672  1.0806 -0.4385  0.1067
 3800SOL    HW222080   5.098   9.618   3.755 -0.6666  1.2299 -1.9744
 3801SOL     OW22081   9.591   9.044   3.296 -0.3283  0.2663  0.0743
 3801SOL    HW122082   9.618   9.027   3.391 -0.2733 -2.7024 -0.4365
 3801SOL    HW222083   9.651   9.114   3.257  0.1025  1.0042  1.9955
 3802SOL     OW22084   9.761   7.156   0.166  0.0739  0.3438 -0.3270
 3802SOL    HW122085   9.686   7.149   0.101  2.1265  1.2983 -2.8611
 3802SOL    HW222086   9.819   7.075   0.160  0.7142  0.7915 -0.2468
 3803SOL     OW22087   1.669   6.883   2.768 -0.9778 -0.4042 -0.2160
 3803SOL    HW122088   1.672   6.801   2.709 -1.6302 -0.7983  0.2960
 3803SOL    HW222089   1.620   6.956   2.721 -1.5472 -0.7374 -0.1404
 3804SOL     OW22090   8.242   1.331   1.466 -0.0691 -0.6854 -0.1543
 3804SOL    HW122091   8.166   1.309   1.406  0.5347 -2.4162 -0.3029
 3804SOL    HW222092   8.310   1.258   1.463  1.1562  0.3897  0.7006
 3805SOL     OW22093   0.666   5.471   2.017  0.6604  1.0226 -0.6092
 3805SOL    HW122094   0.593   5.424   1.968  1.2624  0.1158 -0.6491
 3805SOL    HW222095   0.679   5.562   1.978 -0.6923  1.3379 -0.3577
 3806SOL     OW22096   4.778   7.768   0.613 -0.2608 -0.0294 -0.0618
 3806SOL    HW122097   4.793   7.836   0.542 -1.7372  0.8079  0.3923
 3806SOL    HW222098   4.865   7.742   0.655  0.4853  0.3338 -1.3761
 3807SOL     OW22099   9.862   4.507   0.653  0.4286  0.3395  0.3186
 3807SOL    HW122100   9.772   4.549   0.639 -0.6133 -1.8235  0.3140
 3807SOL    HW222101   9.932   4.579   0.657 -1.2097  2.0148 -0.2605
 3808SOL     OW22102   8.774   7.502   3.415  0.2290  0.1756  0.5958
 3808SOL    HW122103   8.835   7.436   3.371 -0.0086  0.2558  0.1435
 3808SOL    HW222104   8.733   7.461   3.496 -1.2300 -0.8291 -0.6213
 3809SOL     OW22105   8.194   2.465   3.121  0.0973  0.0628 -0.6083
 3809SOL    HW122106   8.155   2.384   3.163  0.9079  0.8403  1.7320
 3809SOL    HW222107   8.208   2.449   3.023  0.0898 -2.5269 -0.2180
 3810SOL     OW22108   8.355   1.169   4.198 -0.0808  0.0968 -0.3531
 3810SOL    HW122109   8.262   1.204   4.210  0.7778  2.4218 -0.1193
 3810SOL    HW222110   8.354   1.091   4.135 -2.1513  0.2470 -0.5335
 3811SOL     OW22111   8.153   0.246   1.869  0.1746  0.0995 -0.0219
 3811SOL    HW122112   8.094   0.241   1.788 -1.0839  0.2265  0.8772
 3811SOL    HW222113   8.237   0.296   1.846 -1.0624  1.9118 -0.7149
 3812SOL     OW22114   7.832   0.422   2.462  0.1633  0.1367 -0.0033
 3812SOL    HW122115   7.786   0.347   2.415 -0.2134  0.2173  0.2312
 3812SOL    HW222116   7.920   0.390   2.498  0.5513  0.1403 -0.9510
 3813SOL     OW22117   8.633   4.092   1.160 -0.0306  0.7014  0.1009
 3813SOL    HW122118   8.595   4.076   1.069 -0.1800  2.2678 -0.1297
 3813SOL    HW222119   8.662   4.005   1.200  0.9135  0.1019 -1.8217
 3814SOL     OW22120   4.114   2.981   2.657  0.0891 -0.0161  0.0945
 3814SOL    HW122121   4.206   3.022   2.656 -0.6269  1.6070 -2.1611
 3814SOL    HW222122   4.070   2.996   2.569 -2.4622 -0.5578  1.2446
 3815SOL     OW22123   0.557   6.671   4.516 -0.5644  0.2019 -0.0570
 3815SOL    HW122124   0.469   6.689   4.471 -0.6912 -1.4586 -0.5026
 3815SOL    HW222125   0.540   6.631   4.607 -0.2750  0.6517  0.1956
 3816SOL     OW22126   5.020   0.040   1.183  0.4486  0.1328  0.6572
 3816SOL    HW122127   5.066  -0.044   1.213  0.2228 -0.0200  0.5811
 3816SOL    HW222128   4.947   0.017   1.119  0.8654  0.4518  0.0673
 3817SOL     OW22129   0.012   7.283   3.292 -0.2806  0.1837  0.4941
 3817SOL    HW122130   0.088   7.344   3.312 -2.1643  1.8587  2.8792
 3817SOL    HW222131  -0.051   7.328   3.228 -1.1865  0.3451  1.4992
 3818SOL     OW22132   2.518   5.322   1.816  0.5602 -0.2914 -0.0203
 3818SOL    HW122133   2.516   5.223   1.801  0.8110 -0.1756 -0.8657
 3818SOL    HW222134   2.481   5.343   1.906  0.2323 -1.1312  0.0460
 3819SOL     OW22135   2.228   0.869   0.661 -0.3013  0.2720  0.2638
 3819SOL    HW122136   2.246   0.894   0.756 -0.4151 -0.1433  0.3982
 3819SOL    HW222137   2.270   0.780   0.642  0.6026  0.8246 -0.3697
 3820SOL     OW22138   5.075   3.494   4.528  0.1742 -0.0020 -0.1071
 3820SOL    HW122139   5.068   3.416   4.590 -0.1827  1.4006  1.6709
 3820SOL    HW222140   5.104   3.574   4.580 -2.1316  1.6945 -1.3621
 3821SOL     OW22141   2.056   9.062   2.152  0.1089 -0.2888 -0.2428
 3821SOL    HW122142   2.037   8.993   2.223  1.5511 -0.7238 -0.2470
 3821SOL    HW222143   1.980   9.126   2.146  0.0159 -0.1441  1.8448
 3822SOL     OW22144   8.177   6.213   2.640 -0.0966  0.0226 -0.1518
 3822SOL    HW122145   8.161   6.160   2.723 -1.7271  1.5103  0.5390
 3822SOL    HW222146   8.253   6.276   2.655  0.0190 -0.1560  0.0079
 3823SOL     OW22147   2.007   4.713   2.631 -0.1855  0.0166  0.4671
 3823SOL    HW122148   2.084   4.766   2.596  0.1480 -0.0749  1.0699
 3823SOL    HW222149   2.033   4.667   2.716 -1.1665  0.6569  1.1252
 3824SOL     OW22150   6.351   7.601   2.305 -0.0314  0.4978  0.2688
 3824SOL    HW122151   6.442   7.623   2.269 -1.2685  1.8729 -2.1471
 3824SOL    HW222152   6.350   7.614   2.404  2.0721  1.6631  0.1635
 3825SOL     OW22153   2.804   3.731   2.355  0.2126 -0.1402  0.5214
 3825SOL    HW122154   2.805   3.661   2.284 -0.2440  0.5234 -0.1456
 3825SOL    HW222155   2.735   3.709   2.423 -1.0620  0.5072 -0.5507
 3826SOL     OW22156   9.354   1.897   3.554  0.0000 -0.6610 -0.7621
 3826SOL    HW122157   9.258   1.904   3.582 -0.0287 -0.0013 -1.0424
 3826SOL    HW222158   9.359   1.865   3.459  0.0744 -1.4231 -0.5058
 3827SOL     OW22159   1.403   5.466   0.709  0.0089 -0.0440 -0.0502
 3827SOL    HW122160   1.478   5.469   0.642  0.0133  1.5618  0.0046
 3827SOL    HW222161   1.389   5.372   0.739 -1.7514 -1.2867 -4.2968
 3828SOL     OW22162   9.306   9.241   1.118 -0.2754  0.2277  0.3834
 3828SOL    HW122163   9.239   9.274   1.052 -0.0928 -0.7107 -0.2730
 3828SOL    HW222164   9.295   9.143   1.132 -0.8841  0.5493  2.4158
 3829SOL     OW22165   9.538   7.379   2.195  0.6994 -0.1403  0.0598
 3829SOL    HW122166   9.467   7.448   2.204  1.7385  1.0010 -0.3039
 3829SOL    HW222167   9.616   7.404   2.253  1.5309 -0.3963 -0.9253
 3830SOL     OW22168   4.021   2.652   1.949 -0.6278  0.1413  0.1701
 3830SOL    HW122169   4.016   2.552   1.946 -3.5348  0.1387  2.3400
 3830SOL    HW222170   3.951   2.690   1.888  0.6343  0.8876 -0.8331
 3831SOL     OW22171   3.146   2.497   3.631 -0.2423  0.1143 -0.4302
 3831SOL    HW122172   3.156   2.578   3.689 -0.4427 -0.4988  0.4497
 3831SOL    HW222173   3.068   2.511   3.569 -1.0069  0.1132  0.5196
 3832SOL     OW22174   9.110   3.172   4.071 -0.3106  0.3510 -0.8492
 3832SOL    HW122175   9.173   3.228   4.125 -1.7925  3.0457 -1.7748
 3832SOL    HW222176   9.068   3.103   4.129  1.0877  0.6161  0.5106
 3833SOL     OW22177   4.245   0.774   0.585  0.4882 -0.2473  0.0866
 3833SOL    HW122178   4.153   0.750   0.617  0.3558  1.3721  0.9442
 3833SOL    HW222179   4.238   0.844   0.514  1.0206 -0.6317 -0.3443
 3834SOL     OW22180   8.505   1.056   3.275  0.1668  0.4630 -0.7863
 3834SOL    HW122181   8.489   1.093   3.367  1.0385 -1.9796  0.4056
 3834SOL    HW222182   8.501   1.130   3.208 -2.6010  1.9847  0.9508
 3835SOL     OW22183   9.065   8.440   4.305 -0.2359  0.3699  0.0144
 3835SOL    HW122184   9.150   8.473   4.346 -0.0457  0.6472 -0.6092
 3835SOL    HW222185   9.086   8.387   4.223 -0.5667 -0.8647  0.7125
 3836SOL     OW22186   8.446   6.370   3.613 -0.5414 -0.4776  0.3739
 3836SOL    HW122187   8.356   6.334   3.639  0.1139 -2.8171 -0.4833
 3836SOL    HW222188   8.449   6.383   3.514  0.7645 -2.5714  0.0978
 3837SOL     OW22189   5.598   0.053   3.524  0.2293  0.0565  0.1208
 3837SOL    HW122190   5.674   0.040   3.588 -0.1277 -0.1861  0.5050
 3837SOL    HW222191   5.629   0.037   3.431  1.0664  1.6335  0.1055
 3838SOL     OW22192   8.330   2.242   4.079 -0.7271 -0.5140  0.3114
 3838SOL    HW122193   8.418   2.208   4.112 -0.6002 -0.4349  0.0533
 3838SOL    HW222194   8.261   2.228   4.150 -0.7489 -1.5986  0.0855
 3839SOL     OW22195   1.724   7.993   2.938 -0.0263  0.1545  0.1050
 3839SOL    HW122196   1.813   8.027   2.970 -0.0063 -0.0080  0.2284
 3839SOL    HW222197   1.728   7.977   2.840 -0.7402  2.6686 -0.3542
 3840SOL     OW22198   7.867   9.394   3.907  0.0909  0.0685 -0.5154
 3840SOL    HW122199   7.957   9.373   3.945  0.6173 -0.0311 -1.8160
 3840SOL    HW222200   7.819   9.455   3.970  1.0701  0.1558  0.1698
 3841SOL     OW22201   8.646   8.645   1.710  0.3981 -0.1569  0.0920
 3841SOL    HW122202   8.695   8.562   1.683  1.6018  0.7778 -0.6620
 3841SOL    HW222203   8.696   8.692   1.782 -1.0462 -0.8409  1.5769
 3842SOL     OW22204   1.087   7.259   1.714 -0.0800 -0.2206  0.0285
 3842SOL    HW122205   1.073   7.249   1.615 -1.2792  0.4962  0.1190
 3842SOL    HW222206   1.060   7.351   1.742  0.1675 -0.4533  1.0477
 3843SOL     OW22207   4.441   3.141   0.799 -0.0011 -0.2289 -0.4829
 3843SOL    HW122208   4.492   3.226   0.815  1.0037 -1.2034  1.7601
 3843SOL    HW222209   4.362   3.138   0.860  1.0842 -1.7563  0.9166
 3844SOL     OW22210   0.548   1.505   2.157  0.8113  0.4781  0.7561
 3844SOL    HW122211   0.449   1.509   2.148  0.7289 -1.2713  0.7543
 3844SOL    HW222212   0.573   1.490   2.253  0.9293 -2.3216  0.3384
 3845SOL     OW22213   7.241   2.603   0.230 -0.6747  0.0504  0.1463
 3845SOL    HW122214   7.261   2.551   0.148 -1.8557 -1.4277  0.7680
 3845SOL    HW222215   7.248   2.701   0.210 -1.1835 -0.2838 -1.7648
 3846SOL     OW22216   4.365   9.635   2.530  0.8497  0.1390 -0.4068
 3846SOL    HW122217   4.394   9.588   2.613  0.8820 -0.4012 -0.7222
 3846SOL    HW222218   4.297   9.579   2.481 -1.2329  1.6749  0.6584
 3847SOL     OW22219   3.141   7.747   1.525  0.6401 -0.1033  0.2601
 3847SOL    HW122220   3.209   7.715   1.591  0.9303  1.1394  0.5771
 3847SOL    HW222221   3.141   7.687   1.446  0.6103 -1.3432  1.1936
 3848SOL     OW22222   1.173   8.995   4.023  0.0215 -0.6999  0.4184
 3848SOL    HW122223   1.210   8.916   4.072 -0.5168 -2.6279 -2.1280
 3848SOL    HW222224   1.228   9.011   3.941  0.6521  2.1775  1.3598
 3849SOL     OW22225   9.167   1.990   2.144  0.0228  0.3427  0.2707
 3849SOL    HW122226   9.189   2.087   2.154  2.0698 -0.1412  0.6342
 3849SOL    HW222227   9.096   1.965   2.209  0.8756  1.1662  1.5400
 3850SOL     OW22228   2.801   0.972   3.420 -0.1272 -0.3115 -0.2402
 3850SOL    HW122229   2.816   1.055   3.474 -2.0854  0.2597 -0.5423
 3850SOL    HW222230   2.826   0.892   3.474  1.0945  0.4235  0.3098
 3851SOL     OW22231   9.394   8.133   4.534 -0.5220  0.2274 -0.4228
 3851SOL    HW122232   9.435   8.045   4.510 -0.0715  0.2160  0.3678
 3851SOL    HW222233   9.399   8.195   4.456  0.9849  0.2275 -0.3384
 3852SOL     OW22234   0.498   5.573   4.648  0.2517 -0.4855  0.0217
 3852SOL    HW122235   0.597   5.578   4.636  0.1623  0.4612 -0.3804
 3852SOL    HW222236   0.453   5.629   4.577 -0.4543  1.7090  2.1470
 3853SOL     OW22237   9.018   3.780   2.285 -0.1507 -0.6170 -0.6752
 3853SOL    HW122238   9.111   3.811   2.304 -0.5388 -0.0323  0.2756
 3853SOL    HW222239   9.006   3.772   2.186  1.4172 -2.2783 -0.7448
 3854SOL     OW22240   7.524   9.103   4.297  0.1126  0.2413  0.0232
 3854SOL    HW122241   7.501   9.192   4.335  1.4256 -0.0313  1.4806
 3854SOL    HW222242   7.468   9.032   4.341 -0.5649  0.2740 -0.7712
 3855SOL     OW22243   3.866   9.701   1.575 -0.4550 -0.2427  0.1675
 3855SOL    HW122244   3.917   9.720   1.660  1.1966  0.2336 -0.9018
 3855SOL    HW222245   3.849   9.787   1.527  0.3879 -0.6801 -0.9527
 3856SOL     OW22246   9.207   3.934   1.675  0.0795 -0.2549  0.2243
 3856SOL    HW122247   9.128   3.900   1.624 -0.5899 -0.8107  1.5836
 3856SOL    HW222248   9.285   3.873   1.660 -0.1488 -0.4776 -0.0608
 3857SOL     OW22249   3.358   5.314   0.776  0.6835  0.4546 -0.7653
 3857SOL    HW122250   3.259   5.301   0.783  0.3955  1.6433 -2.2158
 3857SOL    HW222251   3.395   5.346   0.863 -0.4013  1.1468 -0.5618
 3858SOL     OW22252   1.217   4.256   2.477  0.1228  0.2968 -0.1088
 3858SOL    HW122253   1.283   4.181   2.482  0.1057  0.4341  3.7726
 3858SOL    HW222254   1.127   4.223   2.507 -0.9077  0.8604 -2.4542
 3859SOL     OW22255   0.288   1.121   0.556  0.1017 -0.0870 -0.0809
 3859SOL    HW122256   0.382   1.091   0.549 -0.1323 -1.2347  1.4459
 3859SOL    HW222257   0.234   1.053   0.605 -1.1837  1.2537  0.4327
 3860SOL     OW22258   9.617   6.447   4.359 -0.5806  0.6600  0.1518
 3860SOL    HW122259   9.683   6.443   4.434  0.7337 -0.7901 -1.0619
 3860SOL    HW222260   9.529   6.412   4.391 -0.0572  0.1471  1.0703
 3861SOL     OW22261   4.573   4.122   0.673 -0.0129 -0.5364 -0.8492
 3861SOL    HW122262   4.628   4.158   0.748 -1.2670  2.4640 -1.3012
 3861SOL    HW222263   4.633   4.075   0.608  1.5740 -0.0318  0.2148
 3862SOL     OW22264   1.468   3.160   2.004 -0.1127  0.1326  0.3650
 3862SOL    HW122265   1.423   3.075   1.976  2.3177 -1.4126  1.0777
 3862SOL    HW222266   1.412   3.205   2.074 -1.6244 -0.6361 -0.3098
 3863SOL     OW22267   2.383   8.020   2.750 -0.9472 -0.2549  0.1849
 3863SOL    HW122268   2.445   7.994   2.825  0.8391  0.5694 -0.9702
 3863SOL    HW222269   2.340   8.107   2.772 -0.7467 -0.2171  0.4402
 3864SOL     OW22270   9.018   0.993   2.881  0.2125 -0.5242  0.9820
 3864SOL    HW122271   9.060   0.948   2.803  0.1429 -0.4679  0.9122
 3864SOL    HW222272   9.071   1.073   2.906  1.6985 -1.9711  2.5988
 3865SOL     OW22273   6.531   0.003   1.286  0.2924 -0.3894  0.0674
 3865SOL    HW122274   6.601   0.074   1.281  0.5766 -0.7190 -0.8586
 3865SOL    HW222275   6.475   0.016   1.368  1.5442 -0.2299  0.9046
 3866SOL     OW22276   1.138   0.432   1.330  0.0783  0.0025 -0.1830
 3866SOL    HW122277   1.205   0.359   1.313  0.3277  0.4205 -1.0373
 3866SOL    HW222278   1.163   0.482   1.413  0.4907 -0.2307 -0.1631
 3867SOL     OW22279   9.414   0.483   0.295 -0.4258  0.7786  0.4054
 3867SOL    HW122280   9.513   0.496   0.306 -0.0837 -0.7872 -0.7420
 3867SOL    HW222281   9.369   0.499   0.383  1.1341 -1.0188  1.5678
 3868SOL     OW22282   3.163   8.266   4.109 -0.2234 -0.0502 -0.2291
 3868SOL    HW122283   3.195   8.295   4.018 -0.7850 -1.2894 -0.8347
 3868SOL    HW222284   3.165   8.344   4.171  1.5465  0.4808 -0.9168
 3869SOL     OW22285   6.306   0.370   3.501 -0.0301  0.3022  0.3945
 3869SOL    HW122286   6.267   0.290   3.547 -1.6670  1.1962  0.6005
 3869SOL    HW222287   6.241   0.446   3.506  0.7447  1.1073 -1.3603
 3870SOL     OW22288   7.954   7.528   1.425  0.4458  0.0145 -0.2445
 3870SOL    HW122289   7.990   7.468   1.497 -0.2310 -0.5517 -0.3723
 3870SOL    HW222290   7.860   7.501   1.403 -0.2645  1.8331  0.4893
 3871SOL     OW22291   4.759   0.447   2.526  0.5605  0.6661 -0.2665
 3871SOL    HW122292   4.729   0.352   2.517  1.0280  0.4786  0.0820
 3871SOL    HW222293   4.848   0.449   2.573 -1.4724  1.5080  3.7465
 3872SOL     OW22294   4.796   0.582   1.727  0.2634 -0.8199  0.7136
 3872SOL    HW122295   4.870   0.649   1.716 -0.5749 -0.0963 -0.7011
 3872SOL    HW222296   4.797   0.546   1.820  1.9488 -0.2783  0.9150
 3873SOL     OW22297   3.808   3.464   0.890  0.0860 -0.3821  0.0249
 3873SOL    HW122298   3.760   3.456   0.803  0.5083 -0.4630 -0.2041
 3873SOL    HW222299   3.875   3.538   0.885 -1.9483  1.5946  1.2653
 3874SOL     OW22300   9.604   9.105   1.455  0.3642 -0.4763  0.1271
 3874SOL    HW122301   9.655   9.112   1.540  0.2328 -1.4281  0.2870
 3874SOL    HW222302   9.569   9.012   1.444 -0.7942 -0.0109 -0.2848
 3875SOL     OW22303   2.648   3.545   3.031 -0.6389 -0.4724  0.0656
 3875SOL    HW122304   2.747   3.553   3.017 -0.2887 -3.3534  0.6323
 3875SOL    HW222305   2.602   3.612   2.973  1.6418  1.1331  0.0127
 3876SOL     OW22306   2.203   8.611   1.339  0.6764 -0.0778  0.4119
 3876SOL    HW122307   2.142   8.690   1.350 -0.6906 -1.4509  3.4844
 3876SOL    HW222308   2.148   8.527   1.335  2.2042 -1.0466 -0.7836
 3877SOL     OW22309   1.177   1.235   1.446 -0.2585  0.3525  0.3259
 3877SOL    HW122310   1.117   1.289   1.387 -2.5665 -0.5118  1.7907
 3877SOL    HW222311   1.218   1.160   1.394  1.1546  2.1066 -1.1600
 3878SOL     OW22312   7.937   9.705   2.306  0.4030 -0.7855  0.1002
 3878SOL    HW122313   7.976   9.781   2.358 -0.4550 -0.3345  0.0952
 3878SOL    HW222314   7.990   9.622   2.323  0.8255 -0.3800  0.7757
 3879SOL     OW22315   4.127   9.278   1.532  0.1566 -0.1980 -0.2702
 3879SOL    HW122316   4.120   9.364   1.582 -1.9828 -0.5990  0.1536
 3879SOL    HW222317   4.157   9.296   1.438 -1.1907  1.1036 -0.4670
 3880SOL     OW22318   4.825   6.388   1.742 -0.3973 -0.3005 -0.4534
 3880SOL    HW122319   4.844   6.414   1.647 -1.0459  1.2861 -0.1597
 3880SOL    HW222320   4.907   6.404   1.798 -1.1220  2.2354 -0.0613
 3881SOL     OW22321   9.627   6.168   1.927 -0.0349 -0.6160 -0.3826
 3881SOL    HW122322   9.587   6.078   1.945 -1.1398 -0.2451 -0.8995
 3881SOL    HW222323   9.571   6.216   1.859  1.7153 -0.3616 -1.6679
 3882SOL     OW22324   2.637   0.789   1.907 -0.7497 -0.0457  0.4163
 3882SOL    HW122325   2.703   0.758   1.838 -1.3835  0.6802 -0.5229
 3882SOL    HW222326   2.686   0.816   1.990 -0.0586 -1.9331  0.6475
 3883SOL     OW22327   4.885   8.746   1.836  0.1453  0.0430 -0.2578
 3883SOL    HW122328   4.895   8.648   1.852  0.0505  0.0498 -0.1542
 3883SOL    HW222329   4.791   8.774   1.851  0.7311  0.6560  2.4708
 3884SOL     OW22330   5.246   2.505   1.314 -0.8972 -0.2207  0.1774
 3884SOL    HW122331   5.332   2.556   1.312 -1.3276  0.4600 -1.8552
 3884SOL    HW222332   5.266   2.407   1.322  0.2226 -0.3397 -3.3072
 3885SOL     OW22333   2.811   8.627   2.377 -0.1723 -0.5371  0.0485
 3885SOL    HW122334   2.789   8.717   2.415  0.9448  0.3535 -1.3630
 3885SOL    HW222335   2.874   8.579   2.438 -1.0577 -0.5370  0.9862
 3886SOL     OW22336   7.871   1.445   4.120 -0.3905 -0.2123  0.3924
 3886SOL    HW122337   7.805   1.483   4.055  0.5436  1.0775  0.1704
 3886SOL    HW222338   7.824   1.385   4.184 -1.7752  0.6486  0.2069
 3887SOL     OW22339   0.917   3.948   2.494  0.3367  0.2326  0.3884
 3887SOL    HW122340   0.900   3.855   2.463 -0.8045  0.6513 -0.2758
 3887SOL    HW222341   0.887   3.958   2.588 -2.0989  0.6427 -0.3997
 3888SOL     OW22342   5.257   1.262   2.694  0.3911 -0.2730  0.1185
 3888SOL    HW122343   5.161   1.233   2.682 -0.5193  2.8669 -0.5840
 3888SOL    HW222344   5.303   1.261   2.605  0.3827  0.3519  0.1090
 3889SOL     OW22345   8.964   0.559   2.333  0.4481 -0.2944 -0.3903
 3889SOL    HW122346   8.877   0.537   2.377  1.6184 -2.4383  0.9438
 3889SOL    HW222347   9.038   0.550   2.399  1.8027  0.6647 -1.7369
 3890SOL     OW22348   4.657   8.362   0.284 -0.0763  0.1712 -0.2879
 3890SOL    HW122349   4.690   8.312   0.364 -1.5255  0.2645  0.3893
 3890SOL    HW222350   4.568   8.402   0.305 -0.2491  0.5903 -1.7960
 3891SOL     OW22351   5.139   7.878   3.463 -0.0229  0.0899  0.2350
 3891SOL    HW122352   5.136   7.865   3.562  1.4851  0.9140  0.3968
 3891SOL    HW222353   5.147   7.789   3.418  0.4937 -0.2095  0.9095
 3892SOL     OW22354   2.654   4.806   1.385  0.3915 -0.3377 -0.0200
 3892SOL    HW122355   2.582   4.737   1.393  0.7220 -0.7889 -0.8653
 3892SOL    HW222356   2.698   4.798   1.296 -0.4419  1.8397 -0.6509
 3893SOL     OW22357   4.323   8.515   3.838 -0.0140 -0.1354  0.2282
 3893SOL    HW122358   4.314   8.546   3.932 -1.4324  0.4254 -0.0785
 3893SOL    HW222359   4.415   8.478   3.823 -0.0613 -1.0278  2.0576
 3894SOL     OW22360   1.232   3.752   1.657 -0.0048  0.3092 -0.2388
 3894SOL    HW122361   1.327   3.761   1.628  0.2361  0.6904  0.6674
 3894SOL    HW222362   1.225   3.771   1.755 -0.7844 -1.0920 -0.0049
 3895SOL     OW22363   1.352   6.350   2.226  0.1481 -0.0826 -0.1145
 3895SOL    HW122364   1.417   6.275   2.229  1.0832  0.7014 -0.5556
 3895SOL    HW222365   1.298   6.344   2.142 -0.8010 -1.0994  0.5614
 3896SOL     OW22366   9.244   2.990   2.342 -0.4275 -0.1131  0.1603
 3896SOL    HW122367   9.292   2.994   2.254 -0.1396 -2.2218  0.1996
 3896SOL    HW222368   9.300   3.034   2.412 -0.2260  0.7312 -0.5126
 3897SOL     OW22369   8.406   0.324   1.825  0.3850 -0.3283  0.0036
 3897SOL    HW122370   8.479   0.314   1.892  2.4500 -1.9006 -2.4005
 3897SOL    HW222371   8.405   0.417   1.789  0.3828  0.0270  0.9023
 3898SOL     OW22372   7.172   9.446   2.333  0.4228 -0.4957 -0.1857
 3898SOL    HW122373   7.094   9.416   2.387  1.2078  0.7215  1.6696
 3898SOL    HW222374   7.211   9.367   2.285 -1.0899 -1.3545 -0.0321
 3899SOL     OW22375   2.993   1.533   1.066  0.2429  0.3482  0.4615
 3899SOL    HW122376   3.053   1.540   0.987  0.0373 -1.0876  0.1791
 3899SOL    HW222377   2.899   1.550   1.038 -0.1349 -2.4186 -0.0514
 3900SOL     OW22378   8.106   1.371   3.216  0.1251  0.1576  0.1036
 3900SOL    HW122379   8.074   1.410   3.303  0.3781  0.0048  0.2662
 3900SOL    HW222380   8.167   1.436   3.171 -0.0473  0.2582  0.0162
 3901SOL     OW22381   3.826   8.478   4.494 -0.5853  0.3141 -0.1757
 3901SOL    HW122382   3.858   8.483   4.588 -0.4028  1.1608 -0.2824
 3901SOL    HW222383   3.768   8.557   4.474  0.8825  1.1421 -1.3276
 3902SOL     OW22384   9.891   2.344   0.250 -0.6954 -0.6513  0.2504
 3902SOL    HW122385   9.928   2.401   0.323 -1.7479 -1.1461  1.1960
 3902SOL    HW222386   9.954   2.269   0.230  0.1364  0.1464 -0.1699
 3903SOL     OW22387   3.005   7.909   0.260  0.2167  0.4570  0.1637
 3903SOL    HW122388   3.101   7.930   0.278 -0.4841  2.9804  1.1954
 3903SOL    HW222389   2.965   7.982   0.205 -1.3493 -0.0740  0.5671
 3904SOL     OW22390   1.398   1.703   4.217 -0.7152  0.0875 -0.0367
 3904SOL    HW122391   1.416   1.774   4.150  0.2992 -0.6107 -0.5289
 3904SOL    HW222392   1.339   1.633   4.177 -1.1406  0.2989  0.2169
 3905SOL     OW22393   0.111   3.113   3.527  0.1790 -0.5161  0.1825
 3905SOL    HW122394   0.178   3.169   3.573  0.9195 -1.6050  0.4491
 3905SOL    HW222395   0.019   3.139   3.557  0.5286  0.3432  0.5151
 3906SOL     OW22396   8.578   7.765   4.059  0.5644 -0.2761  0.3671
 3906SOL    HW122397   8.615   7.744   3.968  0.3522 -0.9584  0.4328
 3906SOL    HW222398   8.550   7.680   4.103 -0.2766  0.1568  0.6646
 3907SOL     OW22399   2.485   4.258   1.690 -0.0309 -0.0608 -0.2667
 3907SOL    HW122400   2.538   4.239   1.772 -1.5731  0.6542  0.9323
 3907SOL    HW222401   2.389   4.236   1.706 -0.4056  0.3819 -1.7704
 3908SOL     OW22402   2.187   6.428   1.758 -0.2711 -0.6027 -0.6249
 3908SOL    HW122403   2.135   6.409   1.674 -0.1736  0.2553 -0.8832
 3908SOL    HW222404   2.280   6.392   1.749  0.3256  1.1678 -1.6363
 3909SOL     OW22405   1.202   8.169   0.676  0.0883  0.1998 -0.6521
 3909SOL    HW122406   1.227   8.111   0.599  0.2802  1.2864 -1.4225
 3909SOL    HW222407   1.123   8.130   0.724  0.8771 -1.2470 -0.5067
 3910SOL     OW22408   9.689   7.161   3.082 -0.3532 -0.8586 -0.4377
 3910SOL    HW122409   9.741   7.242   3.109 -0.6331 -0.9020  0.2423
 3910SOL    HW222410   9.750   7.082   3.079 -0.7208 -1.2954  2.2425
 3911SOL     OW22411   4.400   0.178   4.225 -0.1920  0.3137  0.1816
 3911SOL    HW122412   4.420   0.252   4.289 -0.4268 -1.2988  2.1907
 3911SOL    HW222413   4.302   0.177   4.205 -0.1144  0.8420 -0.2242
 3912SOL     OW22414   3.761   2.113   0.815  0.1328 -0.2551 -0.2265
 3912SOL    HW122415   3.689   2.047   0.794  0.1628 -0.5171  0.4533
 3912SOL    HW222416   3.766   2.126   0.914 -0.2264  1.1900 -0.3943
 3913SOL     OW22417   0.433   3.872   2.752  0.7045  0.3183 -0.2764
 3913SOL    HW122418   0.341   3.833   2.746  1.1032 -0.3658 -2.3413
 3913SOL    HW222419   0.440   3.929   2.834 -0.4143 -2.5997  1.9446
 3914SOL     OW22420   8.150   0.758   0.340 -0.4659 -0.0323 -0.2106
 3914SOL    HW122421   8.115   0.680   0.288  0.2983 -0.2108 -0.4699
 3914SOL    HW222422   8.126   0.843   0.292 -1.2589 -0.1085  0.0491
 3915SOL     OW22423   6.518   9.872   3.303  0.3562  0.1675 -0.2502
 3915SOL    HW122424   6.542   9.775   3.310  2.0352  0.5463 -0.5687
 3915SOL    HW222425   6.472   9.889   3.217  1.0054 -0.1610 -0.6644
 3916SOL     OW22426   2.937   8.141   0.128 -0.0444 -0.3853 -0.3171
 3916SOL    HW122427   2.990   8.216   0.088  0.9269 -1.3080 -0.7653
 3916SOL    HW222428   2.861   8.179   0.180  1.4401  0.9651  0.9101
 3917SOL     OW22429   4.641   8.824   4.366  0.4214  0.1647  0.2257
 3917SOL    HW122430   4.601   8.904   4.323  1.2017  0.5777  0.2563
 3917SOL    HW222431   4.673   8.847   4.457 -0.4990 -0.5074  0.7316
 3918SOL     OW22432   7.602   9.989   0.847  0.4805 -0.2118 -0.0911
 3918SOL    HW122433   7.654   9.979   0.932 -0.1302  2.2209  0.6213
 3918SOL    HW222434   7.644  10.061   0.791 -0.2885 -0.4003 -0.9210
 3919SOL     OW22435   0.473   7.278   4.625 -0.0229 -0.6468  0.5965
 3919SOL    HW122436   0.458   7.312   4.718  0.7460 -1.5137  1.0434
 3919SOL    HW222437   0.524   7.192   4.629  1.3518  0.0894 -0.7005
 3920SOL     OW22438   0.575   3.142   3.429  0.2379  0.1784 -0.2908
 3920SOL    HW122439   0.574   3.189   3.518  0.5926 -0.2245 -0.0750
 3920SOL    HW222440   0.531   3.201   3.361 -1.5593 -0.2141  0.4953
 3921SOL     OW22441   1.059   7.557   2.173 -0.0954  0.3984 -0.0341
 3921SOL    HW122442   0.976   7.502   2.183  0.1855 -0.2921 -1.3487
 3921SOL    HW222443   1.036   7.654   2.183 -1.0460  0.2065 -0.2754
 3922SOL     OW22444   9.899   6.986   3.551 -0.1106 -0.4681 -0.0883
 3922SOL    HW122445   9.799   6.978   3.547 -0.3310  2.1233 -0.3681
 3922SOL    HW222446   9.938   6.952   3.465 -0.7280 -1.4178 -0.0079
 3923SOL     OW22447   1.345   0.518   2.533  0.3674 -0.1079  0.4869
 3923SOL    HW122448   1.336   0.454   2.457  1.2832  1.5030 -1.0186
 3923SOL    HW222449   1.441   0.526   2.559  0.5429  2.0667 -0.6491
 3924SOL     OW22450   9.388   6.614   4.409  0.1827 -0.1182  0.0956
 3924SOL    HW122451   9.428   6.644   4.496  1.1411 -1.7954  0.2499
 3924SOL    HW222452   9.449   6.640   4.334 -0.8022  1.6199 -0.1176
 3925SOL     OW22453   0.538   1.292   4.669 -0.0450 -0.9495  0.5226
 3925SOL    HW122454   0.536   1.205   4.619  0.1136 -2.5614  3.2257
 3925SOL    HW222455   0.492   1.281   4.757  0.5604  1.5390  1.1837
 3926SOL     OW22456   0.799   4.784   2.132  0.1104  0.1719  0.2936
 3926SOL    HW122457   0.791   4.884   2.129 -2.6019 -0.0193  0.1284
 3926SOL    HW222458   0.862   4.754   2.060 -0.8460  1.6217 -1.1934
 3927SOL     OW22459   9.087   8.977   4.094  0.2979 -0.0139 -0.4729
 3927SOL    HW122460   9.003   8.928   4.072  0.1036  0.5643 -1.0313
 3927SOL    HW222461   9.073   9.030   4.178 -0.0375  0.4195 -0.7979
 3928SOL     OW22462   0.283   2.128   0.617 -0.4111 -0.2087  0.2089
 3928SOL    HW122463   0.353   2.129   0.688 -1.5715 -2.1151  1.3874
 3928SOL    HW222464   0.322   2.091   0.532  0.6225  0.9020  0.1846
 3929SOL     OW22465   0.571   8.109   4.335 -0.0135 -0.0183 -0.2245
 3929SOL    HW122466   0.513   8.033   4.366  1.5960 -2.0084 -1.9032
 3929SOL    HW222467   0.552   8.190   4.390 -2.3727 -1.4005  1.0885
 3930SOL     OW22468   3.021   9.672   3.401 -0.5329  0.3011  0.1938
 3930SOL    HW122469   3.054   9.762   3.429 -0.9392  0.5173 -0.0034
 3930SOL    HW222470   3.082   9.634   3.332  0.7760 -0.4746  1.7714
 3931SOL     OW22471   4.850   0.165   4.329 -0.4478 -0.1111 -0.0242
 3931SOL    HW122472   4.815   0.073   4.310 -0.2990  0.1210 -1.5613
 3931SOL    HW222473   4.844   0.184   4.427 -1.4794 -1.3485  0.1702
 3932SOL     OW22474   0.028   6.351   1.330  0.7303 -0.0414  0.0975
 3932SOL    HW122475   0.019   6.265   1.380  0.6344  0.0888  0.3060
 3932SOL    HW222476  -0.055   6.366   1.276 -0.3483  1.1745  2.0498
 3933SOL     OW22477   4.827   7.904   0.351 -0.0767 -0.4547 -0.7902
 3933SOL    HW122478   4.729   7.920   0.360  0.2541  2.6147 -1.9419
 3933SOL    HW222479   4.845   7.857   0.265 -0.4674 -0.4417 -0.8806
 3934SOL     OW22480   3.781   7.747   0.243  0.4328 -0.2942 -0.3670
 3934SOL    HW122481   3.858   7.684   0.249  1.0089  0.3427 -1.0119
 3934SOL    HW222482   3.731   7.747   0.330  0.8737 -1.0628 -0.1094
 3935SOL     OW22483   5.783   7.038   2.779  0.7035  0.4122 -0.2228
 3935SOL    HW122484   5.784   7.136   2.761  1.1388  0.9850  2.6153
 3935SOL    HW222485   5.872   6.999   2.756  1.1301  1.0486  0.3056
 3936SOL     OW22486   3.150   5.964   2.123 -0.1537 -0.0856 -0.1418
 3936SOL    HW122487   3.167   5.951   2.025 -0.4203 -0.3019 -0.1600
 3936SOL    HW222488   3.078   6.032   2.135 -1.6590 -1.6517 -0.1581
 3937SOL     OW22489   1.798   4.634   1.204 -0.2274 -0.1022  0.0153
 3937SOL    HW122490   1.735   4.582   1.146  0.4206  0.3399 -1.1073
 3937SOL    HW222491   1.752   4.660   1.289 -2.4564  2.5560 -1.9318
 3938SOL     OW22492   2.016   1.325   3.084 -0.6539 -0.3852 -0.1403
 3938SOL    HW122493   1.979   1.245   3.129  3.2859 -2.3291 -0.1231
 3938SOL    HW222494   2.003   1.317   2.985  0.4606 -1.4790 -0.2091
 3939SOL     OW22495   4.008   0.516   3.099  0.5051  0.1213 -0.4627
 3939SOL    HW122496   3.953   0.539   3.179  0.3421 -2.4096  0.2127
 3939SOL    HW222497   3.988   0.580   3.025  1.4396  3.1818  1.8207
 3940SOL     OW22498   0.363   0.176   1.219  0.1240  0.1754  0.0028
 3940SOL    HW122499   0.432   0.107   1.242 -1.2847 -0.6576  1.9984
 3940SOL    HW222500   0.358   0.244   1.293 -0.8913  0.4388 -0.2947
 3941SOL     OW22501   4.927   0.044   1.490  0.2569 -0.5211  0.2582
 3941SOL    HW122502   4.995   0.077   1.425  0.1413  1.1533  0.9492
 3941SOL    HW222503   4.966  -0.027   1.548  1.7173  1.0411  1.2358
 3942SOL     OW22504   9.359   2.708   0.865 -0.0357 -0.0776  0.2491
 3942SOL    HW122505   9.458   2.712   0.875  0.1653 -0.4224 -1.4451
 3942SOL    HW222506   9.324   2.624   0.907  0.3964 -0.0293  0.7092
 3943SOL     OW22507   9.210   7.073   1.743  0.1825  0.4628 -0.2680
 3943SOL    HW122508   9.201   7.083   1.644  1.0368 -1.2058 -0.5261
 3943SOL    HW222509   9.279   7.138   1.777  1.3431 -0.3487 -1.0566
 3944SOL     OW22510   1.372   3.327   2.871  0.2375  0.5169  0.6588
 3944SOL    HW122511   1.294   3.293   2.923  0.8968  0.3110  1.5236
 3944SOL    HW222512   1.341   3.362   2.783 -0.8096  0.3084  0.9437
 3945SOL     OW22513   3.054   0.059   0.184  0.0660  0.0443  0.6434
 3945SOL    HW122514   3.146   0.074   0.221  0.6516 -2.0001  0.0991
 3945SOL    HW222515   3.043   0.111   0.099  0.6035  0.5257  0.8668
 3946SOL     OW22516   0.065   4.614   3.160 -0.2360  0.0927  0.2690
 3946SOL    HW122517   0.021   4.702   3.139 -0.9591 -0.1427  0.7534
 3946SOL    HW222518   0.093   4.570   3.076  1.9741  1.7166  0.1274
 3947SOL     OW22519   4.083   9.148   4.146 -0.3059 -0.3718  0.3603
 3947SOL    HW122520   3.985   9.132   4.134 -0.1523 -1.0162 -0.0651
 3947SOL    HW222521   4.115   9.098   4.227  0.2911 -2.7681 -1.3011
 3948SOL     OW22522   3.412   8.196   3.130 -0.1095  0.0368  0.2154
 3948SOL    HW122523   3.435   8.285   3.091  0.6201  0.4454  1.5318
 3948SOL    HW222524   3.489   8.162   3.184 -0.5822 -1.1500  0.1604
 3949SOL     OW22525   9.120   9.465   1.441 -0.2763 -0.1610 -0.2449
 3949SOL    HW122526   9.157   9.379   1.476  0.0797 -0.1377 -0.5678
 3949SOL    HW222527   9.083   9.451   1.349 -2.4171 -0.5363  0.6410
 3950SOL     OW22528   0.584   5.249   4.610  0.1466 -0.1706 -0.0195
 3950SOL    HW122529   0.553   5.178   4.547  2.1740 -0.6521 -0.5365
 3950SOL    HW222530   0.680   5.271   4.590 -0.3862  2.5784  0.2668
 3951SOL     OW22531   9.637   1.493   0.005  0.1155 -0.2332  0.2951
 3951SOL    HW122532   9.653   1.506  -0.093  0.3998 -1.6474  0.1430
 3951SOL    HW222533   9.539   1.501   0.024 -0.1880 -1.9542 -0.4370
 3952SOL     OW22534   0.256   7.283   2.634 -0.0244  0.1663 -0.4589
 3952SOL    HW122535   0.334   7.304   2.693  0.2119  0.7289 -0.9717
 3952SOL    HW222536   0.261   7.188   2.605  0.1656  0.0448 -0.0297
 3953SOL     OW22537   0.842   7.206   4.589 -0.5490  0.1832 -0.0878
 3953SOL    HW122538   0.876   7.129   4.536  0.9896 -0.0184  1.1686
 3953SOL    HW222539   0.799   7.173   4.674  0.3759  0.7137  0.5948
 3954SOL     OW22540   2.139   7.900   1.771  0.1683  0.0622  1.0697
 3954SOL    HW122541   2.184   7.921   1.684 -1.0723  1.0906  0.6493
 3954SOL    HW222542   2.075   7.823   1.757  1.8721 -1.4933  1.6989
 3955SOL     OW22543   9.737   6.279   3.513 -0.5445 -0.7538 -0.4172
 3955SOL    HW122544   9.775   6.202   3.462  0.6413 -1.0955  0.9497
 3955SOL    HW222545   9.766   6.365   3.471  1.0858 -1.0213  0.1296
 3956SOL     OW22546   0.531   6.834   0.202 -0.2345  0.4868  0.1361
 3956SOL    HW122547   0.579   6.754   0.168 -1.2623 -0.3167  0.5673
 3956SOL    HW222548   0.435   6.812   0.217 -0.0397  1.1068  2.5848
 3957SOL     OW22549   8.882   4.566   3.072 -0.7297 -0.0156  1.0016
 3957SOL    HW122550   8.831   4.534   3.151 -0.2672 -0.6978  1.0314
 3957SOL    HW222551   8.974   4.592   3.100 -0.8154  0.4793  0.8232
 3958SOL     OW22552   4.564   8.346   4.677 -0.4359 -0.1053  0.2844
 3958SOL    HW122553   4.476   8.360   4.721  0.2021  3.7791  0.4792
 3958SOL    HW222554   4.637   8.374   4.739  0.7711 -0.1560 -1.0848
 3959SOL     OW22555   3.262   4.425   0.260  0.2177  0.0674  0.0823
 3959SOL    HW122556   3.357   4.391   0.260 -0.1294 -0.9091  0.6983
 3959SOL    HW222557   3.200   4.351   0.284 -0.9108  0.1725 -2.4478
 3960SOL     OW22558   4.360   0.566   3.485  0.6048  0.2705  0.2703
 3960SOL    HW122559   4.265   0.584   3.458  0.0718 -1.2117  1.1413
 3960SOL    HW222560   4.362   0.529   3.578  1.8400 -2.0737 -0.6478
 3961SOL     OW22561   4.779   8.480   3.276  0.3786  0.2619  0.2951
 3961SOL    HW122562   4.699   8.422   3.259 -0.4072  1.2831  0.4037
 3961SOL    HW222563   4.859   8.423   3.291 -0.8817 -0.8800  3.0129
 3962SOL     OW22564   1.224   3.892   3.141 -0.0472 -0.1977  0.3394
 3962SOL    HW122565   1.261   3.803   3.166 -0.5778 -0.1962  1.1440
 3962SOL    HW222566   1.276   3.964   3.187 -1.1731 -0.2066  1.6596
 3963SOL     OW22567   3.658   3.051   2.198  0.0398 -0.1004 -0.2636
 3963SOL    HW122568   3.711   3.022   2.277  0.7850  0.6037 -0.5026
 3963SOL    HW222569   3.561   3.051   2.222  0.3071  0.7389  0.8635
 3964SOL     OW22570   0.066   5.576   2.065  0.1235 -0.3226  0.3933
 3964SOL    HW122571   0.154   5.542   2.098  0.3357 -1.1654 -0.9955
 3964SOL    HW222572   0.081   5.636   1.987 -0.5370 -0.4870  0.1410
 3965SOL     OW22573   2.082   4.961   2.955  0.2640  0.3867  0.2641
 3965SOL    HW122574   2.112   4.970   2.860 -3.2342 -0.3221 -0.9914
 3965SOL    HW222575   2.071   4.864   2.977 -2.9158  0.6567  0.0175
 3966SOL     OW22576   8.350   4.682   0.138 -0.4890  0.6742  0.1673
 3966SOL    HW122577   8.286   4.724   0.203  0.4483  0.7896  1.0228
 3966SOL    HW222578   8.429   4.647   0.187  0.0753  0.4677 -0.8829
 3967SOL     OW22579   9.459   9.084   0.918 -0.6411  0.3647 -0.4697
 3967SOL    HW122580   9.430   9.169   0.962  2.0073  1.1276 -0.1077
 3967SOL    HW222581   9.469   9.099   0.820 -0.6433  0.3431 -0.4732
 3968SOL     OW22582   1.002   1.357   0.941  0.8342 -0.4514  0.3238
 3968SOL    HW122583   1.034   1.288   0.875  0.9877 -0.0088 -0.0662
 3968SOL    HW222584   1.008   1.448   0.900  0.6211 -0.2038  0.8361
 3969SOL     OW22585   3.952   0.232   2.237 -0.1523  0.6448  0.2670
 3969SOL    HW122586   3.894   0.182   2.174  0.1344 -0.1807  0.6580
 3969SOL    HW222587   3.913   0.229   2.329 -0.2564  1.3386  0.2545
 3970SOL     OW22588   3.087   9.969   0.842 -0.0655  0.2893  0.3548
 3970SOL    HW122589   3.006   9.911   0.839  0.7104 -0.8199  0.6826
 3970SOL    HW222590   3.065  10.054   0.890 -0.7001 -0.5485  1.5658
 3971SOL     OW22591   3.557   0.506   1.435  0.5803 -0.0180  0.1274
 3971SOL    HW122592   3.646   0.549   1.421 -0.7249  2.9983  0.4763
 3971SOL    HW222593   3.561   0.447   1.516  1.9699  1.0225  0.8537
 3972SOL     OW22594   1.906   5.154   1.873  0.1584 -0.1900 -0.4609
 3972SOL    HW122595   1.824   5.098   1.886 -0.2124  0.4407 -0.0841
 3972SOL    HW222596   1.984   5.109   1.917 -0.4158  0.2692  1.0537
 3973SOL     OW22597   6.269   1.112   2.081 -0.2026  0.2452  0.4562
 3973SOL    HW122598   6.367   1.109   2.064 -0.3439  0.3523 -0.3769
 3973SOL    HW222599   6.253   1.112   2.180  0.5982 -1.0462  0.6037
 3974SOL     OW22600   3.842   1.860   1.013  0.4642  0.0420 -0.5518
 3974SOL    HW122601   3.810   1.777   1.058  0.9756  0.6833  1.0003
 3974SOL    HW222602   3.797   1.868   0.924 -1.4606 -0.6014  0.3401
 3975SOL     OW22603   7.071   8.534   1.984  0.3453 -0.2072  0.4311
 3975SOL    HW122604   7.139   8.496   2.047 -0.0641  2.6637  2.7019
 3975SOL    HW222605   7.017   8.460   1.944  1.0305 -2.1326  2.9939
 3976SOL     OW22606   9.985   8.138   3.616  0.4500  0.3740  0.2329
 3976SOL    HW122607   9.943   8.198   3.684 -0.9223 -1.1783  0.7563
 3976SOL    HW222608  10.070   8.100   3.653  0.1641  0.2250  0.7248
 3977SOL     OW22609   7.935   9.592   3.572 -0.4608 -0.5435  0.1209
 3977SOL    HW122610   7.939   9.493   3.585  1.8863 -0.8330 -2.4592
 3977SOL    HW222611   8.025   9.631   3.587 -1.0375  1.0170 -0.4484
 3978SOL     OW22612   3.103   5.029   1.116  0.2673  0.0832  0.2191
 3978SOL    HW122613   3.075   5.102   1.178  1.1464 -0.0262  0.7461
 3978SOL    HW222614   3.108   4.943   1.165 -1.0614 -0.4058 -0.4677
 3979SOL     OW22615   5.774   6.608   3.227  0.3990  0.0988  0.1259
 3979SOL    HW122616   5.765   6.673   3.151  0.5872 -1.0776 -0.9023
 3979SOL    HW222617   5.690   6.555   3.236 -0.6258  2.0076  2.4158
 3980SOL     OW22618   7.141   2.877   4.082  0.3096  0.3699 -0.2519
 3980SOL    HW122619   7.102   2.892   4.173  0.8140  2.0155 -0.2875
 3980SOL    HW222620   7.067   2.874   4.015 -0.0896 -1.1789  0.2366
 3981SOL     OW22621   2.360   0.585   0.310 -0.2732  0.2537  0.4345
 3981SOL    HW122622   2.343   0.623   0.401 -1.0423 -0.1427  0.4590
 3981SOL    HW222623   2.276   0.589   0.256  0.2509  0.7448 -0.3561
 3982SOL     OW22624   4.143   2.589   3.176 -0.2868 -0.3224 -0.1116
 3982SOL    HW122625   4.179   2.496   3.171 -0.6447 -0.5152  0.6525
 3982SOL    HW222626   4.197   2.650   3.120  1.0991 -0.6403  0.8590
 3983SOL     OW22627   1.592   8.872   2.581  0.0846 -1.2825  0.0128
 3983SOL    HW122628   1.566   8.966   2.562  0.8762 -0.6856  1.7766
 3983SOL    HW222629   1.516   8.824   2.624  0.3272 -0.8959  0.8698
 3984SOL     OW22630   1.797   9.767   0.460 -0.0602 -0.5705 -0.1951
 3984SOL    HW122631   1.756   9.855   0.485  0.4586 -0.9066  1.8767
 3984SOL    HW222632   1.753   9.694   0.510  1.7615 -1.1403  0.6137
 3985SOL     OW22633   1.778   7.970   1.176 -0.2509  0.1397 -0.4330
 3985SOL    HW122634   1.705   8.011   1.231 -1.3366  0.5281 -2.1447
 3985SOL    HW222635   1.739   7.916   1.102  1.1978 -2.6049  0.7256
 3986SOL     OW22636   8.428   3.823   2.370  0.0851 -0.0012  0.4937
 3986SOL    HW122637   8.426   3.919   2.398 -1.9835  0.1682 -0.1534
 3986SOL    HW222638   8.460   3.767   2.446  0.3841  1.0927  1.1928
 3987SOL     OW22639   6.752   8.406   3.088  0.0263 -0.1977 -0.1735
 3987SOL    HW122640   6.831   8.466   3.075 -0.2302  0.5640  1.6180
 3987SOL    HW222641   6.718   8.376   2.999  1.6155  0.3979 -1.0049
 3988SOL     OW22642   2.193   0.705   1.403 -0.1747 -0.6024  0.5965
 3988SOL    HW122643   2.121   0.684   1.337 -0.6287  0.2302  0.8231
 3988SOL    HW222644   2.227   0.620   1.443 -0.6879 -1.0319  0.1284
 3989SOL     OW22645   3.030   3.114   0.041  0.6614 -0.7682 -0.1934
 3989SOL    HW122646   2.947   3.070   0.076 -0.4257  1.0232 -0.4723
 3989SOL    HW222647   3.082   3.048  -0.013 -0.3137 -2.0573  0.4128
 3990SOL     OW22648   4.811   1.739   0.839 -0.6079  0.1570  0.1132
 3990SOL    HW122649   4.797   1.734   0.938 -0.9911 -1.0491  0.0054
 3990SOL    HW222650   4.847   1.829   0.815 -1.1818  0.7088  1.2700
 3991SOL     OW22651   0.696   4.855   4.625 -0.0357 -0.1175  0.1929
 3991SOL    HW122652   0.641   4.795   4.683  0.3770  0.8209  1.5804
 3991SOL    HW222653   0.647   4.872   4.540  0.0055 -2.7216 -0.4034
 3992SOL     OW22654   6.056   0.826   2.646  0.0683  0.2691 -0.5215
 3992SOL    HW122655   6.097   0.914   2.669  1.3422 -0.6141  0.6362
 3992SOL    HW222656   6.112   0.780   2.577  0.6401 -0.6463  0.5611
 3993SOL     OW22657   8.639   4.628   3.638  0.5658  0.3979 -0.5359
 3993SOL    HW122658   8.557   4.573   3.626  2.0742 -1.6306 -2.0465
 3993SOL    HW222659   8.709   4.574   3.685  2.1737  0.8856 -2.2953
 3994SOL     OW22660   3.402   3.031   1.983  0.6530 -0.6443  0.0205
 3994SOL    HW122661   3.425   3.025   2.080 -0.2054 -0.1556  0.2532
 3994SOL    HW222662   3.481   3.068   1.933  0.7925 -0.0757  0.6540
 3995SOL     OW22663   1.084   2.516   2.715 -0.3025  0.7235  0.2781
 3995SOL    HW122664   1.174   2.475   2.704 -1.2591 -0.7987 -2.2550
 3995SOL    HW222665   1.013   2.445   2.712 -1.7357  2.1207  0.0792
 3996SOL     OW22666   0.778   3.885   3.624 -0.4355 -0.6176 -0.2097
 3996SOL    HW122667   0.840   3.887   3.546 -1.2475 -0.8471 -0.8628
 3996SOL    HW222668   0.774   3.976   3.667 -0.6300 -0.2835 -0.9363
 3997SOL     OW22669   2.024   8.815   2.329 -0.1614  0.1933 -0.9314
 3997SOL    HW122670   2.069   8.768   2.254  0.9778  1.2185 -0.9105
 3997SOL    HW222671   2.093   8.848   2.394 -0.8988  2.0019 -1.0195
 3998SOL     OW22672   1.781   7.033   3.038  0.2011  0.1721 -0.4535
 3998SOL    HW122673   1.742   7.034   2.946  0.2616 -4.3639 -0.6284
 3998SOL    HW222674   1.817   6.942   3.058 -0.0606  0.9857  4.1755
 3999SOL     OW22675   8.481   0.765   1.411 -0.7815 -0.3804 -0.1977
 3999SOL    HW122676   8.477   0.773   1.312 -1.2313  2.5857  0.0112
 3999SOL    HW222677   8.393   0.736   1.447 -2.0601  3.0478 -0.3733
 4000SOL     OW22678   9.237   6.540   0.573  0.1966  0.5476 -0.1856
 4000SOL    HW122679   9.318   6.599   0.583 -0.5391  1.6871 -0.8110
 4000SOL    HW222680   9.240   6.468   0.643  2.0334  0.2222 -0.5591
 4001SOL     OW22681   9.568   9.614   2.824 -0.4086 -0.4274 -0.0239
 4001SOL    HW122682   9.556   9.515   2.836 -0.6926 -0.2796  0.9490
 4001SOL    HW222683   9.621   9.650   2.900  0.7629 -0.0264 -1.0208
 4002SOL     OW22684   8.740   0.468   0.605 -0.6491  0.1087  0.5370
 4002SOL    HW122685   8.719   0.374   0.581  0.4635  0.1798 -0.7950
 4002SOL    HW222686   8.655   0.518   0.622 -1.2806 -0.9061  0.3862
 4003SOL     OW22687   3.787   3.005   3.508 -0.3608  0.0117 -0.2459
 4003SOL    HW122688   3.771   3.104   3.510  2.0186  0.4030  0.5576
 4003SOL    HW222689   3.780   2.973   3.413 -1.6413  0.8336 -0.4524
 4004SOL     OW22690   8.619   6.231   0.963 -0.5839 -1.2168 -0.1924
 4004SOL    HW122691   8.620   6.298   0.889  1.3533 -1.0541 -0.0505
 4004SOL    HW222692   8.592   6.142   0.926 -2.2072 -0.5818 -0.5662
 4005SOL     OW22693   9.192   1.296   2.698 -0.1368  0.2584  0.3821
 4005SOL    HW122694   9.208   1.292   2.797 -1.0972 -0.3744  0.5232
 4005SOL    HW222695   9.279   1.301   2.650  0.3434  0.3993  1.2538
 4006SOL     OW22696   0.607   3.167   0.089  0.4019 -0.0769 -0.4707
 4006SOL    HW122697   0.615   3.134   0.183 -0.8113  0.3716 -0.1957
 4006SOL    HW222698   0.572   3.260   0.089  1.5632  0.3714 -1.3346
 4007SOL     OW22699   0.611   7.821   1.301 -0.3062  0.1986 -0.0107
 4007SOL    HW122700   0.550   7.900   1.299 -0.6243 -0.0161  0.9834
 4007SOL    HW222701   0.633   7.794   1.208 -2.3022 -0.1587 -0.4100
 4008SOL     OW22702   9.129   4.885   2.433 -0.3018 -0.1009  0.7480
 4008SOL    HW122703   9.198   4.869   2.363  0.0123 -0.6205  1.1746
 4008SOL    HW222704   9.095   4.978   2.426 -1.3123 -0.5942 -1.0234
 4009SOL     OW22705   0.138   6.230   2.893  0.3151 -0.1659 -0.5574
 4009SOL    HW122706   0.216   6.195   2.944  0.0556 -0.9211 -0.6685
 4009SOL    HW222707   0.101   6.157   2.835 -1.9266 -0.5308  1.2527
 4010SOL     OW22708   2.764   8.020   4.687 -0.1454  0.0809 -0.4852
 4010SOL    HW122709   2.796   8.063   4.603 -1.1890  0.1111 -0.8752
 4010SOL    HW222710   2.823   8.049   4.763  0.7015  0.1782 -1.1691
 4011SOL     OW22711   9.793   3.817   4.125  0.1725  0.3338  0.6058
 4011SOL    HW122712   9.870   3.858   4.075 -0.1884  0.4733  0.1624
 4011SOL    HW222713   9.708   3.861   4.096  0.0723  1.1821  2.1286
 4012SOL     OW22714   6.305   7.513   1.920 -0.1740 -0.4537 -0.0570
 4012SOL    HW122715   6.248   7.555   1.991  1.5012 -0.1215  1.1270
 4012SOL    HW222716   6.342   7.426   1.953 -0.6346 -1.0716 -1.1216
 4013SOL     OW22717   1.948   4.012   3.551 -0.3474 -0.5119 -0.1833
 4013SOL    HW122718   1.930   4.076   3.625 -0.5621 -1.2580  0.4197
 4013SOL    HW222719   1.959   3.920   3.589 -1.2333 -1.0268 -1.1626
 4014SOL     OW22720   3.141   3.590   0.462 -0.0820  0.4902  0.2589
 4014SOL    HW122721   3.181   3.527   0.529 -0.5151  0.6494  0.6672
 4014SOL    HW222722   3.074   3.649   0.507  1.6313  2.4766  0.2504
 4015SOL     OW22723   1.080   6.337   1.427 -0.2382 -0.0625 -0.3149
 4015SOL    HW122724   1.086   6.396   1.347 -2.2074  0.1525 -0.3275
 4015SOL    HW222725   1.034   6.386   1.501 -0.1643 -0.9297  0.3121
 4016SOL     OW22726   7.935   8.312   1.515 -0.0334 -0.4202 -0.3074
 4016SOL    HW122727   7.882   8.267   1.443  1.1205 -0.4077 -1.1628
 4016SOL    HW222728   7.960   8.404   1.486 -1.2174  0.3104  0.8941
 4017SOL     OW22729   1.933   5.019   0.297  0.3027 -0.3977  0.3414
 4017SOL    HW122730   2.024   5.060   0.303  0.6237 -0.9467 -0.7338
 4017SOL    HW222731   1.933   4.945   0.230 -0.5384 -1.4805  1.5159
 4018SOL     OW22732   9.639   7.564   3.482  0.2293  0.3731  0.0869
 4018SOL    HW122733   9.608   7.520   3.397  1.3557  0.3465 -0.3095
 4018SOL    HW222734   9.642   7.497   3.555 -0.5649  0.3546  0.1114
 4019SOL     OW22735   3.782   5.716   1.806  0.5270 -0.0402 -0.4389
 4019SOL    HW122736   3.862   5.743   1.752  0.5841  0.3866 -0.1465
 4019SOL    HW222737   3.814   5.675   1.892  0.4445 -1.3284 -1.0218
 4020SOL     OW22738   3.969   1.040   2.040 -0.4295 -0.2533 -0.5021
 4020SOL    HW122739   4.011   1.079   2.122 -0.6557 -0.8203 -0.1121
 4020SOL    HW222740   3.905   0.968   2.066 -0.5515 -0.3967 -1.1742
 4021SOL     OW22741   0.612   9.502   0.699 -0.2295  0.5404  0.1567
 4021SOL    HW122742   0.681   9.570   0.724  0.0617 -0.2170  1.4756
 4021SOL    HW222743   0.595   9.443   0.778  0.1312 -1.4325 -1.2196
 4022SOL     OW22744   3.400   9.438   3.781  0.4297 -0.2687 -0.6783
 4022SOL    HW122745   3.354   9.397   3.703 -0.6087  0.7220 -0.6018
 4022SOL    HW222746   3.398   9.375   3.858 -0.8625 -0.2153 -0.6576
 4023SOL     OW22747   9.275   7.387   2.502 -0.4546  0.0289  0.9261
 4023SOL    HW122748   9.288   7.466   2.443  2.1389 -0.2513  1.0638
 4023SOL    HW222749   9.256   7.417   2.595  0.4968  0.5006  0.9709
 4024SOL     OW22750   1.237   5.712   0.695  0.3138  0.4191  0.7233
 4024SOL    HW122751   1.293   5.629   0.709  1.4127  0.5597 -2.3121
 4024SOL    HW222752   1.292   5.780   0.647 -0.6607  2.8868  3.0248
 4025SOL     OW22753   3.414   5.616   2.403 -0.2466 -0.1614 -0.2118
 4025SOL    HW122754   3.327   5.602   2.356  0.5122  2.2468 -2.4105
 4025SOL    HW222755   3.420   5.710   2.436  2.7395  0.6470 -2.7894
 4026SOL     OW22756   3.187   4.125   2.180 -0.2727 -0.4077  0.3107
 4026SOL    HW122757   3.224   4.210   2.145  1.1872 -0.8416  0.7394
 4026SOL    HW222758   3.160   4.137   2.276  0.2807 -0.5253  0.4818
 4027SOL     OW22759   5.658   8.892   1.642 -0.2764 -0.2776  0.7817
 4027SOL    HW122760   5.582   8.883   1.577 -0.2629 -0.7058  0.8262
 4027SOL    HW222761   5.744   8.899   1.591 -0.2068 -1.2164  0.7669
 4028SOL     OW22762   1.597   7.616   2.511  0.0170 -0.5120 -0.1640
 4028SOL    HW122763   1.602   7.654   2.419 -1.7301 -1.1485 -0.5556
 4028SOL    HW222764   1.523   7.549   2.515 -0.7362  0.3931  2.0272
 4029SOL     OW22765   9.366   8.503   3.519  0.0244  0.0197  0.1180
 4029SOL    HW122766   9.283   8.557   3.530  0.0248 -0.2171  1.3318
 4029SOL    HW222767   9.425   8.515   3.600  1.2252  0.2941 -0.7856
 4030SOL     OW22768   3.542   6.424   2.242  0.2103 -0.1068  0.3561
 4030SOL    HW122769   3.511   6.477   2.321 -0.1136  1.2869 -0.6750
 4030SOL    HW222770   3.511   6.329   2.251 -0.2381  0.1552  1.6577
 4031SOL     OW22771   9.363   8.019   3.742  0.1689 -0.4475  0.1559
 4031SOL    HW122772   9.412   7.957   3.804  0.9982  0.0066 -0.0417
 4031SOL    HW222773   9.301   7.966   3.684 -0.3519 -0.9151  1.1236
 4032SOL     OW22774   9.203   6.598   2.349  0.2709  0.6053 -0.0504
 4032SOL    HW122775   9.110   6.562   2.357  0.7813 -0.2642  2.3128
 4032SOL    HW222776   9.204   6.695   2.374 -0.2391  1.0070 -1.5396
 4033SOL     OW22777   1.337   5.947   0.629 -0.1152  0.3586  0.1216
 4033SOL    HW122778   1.408   5.992   0.575  1.6760 -0.2422  1.9095
 4033SOL    HW222779   1.295   6.014   0.690 -0.3636  0.4840 -0.1824
 4034SOL     OW22780   3.217   4.014   4.275  0.0386 -0.1096 -0.6278
 4034SOL    HW122781   3.128   4.007   4.231  0.7120 -0.9266 -1.9011
 4034SOL    HW222782   3.224   3.946   4.348 -2.0374  2.9183  2.5652
 4035SOL     OW22783   4.598   6.357   1.888  0.1205 -0.5803 -0.2120
 4035SOL    HW122784   4.688   6.365   1.847  0.2638 -0.4894  0.1230
 4035SOL    HW222785   4.530   6.343   1.816  0.2679  0.3688 -0.5470
 4036SOL     OW22786   0.256   6.442   1.173  0.5544  0.1750 -0.5161
 4036SOL    HW122787   0.287   6.365   1.118 -1.5180 -0.6717 -0.5511
 4036SOL    HW222788   0.185   6.411   1.237  1.3163  1.5980  1.0523
 4037SOL     OW22789   2.292   7.252   0.047 -0.3285  0.7085  0.7782
 4037SOL    HW122790   2.254   7.287   0.132 -1.4575 -1.3356  1.1696
 4037SOL    HW222791   2.360   7.182   0.068  0.3465  1.1407  0.0191
 4038SOL     OW22792   3.588   3.218   2.950  0.1405  0.0974  0.0948
 4038SOL    HW122793   3.534   3.139   2.980  2.1114 -1.4938 -0.4205
 4038SOL    HW222794   3.641   3.252   3.028 -0.6957  0.9127  0.3122
 4039SOL     OW22795   0.000   0.222   1.294  0.1697  0.4961  0.3574
 4039SOL    HW122796   0.012   0.156   1.220 -2.1124  1.3411 -0.8236
 4039SOL    HW222797  -0.097   0.229   1.317  0.6438  1.6862  2.1160
 4040SOL     OW22798   9.833   0.256   3.280 -0.5603  0.6811  0.2453
 4040SOL    HW122799   9.868   0.337   3.326  1.5773 -1.1122  1.8835
 4040SOL    HW222800   9.798   0.192   3.348 -0.4235 -0.5870 -0.8616
 4041SOL     OW22801   9.893   5.186   0.446 -0.2548 -0.8270  0.1697
 4041SOL    HW122802   9.943   5.111   0.403 -1.2511 -0.4872 -1.6058
 4041SOL    HW222803   9.951   5.229   0.516  0.7217 -2.5168  0.4246
 4042SOL     OW22804   9.115   7.547   2.977  0.0705 -0.0627  0.4427
 4042SOL    HW122805   9.045   7.543   2.906  1.2104  0.6824 -0.7595
 4042SOL    HW222806   9.081   7.504   3.060 -1.0502 -1.5401 -0.7493
 4043SOL     OW22807   0.996   5.855   1.203  0.3340  0.1193  1.1504
 4043SOL    HW122808   1.012   5.835   1.106  1.2139  1.4749  1.0125
 4043SOL    HW222809   1.056   5.798   1.259  0.0071 -0.4840  0.8880
 4044SOL     OW22810   9.480   7.992   3.158 -0.4480 -0.4542 -0.7603
 4044SOL    HW122811   9.425   8.045   3.093  0.0015  1.3122  0.2619
 4044SOL    HW222812   9.461   8.023   3.251  1.7994 -0.2227 -0.3378
 4045SOL     OW22813   6.367   9.301   2.238  0.0473 -0.3378  0.0938
 4045SOL    HW122814   6.368   9.210   2.198 -1.4011  0.1878 -1.1761
 4045SOL    HW222815   6.329   9.366   2.173 -1.0036  0.8034  1.7870
 4046SOL     OW22816   3.216   9.103   0.339 -0.3632  0.2420  0.2941
 4046SOL    HW122817   3.182   9.021   0.385 -0.4407 -0.2241 -0.5797
 4046SOL    HW222818   3.172   9.112   0.249  0.6205  0.5073 -0.1695
 4047SOL     OW22819   0.707   7.553   0.877 -0.2120  0.3701 -0.0088
 4047SOL    HW122820   0.637   7.566   0.806 -0.6568 -1.0282  0.1608
 4047SOL    HW222821   0.697   7.463   0.918  0.7302  0.7514  1.1010
 4048SOL     OW22822   8.854   1.887   3.539 -0.2515 -0.1665 -0.3673
 4048SOL    HW122823   8.782   1.956   3.545  0.0952 -0.0124  2.4915
 4048SOL    HW222824   8.813   1.798   3.517 -1.0340  0.3360 -0.9987
 4049SOL     OW22825   4.045   5.936   1.436 -0.2705  0.1395  0.2397
 4049SOL    HW122826   4.008   5.879   1.362  1.0590 -0.1248 -0.2517
 4049SOL    HW222827   4.047   6.031   1.406  0.9774 -0.0672 -0.3790
 4050SOL     OW22828   1.653   1.736   4.283 -0.3719  0.3203 -0.5053
 4050SOL    HW122829   1.556   1.745   4.260 -0.4105 -0.1318 -0.5145
 4050SOL    HW222830   1.673   1.642   4.309  0.0104  0.4727 -0.2426
 4051SOL     OW22831   1.819   3.567   3.661 -0.3449  0.4030  0.1475
 4051SOL    HW122832   1.744   3.631   3.676  0.5410  1.6547 -0.6276
 4051SOL    HW222833   1.851   3.530   3.748 -1.2716  0.5364  0.5418
 4052SOL     OW22834   8.390   3.512   4.365 -0.3137  0.3909 -0.4540
 4052SOL    HW122835   8.416   3.439   4.301 -0.6445  0.4614 -0.6686
 4052SOL    HW222836   8.303   3.489   4.408 -0.6647  0.8955 -0.8899
 4053SOL     OW22837   8.975   2.600   0.134  0.0457  0.5298 -0.2920
 4053SOL    HW122838   9.042   2.535   0.098  1.3922  2.2051 -0.9091
 4053SOL    HW222839   8.912   2.553   0.195  1.1063 -1.3145 -0.5831
 4054SOL     OW22840   8.839   0.500   4.195  1.2366 -0.0740  0.7288
 4054SOL    HW122841   8.886   0.423   4.152 -0.5657 -0.7894 -0.0381
 4054SOL    HW222842   8.815   0.567   4.126  2.9231  1.2616  1.4219
 4055SOL     OW22843   9.758   6.644   0.152  0.2139 -0.2161 -0.2692
 4055SOL    HW122844   9.786   6.615   0.243  2.6941 -1.4845 -1.3836
 4055SOL    HW222845   9.661   6.670   0.153  0.0292 -0.8983  2.5354
 4056SOL     OW22846   9.702   4.755   3.216  0.2673  0.1407 -0.0897
 4056SOL    HW122847   9.788   4.800   3.241  0.3710 -0.6355  0.9797
 4056SOL    HW222848   9.721   4.666   3.176 -0.0381 -0.0178  0.1171
 4057SOL     OW22849   7.768   1.302   2.790  0.4804  0.1568 -0.6695
 4057SOL    HW122850   7.691   1.263   2.739  0.3587 -0.3757 -0.0812
 4057SOL    HW222851   7.748   1.397   2.814 -0.8788 -0.5884  1.2733
 4058SOL     OW22852   0.560   3.109   2.146 -0.3428  0.0986 -0.5803
 4058SOL    HW122853   0.479   3.051   2.137  0.3029 -0.9014 -0.1274
 4058SOL    HW222854   0.534   3.205   2.137 -1.9136 -0.0875  1.6090
 4059SOL     OW22855   1.459   5.387   0.338  0.1876 -0.6536 -0.6668
 4059SOL    HW122856   1.497   5.471   0.376  0.4139 -0.6795 -0.8358
 4059SOL    HW222857   1.532   5.319   0.329 -0.1323 -1.1121  0.1429
 4060SOL     OW22858   1.968   8.406   0.456 -0.1378  0.1473 -0.2002
 4060SOL    HW122859   1.898   8.337   0.437  0.1925  0.0637 -1.1591
 4060SOL    HW222860   1.982   8.462   0.374  0.9622  0.1132 -0.0378
 4061SOL     OW22861   9.170   1.853   1.301  0.2000 -0.8929  0.2351
 4061SOL    HW122862   9.199   1.848   1.205 -1.3179 -1.9989 -0.1845
 4061SOL    HW222863   9.223   1.787   1.354 -0.7899 -2.1969 -0.3508
 4062SOL     OW22864   3.079   2.801   1.660  0.4258  0.3805  0.1902
 4062SOL    HW122865   3.100   2.711   1.620 -1.9077  0.3468 -1.0213
 4062SOL    HW222866   3.164   2.846   1.686  1.7245 -1.5239 -0.6331
 4063SOL     OW22867   9.413   9.842   2.824  0.0183  0.4091  0.5635
 4063SOL    HW122868   9.468   9.899   2.885  0.4595  0.6299 -0.0396
 4063SOL    HW222869   9.454   9.751   2.816  0.0712  0.4455  0.4278
 4064SOL     OW22870   9.133   3.403   1.895 -0.1652 -0.0646  0.3180
 4064SOL    HW122871   9.126   3.405   1.995  0.5763  0.9272  0.3666
 4064SOL    HW222872   9.174   3.317   1.866  0.5568  0.0599  0.9470
 4065SOL     OW22873   4.212   2.212   2.374  0.2798  0.0273  0.0818
 4065SOL    HW122874   4.118   2.239   2.349 -0.0241  1.2638  2.4540
 4065SOL    HW222875   4.209   2.142   2.446  1.1874 -1.0281 -0.8796
 4066SOL     OW22876   5.936   7.760   3.106 -0.6703 -0.4925  0.2771
 4066SOL    HW122877   6.029   7.735   3.130 -0.4842 -1.6253 -1.5028
 4066SOL    HW222878   5.874   7.684   3.127 -0.6840 -1.0189 -1.5321
 4067SOL     OW22879   0.710   6.351   4.646  0.1547  0.0929 -0.2375
 4067SOL    HW122880   0.787   6.340   4.583  0.9376  0.7033  0.5875
 4067SOL    HW222881   0.662   6.264   4.655 -0.0909  0.0549 -1.8246
 4068SOL     OW22882   4.101   2.079   1.584 -0.4227 -0.5315 -0.0807
 4068SOL    HW122883   4.196   2.048   1.581  0.2879  1.5703 -0.2260
 4068SOL    HW222884   4.056   2.054   1.498  1.2555  2.1714 -1.8469
 4069SOL     OW22885   1.243   7.591   1.243  0.3080  0.7857  0.3647
 4069SOL    HW122886   1.163   7.556   1.195  1.5836  0.7860 -1.8159
 4069SOL    HW222887   1.253   7.543   1.330  0.2612 -2.1459 -1.1769
 4070SOL     OW22888   9.870   9.673   4.625  0.0489  0.3980 -0.0975
 4070SOL    HW122889   9.838   9.612   4.698 -0.2487  0.5373 -0.1118
 4070SOL    HW222890   9.914   9.754   4.666  2.1983 -0.7371 -0.0709
 4071SOL     OW22891   2.693   8.378   2.958 -0.1011 -0.2108  0.3223
 4071SOL    HW122892   2.660   8.439   3.030  0.7367  0.8492 -0.1687
 4071SOL    HW222893   2.640   8.392   2.875  1.0451  0.9351 -0.2343
 4072SOL     OW22894   7.855   9.811   4.636 -0.1733  0.2714 -0.9678
 4072SOL    HW122895   7.864   9.801   4.537  0.8895  0.5967 -0.9078
 4072SOL    HW222896   7.945   9.809   4.679 -0.4120  2.4908 -0.2541
 4073SOL     OW22897   9.385   8.994   2.745 -0.1496 -0.0709 -0.0306
 4073SOL    HW122898   9.416   8.903   2.772 -0.9089 -0.2812  0.1504
 4073SOL    HW222899   9.387   9.055   2.825  3.4942  0.9817 -0.8160
 4074SOL     OW22900   2.423   0.638   2.008  0.0860  0.1218 -0.2253
 4074SOL    HW122901   2.437   0.713   1.943 -0.5984  0.2162 -0.2630
 4074SOL    HW222902   2.409   0.553   1.958 -0.3039  0.1703 -0.1964
 4075SOL     OW22903   1.753   3.610   2.952  0.1833  0.0390  0.3272
 4075SOL    HW122904   1.711   3.698   2.977  1.5388  0.1321  2.3761
 4075SOL    HW222905   1.852   3.621   2.947  0.4302 -1.5606  1.4585
 4076SOL     OW22906   4.209   7.231   4.181 -0.0415 -0.0559  0.6838
 4076SOL    HW122907   4.229   7.220   4.278  1.2526 -1.9266  0.2212
 4076SOL    HW222908   4.207   7.142   4.137 -1.1151  0.7384 -0.9315
 4077SOL     OW22909   2.532   4.373   0.697 -0.5900  0.1536  0.3116
 4077SOL    HW122910   2.437   4.399   0.682 -1.3791 -2.7731 -0.1417
 4077SOL    HW222911   2.547   4.360   0.796 -1.1437 -0.9627  0.2641
 4078SOL     OW22912   9.527   4.889   2.488  0.3052  0.1662 -0.3297
 4078SOL    HW122913   9.582   4.972   2.484 -1.9670  1.7422  0.1261
 4078SOL    HW222914   9.499   4.864   2.395  0.0980  0.5291 -0.3661
 4079SOL     OW22915   3.171   2.606   0.423 -0.1679  0.2974 -0.3851
 4079SOL    HW122916   3.261   2.613   0.379  0.2729 -2.7074 -0.0176
 4079SOL    HW222917   3.175   2.648   0.514  1.3075 -1.2505  0.2713
 4080SOL     OW22918   3.745   7.754   1.614  0.2553  0.0642 -0.2117
 4080SOL    HW122919   3.688   7.677   1.584  0.9556 -0.8341  0.7283
 4080SOL    HW222920   3.762   7.815   1.537  1.2681 -1.7291 -1.4333
 4081SOL     OW22921   9.079   3.006   1.319  0.3179 -0.3702 -0.2774
 4081SOL    HW122922   9.039   3.043   1.234  1.2926  0.8427 -0.2205
 4081SOL    HW222923   9.073   3.075   1.391 -0.2595 -1.3052  0.5770
 4082SOL     OW22924   1.824   5.338   0.596 -0.2072  0.0661  0.5059
 4082SOL    HW122925   1.757   5.297   0.657  0.9301 -0.3035  1.5349
 4082SOL    HW222926   1.829   5.437   0.613  0.1906 -0.0514  1.1260
 4083SOL     OW22927   7.723   4.272   3.595  0.1101  0.0385 -0.3652
 4083SOL    HW122928   7.704   4.366   3.564 -0.8879 -0.4410 -1.2490
 4083SOL    HW222929   7.656   4.246   3.664 -0.6326 -0.6069 -1.3249
 4084SOL     OW22930   3.235   5.869   0.352 -0.3718 -0.0578  0.1653
 4084SOL    HW122931   3.296   5.824   0.417  2.0959  1.3056 -1.1163
 4084SOL    HW222932   3.264   5.848   0.259 -1.5406  1.0531 -0.4715
 4085SOL     OW22933   4.296   3.247   2.185  0.2839  0.1009  0.6557
 4085SOL    HW122934   4.392   3.217   2.182  0.6669  1.3706 -0.2684
 4085SOL    HW222935   4.289   3.328   2.243 -0.2449 -0.0075  0.7410
 4086SOL     OW22936   2.762   1.041   3.158  0.2130  0.3918 -0.3206
 4086SOL    HW122937   2.776   1.009   3.251 -0.9705 -3.0872 -1.2907
 4086SOL    HW222938   2.682   1.101   3.155 -1.0556 -1.2120  0.5606
 4087SOL     OW22939   3.276   2.373   3.417  0.1826  0.0214  0.4335
 4087SOL    HW122940   3.233   2.423   3.493  0.7612 -1.7285  1.9534
 4087SOL    HW222941   3.251   2.276   3.422 -0.3327 -0.0125 -2.0533
 4088SOL     OW22942   4.091   0.244   0.727  0.1393 -0.4960 -0.1792
 4088SOL    HW122943   4.091   0.217   0.823 -0.6149 -0.7198 -0.2380
 4088SOL    HW222944   3.999   0.235   0.690 -0.0821  1.9468 -0.2850
 4089SOL     OW22945   9.094   9.961   3.987  0.1839 -0.5174 -0.1707
 4089SOL    HW122946   9.130   9.968   4.080  1.4329  0.1434 -0.6942
 4089SOL    HW222947   9.028   9.886   3.982  0.4059 -0.8010  1.1562
 4090SOL     OW22948   1.038   6.907   2.173  0.4291 -0.0006  0.1331
 4090SOL    HW122949   0.967   6.839   2.160  0.0389  0.2512  0.8695
 4090SOL    HW222950   0.996   6.994   2.201  1.0014  0.2279  0.2944
 4091SOL     OW22951   0.556   2.256   3.678  0.5999  0.4257 -0.3205
 4091SOL    HW122952   0.588   2.204   3.757  0.0257 -1.5095 -1.3214
 4091SOL    HW222953   0.619   2.331   3.661  1.0860  0.4792  1.5780
 4092SOL     OW22954   1.899   3.224   0.100 -0.3716  0.1850 -0.4018
 4092SOL    HW122955   1.897   3.324   0.095 -1.1367  0.1461 -0.9328
 4092SOL    HW222956   1.921   3.187   0.010  0.5931 -0.1135 -0.0520
 4093SOL     OW22957   9.978   1.849   3.939 -0.3484  0.0620  0.0324
 4093SOL    HW122958   9.911   1.864   4.011  0.2327  1.3089  0.3260
 4093SOL    HW222959  10.014   1.756   3.946 -1.0989 -0.1854  0.6641
 4094SOL     OW22960   4.330   1.052   3.457  0.2803 -0.7777 -0.2871
 4094SOL    HW122961   4.252   0.994   3.478 -1.4134  0.8489 -1.8284
 4094SOL    HW222962   4.335   1.127   3.523  0.7317 -1.0655  0.0046
 4095SOL     OW22963   0.360   7.646   1.136  0.1652 -0.1911 -1.0463
 4095SOL    HW122964   0.392   7.734   1.102  0.9871 -0.2559 -0.4367
 4095SOL    HW222965   0.292   7.660   1.208  3.5155  0.0112  2.2123
 4096SOL     OW22966   5.042   6.797   2.852 -0.0711  0.1566 -0.3757
 4096SOL    HW122967   5.095   6.818   2.770  2.5351  0.1830  1.2660
 4096SOL    HW222968   5.095   6.738   2.912 -2.3399 -0.6753  0.8706
 4097SOL     OW22969   0.900   1.976   0.077 -0.4581 -0.5586 -0.1731
 4097SOL    HW122970   0.847   1.949   0.157  0.8063 -0.6350  0.6565
 4097SOL    HW222971   0.956   2.056   0.099  1.4104 -1.7942 -0.3504
 4098SOL     OW22972   6.754   0.484   2.485 -0.2493  0.0731 -0.1404
 4098SOL    HW122973   6.825   0.446   2.544  1.6208  1.7190 -1.2860
 4098SOL    HW222974   6.664   0.459   2.521  0.8906 -2.6661  0.9223
 4099SOL     OW22975   8.512   9.622   1.036  0.2076 -0.7188  0.3350
 4099SOL    HW122976   8.464   9.708   1.052  0.2055 -0.8850  1.2586
 4099SOL    HW222977   8.452   9.546   1.058  0.0883 -0.9763 -0.8251
 4100SOL     OW22978   8.945   9.712   2.557  0.4279 -0.3386  0.0103
 4100SOL    HW122979   9.025   9.752   2.513  0.0280  1.8262  1.2056
 4100SOL    HW222980   8.969   9.682   2.649 -0.1310  0.2936  0.3630
 4101SOL     OW22981   3.620   5.767   0.863  0.6316 -0.1821  0.4681
 4101SOL    HW122982   3.551   5.705   0.900  1.1777 -1.5625 -0.7347
 4101SOL    HW222983   3.663   5.724   0.783  2.2328  1.0412  0.6531
 4102SOL     OW22984   0.298   9.189   4.445  0.4739  0.3191 -0.1881
 4102SOL    HW122985   0.211   9.160   4.405  1.1069 -1.4834 -0.3278
 4102SOL    HW222986   0.281   9.245   4.526 -0.8135  0.6246 -0.6608
 4103SOL     OW22987   2.456   4.750   0.578  0.2096 -0.1814 -0.4264
 4103SOL    HW122988   2.357   4.762   0.586  0.2510  0.0260 -0.2181
 4103SOL    HW222989   2.477   4.656   0.553 -0.0454 -0.2014 -0.5576
 4104SOL     OW22990   9.029   8.851   0.737  0.5687 -0.7644 -0.3864
 4104SOL    HW122991   9.072   8.901   0.813 -0.1777 -2.4166  1.1488
 4104SOL    HW222992   9.089   8.776   0.709  0.9772  0.0278 -1.6413
 4105SOL     OW22993   3.918   0.248   1.011  0.8803  0.1634 -0.1673
 4105SOL    HW122994   3.901   0.243   1.110 -1.3875  0.2089 -0.5291
 4105SOL    HW222995   3.980   0.325   0.992  0.5817  0.7415  1.1237
 4106SOL     OW22996   9.437   3.117   0.225 -0.6595  0.0303  0.0744
 4106SOL    HW122997   9.521   3.081   0.267 -0.1123  1.1082 -0.0830
 4106SOL    HW222998   9.362   3.110   0.291 -0.4127 -0.7702  0.2820
 4107SOL     OW22999   1.336   0.414   1.906  0.3006  0.1775 -0.3816
 4107SOL    HW123000   1.366   0.507   1.884  1.4196  0.0547  0.5897
 4107SOL    HW223001   1.408   0.349   1.882 -0.6923 -0.5062 -1.5681
 4108SOL     OW23002   7.217   0.725   2.175 -0.9022  0.3259 -0.2192
 4108SOL    HW123003   7.271   0.736   2.258  1.2405  2.4466 -1.8240
 4108SOL    HW223004   7.132   0.776   2.183 -0.8656  0.2350  0.8073
 4109SOL     OW23005   9.927   4.702   2.433  0.0152  0.1612  0.1428
 4109SOL    HW123006   9.844   4.694   2.489  0.8200  0.4615  1.3899
 4109SOL    HW223007  10.007   4.684   2.490  0.8818  1.0385 -0.7963
 4110SOL     OW23008   4.078   8.533   1.234  0.7345 -0.4642  0.3805
 4110SOL    HW123009   4.025   8.560   1.314  0.3947 -0.8120  0.2735
 4110SOL    HW223010   4.145   8.604   1.213  0.5096 -0.1587  0.6934
 4111SOL     OW23011   9.429   7.994   2.072  0.2723  0.3399  0.6078
 4111SOL    HW123012   9.453   7.966   1.979 -0.8765 -0.5806  0.5678
 4111SOL    HW223013   9.495   8.061   2.105  2.4309 -1.5231  0.2255
 4112SOL     OW23014   3.828   7.781   0.795 -0.3914 -0.0548 -0.0551
 4112SOL    HW123015   3.916   7.797   0.839 -0.3699  0.8921 -0.4276
 4112SOL    HW223016   3.798   7.687   0.811  0.5617 -0.2932  0.2947
 4113SOL     OW23017   5.872   0.229   2.978 -0.8936 -0.5916  0.4281
 4113SOL    HW123018   5.882   0.215   3.077 -0.4471 -0.8565  0.3476
 4113SOL    HW223019   5.902   0.146   2.930  0.5113  0.1647 -0.0045
 4114SOL     OW23020   1.568   2.347   2.097 -0.1248  0.1330  0.0699
 4114SOL    HW123021   1.546   2.404   2.017 -2.0407  0.0775  0.5232
 4114SOL    HW223022   1.620   2.401   2.163  1.6167  0.1340 -1.2588
 4115SOL     OW23023   1.750   0.345   2.027  0.0512  0.3737 -0.2140
 4115SOL    HW123024   1.782   0.292   1.948  0.3385 -0.7834  0.6701
 4115SOL    HW223025   1.675   0.296   2.072 -1.6864  2.1259 -1.1061
 4116SOL     OW23026   7.125   9.445   1.421  0.1409  0.9673  0.0175
 4116SOL    HW123027   7.217   9.421   1.451  0.4237  2.5429  0.4737
 4116SOL    HW223028   7.129   9.523   1.358 -0.7467 -0.0355 -1.3364
 4117SOL     OW23029   0.504   4.522   3.786  0.3943  0.7089 -0.5946
 4117SOL    HW123030   0.554   4.494   3.704  0.5558 -1.4760  0.2081
 4117SOL    HW223031   0.426   4.462   3.800  0.3625  1.0614  0.8415
 4118SOL     OW23032   0.551   8.950   2.902 -0.4249  0.1945 -0.5583
 4118SOL    HW123033   0.468   8.999   2.873  0.6760  0.6724 -3.0158
 4118SOL    HW223034   0.561   8.867   2.848  0.8625  0.2774 -0.4617
 4119SOL     OW23035   1.288   7.631   0.069  0.3160 -0.1455  0.3697
 4119SOL    HW123036   1.217   7.697   0.095  1.0333  0.8636 -0.1550
 4119SOL    HW223037   1.375   7.660   0.109  1.0939  0.4964 -1.7039
 4120SOL     OW23038   2.091   8.643   2.115  0.2881  0.3517 -0.6061
 4120SOL    HW123039   2.095   8.544   2.103 -0.4310  0.2199  0.2037
 4120SOL    HW223040   2.183   8.682   2.107  0.4537 -0.2578 -1.8703
 4121SOL     OW23041   5.995   9.509   1.961  0.1838  0.0595 -0.4021
 4121SOL    HW123042   5.928   9.496   2.034  1.2472 -2.1086  0.2215
 4121SOL    HW223043   5.970   9.590   1.907 -0.9851  1.3125  1.9336
 4122SOL     OW23044   1.053   6.372   3.417 -0.0619  0.4141 -0.4581
 4122SOL    HW123045   1.136   6.364   3.473 -0.3669  0.7261  0.0383
 4122SOL    HW223046   0.973   6.377   3.476 -0.4396  0.1041 -0.9388
 4123SOL     OW23047   9.831   0.082   4.512 -0.2903 -0.0893 -0.1117
 4123SOL    HW123048   9.797  -0.011   4.495 -0.5822 -0.1030  0.5202
 4123SOL    HW223049   9.909   0.100   4.453 -0.0141 -0.8637  0.0112
 4124SOL     OW23050   0.759   5.280   0.761 -0.0051 -0.1188 -0.3883
 4124SOL    HW123051   0.844   5.315   0.798  0.6919 -1.0557 -1.0637
 4124SOL    HW223052   0.709   5.231   0.833  0.9063 -1.1455 -0.4307
 4125SOL     OW23053   9.127   1.265   3.326 -0.1062  0.2243 -0.4920
 4125SOL    HW123054   9.074   1.315   3.394  0.1939  0.4030 -0.3857
 4125SOL    HW223055   9.138   1.320   3.243 -1.3689 -0.4098 -1.0910
 4126SOL     OW23056   1.511   7.532   1.178  0.5692  0.0606  0.0573
 4126SOL    HW123057   1.424   7.532   1.228  0.4184 -0.8678 -0.1936
 4126SOL    HW223058   1.504   7.591   1.098  0.2804  0.2655  0.2350
 4127SOL     OW23059   1.709   5.608   4.460 -0.1630 -0.1716 -0.2647
 4127SOL    HW123060   1.708   5.619   4.560 -0.4802 -0.1899 -0.2671
 4127SOL    HW223061   1.795   5.643   4.424  0.2678 -0.8462  0.0925
 4128SOL     OW23062   7.990   7.893   1.216 -0.1474 -0.3374  0.4594
 4128SOL    HW123063   8.040   7.976   1.191 -1.4646  0.3982  0.2139
 4128SOL    HW223064   7.980   7.889   1.315  1.2365 -0.9912  0.5838
 4129SOL     OW23065   1.349   7.770   2.441  0.0530 -0.1742 -0.2064
 4129SOL    HW123066   1.395   7.856   2.421 -0.1719 -0.0746 -0.2881
 4129SOL    HW223067   1.418   7.699   2.459  0.2514 -0.2106 -1.0987
 4130SOL     OW23068   3.454   5.911   1.390  0.0412  0.4445  0.0908
 4130SOL    HW123069   3.481   5.815   1.400  0.9963  0.7140  0.1572
 4130SOL    HW223070   3.498   5.950   1.309 -1.5582  0.4089 -0.8164
 4131SOL     OW23071   1.271   7.023   3.632  0.2533  0.1730  0.3774
 4131SOL    HW123072   1.182   7.058   3.603 -0.1497 -1.9471 -1.0388
 4131SOL    HW223073   1.343   7.074   3.586 -0.2950  0.0212 -0.6716
 4132SOL     OW23074   0.923   6.399   4.437 -0.0616 -0.7122 -0.3786
 4132SOL    HW123075   0.952   6.438   4.350 -0.6054  0.6497  0.0361
 4132SOL    HW223076   0.994   6.339   4.473  1.4874  1.1744 -0.2486
 4133SOL     OW23077   4.678   0.201   0.173  0.4832 -0.6306  0.5680
 4133SOL    HW123078   4.665   0.287   0.223  0.8044 -0.4130  0.2767
 4133SOL    HW223079   4.651   0.214   0.078 -0.6652 -1.1991  0.8099
 4134SOL     OW23080   1.698   1.006   1.001  0.0961  0.2644  0.6756
 4134SOL    HW123081   1.699   1.106   1.000  0.0175  0.2618 -0.4867
 4134SOL    HW223082   1.617   0.973   0.952  2.3166 -0.3778 -2.7904
 4135SOL     OW23083   0.561   1.131   3.744 -0.4524 -0.1041 -0.5418
 4135SOL    HW123084   0.473   1.157   3.782 -0.8816 -2.2313  0.0047
 4135SOL    HW223085   0.626   1.115   3.818  0.0462  0.3019 -0.8930
 4136SOL     OW23086   1.163   2.704   1.388 -0.4378 -0.2194 -0.4243
 4136SOL    HW123087   1.186   2.664   1.299  3.9223  0.3751  0.3140
 4136SOL    HW223088   1.148   2.802   1.378 -1.3566 -0.3914 -0.7263
 4137SOL     OW23089   9.114   3.130   2.561  0.6217 -0.1525 -0.4871
 4137SOL    HW123090   9.053   3.059   2.525 -1.8249  1.4855  0.3530
 4137SOL    HW223091   9.111   3.128   2.661  2.4490 -0.4543 -0.4205
 4138SOL     OW23092   1.016   7.125   3.601 -0.2563  0.1162  0.1810
 4138SOL    HW123093   0.966   7.185   3.662  0.2384 -0.3639  1.0686
 4138SOL    HW223094   1.021   7.166   3.510 -2.6313 -0.0187 -0.0487
 4139SOL     OW23095   2.269   7.265   3.078 -0.1757  0.1653 -0.1463
 4139SOL    HW123096   2.244   7.274   3.174 -0.7639 -1.4076 -0.1290
 4139SOL    HW223097   2.342   7.198   3.068  0.0911  0.5401 -0.7644
 4140SOL     OW23098   2.362   2.184   1.754 -0.6345 -0.8386  0.4701
 4140SOL    HW123099   2.291   2.123   1.722 -0.9973 -0.2545  0.1489
 4140SOL    HW223100   2.410   2.143   1.832 -1.9561 -0.8161  1.3078
 4141SOL     OW23101   8.351   2.562   4.459 -0.2721  0.3681  0.9315
 4141SOL    HW123102   8.301   2.551   4.373 -0.5625  0.2869  1.1140
 4141SOL    HW223103   8.349   2.659   4.486 -0.4526  0.3398  1.0163
 4142SOL     OW23104   0.698   1.543   3.087 -0.0706 -0.1530  0.1636
 4142SOL    HW123105   0.600   1.531   3.101 -0.0331  0.9826  1.4911
 4142SOL    HW223106   0.716   1.636   3.056  0.7661  0.2612  1.8645
 4143SOL     OW23107   4.546   9.649   1.245 -0.0241  0.1666  0.7029
 4143SOL    HW123108   4.503   9.729   1.286 -0.7264  0.4169 -0.5078
 4143SOL    HW223109   4.579   9.672   1.154  0.1522 -0.8062  0.5136
 4144SOL     OW23110   4.704   9.459   4.280 -0.2071 -0.9126  0.0498
 4144SOL    HW123111   4.727   9.495   4.189 -1.8699  0.1379  0.0241
 4144SOL    HW223112   4.652   9.527   4.331 -1.1983 -2.3160  0.9626
 4145SOL     OW23113   2.142   4.668   1.273 -0.2899 -0.7579 -0.8814
 4145SOL    HW123114   2.091   4.596   1.225 -0.8539 -0.1238 -1.2525
 4145SOL    HW223115   2.141   4.650   1.371  0.3169 -1.7219 -1.0411
 4146SOL     OW23116   1.117   7.331   3.981 -0.2112 -0.2939  0.3909
 4146SOL    HW123117   1.120   7.371   4.073  0.8453  0.1138  0.1879
 4146SOL    HW223118   1.134   7.402   3.913  0.6589 -0.8903 -0.0285
 4147SOL     OW23119   7.904   4.954   0.920  0.1450  0.2500 -0.1765
 4147SOL    HW123120   7.931   5.049   0.904 -0.0652  0.1794 -0.9946
 4147SOL    HW223121   7.848   4.922   0.844  2.5151 -1.4036 -1.3253
 4148SOL     OW23122   9.750   3.675   1.082  0.4377  0.0552  0.0485
 4148SOL    HW123123   9.735   3.584   1.043  2.1086 -1.1091  2.0345
 4148SOL    HW223124   9.675   3.736   1.055 -0.9819 -2.0434 -0.8431
 4149SOL     OW23125   8.844   5.450   3.408 -0.3598  0.4148 -0.1166
 4149SOL    HW123126   8.914   5.522   3.404 -1.5410  1.6115  0.3494
 4149SOL    HW223127   8.784   5.466   3.487 -1.3814 -0.3875 -0.7126
 4150SOL     OW23128   8.792   8.774   1.366  0.2223  0.1175  0.2740
 4150SOL    HW123129   8.838   8.685   1.371 -0.0749 -0.1320 -1.2282
 4150SOL    HW223130   8.794   8.808   1.272 -1.0434  0.9854  0.5407
 4151SOL     OW23131   9.150   5.497   0.975 -0.0403  0.0325 -0.2272
 4151SOL    HW123132   9.123   5.593   0.972  1.1948  0.4360  0.7541
 4151SOL    HW223133   9.250   5.490   0.965  0.2422 -0.8946  2.7791
 4152SOL     OW23134   2.706   1.023   1.527 -0.0863 -0.5034  0.3273
 4152SOL    HW123135   2.632   0.959   1.507 -0.1236 -0.1506 -0.7257
 4152SOL    HW223136   2.784   1.003   1.468 -0.0503  0.3336  0.0824
 4153SOL     OW23137   9.530   3.402   0.441 -1.1267  0.0491  0.0818
 4153SOL    HW123138   9.471   3.335   0.397 -1.2492 -0.6633  1.3009
 4153SOL    HW223139   9.548   3.374   0.536  0.4231  0.7224  0.0089
 4154SOL     OW23140   9.199   7.948   4.148  0.0258 -0.1234  0.0524
 4154SOL    HW123141   9.148   7.964   4.064 -0.0443 -0.8904 -0.0589
 4154SOL    HW223142   9.283   8.002   4.147  0.0683 -0.1954 -0.5583
 4155SOL     OW23143   9.832   0.010   0.051 -0.7632  0.5258 -0.3760
 4155SOL    HW123144   9.863  -0.047   0.128  1.0356  0.5818 -1.0392
 4155SOL    HW223145   9.907   0.069   0.022 -1.4014  0.4360 -2.2354
 4156SOL     OW23146   9.687   0.155   4.042  0.6227  1.0879  0.2590
 4156SOL    HW123147   9.682   0.234   4.104  1.2012  0.8267  0.6441
 4156SOL    HW223148   9.740   0.179   3.961  2.1999  0.6026  1.1353
 4157SOL     OW23149   0.169   9.192   4.729 -0.2859 -0.7407  0.1445
 4157SOL    HW123150   0.175   9.290   4.708 -1.5326 -0.7924 -0.5340
 4157SOL    HW223151   0.110   9.148   4.661 -1.1338 -1.6535  1.4528
 4158SOL     OW23152   9.028   8.053   1.016  0.5663  0.0028  0.3489
 4158SOL    HW123153   9.057   7.986   0.947 -0.7026 -0.7520  0.5422
 4158SOL    HW223154   8.928   8.056   1.020  0.6254  0.3106  1.9113
 4159SOL     OW23155   4.589   8.151   4.499 -0.2435  0.3784  0.1662
 4159SOL    HW123156   4.586   8.224   4.567  0.3359 -0.6437  1.3097
 4159SOL    HW223157   4.681   8.111   4.497 -1.0225 -1.4764  0.8074
 4160SOL     OW23158   2.957   7.952   2.177 -0.0942  0.4247  0.3702
 4160SOL    HW123159   2.930   7.895   2.100  0.3781 -0.3008  0.7415
 4160SOL    HW223160   2.887   7.948   2.249 -0.3794  0.8465  0.1192
 4161SOL     OW23161   3.365   7.445   0.072 -0.1693  0.4154  0.1442
 4161SOL    HW123162   3.445   7.408   0.118 -0.1146 -0.7490 -0.8826
 4161SOL    HW223163   3.387   7.466  -0.024 -1.2205 -0.4131 -0.3004
 4162SOL     OW23164   1.019   7.922   4.016 -0.1085 -0.5292  0.4548
 4162SOL    HW123165   0.973   7.847   4.064 -1.7877 -0.3273 -0.7939
 4162SOL    HW223166   1.005   7.911   3.917 -0.4688  1.5029  0.2729
 4163SOL     OW23167   0.927   2.708   0.038  0.1926  0.3815 -0.9698
 4163SOL    HW123168   0.920   2.620   0.085  0.4136  0.9732  0.1931
 4163SOL    HW223169   1.000   2.762   0.079  2.1872 -0.1166 -3.7186
 4164SOL     OW23170   0.909   4.490   2.173  0.0244  0.0800 -0.0531
 4164SOL    HW123171   0.928   4.544   2.255 -0.6409  1.8731 -1.0551
 4164SOL    HW223172   0.824   4.439   2.186  0.6741 -0.7644  0.9145
 4165SOL     OW23173   9.193   7.896   1.824 -0.0948  0.0079  0.2370
 4165SOL    HW123174   9.222   7.982   1.781 -2.5791 -0.5396 -2.7111
 4165SOL    HW223175   9.153   7.915   1.914  0.1275  1.8682 -0.0468
 4166SOL     OW23176   1.712   4.519   0.601 -0.6423  0.0420  0.0130
 4166SOL    HW123177   1.744   4.526   0.507  4.2199 -0.8072  1.4925
 4166SOL    HW223178   1.691   4.423   0.621  0.8081 -0.1880  0.5018
 4167SOL     OW23179   0.340   9.031   2.744 -0.4697  0.2780 -0.3198
 4167SOL    HW123180   0.294   9.095   2.682  0.1552 -1.4444 -2.6233
 4167SOL    HW223181   0.392   8.965   2.690 -1.3588 -2.3843  2.0063
 4168SOL     OW23182   1.096   5.889   1.551 -0.1066  0.2891 -0.5913
 4168SOL    HW123183   1.086   5.803   1.601  0.4254 -0.4531 -1.7486
 4168SOL    HW223184   1.022   5.951   1.577 -0.1684 -0.2920  0.6865
 4169SOL     OW23185   0.186   6.706   4.505  1.1425 -0.1766 -0.2011
 4169SOL    HW123186   0.243   6.700   4.423  0.4714 -2.4783 -0.5149
 4169SOL    HW223187   0.093   6.731   4.480  0.9856 -0.6800 -0.1245
 4170SOL     OW23188   2.259   1.156   0.174  0.9098 -0.1101 -0.1956
 4170SOL    HW123189   2.244   1.133   0.078 -0.4252 -2.7481  0.5594
 4170SOL    HW223190   2.212   1.241   0.196 -1.7692 -1.3002 -1.1015
 4171SOL     OW23191   8.234   7.367   4.625  0.0068 -0.5572  0.0018
 4171SOL    HW123192   8.195   7.288   4.578  0.5602 -0.0290 -1.3615
 4171SOL    HW223193   8.271   7.431   4.558  2.1473 -0.4813  1.2320
 4172SOL     OW23194   8.677   7.807   1.230 -0.0858 -0.4615  0.3073
 4172SOL    HW123195   8.649   7.738   1.163 -1.0264  2.0746 -2.0186
 4172SOL    HW223196   8.710   7.762   1.313 -1.9418 -3.6460 -0.6115
 4173SOL     OW23197   9.945   7.775   0.224  0.0493 -0.3020 -0.6521
 4173SOL    HW123198  10.044   7.788   0.214 -0.2008  2.4783  0.1018
 4173SOL    HW223199   9.923   7.760   0.321 -0.4326  0.8255 -0.5806
 4174SOL     OW23200   3.636   7.947   0.143 -0.4281  0.1298  0.2005
 4174SOL    HW123201   3.676   7.860   0.172 -1.4221 -0.9495 -1.5513
 4174SOL    HW223202   3.561   7.971   0.204 -0.4093 -0.4571  0.4600
 4175SOL     OW23203   8.690   9.640   0.838 -0.0968  0.2072 -0.4039
 4175SOL    HW123204   8.642   9.631   0.925 -1.2167 -0.7504 -1.1065
 4175SOL    HW223205   8.697   9.551   0.794  1.7344  0.4420 -0.6417
 4176SOL     OW23206   4.371   8.288   3.160 -0.1484 -0.1813  0.4501
 4176SOL    HW123207   4.468   8.278   3.185 -0.6472 -0.2722  2.4496
 4176SOL    HW223208   4.335   8.200   3.132  0.6014  0.0521 -1.3056
 4177SOL     OW23209   0.135   3.274   0.507  0.1657 -0.2055 -0.1156
 4177SOL    HW123210   0.093   3.359   0.473 -0.6891 -0.9017 -0.8215
 4177SOL    HW223211   0.210   3.297   0.569 -1.6163  1.0814  1.6318
 4178SOL     OW23212   8.836   3.054   2.188 -0.2810  0.2600 -0.4152
 4178SOL    HW123213   8.825   3.009   2.100  0.6955 -0.0907 -0.3618
 4178SOL    HW223214   8.896   2.999   2.247  0.0732  1.0980  0.0213
 4179SOL     OW23215   9.501   6.638   4.663  0.4095 -0.1986 -0.4364
 4179SOL    HW123216   9.563   6.587   4.723  2.0308  1.2196 -0.8756
 4179SOL    HW223217   9.459   6.713   4.713  0.4892 -0.0092 -0.6547
 4180SOL     OW23218   5.217   9.230   1.778 -0.3434  0.1996  0.7347
 4180SOL    HW123219   5.188   9.214   1.872 -0.0727  0.9982  0.9580
 4180SOL    HW223220   5.315   9.251   1.776  0.1888 -2.1412  0.0295
 4181SOL     OW23221   9.261   1.520   0.617  0.0305  0.5808 -0.2663
 4181SOL    HW123222   9.352   1.561   0.610  1.1030 -2.0366 -2.9625
 4181SOL    HW223223   9.204   1.551   0.541 -1.5657  2.6111  1.6994
 4182SOL     OW23224   8.948   9.318   2.413 -0.3450  0.0027 -0.0315
 4182SOL    HW123225   8.898   9.405   2.413 -1.0472 -0.3966  0.5901
 4182SOL    HW223226   8.991   9.305   2.323 -2.1915 -0.1097 -0.9384
 4183SOL     OW23227   3.953   0.652   0.485 -0.3129  0.2322 -0.0946
 4183SOL    HW123228   3.888   0.587   0.444  0.3087  0.2308 -1.0792
 4183SOL    HW223229   3.991   0.711   0.413 -2.1338  2.8478  0.9764
 4184SOL     OW23230   6.117   9.190   1.384  0.4723 -0.3633  0.1856
 4184SOL    HW123231   6.141   9.137   1.302 -0.3857  1.9046 -1.5762
 4184SOL    HW223232   6.181   9.168   1.457 -0.1998 -4.2690 -0.2663
 4185SOL     OW23233   6.016   6.599   2.105 -0.3008  0.3962  0.6389
 4185SOL    HW123234   6.068   6.633   2.183 -1.2435 -0.9008  1.8625
 4185SOL    HW223235   5.928   6.645   2.100 -0.3254  0.3308  0.4515
 4186SOL     OW23236   3.610   5.455   1.299 -0.0834  0.2511  0.3414
 4186SOL    HW123237   3.549   5.376   1.308 -0.7790  0.4976 -1.9354
 4186SOL    HW223238   3.686   5.431   1.239 -0.6599  1.5014 -0.9124
 4187SOL     OW23239   1.698   9.019   2.312 -0.4290  0.5677 -0.2864
 4187SOL    HW123240   1.731   9.113   2.322  1.0586  0.3293 -2.5476
 4187SOL    HW223241   1.754   8.971   2.244 -1.7125 -1.6995  0.1998
 4188SOL     OW23242   2.320   8.772   2.049  0.1231 -0.1026 -0.2773
 4188SOL    HW123243   2.393   8.724   2.000 -0.3644  0.3399 -1.4501
 4188SOL    HW223244   2.293   8.853   1.997 -0.6909  0.1376  0.5183
 4189SOL     OW23245   0.022   8.763   0.647 -0.4501  0.3033  0.8398
 4189SOL    HW123246  -0.013   8.751   0.554  1.1017  1.8152  0.0374
 4189SOL    HW223247   0.012   8.858   0.675 -1.5110 -0.2640  2.5028
 4190SOL     OW23248   3.577   9.957   3.727 -0.8005  0.2766 -0.1940
 4190SOL    HW123249   3.658   9.913   3.766 -1.6967  0.1534  1.6039
 4190SOL    HW223250   3.602  10.004   3.642  1.4909  1.4938  1.0888
 4191SOL     OW23251   5.173   0.044   2.116  0.0432  0.0649 -0.3227
 4191SOL    HW123252   5.140  -0.051   2.108  1.9130 -0.5969 -0.3437
 4191SOL    HW223253   5.172   0.071   2.212  0.1999 -0.2338 -0.2349
 4192SOL     OW23254   1.498   8.275   1.101 -1.1834  0.0911 -0.2571
 4192SOL    HW123255   1.443   8.329   1.037  0.3987  0.6927 -1.1489
 4192SOL    HW223256   1.566   8.334   1.145 -0.4820 -0.8453 -0.0502
 4193SOL     OW23257   4.540   0.967   2.019 -0.2056  0.5285 -0.1934
 4193SOL    HW123258   4.455   1.012   2.045  0.1748  1.7795 -1.0382
 4193SOL    HW223259   4.537   0.945   1.921  0.3131  0.3108 -0.1638
 4194SOL     OW23260   1.122   1.215   3.145  0.1580 -0.0509  0.0530
 4194SOL    HW123261   1.114   1.116   3.139  2.0938 -0.2367  0.4815
 4194SOL    HW223262   1.050   1.251   3.205 -1.3144 -1.0366 -1.0561
 4195SOL     OW23263   5.147   3.554   1.683  0.4269 -0.3130 -0.2647
 4195SOL    HW123264   5.182   3.462   1.662  0.7658 -0.7080  1.8846
 4195SOL    HW223265   5.052   3.547   1.711  0.5208 -0.0438  0.1228
 4196SOL     OW23266   5.332   7.518   2.320 -0.4933 -0.4948 -0.6864
 4196SOL    HW123267   5.365   7.605   2.357 -0.4492 -0.8126  0.0412
 4196SOL    HW223268   5.400   7.446   2.336 -0.8026 -0.7949 -0.7048
 4197SOL     OW23269   3.244   1.229   4.164  0.2357  0.3378  0.3418
 4197SOL    HW123270   3.158   1.209   4.211 -0.0801 -1.4425 -0.9127
 4197SOL    HW223271   3.237   1.317   4.117 -0.4099  0.8408  1.3702
 4198SOL     OW23272   1.239   5.389   3.886  0.0350 -0.3574 -0.1308
 4198SOL    HW123273   1.203   5.309   3.935 -0.7674 -1.3157 -2.2362
 4198SOL    HW223274   1.171   5.462   3.887  1.2424  0.8234  2.8729
 4199SOL     OW23275   1.816   7.429   3.327 -0.5755 -0.3731  0.1508
 4199SOL    HW123276   1.825   7.384   3.238 -0.2385 -1.9039  0.9351
 4199SOL    HW223277   1.810   7.359   3.399  1.3973  0.8162  1.5362
 4200SOL     OW23278   2.910   5.638   3.030 -0.1598  0.0694 -0.7817
 4200SOL    HW123279   2.929   5.723   3.079 -1.8200 -1.6358  2.9774
 4200SOL    HW223280   2.831   5.651   2.970 -1.1871  0.8840  0.7112
 4201SOL     OW23281   2.092   4.237   2.990  0.0004 -0.2275  0.2800
 4201SOL    HW123282   2.160   4.310   2.982  0.3844 -0.7524 -1.3501
 4201SOL    HW223283   2.031   4.258   3.067  1.4613  0.6767  1.2416
 4202SOL     OW23284   0.142   1.079   3.060 -0.3125  0.0268 -0.1979
 4202SOL    HW123285   0.047   1.111   3.064 -0.4113 -0.4162  1.3403
 4202SOL    HW223286   0.146   0.984   3.090  0.8385  0.5579  1.3896
 4203SOL     OW23287   8.448   3.922   2.949 -0.6845 -0.0422  0.0805
 4203SOL    HW123288   8.505   3.872   3.015  0.3527 -0.2295 -0.9343
 4203SOL    HW223289   8.505   3.988   2.900 -1.8980  1.6092  0.8718
 4204SOL     OW23290   2.349   3.224   0.743 -0.1075  0.1200  0.0296
 4204SOL    HW123291   2.392   3.314   0.750  0.6898 -0.2553  0.0379
 4204SOL    HW223292   2.267   3.231   0.687  1.1031  0.4480 -1.7249
 4205SOL     OW23293   2.159   8.289   2.322  0.8709 -0.1626  0.0841
 4205SOL    HW123294   2.098   8.297   2.401  2.2874 -0.2572  1.1996
 4205SOL    HW223295   2.114   8.328   2.242 -0.3392  0.4948  1.0626
 4206SOL     OW23296   2.502   6.663   0.297  0.1118  0.0952 -0.0625
 4206SOL    HW123297   2.442   6.717   0.356 -0.6114 -0.2913 -0.4406
 4206SOL    HW223298   2.596   6.669   0.331 -0.3820 -0.5586  1.4582
 4207SOL     OW23299   5.021   2.247   1.294 -0.4255  0.0658 -1.0777
 4207SOL    HW123300   5.055   2.299   1.372 -1.2867  0.3916 -0.9121
 4207SOL    HW223301   5.055   2.288   1.209  0.8588 -0.5428 -0.8661
 4208SOL     OW23302   8.443   9.528   2.119 -0.1843 -0.0987 -0.0585
 4208SOL    HW123303   8.399   9.611   2.154 -0.8437 -0.3519 -0.2841
 4208SOL    HW223304   8.426   9.520   2.021 -1.5031 -1.3304  0.2398
 4209SOL     OW23305   4.501   8.318   2.142 -0.0249  0.2090 -0.3719
 4209SOL    HW123306   4.534   8.264   2.065 -0.3255  0.6508 -0.8108
 4209SOL    HW223307   4.504   8.262   2.225 -0.2405 -0.4569 -0.8041
 4210SOL     OW23308   4.591   8.119   2.327  0.4032 -0.1454  0.1533
 4210SOL    HW123309   4.573   8.148   2.421 -0.5925  0.4792 -0.2224
 4210SOL    HW223310   4.655   8.042   2.327 -1.7349 -1.9560  1.4738
 4211SOL     OW23311   7.910   9.043   4.627  0.0722 -0.3062  0.4382
 4211SOL    HW123312   7.986   9.006   4.680  1.1991  1.3568  0.0249
 4211SOL    HW223313   7.912   9.143   4.632  0.1192 -0.1248 -2.6053
 4212SOL     OW23314   3.487   9.425   0.590 -0.2989  1.1750  1.1413
 4212SOL    HW123315   3.505   9.515   0.630  1.7362  1.5438 -0.5340
 4212SOL    HW223316   3.402   9.388   0.629 -1.0384  3.6823  2.0430
 4213SOL     OW23317   0.342   0.646   3.996  0.3786  0.3969  0.1707
 4213SOL    HW123318   0.407   0.614   4.064  0.4668  1.8616  0.8104
 4213SOL    HW223319   0.310   0.737   4.021 -0.8977  0.2501 -0.8481
 4214SOL     OW23320   1.127   8.106   3.528  0.0234  0.0357 -0.0041
 4214SOL    HW123321   1.130   8.110   3.428 -0.9427  1.4163  0.0033
 4214SOL    HW223322   1.191   8.037   3.561  0.9340  0.1281 -1.5407
 4215SOL     OW23323   4.279   9.445   1.980  0.3089 -0.0513  0.0184
 4215SOL    HW123324   4.183   9.470   1.994  0.4504  0.0298  0.9193
 4215SOL    HW223325   4.320   9.423   2.069 -0.0552 -4.4259 -0.7458
 4216SOL     OW23326   3.656   7.705   3.120  0.8149  0.0076 -0.3963
 4216SOL    HW123327   3.607   7.658   3.193  0.9427 -2.3113 -1.7549
 4216SOL    HW223328   3.617   7.679   3.031  1.5387  1.7172 -1.2394
 4217SOL     OW23329   1.090   3.603   0.256 -0.5615 -0.2213 -0.3071
 4217SOL    HW123330   1.167   3.547   0.287 -1.0775  0.1305  1.6919
 4217SOL    HW223331   1.121   3.696   0.238 -0.1969 -0.5052 -1.1530
 4218SOL     OW23332   1.887   3.840   1.439  0.0519  0.4267 -1.2268
 4218SOL    HW123333   1.808   3.892   1.406 -1.1763 -0.6756 -0.1076
 4218SOL    HW223334   1.867   3.804   1.530  1.9912  0.3995 -0.7988
 4219SOL     OW23335   0.987   3.508   4.235  0.1149 -0.4043 -0.7812
 4219SOL    HW123336   0.980   3.605   4.257 -0.4763  0.1921 -3.3678
 4219SOL    HW223337   0.905   3.460   4.265  0.2024 -0.0038  0.0831
 4220SOL     OW23338   4.315   0.901   0.337  0.3923 -0.2052  0.4974
 4220SOL    HW123339   4.333   0.979   0.396  0.7988  1.5512 -1.8609
 4220SOL    HW223340   4.367   0.911   0.252  0.9730 -3.3933  0.4133
 4221SOL     OW23341   6.889   8.908   2.739  0.0372 -0.0580 -0.5120
 4221SOL    HW123342   6.951   8.886   2.814 -1.1649  0.2460  0.5951
 4221SOL    HW223343   6.939   8.958   2.668  1.3528 -0.9928 -0.2583
 4222SOL     OW23344   8.668   7.357   3.615  0.4086  0.2301  0.4562
 4222SOL    HW123345   8.601   7.332   3.685  0.0333 -3.1103 -0.9874
 4222SOL    HW223346   8.760   7.353   3.654  0.1112 -0.2283  1.1178
 4223SOL     OW23347   3.836   3.886   0.503  0.0016 -0.2360 -0.1138
 4223SOL    HW123348   3.859   3.804   0.450  0.0588 -1.3582  1.6084
 4223SOL    HW223349   3.747   3.921   0.473  0.6355 -0.0620 -1.8606
 4224SOL     OW23350   0.122   5.004   4.069 -0.1438  0.2951  0.2308
 4224SOL    HW123351   0.170   4.950   4.138  0.7073  1.0418  0.2351
 4224SOL    HW223352   0.025   4.979   4.069 -0.0698 -0.0417  1.3848
 4225SOL     OW23353   2.513   8.140   0.431  0.0464 -0.1369  0.2092
 4225SOL    HW123354   2.592   8.165   0.487  0.2361  0.9020 -0.5117
 4225SOL    HW223355   2.505   8.203   0.354 -1.4448 -0.2851  0.2279
 4226SOL     OW23356   2.805   4.857   4.661  0.0273 -0.8234  0.0533
 4226SOL    HW123357   2.808   4.824   4.756 -1.3625  1.0727  0.7996
 4226SOL    HW223358   2.851   4.946   4.656 -1.1280 -0.2717 -0.7768
 4227SOL     OW23359   9.407   2.060   1.744  0.0378  0.1277 -0.0591
 4227SOL    HW123360   9.393   1.962   1.732 -1.9838  0.3776  0.0267
 4227SOL    HW223361   9.318   2.105   1.754  0.9874  1.8483  0.8209
 4228SOL     OW23362   1.876   3.142   0.762 -0.3197 -0.2412 -0.1871
 4228SOL    HW123363   1.881   3.191   0.675  0.3425  0.1377  0.0615
 4228SOL    HW223364   1.961   3.155   0.813 -0.9181 -0.0042  0.7643
 4229SOL     OW23365   8.511   9.132   2.525  0.1405 -0.4574  0.2327
 4229SOL    HW123366   8.611   9.141   2.521  0.1576  0.1330  1.6542
 4229SOL    HW223367   8.470   9.178   2.447  0.9315  0.2876  0.2517
 4230SOL     OW23368   8.366   9.750   2.698  0.3331  0.1276 -0.5925
 4230SOL    HW123369   8.405   9.779   2.785  1.2289 -1.2028 -0.5319
 4230SOL    HW223370   8.349   9.651   2.700  1.0505 -0.0536 -2.1754
 4231SOL     OW23371   4.167   9.305   3.744 -0.0550 -0.4717  0.6027
 4231SOL    HW123372   4.245   9.275   3.798  0.5300  0.9684  0.5957
 4231SOL    HW223373   4.132   9.228   3.691  2.0515 -0.9073 -0.2351
 4232SOL     OW23374   3.211   6.480   2.669  0.4740 -0.0177  0.2711
 4232SOL    HW123375   3.183   6.504   2.762 -0.5241 -1.1079  0.2541
 4232SOL    HW223376   3.223   6.381   2.663  0.5684  0.0572 -0.7603
 4233SOL     OW23377   4.631   6.879   2.058  0.2169  0.6974  0.0810
 4233SOL    HW123378   4.711   6.939   2.063  0.3167  0.5508  0.2370
 4233SOL    HW223379   4.553   6.925   2.099  0.4632  0.4400  0.8419
 4234SOL     OW23380   9.056   4.647   1.758  0.2597  0.1547  0.0225
 4234SOL    HW123381   8.989   4.667   1.686  0.0757  1.1126  0.4574
 4234SOL    HW223382   9.062   4.548   1.770 -0.4958  0.0264 -0.5678
 4235SOL     OW23383   8.804   2.441   0.328 -0.2483  0.1069 -0.1129
 4235SOL    HW123384   8.725   2.421   0.270 -0.4505  0.3171  0.0874
 4235SOL    HW223385   8.797   2.536   0.361  0.6842  0.5088 -1.0472
 4236SOL     OW23386   3.875   0.341   3.713  0.5599 -0.3556  0.1381
 4236SOL    HW123387   3.814   0.398   3.767 -0.6758 -0.9287 -0.6211
 4236SOL    HW223388   3.919   0.397   3.642  0.4956 -0.0604  0.3299
 4237SOL     OW23389   1.832   5.112   3.295 -0.2362  0.2918 -0.4219
 4237SOL    HW123390   1.737   5.080   3.287  0.3073 -1.2371 -0.8431
 4237SOL    HW223391   1.860   5.153   3.208 -1.0352  2.2321  0.2166
 4238SOL     OW23392   0.549   4.906   4.393 -0.4620 -0.4863  0.0537
 4238SOL    HW123393   0.514   4.813   4.403 -3.2237  0.3645 -1.0425
 4238SOL    HW223394   0.472   4.969   4.377  1.2121  2.1809  1.9845
 4239SOL     OW23395   3.761   6.396   3.770 -0.6050  0.0964  0.1678
 4239SOL    HW123396   3.709   6.320   3.811  0.1855 -0.2795  0.4723
 4239SOL    HW223397   3.848   6.361   3.734 -1.6406  0.2390 -2.6229
 4240SOL     OW23398   1.794   2.890   2.530 -0.0157 -0.7293 -0.0649
 4240SOL    HW123399   1.770   2.849   2.618  1.2074 -2.3774 -0.4801
 4240SOL    HW223400   1.861   2.963   2.543  0.3625 -1.1490  0.3474
 4241SOL     OW23401   9.432   9.843   4.012 -0.8362 -0.1413  0.1221
 4241SOL    HW123402   9.400   9.864   3.920 -1.5478  0.8732  0.5831
 4241SOL    HW223403   9.530   9.861   4.018 -0.7003 -0.6394 -0.5529
 4242SOL     OW23404   8.310   9.133   3.416  0.3685 -0.7857  0.1674
 4242SOL    HW123405   8.376   9.155   3.344 -0.5496 -2.0206 -1.0544
 4242SOL    HW223406   8.337   9.047   3.459  0.5483 -0.3768  0.8880
 4243SOL     OW23407   1.613   8.519   0.593 -0.5390  0.2097 -0.1815
 4243SOL    HW123408   1.536   8.561   0.545 -1.1197 -2.3221 -1.5527
 4243SOL    HW223409   1.582   8.439   0.643  1.2034 -0.9242 -0.8434
 4244SOL     OW23410   0.585   5.402   0.572  0.1880 -0.1659 -0.5885
 4244SOL    HW123411   0.619   5.415   0.479  0.8339 -1.9655 -0.6143
 4244SOL    HW223412   0.657   5.361   0.628 -0.1579  1.0001  0.7447
 4245SOL     OW23413   0.093   6.839   4.195 -0.8872 -0.1393 -0.3282
 4245SOL    HW123414   0.028   6.905   4.234  0.7718  1.5911 -0.4022
 4245SOL    HW223415   0.049   6.750   4.187 -3.3868  1.0661 -0.7258
 4246SOL     OW23416   2.290   3.585   1.757 -0.2334  0.4694 -0.1041
 4246SOL    HW123417   2.195   3.589   1.789 -0.2655  2.6595 -0.3826
 4246SOL    HW223418   2.344   3.529   1.820 -1.1582  1.4362  1.5832
 4247SOL     OW23419   4.255   7.534   3.199 -0.2593  0.5174 -0.4091
 4247SOL    HW123420   4.163   7.563   3.173 -0.9060 -0.8453  0.2792
 4247SOL    HW223421   4.321   7.571   3.134 -1.4963 -0.0399 -2.0481
 4248SOL     OW23422   0.634   0.831   4.496 -0.3055 -0.0868  0.0268
 4248SOL    HW123423   0.700   0.842   4.570  1.1156 -1.4636 -1.0133
 4248SOL    HW223424   0.589   0.918   4.478  0.9022  0.7621  1.0622
 4249SOL     OW23425   1.056   2.880   0.692 -0.5307  0.7364  0.8533
 4249SOL    HW123426   1.150   2.849   0.673 -1.0319  0.1603 -0.7347
 4249SOL    HW223427   0.994   2.801   0.689 -1.0491  1.1019  2.0133
 4250SOL     OW23428   4.941   9.490   3.744 -0.2331 -0.2519 -0.1295
 4250SOL    HW123429   4.975   9.448   3.828 -0.3138  0.3137  0.1848
 4250SOL    HW223430   4.929   9.419   3.674 -0.3690 -0.7526  0.3983
 4251SOL     OW23431   9.953   8.001   2.502 -0.4580  0.5172 -0.2294
 4251SOL    HW123432   9.924   8.092   2.533 -1.5189 -0.2176  0.9553
 4251SOL    HW223433   9.932   7.933   2.572 -1.7039 -0.9953 -2.0249
 4252SOL     OW23434   8.213   3.853   2.852  0.1682  0.4073 -0.1939
 4252SOL    HW123435   8.309   3.877   2.867  0.1791 -0.1784  0.6822
 4252SOL    HW223436   8.205   3.800   2.767  0.7544 -0.3139  0.1883
 4253SOL     OW23437   6.148   1.136   3.134 -0.2379 -0.1172 -0.1196
 4253SOL    HW123438   6.107   1.219   3.172  0.8397  0.4212 -0.0951
 4253SOL    HW223439   6.095   1.105   3.055  0.8734  2.1796 -1.8340
 4254SOL     OW23440   8.385   5.269   3.989 -0.4878  0.5781 -0.3830
 4254SOL    HW123441   8.332   5.232   4.066 -0.2754  2.3139  0.6123
 4254SOL    HW223442   8.482   5.267   4.012 -0.3526  0.2010 -0.9949
 4255SOL     OW23443   8.619   2.519   4.629  0.2445 -0.4105 -0.0530
 4255SOL    HW123444   8.662   2.582   4.693  3.3461  0.8811 -3.2555
 4255SOL    HW223445   8.537   2.561   4.590  0.9952  0.7245 -0.4310
 4256SOL     OW23446   9.686   3.958   2.850 -0.3392  0.1583  0.2014
 4256SOL    HW123447   9.708   4.052   2.824  0.6722  0.5218  2.2963
 4256SOL    HW223448   9.588   3.951   2.868 -0.5134  0.6605 -0.5361
 4257SOL     OW23449   3.677   2.814   2.040 -0.8180 -0.3089 -0.7930
 4257SOL    HW123450   3.678   2.896   2.097  0.2378 -0.6295 -0.3318
 4257SOL    HW223451   3.718   2.836   1.951  0.5338 -0.6215 -0.2529
 4258SOL     OW23452   0.009   9.071   0.673  0.1561 -0.0145  0.6254
 4258SOL    HW123453   0.059   9.043   0.591 -0.7745 -0.3657  0.1731
 4258SOL    HW223454   0.056   9.148   0.715 -1.2983  2.5594 -2.2541
 4259SOL     OW23455   8.791   3.463   1.865 -0.4673  0.1824 -0.1446
 4259SOL    HW123456   8.830   3.515   1.941 -0.3414  0.2132 -0.2308
 4259SOL    HW223457   8.858   3.456   1.791 -0.1395 -0.9402  0.2579
 4260SOL     OW23458   2.373   4.765   3.189  0.1158  0.2828 -0.3468
 4260SOL    HW123459   2.463   4.769   3.234 -0.8614 -1.1105  1.8432
 4260SOL    HW223460   2.315   4.839   3.224  0.2921  0.9952 -1.5355
 4261SOL     OW23461   1.439   5.754   3.051 -0.0053  0.6005 -0.0758
 4261SOL    HW123462   1.507   5.682   3.069 -0.0718  0.3217 -0.9168
 4261SOL    HW223463   1.348   5.713   3.046  0.0372  0.6497 -1.2242
 4262SOL     OW23464   0.434   2.162   2.819  0.4117 -0.2415 -0.5977
 4262SOL    HW123465   0.440   2.209   2.907 -0.9832 -0.3511 -0.4317
 4262SOL    HW223466   0.524   2.161   2.775  0.2702  3.7133 -1.1573
 4263SOL     OW23467   3.421   9.704   3.644 -0.0014  0.3480 -0.6550
 4263SOL    HW123468   3.384   9.648   3.719 -1.1297  1.2205 -0.5329
 4263SOL    HW223469   3.484   9.772   3.681  0.9754 -0.4999 -0.7430
 4264SOL     OW23470   0.507   0.888   0.314 -0.0120  0.3301 -0.2965
 4264SOL    HW123471   0.535   0.800   0.352  1.7934  0.1727 -1.9108
 4264SOL    HW223472   0.530   0.961   0.378 -1.4024 -0.3295  0.9920
 4265SOL     OW23473   0.725   6.533   2.791  0.2751 -0.2516 -0.4284
 4265SOL    HW123474   0.642   6.504   2.840  0.5597  0.0647  0.2338
 4265SOL    HW223475   0.739   6.631   2.804  1.4986 -0.5583  0.5656
 4266SOL     OW23476   5.172   0.086   0.910 -0.1079  0.2663 -0.4357
 4266SOL    HW123477   5.146   0.104   1.004  0.0493 -0.9119 -0.1503
 4266SOL    HW223478   5.270   0.065   0.905  0.0217  0.9752 -0.9545
 4267SOL     OW23479   0.761   9.761   1.358 -0.1490 -0.1392 -0.1901
 4267SOL    HW123480   0.724   9.779   1.267 -0.0619  1.0036 -0.0108
 4267SOL    HW223481   0.744   9.840   1.417  1.0735 -0.2762  0.3651
 4268SOL     OW23482   7.339   8.047   1.042  0.0913 -0.1009  0.2312
 4268SOL    HW123483   7.379   8.057   0.950 -2.1844  1.5942 -0.6170
 4268SOL    HW223484   7.381   8.113   1.104 -0.7918  1.1321 -0.4608
 4269SOL     OW23485   3.554   7.006   1.705  0.2860  0.2801 -0.2307
 4269SOL    HW123486   3.536   7.039   1.798  2.7271  1.9579 -0.3017
 4269SOL    HW223487   3.610   6.923   1.709  1.1605  0.8660 -0.2053
 4270SOL     OW23488   2.463   3.735   2.914 -0.0273 -0.9619  0.0691
 4270SOL    HW123489   2.541   3.798   2.919 -0.6282 -0.1723 -0.3298
 4270SOL    HW223490   2.388   3.771   2.970 -0.3931 -1.3044 -0.2007
 4271SOL     OW23491   3.414   1.354   1.554  0.0562  0.2318 -0.6063
 4271SOL    HW123492   3.433   1.324   1.647  1.9062 -0.1212 -1.0632
 4271SOL    HW223493   3.339   1.300   1.516  1.0104 -1.4173 -0.2070
 4272SOL     OW23494   3.078   7.686   1.859 -0.1257  0.5289  0.6353
 4272SOL    HW123495   2.995   7.736   1.880 -1.3678 -1.6544  1.0646
 4272SOL    HW223496   3.156   7.749   1.860 -1.4417  2.2095  2.4450
 4273SOL     OW23497   4.566   7.978   1.613 -0.5460  0.1684 -0.2022
 4273SOL    HW123498   4.469   7.962   1.596 -0.4335 -0.4041 -0.3352
 4273SOL    HW223499   4.594   7.927   1.695  0.2939 -2.0850 -1.8247
 4274SOL     OW23500   3.810   9.420   2.792 -0.0578  0.2125 -0.0182
 4274SOL    HW123501   3.888   9.399   2.850 -0.2320 -1.3819 -0.3525
 4274SOL    HW223502   3.840   9.424   2.696  0.1016  2.1756  0.0904
 4275SOL     OW23503   0.727   1.113   1.508  0.1104 -0.3307  1.0729
 4275SOL    HW123504   0.739   1.159   1.596 -0.1023  0.0616  0.8933
 4275SOL    HW223505   0.797   1.042   1.499  1.8780  1.4634  0.3619
 4276SOL     OW23506   7.578   9.896   3.925  0.0284 -0.5044  0.8487
 4276SOL    HW123507   7.512   9.839   3.974  0.6987 -1.6638  0.4237
 4276SOL    HW223508   7.533   9.938   3.846 -0.4616 -0.4764  1.1421
 4277SOL     OW23509   1.216   5.145   1.262  0.4646  0.7239  0.2410
 4277SOL    HW123510   1.263   5.058   1.246 -1.4959 -0.1752 -0.7172
 4277SOL    HW223511   1.174   5.144   1.353 -0.9193  0.0358 -0.4039
 4278SOL     OW23512   8.045   4.870   3.100  0.5414  0.3794 -0.1587
 4278SOL    HW123513   8.001   4.885   3.188  0.1278 -1.5103 -0.0125
 4278SOL    HW223514   8.126   4.812   3.112 -1.0175 -2.1527 -1.2964
 4279SOL     OW23515   1.211   6.094   3.190 -0.2817  0.4801 -0.0215
 4279SOL    HW123516   1.156   6.045   3.122  1.3676  1.7448 -2.3590
 4279SOL    HW223517   1.168   6.181   3.212 -1.0206 -0.1073  0.8564
 4280SOL     OW23518   8.858   7.002   4.373  0.8131 -0.1734  0.4726
 4280SOL    HW123519   8.794   6.950   4.429  0.7016 -0.3224  0.2093
 4280SOL    HW223520   8.952   6.976   4.396  0.7442 -0.9332 -0.0725
 4281SOL     OW23521   3.252   9.222   2.521  0.4813 -0.5486 -0.5497
 4281SOL    HW123522   3.197   9.139   2.520 -1.1160  0.4481  1.6905
 4281SOL    HW223523   3.281   9.243   2.614  2.6011  0.3061 -1.3628
 4282SOL     OW23524   9.497   9.453   1.611  0.4106  0.4824 -0.2846
 4282SOL    HW123525   9.437   9.526   1.643 -0.9483 -0.7193 -0.0640
 4282SOL    HW223526   9.455   9.407   1.533 -0.3031 -2.1690  1.5861
 4283SOL     OW23527   4.098   3.244   1.769 -0.3577 -0.2652 -0.2544
 4283SOL    HW123528   4.060   3.295   1.846  0.6789 -1.0178  0.7723
 4283SOL    HW223529   4.063   3.282   1.683 -0.6876  1.2716  0.5413
 4284SOL     OW23530   2.544   2.014   4.728 -0.4201 -0.7249  0.0256
 4284SOL    HW123531   2.543   2.090   4.794 -0.0510 -2.0963  1.6686
 4284SOL    HW223532   2.634   2.009   4.685 -0.4868 -0.1609 -0.1888
 4285SOL     OW23533   8.660   8.529   3.087 -0.0699  0.0591 -0.3807
 4285SOL    HW123534   8.562   8.544   3.103 -0.6803 -4.2921  0.6658
 4285SOL    HW223535   8.695   8.466   3.157  3.2064  0.5831 -1.4921
 4286SOL     OW23536   8.628   6.196   0.027  0.2755 -0.0476  0.5255
 4286SOL    HW123537   8.549   6.139   0.005  1.4134 -2.3538  2.2669
 4286SOL    HW223538   8.710   6.155  -0.012  0.8527  1.5345  0.0278
 4287SOL     OW23539   1.788   4.668   2.917 -0.3790 -0.0861  0.0051
 4287SOL    HW123540   1.853   4.696   2.989 -0.6822  0.4087  0.0857
 4287SOL    HW223541   1.819   4.704   2.829  1.2947 -2.6607 -0.5373
 4288SOL     OW23542   7.693   5.772   3.605  0.0338 -0.8055  0.2020
 4288SOL    HW123543   7.648   5.849   3.649 -0.1797 -0.7446 -0.1179
 4288SOL    HW223544   7.690   5.692   3.665  1.9345 -0.0440  1.3255
 4289SOL     OW23545   8.528   6.019   0.803  0.7467  0.4787  0.0989
 4289SOL    HW123546   8.590   5.944   0.781 -0.4419 -0.6403  0.5129
 4289SOL    HW223547   8.505   6.068   0.719  1.8551  0.6483 -0.1180
 4290SOL     OW23548   9.877   3.913   2.478  0.0796  0.0340  0.1790
 4290SOL    HW123549   9.851   3.816   2.487  1.6922 -0.4945 -0.5900
 4290SOL    HW223550   9.965   3.928   2.521  0.3870  0.9063 -0.7277
 4291SOL     OW23551   3.247   0.402   0.595 -0.2183  0.2660  0.3856
 4291SOL    HW123552   3.283   0.389   0.687  1.1344 -1.5615 -0.3559
 4291SOL    HW223553   3.322   0.431   0.534 -0.0068 -3.1147 -1.0829
 4292SOL     OW23554   2.509   5.061   1.788 -0.1686  0.0738  0.6722
 4292SOL    HW123555   2.580   4.992   1.805  0.3169  0.5596  0.6448
 4292SOL    HW223556   2.422   5.029   1.826 -0.1140 -0.8673  0.0479
 4293SOL     OW23557   3.832   8.573   0.098 -0.0275 -0.1962 -0.6636
 4293SOL    HW123558   3.813   8.526   0.185  1.1084  1.7065  0.6514
 4293SOL    HW223559   3.753   8.562   0.037 -1.4366 -0.3950  1.1385
 4294SOL     OW23560   9.672   4.713   4.684  0.6253  0.2475 -0.6124
 4294SOL    HW123561   9.752   4.676   4.732 -0.8141  0.7782  2.3090
 4294SOL    HW223562   9.695   4.727   4.587  2.9374 -2.9698 -0.6189
 4295SOL     OW23563   9.519   2.845   1.932  0.0480  0.0801 -0.0605
 4295SOL    HW123564   9.469   2.844   1.846 -0.3665 -0.5014  0.1843
 4295SOL    HW223565   9.595   2.910   1.926  0.0541 -0.0028 -0.8800
 4296SOL     OW23566   9.100   2.211   3.471 -0.0208 -0.2618 -0.3622
 4296SOL    HW123567   9.111   2.199   3.372  1.8691 -0.3664 -0.1563
 4296SOL    HW223568   9.189   2.229   3.512 -1.1225  2.0785  1.0371
 4297SOL     OW23569   2.877   8.771   1.388  0.5792  0.0692 -0.6707
 4297SOL    HW123570   2.855   8.843   1.454  4.0829  0.5459  0.0783
 4297SOL    HW223571   2.817   8.693   1.403 -1.1135  1.5717  0.6451
 4298SOL     OW23572   0.114   6.704   2.725  0.1312 -0.1658  0.1678
 4298SOL    HW123573   0.087   6.632   2.789  1.0859 -0.8661 -0.2080
 4298SOL    HW223574   0.148   6.783   2.776  1.4246 -0.9429  0.5028
 4299SOL     OW23575   2.170   5.019   3.573  0.8593 -0.3348 -0.0207
 4299SOL    HW123576   2.250   4.960   3.561  2.0771  1.6072 -2.0840
 4299SOL    HW223577   2.199   5.107   3.612 -0.1930  0.4755 -0.9981
 4300SOL     OW23578   9.714   2.474   4.592 -0.2355  0.2192 -0.4540
 4300SOL    HW123579   9.696   2.516   4.681 -0.7926 -1.0994  0.0674
 4300SOL    HW223580   9.785   2.405   4.601 -2.5418 -2.2225 -0.3478
 4301SOL     OW23581   1.688   8.865   4.241 -0.1148 -0.8584  0.0093
 4301SOL    HW123582   1.591   8.866   4.268 -0.2765 -1.9600 -0.5265
 4301SOL    HW223583   1.745   8.878   4.323 -0.7534  2.2396  0.0180
 4302SOL     OW23584   3.630   4.750   1.114  0.7302 -0.0616 -0.5957
 4302SOL    HW123585   3.699   4.678   1.124 -0.8746 -1.5303  0.1014
 4302SOL    HW223586   3.625   4.804   1.198 -1.6733 -2.4217  0.8262
 4303SOL     OW23587   0.394   6.878   2.224  0.0377 -0.4692  0.2344
 4303SOL    HW123588   0.330   6.876   2.147  2.7701 -0.4641 -2.1259
 4303SOL    HW223589   0.377   6.799   2.284 -0.8141 -1.6024 -1.4668
 4304SOL     OW23590   4.084   6.858   2.755  0.0742 -0.1373  0.0654
 4304SOL    HW123591   4.087   6.957   2.740  0.0929 -0.1548 -0.0479
 4304SOL    HW223592   4.076   6.839   2.852  2.1052 -0.0464  0.2810
 4305SOL     OW23593   3.458   0.369   1.645 -0.1083 -0.3563 -0.1343
 4305SOL    HW123594   3.372   0.318   1.633  0.2207 -1.1262  0.6826
 4305SOL    HW223595   3.530   0.305   1.674  0.6180  0.3726 -0.3289
 4306SOL     OW23596   0.600   4.983   3.240  0.0963 -0.4801  0.2810
 4306SOL    HW123597   0.571   4.950   3.330  1.1088 -0.2122  0.7084
 4306SOL    HW223598   0.549   5.066   3.217 -0.0635 -0.4699  0.6691
 4307SOL     OW23599   0.043   9.274   0.843 -0.2477 -0.1948 -0.0020
 4307SOL    HW123600  -0.038   9.263   0.901 -1.0380 -1.2561 -1.3036
 4307SOL    HW223601   0.037   9.361   0.794 -1.0566 -0.6895 -0.7969
 4308SOL     OW23602   3.401   5.221   1.321 -0.0960  0.0798  0.0613
 4308SOL    HW123603   3.380   5.136   1.369 -1.1952  0.1850 -0.2243
 4308SOL    HW223604   3.317   5.275   1.309  0.2157  0.2121 -1.6737
 4309SOL     OW23605   1.997   3.923   0.147 -0.4785  0.1844 -0.1619
 4309SOL    HW123606   1.983   3.991   0.075 -0.1936  0.5702  0.1471
 4309SOL    HW223607   2.035   3.840   0.106 -1.8321 -0.1823 -0.7065
 4310SOL     OW23608   9.797   2.782   3.967  0.1297 -0.2896 -0.1007
 4310SOL    HW123609   9.757   2.690   3.960  0.6489 -0.4120 -1.6063
 4310SOL    HW223610   9.725   2.851   3.960 -0.2788 -0.5833  1.1619
 4311SOL     OW23611   1.414   9.299   1.589 -0.4897 -0.5143 -0.4497
 4311SOL    HW123612   1.372   9.296   1.499 -0.4354  0.5863 -0.5192
 4311SOL    HW223613   1.498   9.353   1.586  0.2365 -1.5786 -0.0184
 4312SOL     OW23614   0.220   4.844   0.935  0.4433 -0.0039  0.4791
 4312SOL    HW123615   0.121   4.834   0.942  0.3994  0.0418 -0.0527
 4312SOL    HW223616   0.264   4.769   0.984  0.1262 -1.1372 -0.9295
 4313SOL     OW23617   0.547   5.749   3.373 -0.2978  0.2769 -0.7443
 4313SOL    HW123618   0.454   5.754   3.412  0.1098  0.5826  0.2043
 4313SOL    HW223619   0.577   5.654   3.370  0.4071  0.3926  1.4991
 4314SOL     OW23620   0.573   5.184   0.955 -0.7178 -0.2051  0.5031
 4314SOL    HW123621   0.490   5.194   1.010  0.0727 -1.0228  1.8790
 4314SOL    HW223622   0.570   5.097   0.905 -0.8570 -0.0528  0.2439
 4315SOL     OW23623   9.609   2.991   1.561 -0.3996  0.0672 -0.3791
 4315SOL    HW123624   9.651   2.901   1.552 -0.7545 -0.0865 -0.5242
 4315SOL    HW223625   9.570   3.019   1.473 -0.8688  0.0721 -0.1721
 4316SOL     OW23626   8.585   9.986   0.292 -0.0483  0.2372  0.5358
 4316SOL    HW123627   8.596  10.048   0.214  1.0950  2.1760  2.1621
 4316SOL    HW223628   8.666   9.928   0.300  0.5790  1.1777  1.2043
 4317SOL     OW23629   0.531   4.441   4.683  0.2707  0.3861 -0.2584
 4317SOL    HW123630   0.473   4.444   4.601 -0.3434  1.1283  0.1942
 4317SOL    HW223631   0.626   4.431   4.657  0.0668  0.5301 -1.0608
 4318SOL     OW23632   8.818   8.317   3.832 -0.8704  0.1678 -0.4245
 4318SOL    HW123633   8.794   8.335   3.927 -0.6311 -0.6792 -0.1985
 4318SOL    HW223634   8.900   8.369   3.808 -1.1829  0.7205 -0.2974
 4319SOL     OW23635   1.176   0.159   0.862 -0.0205  1.0018  0.1745
 4319SOL    HW123636   1.249   0.160   0.794 -0.7238 -0.3037 -0.6248
 4319SOL    HW223637   1.091   0.128   0.819 -0.9570  2.1274  1.1834
 4320SOL     OW23638   8.732   8.485   4.130  0.0943  0.0820 -0.1723
 4320SOL    HW123639   8.756   8.401   4.178 -0.5577 -0.5814 -0.9651
 4320SOL    HW223640   8.652   8.467   4.072  0.6665  0.9436 -1.2316
 4321SOL     OW23641   0.231   5.650   3.728 -0.5372  0.3407  0.1760
 4321SOL    HW123642   0.285   5.662   3.812  1.7199 -0.5311 -1.1129
 4321SOL    HW223643   0.135   5.667   3.748 -0.5318 -3.1164  3.7399
 4322SOL     OW23644   3.928   5.565   2.037  0.1636 -0.0215 -0.4664
 4322SOL    HW123645   3.878   5.501   2.095  0.2282  0.8013  0.5165
 4322SOL    HW223646   4.009   5.520   1.999  0.5728 -0.3376  0.7548
 4323SOL     OW23647   6.575   9.131   1.711 -0.3235  0.0416  0.1281
 4323SOL    HW123648   6.501   9.147   1.645  0.1896 -2.5841 -1.1459
 4323SOL    HW223649   6.550   9.171   1.799 -1.7734  2.1184 -1.1737
 4324SOL     OW23650   1.935   1.883   1.284  0.1848 -0.1865  0.0354
 4324SOL    HW123651   1.885   1.893   1.370  1.2987  0.8230  0.5859
 4324SOL    HW223652   2.032   1.904   1.300 -0.1076  3.0856 -2.0985
 4325SOL     OW23653   7.408   9.000   0.952  0.2374  0.4958 -0.7394
 4325SOL    HW123654   7.325   9.009   0.897  0.4163  0.0212 -1.0884
 4325SOL    HW223655   7.428   9.087   0.996 -2.9786 -0.4999  2.9838
 4326SOL     OW23656   4.076   3.423   3.188  0.1611  0.4769 -0.5606
 4326SOL    HW123657   4.163   3.400   3.231 -0.5583  0.4362  0.8998
 4326SOL    HW223658   4.064   3.368   3.106  1.3230  0.1977 -0.5545
 4327SOL     OW23659   3.783   2.994   2.418  0.0005 -0.4068  0.0808
 4327SOL    HW123660   3.875   2.956   2.419 -0.2364 -1.0942 -1.6390
 4327SOL    HW223661   3.723   2.939   2.477  0.5194 -0.4101  0.6059
 4328SOL     OW23662   5.964   0.550   3.261 -1.0392 -0.1296  0.4401
 4328SOL    HW123663   5.984   0.540   3.358 -2.4277 -0.3321  0.7194
 4328SOL    HW223664   5.865   0.551   3.248 -0.8588 -0.6248 -1.0303
 4329SOL     OW23665   1.477   7.832   0.110  0.1096  0.5192  0.5749
 4329SOL    HW123666   1.474   7.853   0.012 -1.9264 -0.3982  0.4018
 4329SOL    HW223667   1.409   7.889   0.157 -0.9633 -1.0879  1.0062
 4330SOL     OW23668   3.477   6.203   3.246  0.2986  0.2298 -0.4286
 4330SOL    HW123669   3.519   6.164   3.164 -1.7660 -1.2800 -0.8076
 4330SOL    HW223670   3.476   6.303   3.239  1.0375  0.1475 -1.8018
 4331SOL     OW23671   4.083   9.966   0.846  0.2282  0.0381 -0.4291
 4331SOL    HW123672   4.061   9.999   0.754 -1.2934  0.6644  0.1498
 4331SOL    HW223673   4.154  10.024   0.886 -1.1190  1.5208 -0.1360
 4332SOL     OW23674   0.689   2.509   3.618 -0.3120  0.2661 -0.7361
 4332SOL    HW123675   0.619   2.577   3.637 -1.4790 -0.7965 -1.1568
 4332SOL    HW223676   0.761   2.514   3.687 -1.1890  0.8399  0.1418
 4333SOL     OW23677   2.713   9.076   1.769  0.0913  0.1310  0.3382
 4333SOL    HW123678   2.708   9.166   1.812 -0.6195  0.6030 -0.7249
 4333SOL    HW223679   2.706   9.005   1.839 -2.2715  0.8855  0.9064
 4334SOL     OW23680   1.373   0.857   1.632  0.1171  0.4443  0.3666
 4334SOL    HW123681   1.291   0.846   1.688 -0.3664 -1.4598 -0.6629
 4334SOL    HW223682   1.382   0.953   1.605 -2.1954  0.5576 -0.1139
 4335SOL     OW23683   9.421   5.349   0.207  0.6981 -0.1347  0.2732
 4335SOL    HW123684   9.430   5.323   0.304  2.0976 -1.8457 -0.2930
 4335SOL    HW223685   9.494   5.411   0.182 -0.0554  0.8465  0.4684
 4336SOL     OW23686   6.599   9.735   1.270 -0.0282  0.3855 -0.6678
 4336SOL    HW123687   6.577   9.830   1.287  0.8254  0.3906  0.4776
 4336SOL    HW223688   6.517   9.679   1.280  0.1359  0.5769  2.1251
 4337SOL     OW23689   3.777   7.755   3.418  0.2643  1.0119  0.0753
 4337SOL    HW123690   3.731   7.668   3.402  0.1446  1.0435  0.2485
 4337SOL    HW223691   3.720   7.814   3.475 -1.1073  2.4831 -2.7122
 4338SOL     OW23692   7.967   2.063   2.122  0.0236  0.5077  0.0765
 4338SOL    HW123693   7.897   2.021   2.179  0.6117 -3.4557 -1.9511
 4338SOL    HW223694   8.057   2.048   2.162  0.3743 -1.6632 -1.4456
 4339SOL     OW23695   1.659   1.686   2.944 -0.1273  0.2150 -0.7263
 4339SOL    HW123696   1.740   1.644   2.903  0.5913  2.0443 -1.2616
 4339SOL    HW223697   1.631   1.634   3.024 -0.0609 -2.0044 -2.1176
 4340SOL     OW23698   1.819   1.643   1.898  0.0810 -0.1628 -0.1188
 4340SOL    HW123699   1.908   1.614   1.864  0.7657  0.9510  0.7351
 4340SOL    HW223700   1.750   1.577   1.869  0.9683 -0.3094 -1.9462
 4341SOL     OW23701   8.427   3.162   1.185 -0.1745  0.5808  0.0150
 4341SOL    HW123702   8.371   3.125   1.112  0.5912  0.9996 -0.8057
 4341SOL    HW223703   8.377   3.234   1.233 -0.3952  0.8641 -0.6319
 4342SOL     OW23704   8.612   4.022   2.384  0.3040  0.1193 -0.2623
 4342SOL    HW123705   8.703   3.987   2.406  0.1090 -0.3805 -0.2680
 4342SOL    HW223706   8.585   3.990   2.293  0.2943  0.6066 -0.4343
 4343SOL     OW23707   3.690   7.301   4.084 -0.6235 -0.0324 -0.2262
 4343SOL    HW123708   3.779   7.280   4.043 -1.0446 -1.8639 -0.2583
 4343SOL    HW223709   3.683   7.399   4.101  1.7951  0.0127  0.6739
 4344SOL     OW23710   2.397   1.925   4.017  0.1858 -0.1028  0.3522
 4344SOL    HW123711   2.458   1.991   4.061 -0.7034  0.8421  0.1641
 4344SOL    HW223712   2.303   1.940   4.048 -0.3763  0.2509 -1.4930
 4345SOL     OW23713   6.963   0.834   2.155 -0.0114  0.5760 -0.0090
 4345SOL    HW123714   6.883   0.802   2.205  0.4354 -1.5368 -0.5755
 4345SOL    HW223715   6.978   0.931   2.173 -1.3460  0.4503  1.9003
 4346SOL     OW23716   7.924   7.241   3.302  0.1025 -0.1347 -0.1595
 4346SOL    HW123717   7.842   7.295   3.282 -0.5526 -1.5383 -1.3406
 4346SOL    HW223718   8.000   7.274   3.246  0.2843  0.9814  0.7282
 4347SOL     OW23719   3.087   1.369   3.286 -0.1767  0.2654  0.0968
 4347SOL    HW123720   3.045   1.285   3.319 -0.6201  0.8050  0.9244
 4347SOL    HW223721   3.023   1.419   3.228 -0.4287  0.7287  0.7654
 4348SOL     OW23722   7.977   9.898   2.550 -0.0375  0.0615  0.3460
 4348SOL    HW123723   8.021   9.915   2.638  1.7671 -1.1985 -0.2664
 4348SOL    HW223724   7.880   9.880   2.563 -0.1635  1.7250  1.8767
 4349SOL     OW23725   7.415   8.951   3.155  0.0114 -0.0921  0.4325
 4349SOL    HW123726   7.348   8.886   3.191  1.5311 -1.5103  0.7194
 4349SOL    HW223727   7.438   9.017   3.226 -0.1883 -0.3146  0.7046
 4350SOL     OW23728   8.359   4.146   3.802  0.2645 -0.1504  0.0991
 4350SOL    HW123729   8.267   4.184   3.815 -0.3659 -0.8370 -2.1810
 4350SOL    HW223730   8.427   4.216   3.823 -0.7377  0.2459  2.1970
 4351SOL     OW23731   6.496   8.404   1.648  0.2969  0.0630 -0.0914
 4351SOL    HW123732   6.457   8.364   1.731  1.6125 -0.8044  0.1254
 4351SOL    HW223733   6.509   8.332   1.579 -1.0530  0.8214 -1.1746
 4352SOL     OW23734   5.195   1.264   2.963  0.2332  0.5351 -0.0224
 4352SOL    HW123735   5.243   1.203   3.026  0.5845 -0.3315 -1.1069
 4352SOL    HW223736   5.137   1.210   2.902  0.8997  1.2369 -1.3091
 4353SOL     OW23737   0.220   3.895   1.063  0.1645 -0.5003 -0.1818
 4353SOL    HW123738   0.202   3.964   1.132  1.2308 -0.5413  0.1367
 4353SOL    HW223739   0.191   3.805   1.097  1.7714 -0.6995  0.6785
 4354SOL     OW23740   0.498   3.972   4.218 -0.0055 -0.3012  0.2088
 4354SOL    HW123741   0.409   3.929   4.236  0.1041 -0.1141  1.2683
 4354SOL    HW223742   0.568   3.924   4.271  0.4109  0.0156 -0.0588
 4355SOL     OW23743   7.872   4.555   0.687 -0.1661 -0.3394 -0.0227
 4355SOL    HW123744   7.874   4.456   0.675  1.1386 -0.4052  0.6321
 4355SOL    HW223745   7.945   4.596   0.633 -0.1302  0.1867  0.4219
 4356SOL     OW23746   3.705   2.864   4.740  0.4604  0.2659  0.5485
 4356SOL    HW123747   3.723   2.798   4.813  0.1958  2.0761  2.3120
 4356SOL    HW223748   3.782   2.928   4.734 -0.2851  1.1522  0.3919
 4357SOL     OW23749   4.383   2.584   3.340 -0.0588  0.0147 -0.2299
 4357SOL    HW123750   4.289   2.613   3.317  0.0522 -1.0719 -2.1274
 4357SOL    HW223751   4.385   2.551   3.434 -1.5951 -0.0204 -0.1876
 4358SOL     OW23752   4.420   3.025   3.438  0.0019  0.5908 -0.0237
 4358SOL    HW123753   4.427   3.113   3.391  0.9775 -0.8329 -2.6934
 4358SOL    HW223754   4.433   3.037   3.536 -3.3348  3.8835  0.1218
 4359SOL     OW23755   9.405   0.818   0.543  1.0127  0.4817 -0.2294
 4359SOL    HW123756   9.334   0.876   0.504  1.4892  0.3326 -1.3278
 4359SOL    HW223757   9.370   0.725   0.552  0.8292  0.5636 -0.0802
 4360SOL     OW23758   3.281   8.483   3.039  0.3559  0.2396 -0.3606
 4360SOL    HW123759   3.246   8.553   2.978  0.4141  0.0698 -0.5889
 4360SOL    HW223760   3.246   8.393   3.012  1.4166 -0.0082 -0.9518
 4361SOL     OW23761   3.450   8.080   0.315  0.4632 -0.5944 -0.3554
 4361SOL    HW123762   3.455   8.125   0.404  2.4787  0.1663 -0.8429
 4361SOL    HW223763   3.399   7.994   0.324 -0.9534  0.3763  1.1429
 4362SOL     OW23764   3.126   6.528   3.158 -0.0019  0.1661  0.0332
 4362SOL    HW123765   3.110   6.521   3.257 -0.0925  1.3429  0.1108
 4362SOL    HW223766   3.223   6.544   3.141 -0.0523  0.4002 -0.0405
 4363SOL     OW23767   7.123   6.908   2.157  0.0296  0.1501 -0.6991
 4363SOL    HW123768   7.186   6.980   2.185 -0.1659  0.6741 -1.5743
 4363SOL    HW223769   7.059   6.944   2.089 -2.1539  0.0147  1.2376
 4364SOL     OW23770   2.177   5.008   2.709 -0.1306 -0.3262  0.2249
 4364SOL    HW123771   2.236   5.086   2.731 -1.2221  1.0690 -1.5723
 4364SOL    HW223772   2.232   4.934   2.671  0.5085  0.9790 -1.4804
 4365SOL     OW23773   8.675   5.686   4.498  0.3686 -1.0303 -0.5945
 4365SOL    HW123774   8.686   5.626   4.576 -0.9697 -1.0536 -0.4229
 4365SOL    HW223775   8.578   5.697   4.477  0.6994 -0.7952 -2.0657
 4366SOL     OW23776   8.490   6.667   2.037 -0.3921 -0.6500 -0.5629
 4366SOL    HW123777   8.422   6.727   1.996  0.0109 -1.7875 -2.9718
 4366SOL    HW223778   8.582   6.701   2.016 -0.1890 -0.3104  0.8384
 4367SOL     OW23779   0.863   8.129   0.420 -0.4406  0.4786  0.6119
 4367SOL    HW123780   0.922   8.166   0.349 -0.8834  0.7436  0.3813
 4367SOL    HW223781   0.769   8.120   0.385 -0.4855 -0.1897  0.8866
 4368SOL     OW23782   5.542   0.704   3.002  0.2395 -0.1322 -0.0107
 4368SOL    HW123783   5.538   0.740   2.908  0.8109  0.7320  0.2924
 4368SOL    HW223784   5.482   0.758   3.061 -1.8323 -2.0470 -0.3121
 4369SOL     OW23785   0.248   2.313   3.322  0.0997 -0.0431 -0.5190
 4369SOL    HW123786   0.225   2.353   3.411 -1.9260  0.4520 -1.2457
 4369SOL    HW223787   0.265   2.215   3.333 -0.9768 -0.1506  0.2886
 4370SOL     OW23788   1.318   9.774   0.929  0.2698 -0.5118  0.1352
 4370SOL    HW123789   1.318   9.842   1.002  1.5710 -2.6489  2.1729
 4370SOL    HW223790   1.388   9.798   0.861  1.0503 -0.1000  1.0754
 4371SOL     OW23791   9.232   6.648   0.113 -0.0980  0.3065 -0.0126
 4371SOL    HW123792   9.156   6.626   0.052  0.9376 -0.0180 -1.2071
 4371SOL    HW223793   9.274   6.733   0.084  0.0836  0.4150  0.5646
 4372SOL     OW23794   8.701   5.002   4.382  0.1962  0.3844 -0.6613
 4372SOL    HW123795   8.696   5.043   4.473 -1.3518 -1.2600  0.0269
 4372SOL    HW223796   8.797   4.990   4.355  0.8079 -3.3060  2.7255
 4373SOL     OW23797   1.594   5.101   3.830 -0.5859  0.0468 -0.4684
 4373SOL    HW123798   1.656   5.100   3.751 -0.2834  2.3446 -0.2860
 4373SOL    HW223799   1.499   5.094   3.798 -0.3930 -0.5211 -0.9302
 4374SOL     OW23800   8.238   3.288   0.953  0.2628  0.2139 -0.2196
 4374SOL    HW123801   8.240   3.296   0.853  0.7725 -1.5789 -0.3657
 4374SOL    HW223802   8.319   3.332   0.991 -1.2466  3.2804 -0.3810
 4375SOL     OW23803   3.434   2.734   4.637 -0.0179  0.0705  0.3804
 4375SOL    HW123804   3.491   2.773   4.564 -1.1812  1.3429  0.1207
 4375SOL    HW223805   3.490   2.720   4.718  1.0660 -0.3994 -0.4308
 4376SOL     OW23806   4.100   3.773   0.577  0.4525 -0.0425 -0.0490
 4376SOL    HW123807   4.021   3.834   0.570 -0.4662 -1.0540  1.3781
 4376SOL    HW223808   4.179   3.825   0.610 -0.3574  0.3689  1.2684
 4377SOL     OW23809   8.477   4.589   0.427 -0.3196 -0.1115 -0.2238
 4377SOL    HW123810   8.524   4.536   0.356 -0.0799 -0.0721 -0.0948
 4377SOL    HW223811   8.541   4.654   0.468 -0.9536  1.1835 -1.2676
 4378SOL     OW23812   3.211   0.618   2.753 -0.2267 -0.2154  0.0299
 4378SOL    HW123813   3.159   0.683   2.699  0.7161  1.0605  0.6179
 4378SOL    HW223814   3.265   0.559   2.692  0.2033  0.6691 -0.4486
 4379SOL     OW23815   3.808   7.092   4.223  0.1412  0.3771 -0.1070
 4379SOL    HW123816   3.773   7.174   4.177 -0.5337  0.6487  0.8761
 4379SOL    HW223817   3.844   7.116   4.313  0.5405 -0.3095 -0.0767
 4380SOL     OW23818   5.342   9.040   3.142 -0.1534  0.3037 -0.5660
 4380SOL    HW123819   5.429   9.010   3.103 -0.1097 -1.3018  0.7263
 4380SOL    HW223820   5.290   8.961   3.174 -0.7690  1.4597  1.4179
 4381SOL     OW23821   7.690   9.825   2.732 -0.5436 -0.0005  0.1158
 4381SOL    HW123822   7.696   9.830   2.832  2.2461  0.4049 -0.0320
 4381SOL    HW223823   7.650   9.737   2.705 -1.1740 -0.1695  1.5648
 4382SOL     OW23824   8.608   2.553   4.318 -0.0587 -0.4470  0.3642
 4382SOL    HW123825   8.518   2.519   4.347 -1.1212  1.5317 -0.4545
 4382SOL    HW223826   8.661   2.580   4.398 -0.7228 -0.3882  0.7938
 4383SOL     OW23827   0.436   7.709   1.509  0.4993 -0.2412 -0.0152
 4383SOL    HW123828   0.492   7.782   1.470 -2.0637  1.6290 -0.3102
 4383SOL    HW223829   0.456   7.701   1.607  0.2454  1.4044  0.1914
 4384SOL     OW23830   1.076   9.129   3.727  0.0289  0.0920  0.5626
 4384SOL    HW123831   1.075   9.224   3.755 -0.1311  0.2542  0.0184
 4384SOL    HW223832   1.162   9.086   3.754  0.0050  0.3273  1.0093
 4385SOL     OW23833   7.536   8.539   1.877  0.2660  0.0942  0.2544
 4385SOL    HW123834   7.481   8.457   1.892 -1.9205  1.3039 -0.9005
 4385SOL    HW223835   7.549   8.553   1.779 -0.0740  1.5431  0.3998
 4386SOL     OW23836   9.671   9.721   2.494  0.5481 -0.4199  0.2117
 4386SOL    HW123837   9.723   9.785   2.551 -0.4623  1.8156 -1.2769
 4386SOL    HW223838   9.719   9.706   2.407  1.4336 -2.7730  1.0749
 4387SOL     OW23839   9.137   9.932   0.147  0.0436 -0.1673 -0.6231
 4387SOL    HW123840   9.123   9.850   0.202  1.3541  0.4643  0.6913
 4387SOL    HW223841   9.081   9.927   0.064 -0.0496 -2.2675 -0.4465
 4388SOL     OW23842   7.787   6.044   1.804 -0.3477  0.3220 -0.2083
 4388SOL    HW123843   7.867   5.999   1.844 -0.6736  0.6540  0.8588
 4388SOL    HW223844   7.705   5.989   1.823 -0.2308 -0.5465 -2.2058
 4389SOL     OW23845   4.398   1.194   1.294  0.1120 -0.0224  0.0486
 4389SOL    HW123846   4.331   1.268   1.283 -1.2716 -1.3300 -0.3980
 4389SOL    HW223847   4.351   1.109   1.317  1.7955 -0.4947  1.9382
 4390SOL     OW23848   5.894   0.149   1.692  0.1856 -0.0558  0.0902
 4390SOL    HW123849   5.895   0.151   1.792 -0.0731  0.8901  0.0816
 4390SOL    HW223850   5.800   0.139   1.660  0.1996  0.3003 -0.0651
 4391SOL     OW23851   2.036   1.043   4.048 -0.2755 -0.0014  0.2616
 4391SOL    HW123852   1.963   0.989   4.007 -0.7192  0.3175  0.6291
 4391SOL    HW223853   2.026   1.139   4.022  0.0155  0.0424  0.3062
 4392SOL     OW23854   2.736   5.865   3.623  0.0963 -0.2586 -0.1034
 4392SOL    HW123855   2.647   5.867   3.668  1.1166 -0.0929  1.9458
 4392SOL    HW223856   2.729   5.809   3.540 -1.2362 -2.6108  1.5207
 4393SOL     OW23857   3.016   9.660   0.510  0.2293 -0.1418  0.0408
 4393SOL    HW123858   3.109   9.644   0.479  0.2420  0.0127 -0.0039
 4393SOL    HW223859   3.010   9.750   0.553  0.7873 -1.4009  2.8041
 4394SOL     OW23860   3.593   8.308   0.772 -0.6394  0.3167 -0.0667
 4394SOL    HW123861   3.656   8.235   0.798  1.4617  1.5197 -1.5363
 4394SOL    HW223862   3.531   8.328   0.847  1.3084 -0.3414  1.7682
 4395SOL     OW23863   0.741   7.532   1.888  0.1053 -0.4384  0.6818
 4395SOL    HW123864   0.675   7.603   1.862 -0.3396 -0.6503  1.2257
 4395SOL    HW223865   0.729   7.452   1.829  3.3659  1.4425 -2.7351
 4396SOL     OW23866   7.602   2.850   4.184 -0.1631  0.1595  0.5545
 4396SOL    HW123867   7.559   2.882   4.100 -0.9479 -1.3883  0.3386
 4396SOL    HW223868   7.699   2.830   4.167 -0.4687 -0.7675 -0.1719
 4397SOL     OW23869   2.955   1.265   1.988  0.0731  1.0456  0.4457
 4397SOL    HW123870   2.894   1.289   1.912 -2.0756 -1.5356  1.2812
 4397SOL    HW223871   3.047   1.249   1.952 -1.1833 -1.3784 -1.8438
 4398SOL     OW23872   8.324   0.239   3.868  0.0267 -0.1630  0.0287
 4398SOL    HW123873   8.282   0.162   3.820  1.4613 -1.9647  1.5831
 4398SOL    HW223874   8.409   0.209   3.911  0.0489  2.0384  1.5961
 4399SOL     OW23875   0.472   5.791   2.782  0.2986 -0.2775  0.5061
 4399SOL    HW123876   0.452   5.823   2.689 -1.6302  0.7086  1.2239
 4399SOL    HW223877   0.557   5.833   2.814  1.5799 -1.5026 -1.2170
 4400SOL     OW23878   3.517   7.361   4.315 -0.1238  0.2599  0.0149
 4400SOL    HW123879   3.437   7.382   4.259  0.1305 -0.5435 -0.6718
 4400SOL    HW223880   3.597   7.410   4.279 -0.1218  0.3519  0.1447
 4401SOL     OW23881   3.089   9.648   2.783 -0.6101 -0.0461  0.0868
 4401SOL    HW123882   3.077   9.676   2.879 -1.8256  0.1875 -0.1236
 4401SOL    HW223883   3.059   9.553   2.772 -1.3327  0.2163 -0.2417
 4402SOL     OW23884   1.843   4.959   0.949 -0.1261  0.8256  0.3129
 4402SOL    HW123885   1.874   4.920   1.036  0.4265  2.0016  0.6432
 4402SOL    HW223886   1.810   5.052   0.963 -0.1855  0.9651 -0.7138
 4403SOL     OW23887   0.786   1.856   1.889 -0.6458 -1.2250  0.2694
 4403SOL    HW123888   0.727   1.914   1.833  0.9585 -0.7095 -0.9476
 4403SOL    HW223889   0.751   1.763   1.890 -1.4494 -0.9340 -0.4760
 4404SOL     OW23890   8.721   5.265   4.039 -0.2288  0.4505 -0.0525
 4404SOL    HW123891   8.692   5.294   4.130 -0.0118  0.1333  0.1206
 4404SOL    HW223892   8.764   5.341   3.992  1.5072  0.0747  0.8845
 4405SOL     OW23893   1.267   0.771   2.532 -0.0666  0.1918 -0.0929
 4405SOL    HW123894   1.287   0.673   2.538 -2.3271 -0.2586  0.6620
 4405SOL    HW223895   1.349   0.823   2.558  1.2352 -1.4768 -0.7432
 4406SOL     OW23896   1.588   5.603   0.464 -0.1576  0.4932 -0.2500
 4406SOL    HW123897   1.588   5.696   0.428  0.3775  1.0442  1.1537
 4406SOL    HW223898   1.630   5.602   0.555  1.1835 -1.3331 -0.8484
 4407SOL     OW23899   8.826   9.829   0.372 -0.0530 -0.0185 -0.2569
 4407SOL    HW123900   8.831   9.756   0.439 -0.9268 -1.0495 -1.2904
 4407SOL    HW223901   8.903   9.891   0.384 -0.7969  0.4756  2.4284
 4408SOL     OW23902   1.933   7.182   0.169 -0.5527  0.2960  0.2787
 4408SOL    HW123903   2.026   7.156   0.195  0.1372 -0.2184 -2.6002
 4408SOL    HW223904   1.868   7.119   0.212  0.7487 -2.4467 -1.6697
 4409SOL     OW23905   5.248   8.364   1.651  0.0369 -0.1428 -0.1455
 4409SOL    HW123906   5.270   8.298   1.723 -1.5248 -0.3101  0.1963
 4409SOL    HW223907   5.149   8.365   1.636  0.2849  0.3961 -1.8118
 4410SOL     OW23908   9.828   0.031   2.139  0.5200 -0.4018 -0.5480
 4410SOL    HW123909   9.751   0.008   2.200  0.5630 -0.4706 -0.5181
 4410SOL    HW223910   9.882  -0.051   2.122  0.5358 -0.3719 -0.6405
 4411SOL     OW23911   9.378   0.483   2.301 -0.1837 -0.3823  0.1930
 4411SOL    HW123912   9.387   0.432   2.387 -1.0290  0.4287  0.7706
 4411SOL    HW223913   9.334   0.571   2.319  2.1433  0.9898 -0.6427
 4412SOL     OW23914   6.703   9.738   1.694  0.3533 -0.0993 -0.0060
 4412SOL    HW123915   6.613   9.766   1.662 -0.2068 -1.6601  0.1580
 4412SOL    HW223916   6.722   9.781   1.782  0.4083  1.4096 -0.7360
 4413SOL     OW23917   9.320   1.907   3.253  0.4637  0.0214 -0.5685
 4413SOL    HW123918   9.343   1.871   3.163  1.5657 -0.6603 -0.0270
 4413SOL    HW223919   9.227   1.882   3.276  0.9605 -1.8522 -0.5270
 4414SOL     OW23920   0.356   7.264   2.141 -1.3056  0.3455 -0.3510
 4414SOL    HW123921   0.451   7.290   2.157 -1.1289  0.4647 -1.5696
 4414SOL    HW223922   0.347   7.225   2.049 -2.6545  1.4376 -0.6946
 4415SOL     OW23923   7.485   3.882   3.825 -0.2369 -0.1078  0.0935
 4415SOL    HW123924   7.495   3.848   3.919  1.0277  0.9694  0.3538
 4415SOL    HW223925   7.541   3.826   3.764 -1.5852 -1.2411 -0.1486
 4416SOL     OW23926   3.614   8.162   1.947  0.1739 -0.2757 -0.1215
 4416SOL    HW123927   3.676   8.107   1.892  0.3791  0.1775 -0.3447
 4416SOL    HW223928   3.646   8.257   1.950 -0.4527 -0.0596 -0.1638
 4417SOL     OW23929   1.311   2.914   2.003 -0.1752 -0.0579  0.5245
 4417SOL    HW123930   1.230   2.970   2.015  1.4487  2.5761 -0.3596
 4417SOL    HW223931   1.329   2.901   1.905  0.9804  0.1710  0.6964
 4418SOL     OW23932   4.229   1.964   2.154  0.9847 -0.3697  0.4313
 4418SOL    HW123933   4.326   1.987   2.162  1.6675 -2.6505 -0.7638
 4418SOL    HW223934   4.208   1.942   2.059 -0.7954  0.4143  0.6323
 4419SOL     OW23935   3.901   3.179   4.119 -0.4172 -0.3690 -0.0540
 4419SOL    HW123936   3.807   3.213   4.117  0.1391  1.1597 -2.0843
 4419SOL    HW223937   3.958   3.233   4.057  2.5255  0.7746  3.4219
 4420SOL     OW23938   4.108   1.138   2.250 -0.4011 -0.0206 -0.1290
 4420SOL    HW123939   4.050   1.103   2.323 -0.7414  0.7395 -0.0224
 4420SOL    HW223940   4.165   1.212   2.286 -0.5595  0.3483 -0.6294
 4421SOL     OW23941   8.662   6.624   1.116 -0.2321 -0.0998  0.2821
 4421SOL    HW123942   8.669   6.645   1.214 -1.1252  1.8486 -0.0501
 4421SOL    HW223943   8.620   6.701   1.068  0.8084 -0.7679 -1.7598
 4422SOL     OW23944   1.596   0.022   3.501  0.0864 -0.2253  0.1597
 4422SOL    HW123945   1.515   0.002   3.556 -0.3538  0.7985 -0.0914
 4422SOL    HW223946   1.660  -0.055   3.505  0.6930  0.3866  3.2417
 4423SOL     OW23947   0.526   3.646   2.644  0.4851 -0.0630  0.3263
 4423SOL    HW123948   0.511   3.737   2.683  0.9703  0.0128  0.3297
 4423SOL    HW223949   0.622   3.622   2.650  0.3364 -0.6329  0.4421
 4424SOL     OW23950   4.861   8.709   2.720 -0.7784 -0.3207 -0.2393
 4424SOL    HW123951   4.867   8.634   2.786 -1.7575 -0.4682 -0.3060
 4424SOL    HW223952   4.833   8.673   2.631  0.0698 -0.0553 -0.6221
 4425SOL     OW23953   0.320   2.005   3.086  0.2403  0.5337  0.2849
 4425SOL    HW123954   0.368   1.931   3.041 -0.3316  0.7458 -0.6830
 4425SOL    HW223955   0.359   2.093   3.058 -1.8411  0.8157 -1.9470
 4426SOL     OW23956   8.318   6.601   3.206  0.3110 -0.0447 -0.5598
 4426SOL    HW123957   8.290   6.626   3.113  1.2231  2.0812 -0.2783
 4426SOL    HW223958   8.294   6.674   3.269  1.5805 -0.5627  0.5461
 4427SOL     OW23959   3.916   0.760   1.154 -0.3128  0.1472  0.6124
 4427SOL    HW123960   3.939   0.726   1.063 -2.4833  1.2014 -0.3612
 4427SOL    HW223961   3.956   0.699   1.223  0.9284 -0.9442 -1.0303
 4428SOL     OW23962   0.375   7.340   3.256 -0.2095 -0.0639 -0.2492
 4428SOL    HW123963   0.387   7.433   3.290 -1.2239 -0.2082  0.5268
 4428SOL    HW223964   0.426   7.277   3.314 -2.6049 -0.4074  1.6243
 4429SOL     OW23965   2.220   3.943   0.739 -0.2846 -0.7076  0.4265
 4429SOL    HW123966   2.269   3.905   0.818 -0.7632 -3.0092 -0.3616
 4429SOL    HW223967   2.284   3.988   0.678  0.8790 -3.7315 -0.6193
 4430SOL     OW23968   8.242   9.559   1.430 -0.0945 -0.2918 -0.2686
 4430SOL    HW123969   8.187   9.571   1.348 -1.6805  2.5018  1.1204
 4430SOL    HW223970   8.184   9.522   1.503 -0.5804  3.8080  1.5627
 4431SOL     OW23971   6.909   9.148   1.941  0.1961  0.2103 -0.1779
 4431SOL    HW123972   6.866   9.076   1.994  0.3841  1.4014  1.6608
 4431SOL    HW223973   6.918   9.120   1.846 -1.8238 -1.2489  0.0476
 4432SOL     OW23974   2.095   4.307   0.981 -0.3523 -0.0328  0.3473
 4432SOL    HW123975   2.036   4.292   0.902 -0.2033  1.9723 -0.1804
 4432SOL    HW223976   2.044   4.355   1.052 -0.2508 -1.1112  1.1554
 4433SOL     OW23977   3.834   4.452   2.144  0.1136  0.0406 -0.2986
 4433SOL    HW123978   3.747   4.422   2.184  0.0695  1.6031  0.8158
 4433SOL    HW223979   3.839   4.421   2.049 -1.0811 -1.1767  0.0109
 4434SOL     OW23980   2.592   1.758   3.555 -0.0841 -0.1642  0.1494
 4434SOL    HW123981   2.556   1.825   3.619 -0.1573 -0.6233  0.5912
 4434SOL    HW223982   2.640   1.805   3.480 -0.1941  0.3758  0.4194
 4435SOL     OW23983   6.715   9.251   1.350 -0.0137  0.2881 -0.8331
 4435SOL    HW123984   6.667   9.325   1.303  0.2213 -0.2111 -1.8900
 4435SOL    HW223985   6.808   9.245   1.314  0.0020 -0.4418 -0.6740
 4436SOL     OW23986   4.162   3.944   4.666 -0.1401 -0.5750 -0.5002
 4436SOL    HW123987   4.132   3.998   4.744  1.4668 -1.4989  0.7837
 4436SOL    HW223988   4.107   3.968   4.585  0.3158  2.6976  0.1078
 4437SOL     OW23989   4.092   7.805   1.790  0.3661  0.3708  0.1602
 4437SOL    HW123990   3.999   7.816   1.824  0.3139 -0.2311  0.2232
 4437SOL    HW223991   4.094   7.822   1.691  0.1402  0.1117  0.1123
 4438SOL     OW23992   2.419   8.437   0.989  0.0835 -0.0694 -0.3807
 4438SOL    HW123993   2.419   8.398   1.081  1.3113 -1.5561 -0.9863
 4438SOL    HW223994   2.430   8.363   0.922 -1.2260  0.9569 -1.7371
 4439SOL     OW23995   9.927   0.296   0.739 -0.2647 -0.1446 -0.9857
 4439SOL    HW123996   9.881   0.334   0.660 -1.0136  1.0846  0.0285
 4439SOL    HW223997   9.859   0.263   0.805  0.3197  0.5481 -0.0286
 4440SOL     OW23998   3.271   3.565   1.729  0.3486  0.0558  0.0882
 4440SOL    HW123999   3.273   3.468   1.753  0.2989  0.1522  0.4886
 4440SOL    HW224000   3.358   3.607   1.752 -0.6229  0.7624  2.7316
 4441SOL     OW24001   1.685   8.420   1.219 -0.0141 -0.2874 -0.7418
 4441SOL    HW124002   1.755   8.358   1.255 -2.3586 -1.4475  2.1369
 4441SOL    HW224003   1.701   8.512   1.255  0.6046 -0.3363 -0.8900
 4442SOL     OW24004   3.448   1.915   4.200  0.6367  0.2620 -0.0570
 4442SOL    HW124005   3.351   1.893   4.209  0.8209 -0.0116  1.3418
 4442SOL    HW224006   3.466   1.949   4.108 -0.5584 -0.8467 -0.7169
 4443SOL     OW24007   9.102   3.696   3.595  0.1103 -0.4583 -0.0086
 4443SOL    HW124008   9.054   3.700   3.682 -1.3459 -2.4449 -0.6758
 4443SOL    HW224009   9.188   3.747   3.602 -0.8902  1.0361  1.9693
 4444SOL     OW24010   0.262   3.200   1.653  0.2222 -0.6710  0.2575
 4444SOL    HW124011   0.201   3.125   1.629 -0.1219  0.1038 -1.4010
 4444SOL    HW224012   0.334   3.167   1.714 -1.5913 -1.6882  1.8657
 4445SOL     OW24013   9.981   8.682   3.491  0.2909 -0.4220  0.0158
 4445SOL    HW124014   9.887   8.699   3.520  1.0427  1.1108  1.5919
 4445SOL    HW224015  10.039   8.673   3.571  1.2021 -3.2695 -0.8934
 4446SOL     OW24016   1.544   2.153   2.842  0.1235 -0.3277  0.0427
 4446SOL    HW124017   1.550   2.166   2.941  3.0506 -0.5614 -0.0782
 4446SOL    HW224018   1.553   2.056   2.821 -1.0126 -0.3340 -0.4346
 4447SOL     OW24019   0.241   6.634   0.471  0.0710  0.0295  0.1290
 4447SOL    HW124020   0.279   6.715   0.515  0.2082  0.0998 -0.1185
 4447SOL    HW224021   0.141   6.633   0.483 -0.1388  1.1580 -1.3854
 4448SOL     OW24022   2.333   3.817   1.916  0.4537  0.1152  0.2057
 4448SOL    HW124023   2.309   3.746   1.850  1.1169 -0.1059  0.2055
 4448SOL    HW224024   2.255   3.880   1.926  0.6429  0.6379 -1.4017
 4449SOL     OW24025   9.550   7.737   2.542  0.6528 -0.3612  0.5128
 4449SOL    HW124026   9.617   7.776   2.606 -0.7503  1.6443  0.8110
 4449SOL    HW224027   9.466   7.715   2.591  0.5628 -1.4760 -0.1296
 4450SOL     OW24028   7.356   0.348   2.736  0.3931 -0.1374  0.6010
 4450SOL    HW124029   7.445   0.354   2.781  0.5616 -0.1592  0.2638
 4450SOL    HW224030   7.346   0.258   2.693  0.4869  0.1194  0.0426
 4451SOL     OW24031   9.781   4.501   3.043  0.1988 -0.0019 -0.5246
 4451SOL    HW124032   9.829   4.543   2.967  0.7510 -1.6142 -1.0825
 4451SOL    HW224033   9.844   4.443   3.094 -0.5698 -0.2234  0.1878
 4452SOL     OW24034   2.779   8.299   1.417 -0.4352  0.0778  0.1607
 4452SOL    HW124035   2.697   8.287   1.473 -0.5892  0.1303 -0.0518
 4452SOL    HW224036   2.792   8.219   1.359 -0.8335  0.4525 -0.4489
 4453SOL     OW24037   0.645   5.288   3.812 -0.2245 -0.1291  0.0527
 4453SOL    HW124038   0.622   5.193   3.790 -0.5086 -0.1384  0.3936
 4453SOL    HW224039   0.563   5.345   3.804 -0.4199 -0.1974  1.4744
 4454SOL     OW24040   0.999   5.416   1.328 -0.5010  0.7309 -0.1739
 4454SOL    HW124041   1.037   5.338   1.378 -0.3605  1.5424  1.0024
 4454SOL    HW224042   1.070   5.486   1.317 -0.8501  1.0347 -0.5235
 4455SOL     OW24043   7.768   4.836   0.668  0.2191  0.0354 -0.0055
 4455SOL    HW124044   7.790   4.739   0.680 -0.4602 -0.2048 -0.6601
 4455SOL    HW224045   7.748   4.854   0.572 -1.3508  0.4612  0.3897
 4456SOL     OW24046   3.246   2.202   0.206 -0.1867 -0.4029  0.0272
 4456SOL    HW124047   3.304   2.130   0.245 -0.9586  0.0514  2.0810
 4456SOL    HW224048   3.303   2.266   0.153  1.4000  0.6074  2.8315
 4457SOL     OW24049   8.196   4.927   1.465  0.2014  0.1154 -0.2136
 4457SOL    HW124050   8.225   4.965   1.553  1.1878  1.5374 -1.1459
 4457SOL    HW224051   8.262   4.951   1.394  0.5844 -2.9039 -0.9640
 4458SOL     OW24052   5.080   0.002   3.563 -0.2909 -0.1060 -0.4930
 4458SOL    HW124053   4.991   0.046   3.578 -0.5783 -1.3707  1.6823
 4458SOL    HW224054   5.070  -0.073   3.498 -0.9940 -0.7188  0.3040
 4459SOL     OW24055   8.851   8.597   2.904 -0.1138 -0.1878  0.1073
 4459SOL    HW124056   8.880   8.519   2.848  0.0667 -0.3991  0.4898
 4459SOL    HW224057   8.773   8.570   2.961  0.7150 -0.4533  1.1304
 4460SOL     OW24058   4.546   4.329   0.409  0.4791 -0.0047  0.1628
 4460SOL    HW124059   4.475   4.392   0.440  1.0951  1.4999 -1.4407
 4460SOL    HW224060   4.636   4.366   0.431  0.8978  0.5454 -2.3105
 4461SOL     OW24061   5.262   0.259   2.599  0.0761 -0.2940  0.6945
 4461SOL    HW124062   5.332   0.261   2.527 -0.6584 -3.8574 -0.1892
 4461SOL    HW224063   5.191   0.326   2.578  1.0027  0.2805 -0.6889
 4462SOL     OW24064   4.966   7.141   1.862  0.2517 -0.2764 -0.0942
 4462SOL    HW124065   5.050   7.103   1.900  0.4201 -0.9645 -1.1213
 4462SOL    HW224066   4.944   7.094   1.776 -0.3649  0.9070 -0.6004
 4463SOL     OW24067   2.436   2.835   0.070 -0.3972  0.6681  0.5740
 4463SOL    HW124068   2.346   2.797   0.094  0.3889 -0.6933  1.4270
 4463SOL    HW224069   2.474   2.882   0.149  1.6475 -2.7387  1.6880
 4464SOL     OW24070   3.026   9.972   2.560 -0.1770  0.3936 -0.3405
 4464SOL    HW124071   3.022  10.052   2.500 -0.5411  0.3147 -0.4251
 4464SOL    HW224072   2.937   9.927   2.560  0.2628 -0.4863 -0.9432
 4465SOL     OW24073   7.543   8.610   4.123 -0.1585  0.4358 -0.0993
 4465SOL    HW124074   7.559   8.588   4.027 -2.5245 -2.2669  0.0535
 4465SOL    HW224075   7.478   8.686   4.129 -1.8617 -0.9429 -0.6697
 4466SOL     OW24076   6.762   8.822   2.395 -0.2931 -0.3349 -0.1670
 4466SOL    HW124077   6.702   8.812   2.315 -0.1565 -0.7682 -0.2169
 4466SOL    HW224078   6.798   8.915   2.398 -3.8778  1.0570  1.9272
 4467SOL     OW24079   3.224   2.166   0.967  0.2097 -0.3008  0.1623
 4467SOL    HW124080   3.218   2.108   1.048 -0.0654 -0.6514 -0.1072
 4467SOL    HW224081   3.193   2.258   0.990 -1.7922 -0.8967 -0.0235
 4468SOL     OW24082   6.454   8.018   1.766 -0.3861  0.6085  0.1499
 4468SOL    HW124083   6.535   8.010   1.824  0.7183  0.0496 -1.4324
 4468SOL    HW224084   6.386   7.949   1.793  0.9114 -0.9272 -0.4651
 4469SOL     OW24085   5.178   0.553   3.105  0.0228  0.1188 -0.4959
 4469SOL    HW124086   5.266   0.599   3.113 -0.0423  0.5334 -1.9626
 4469SOL    HW224087   5.190   0.456   3.128  1.1793 -0.1345 -2.0624
 4470SOL     OW24088   1.844   4.822   2.465  0.1056 -0.6934  0.1449
 4470SOL    HW124089   1.909   4.792   2.535  0.5171 -0.7171 -0.2466
 4470SOL    HW224090   1.751   4.818   2.502  0.3432 -0.4460  0.7836
 4471SOL     OW24091   3.360   8.655   1.680 -0.2550  0.1687  0.4863
 4471SOL    HW124092   3.334   8.651   1.583  0.7663 -0.1253  0.2193
 4471SOL    HW224093   3.291   8.608   1.735 -0.4730 -0.2888 -0.1741
 4472SOL     OW24094   3.638   3.284   1.063  0.3272  0.1604  0.2092
 4472SOL    HW124095   3.697   3.302   0.985  0.1613 -0.5477 -0.0839
 4472SOL    HW224096   3.564   3.222   1.036  0.7380 -0.7430  1.1187
 4473SOL     OW24097   4.178   9.905   1.215 -0.1539 -0.6183  0.0391
 4473SOL    HW124098   4.104   9.844   1.244  0.2735 -1.2638 -0.2075
 4473SOL    HW224099   4.144   9.998   1.207 -0.5777 -0.6597  1.3825
 4474SOL     OW24100   3.419   3.297   1.867 -0.0796  0.4672 -0.7763
 4474SOL    HW124101   3.351   3.333   1.931  0.0655 -0.8723  0.1556
 4474SOL    HW224102   3.372   3.257   1.788 -0.3284  0.5759 -0.6859
 4475SOL     OW24103   1.312   8.152   0.386  0.1320  0.4822 -0.3853
 4475SOL    HW124104   1.335   8.240   0.344 -0.7692  1.6094  1.3856
 4475SOL    HW224105   1.296   8.083   0.316 -0.6999  2.1398 -1.8439
 4476SOL     OW24106   9.131   6.310   1.734  0.2130 -0.0274  0.4924
 4476SOL    HW124107   9.150   6.332   1.638  0.0914 -1.0783  0.2206
 4476SOL    HW224108   9.168   6.220   1.755  0.0218  0.0992  1.3716
 4477SOL     OW24109   4.182   0.566   4.202 -0.4413  0.1267  0.1149
 4477SOL    HW124110   4.236   0.576   4.118 -1.7703 -1.5325 -0.9466
 4477SOL    HW224111   4.135   0.652   4.221  0.6469  0.8298 -0.2698
 4478SOL     OW24112   9.449   3.553   4.320 -0.2892  0.4207 -0.3627
 4478SOL    HW124113   9.415   3.591   4.405  1.4240  0.4223  0.3592
 4478SOL    HW224114   9.402   3.467   4.300 -0.2704  0.1030  0.9239
 4479SOL     OW24115   1.233   6.509   2.884 -0.2192  0.1403 -0.1259
 4479SOL    HW124116   1.149   6.547   2.921 -0.1950  1.0054 -0.9347
 4479SOL    HW224117   1.306   6.516   2.952 -0.5308  0.3751  0.1837
 4480SOL     OW24118   8.763   8.740   0.656 -0.3571  0.5284  0.1311
 4480SOL    HW124119   8.786   8.700   0.567 -0.6451  0.8772 -0.1019
 4480SOL    HW224120   8.847   8.759   0.707 -0.2203 -0.7765  0.4314
 4481SOL     OW24121   3.564   7.543   3.775 -0.2103 -0.1738  0.0608
 4481SOL    HW124122   3.493   7.577   3.714 -1.2445  0.4566  1.5953
 4481SOL    HW224123   3.582   7.447   3.755 -0.3816  0.0823 -1.3673
 4482SOL     OW24124   9.580   7.294   1.156  0.0741 -0.2608 -0.5683
 4482SOL    HW124125   9.596   7.211   1.209 -0.7056  0.2870  0.5448
 4482SOL    HW224126   9.556   7.369   1.217 -0.9933  0.3467 -1.6959
 4483SOL     OW24127   3.799   7.447   3.017 -0.3443 -0.2439 -0.4802
 4483SOL    HW124128   3.801   7.536   3.062  0.3896 -0.8513  0.7319
 4483SOL    HW224129   3.885   7.432   2.968  0.6459 -1.3704  1.5376
 4484SOL     OW24130   2.586   2.066   4.170  0.2324 -0.5350  0.2605
 4484SOL    HW124131   2.629   2.016   4.244 -1.1656 -1.2723  0.5902
 4484SOL    HW224132   2.650   2.134   4.134  1.1601 -0.6492  1.6643
 4485SOL     OW24133   6.978   8.026   1.337  0.5490 -0.3408  1.0065
 4485SOL    HW124134   7.014   8.045   1.246 -2.4329 -0.4440 -0.2478
 4485SOL    HW224135   6.956   8.113   1.383 -0.4442 -0.3253  0.5372
 4486SOL     OW24136   9.218   2.293   4.378  0.0478  0.3542  0.5554
 4486SOL    HW124137   9.238   2.300   4.280 -0.7075 -0.7262  0.3155
 4486SOL    HW224138   9.303   2.300   4.430  0.5631 -0.0381 -0.2289
 4487SOL     OW24139   2.187   7.647   1.352 -0.2213  0.6974 -0.0327
 4487SOL    HW124140   2.105   7.674   1.301 -0.7153  1.2801  1.0404
 4487SOL    HW224141   2.264   7.640   1.290 -0.6168  2.2951 -0.7432
 4488SOL     OW24142   8.389   9.338   2.690 -0.9185  0.1927  0.4585
 4488SOL    HW124143   8.437   9.410   2.641 -1.1848 -0.6842 -1.1311
 4488SOL    HW224144   8.405   9.250   2.645 -1.3695 -0.5974  1.8069
 4489SOL     OW24145   9.313   7.413   1.098 -0.4094  0.2198 -0.1243
 4489SOL    HW124146   9.359   7.412   1.010 -0.0747 -0.7430  0.0456
 4489SOL    HW224147   9.303   7.319   1.131 -1.6954  0.4825  0.2583
 4490SOL     OW24148   0.646   4.692   1.208 -0.0059  0.4201 -0.6229
 4490SOL    HW124149   0.721   4.629   1.230 -0.0537  0.3833 -0.5612
 4490SOL    HW224150   0.679   4.786   1.210  0.0185  0.4099 -0.5068
 4491SOL     OW24151   3.644   8.763   3.550 -0.0601  0.2306 -0.1790
 4491SOL    HW124152   3.663   8.751   3.453 -1.0590 -0.7311 -0.2669
 4491SOL    HW224153   3.673   8.681   3.600 -1.6968 -0.2463  0.0066
 4492SOL     OW24154   2.585   0.636   4.204  0.2863 -0.1824  0.3032
 4492SOL    HW124155   2.581   0.573   4.127 -0.5568  0.0738  0.1272
 4492SOL    HW224156   2.567   0.729   4.172 -1.1964 -0.2267  0.9672
 4493SOL     OW24157   7.624   2.083   1.353  0.6806 -0.6754  0.3034
 4493SOL    HW124158   7.694   2.072   1.424  0.7813  1.9106  0.6389
 4493SOL    HW224159   7.572   2.167   1.370 -1.4285 -1.6862 -0.8914
 4494SOL     OW24160   3.515   9.540   0.046  0.2934 -0.0956 -0.4339
 4494SOL    HW124161   3.579   9.598  -0.006 -0.6721  0.8034 -0.6344
 4494SOL    HW224162   3.448   9.598   0.092 -1.4711 -1.0968 -1.6842
 4495SOL     OW24163   1.901   1.608   2.278  0.0560  0.8338  0.4921
 4495SOL    HW124164   1.908   1.707   2.279 -1.9210  1.0847 -3.0512
 4495SOL    HW224165   1.826   1.578   2.337 -0.1424  1.5318  0.5918
 4496SOL     OW24166   3.372   0.831   4.721  0.2150  0.0775 -0.2435
 4496SOL    HW124167   3.354   0.783   4.635  0.7552 -1.0539  0.2714
 4496SOL    HW224168   3.433   0.777   4.778 -1.1753  0.2090  1.4185
 4497SOL     OW24169   0.729   3.368   3.046  0.3420 -0.5397  0.2035
 4497SOL    HW124170   0.637   3.370   3.007  0.7616 -1.2977 -0.8645
 4497SOL    HW224171   0.789   3.426   2.990  0.3305  0.6853  1.4219
 4498SOL     OW24172   1.898   8.179   1.013  0.1199  0.1070  0.0968
 4498SOL    HW124173   1.992   8.197   1.042 -1.2915  2.2749  3.6977
 4498SOL    HW224174   1.864   8.096   1.059 -0.7796  1.2106  1.4616
 4499SOL     OW24175   9.527   9.587   3.270  0.6006 -0.2260  0.2157
 4499SOL    HW124176   9.564   9.664   3.218  0.4680 -0.0828  0.3356
 4499SOL    HW224177   9.570   9.502   3.239  1.3764 -0.0069  0.6834
 4500SOL     OW24178   0.065   1.366   4.353 -0.1952  0.1013 -0.1405
 4500SOL    HW124179   0.031   1.277   4.382  0.1996 -0.1250 -0.3725
 4500SOL    HW224180  -0.007   1.414   4.303 -0.3971 -0.1021 -0.0479
 4501SOL     OW24181   0.170   2.450   2.254 -0.9229 -0.4566  0.0349
 4501SOL    HW124182   0.114   2.420   2.177  0.4182 -0.3922 -0.9891
 4501SOL    HW224183   0.191   2.372   2.313  0.7004 -1.1441 -1.4157
 4502SOL     OW24184   8.234   4.170   1.276  0.2319 -0.1373 -0.0060
 4502SOL    HW124185   8.327   4.207   1.281  0.1813  0.0538 -0.4570
 4502SOL    HW224186   8.169   4.245   1.262  0.0789 -0.3420 -0.4085
 4503SOL     OW24187   6.840   7.655   2.529 -0.1099 -0.2526  0.2833
 4503SOL    HW124188   6.799   7.584   2.586  1.7735 -2.4487 -0.9928
 4503SOL    HW224189   6.937   7.663   2.552  0.1709  0.3429 -1.1133
 4504SOL     OW24190   1.365   7.229   1.809 -0.6402 -0.1155 -0.0757
 4504SOL    HW124191   1.283   7.265   1.766 -0.1385 -0.0261 -0.9833
 4504SOL    HW224192   1.380   7.135   1.777 -0.3287 -0.0876 -0.0159
 4505SOL     OW24193   0.004   1.216   1.555 -0.1843 -0.0997 -0.4649
 4505SOL    HW124194   0.089   1.164   1.563 -0.1144  0.2715  1.5321
 4505SOL    HW224195   0.020   1.311   1.578 -1.3562 -0.2563  1.1374
 4506SOL     OW24196   9.232   5.574   0.271  0.2457 -0.0528  0.3546
 4506SOL    HW124197   9.225   5.641   0.197 -0.4161 -0.2294  0.2581
 4506SOL    HW224198   9.297   5.503   0.245 -0.5877 -0.5478 -0.3931
 4507SOL     OW24199   0.426   6.605   3.491  0.0138  0.2977  0.2794
 4507SOL    HW124200   0.437   6.697   3.456 -0.9580  0.3224  0.0235
 4507SOL    HW224201   0.476   6.541   3.433 -0.4476  0.5035 -0.3546
 4508SOL     OW24202   9.019   6.697   0.719  0.0187  0.3041 -0.6622
 4508SOL    HW124203   8.930   6.662   0.748  0.4373 -0.2152 -0.0012
 4508SOL    HW224204   9.077   6.622   0.689  0.4880  0.5634 -0.4113
 4509SOL     OW24205   9.064   3.982   4.676  0.6260  0.1094  0.0799
 4509SOL    HW124206   9.079   4.030   4.762 -0.1119 -1.2540  0.9714
 4509SOL    HW224207   9.115   3.896   4.676 -1.3724 -1.0909  0.1834
 4510SOL     OW24208   8.476   8.294   4.328 -0.3663  1.0993 -0.4119
 4510SOL    HW124209   8.436   8.263   4.241  2.7727  3.0328 -2.6416
 4510SOL    HW224210   8.436   8.383   4.352  0.4692  1.6646 -1.1100
 4511SOL     OW24211   0.989   3.142   3.836  0.0865 -0.2089 -0.2220
 4511SOL    HW124212   0.946   3.157   3.925 -1.1355 -2.3931 -0.4148
 4511SOL    HW224213   1.073   3.089   3.848  0.5032  0.4342 -0.2699
 4512SOL     OW24214   3.410   3.839   0.102 -0.7245  0.0776  0.2596
 4512SOL    HW124215   3.465   3.923   0.100 -0.6678  0.0480  0.5329
 4512SOL    HW224216   3.454   3.773   0.163 -1.8035  0.5615  1.5768
 4513SOL     OW24217   3.616   2.841   0.961 -0.1167 -0.7205 -0.2168
 4513SOL    HW124218   3.711   2.861   0.938 -0.1607 -0.8428 -0.5023
 4513SOL    HW224219   3.555   2.884   0.894 -0.2582 -0.7365 -0.0988
 4514SOL     OW24220   1.241   0.630   1.503 -0.3539  0.4077  0.2624
 4514SOL    HW124221   1.308   0.559   1.522 -0.4016  0.7389  1.7179
 4514SOL    HW224222   1.249   0.703   1.571 -1.3161  1.0711 -0.3180
 4515SOL     OW24223   1.698   7.678   3.291  0.0500 -0.2417  0.3972
 4515SOL    HW124224   1.711   7.713   3.198  2.1642  0.5185  0.9379
 4515SOL    HW224225   1.740   7.588   3.299 -2.7736 -1.6716 -0.1693
 4516SOL     OW24226   8.520   1.941   2.368 -0.6213  0.4358  0.0670
 4516SOL    HW124227   8.484   1.897   2.286 -0.8959  0.6708  0.0635
 4516SOL    HW224228   8.567   2.026   2.344 -1.0225  0.6939  0.1923
 4517SOL     OW24229   3.644   4.110   3.845 -0.0262  0.1784  0.5467
 4517SOL    HW124230   3.595   4.197   3.837  0.4264  0.5286  1.4636
 4517SOL    HW224231   3.613   4.061   3.927  1.2281  0.4676  1.2092
 4518SOL     OW24232   5.784   0.455   3.762 -0.2116 -0.3639  0.1576
 4518SOL    HW124233   5.692   0.423   3.742 -0.3660 -1.3348  2.3083
 4518SOL    HW224234   5.851   0.393   3.722 -0.5066 -2.0322  2.2160
 4519SOL     OW24235   9.076   7.045   3.831 -0.0169 -0.3732  0.1439
 4519SOL    HW124236   9.070   7.004   3.922  2.1726  0.7964  0.8592
 4519SOL    HW224237   9.151   7.002   3.780  0.0400  0.3401 -0.3773
 4520SOL     OW24238   2.409   8.370   3.439  0.0228 -0.5080  0.4877
 4520SOL    HW124239   2.383   8.462   3.470 -0.8355 -1.1189  1.5844
 4520SOL    HW224240   2.425   8.372   3.340 -0.6033  0.6821  0.4003
 4521SOL     OW24241   3.830   1.614   0.539  0.0515 -0.0293  0.3839
 4521SOL    HW124242   3.872   1.681   0.599  0.3085  0.1331  0.0277
 4521SOL    HW224243   3.789   1.660   0.461  1.4547 -0.3774 -0.5920
 4522SOL     OW24244   4.131   2.422   0.646  0.0753  0.1014  0.2629
 4522SOL    HW124245   4.036   2.423   0.679  0.2423 -1.5136  0.8479
 4522SOL    HW224246   4.180   2.346   0.689  1.4295  0.4700 -0.6129
 4523SOL     OW24247   9.195   6.735   3.727  0.5417  0.1583  0.2385
 4523SOL    HW124248   9.122   6.712   3.791 -0.1205 -0.2720 -0.6563
 4523SOL    HW224249   9.274   6.676   3.745 -0.2980 -1.2324 -0.4964
 4524SOL     OW24250   2.032   3.583   1.815 -0.3948 -0.1348 -0.4701
 4524SOL    HW124251   2.038   3.597   1.914 -2.0707 -1.7382 -0.1101
 4524SOL    HW224252   1.969   3.651   1.776 -0.5005 -0.1247 -0.2827
 4525SOL     OW24253   7.819   7.352   2.258  0.2842 -0.7213  0.5050
 4525SOL    HW124254   7.771   7.415   2.320 -1.8311 -2.8614  1.0911
 4525SOL    HW224255   7.858   7.277   2.311 -1.2529 -2.3902 -0.6828
 4526SOL     OW24256   0.450   9.118   3.712  0.6363  0.2797 -0.4927
 4526SOL    HW124257   0.520   9.052   3.687  1.5079 -0.2011  2.8788
 4526SOL    HW224258   0.493   9.205   3.736  0.0687  0.1975  0.9061
 4527SOL     OW24259   2.266   9.640   1.171  0.1144 -0.3651 -0.2853
 4527SOL    HW124260   2.359   9.677   1.176  0.2935 -0.8808  0.3142
 4527SOL    HW224261   2.248   9.585   1.253 -0.9417  0.2430 -0.1063
 4528SOL     OW24262   2.778   0.996   4.497  0.0087 -0.1093 -0.2458
 4528SOL    HW124263   2.716   1.000   4.419  1.5344 -0.2328 -1.4878
 4528SOL    HW224264   2.873   1.002   4.465  0.7387 -2.0739  1.4289
 4529SOL     OW24265   9.630   4.332   2.351  0.0907  0.6321  0.0393
 4529SOL    HW124266   9.698   4.396   2.315 -0.3282  0.0743 -1.8419
 4529SOL    HW224267   9.553   4.383   2.390  0.4712  1.2718 -0.0456
 4530SOL     OW24268   3.658   9.133   2.678  0.5496  0.2509  0.6896
 4530SOL    HW124269   3.631   9.188   2.757  0.0526  0.1800  0.5700
 4530SOL    HW224270   3.594   9.147   2.603  2.2219  1.9967 -0.4738
 4531SOL     OW24271   4.417   8.235   2.826 -0.2918  0.1770 -0.5309
 4531SOL    HW124272   4.461   8.319   2.858  0.7177 -0.5194 -0.0815
 4531SOL    HW224273   4.379   8.186   2.905 -1.2645  0.4249 -0.8409
 4532SOL     OW24274   9.852   7.778   4.029  0.0912 -0.0998  0.0941
 4532SOL    HW124275   9.941   7.733   4.034  0.1442  0.1086  1.1761
 4532SOL    HW224276   9.780   7.708   4.033  0.1793 -0.1223  1.3390
 4533SOL     OW24277   0.706   7.769   1.055 -0.6191 -0.0351 -0.4990
 4533SOL    HW124278   0.665   7.687   1.016 -0.5947  0.7897 -2.3212
 4533SOL    HW224279   0.767   7.811   0.987 -0.1061  1.1138  0.6486
 4534SOL     OW24280   9.045   5.284   1.937  0.4574 -0.2294 -0.5690
 4534SOL    HW124281   9.036   5.344   2.017  0.7802  0.2435 -0.8805
 4534SOL    HW224282   9.041   5.189   1.966  2.6705 -0.0912  0.2715
 4535SOL     OW24283   0.488   7.618   0.717  0.0221  0.1205  0.6622
 4535SOL    HW124284   0.414   7.630   0.783 -0.0877 -1.2567  0.8176
 4535SOL    HW224285   0.463   7.547   0.651  0.0612  1.6051 -0.9878
 4536SOL     OW24286   4.621   8.779   3.644  0.8335  0.0155  0.0563
 4536SOL    HW124287   4.641   8.787   3.742 -1.0303 -0.2179  0.4693
 4536SOL    HW224288   4.621   8.870   3.603  2.5281  0.0435  0.0669
 4537SOL     OW24289   2.231   7.729   3.899  0.6243  0.2181 -0.2589
 4537SOL    HW124290   2.307   7.705   3.959  1.6600  0.2731 -1.5314
 4537SOL    HW224291   2.266   7.763   3.812 -0.8578 -1.4642 -1.5428
 4538SOL     OW24292   1.902   5.839   1.025  0.1040 -0.0810 -0.3174
 4538SOL    HW124293   1.891   5.901   1.103  0.8416  0.5103 -0.6643
 4538SOL    HW224294   1.996   5.847   0.990  0.2928 -1.6062 -0.1988
 4539SOL     OW24295   8.851   6.061   0.936  0.0605 -0.0291  0.2554
 4539SOL    HW124296   8.828   6.149   0.895 -0.6690 -0.6727 -0.7384
 4539SOL    HW224297   8.784   6.037   1.006 -1.1040 -0.9031 -1.1438
 4540SOL     OW24298   2.381   2.404   1.387  0.1456  0.2617 -0.1206
 4540SOL    HW124299   2.389   2.503   1.383 -2.0270  0.4081 -2.5983
 4540SOL    HW224300   2.288   2.379   1.416  0.8792 -1.0482  1.1534
 4541SOL     OW24301   2.872   7.136   1.262  0.0608  0.3045 -0.3137
 4541SOL    HW124302   2.884   7.064   1.193 -1.7284 -0.1422 -0.1693
 4541SOL    HW224303   2.926   7.216   1.235  0.7808 -0.4973 -1.3140
 4542SOL     OW24304   9.150   4.896   3.648 -0.8747 -0.0129 -0.3880
 4542SOL    HW124305   9.188   4.961   3.714  0.0307 -0.6022 -0.3092
 4542SOL    HW224306   9.057   4.923   3.624 -0.7611  0.9141  0.1743
 4543SOL     OW24307   8.705   0.169   3.516  0.3147 -0.3531 -0.5247
 4543SOL    HW124308   8.756   0.117   3.585 -2.1870  0.8976  2.3850
 4543SOL    HW224309   8.762   0.244   3.482  1.7830 -1.3246 -0.2506
 4544SOL     OW24310   8.869   2.703   4.339  0.8361  0.2262  0.2345
 4544SOL    HW124311   8.922   2.619   4.343  0.8625  0.2187 -0.2147
 4544SOL    HW224312   8.903   2.767   4.407 -0.3211 -0.7767  1.7875
 4545SOL     OW24313   2.527   3.202   0.505  0.3571 -0.3738 -0.2241
 4545SOL    HW124314   2.532   3.172   0.601 -1.1879  0.2115  0.0628
 4545SOL    HW224315   2.617   3.235   0.476  1.0599 -1.3668  0.7516
 4546SOL     OW24316   1.092   9.572   3.138  0.1738 -0.2472  0.2665
 4546SOL    HW124317   1.020   9.524   3.187 -1.0843  1.3012 -0.0480
 4546SOL    HW224318   1.172   9.582   3.198 -0.6661  0.0032  1.3549
 4547SOL     OW24319   7.609   6.673   2.258 -0.3717 -0.5684 -0.2707
 4547SOL    HW124320   7.572   6.660   2.166 -0.2297 -3.6655  0.0572
 4547SOL    HW224321   7.694   6.724   2.253 -0.9709  0.3362 -1.7220
 4548SOL     OW24322   6.326   6.781   2.511  0.5562 -0.5510 -0.1568
 4548SOL    HW124323   6.250   6.844   2.492 -0.4723 -1.8156 -0.3346
 4548SOL    HW224324   6.318   6.747   2.604  0.9714 -0.5943 -0.1397
 4549SOL     OW24325   1.947   8.186   3.277  0.6766 -0.2700  0.2559
 4549SOL    HW124326   1.864   8.204   3.331  1.1281 -1.4004  1.3479
 4549SOL    HW224327   2.027   8.216   3.329  0.9444  1.2936 -1.0093
 4550SOL     OW24328   4.069   3.202   4.370  0.0434  0.1298  0.4509
 4550SOL    HW124329   4.005   3.204   4.293 -0.1795 -1.1526  0.6001
 4550SOL    HW224330   4.060   3.287   4.422 -0.0028  0.8847 -0.7699
 4551SOL     OW24331   2.559   2.853   1.297 -0.3527 -0.2658  0.0645
 4551SOL    HW124332   2.652   2.888   1.279 -0.1930 -0.9179 -0.3686
 4551SOL    HW224333   2.525   2.893   1.382  0.6105 -0.5874  0.5997
 4552SOL     OW24334   1.949   9.027   3.300  0.1733  0.1825  0.3966
 4552SOL    HW124335   1.995   9.114   3.282  0.2562 -0.0246 -0.4270
 4552SOL    HW224336   1.874   9.015   3.234 -0.5618  0.1525  1.2323
 4553SOL     OW24337   2.331   7.563   2.462  0.0647  0.0895 -0.9286
 4553SOL    HW124338   2.244   7.600   2.495 -0.4283 -0.8376 -1.1879
 4553SOL    HW224339   2.404   7.628   2.483 -0.5991  0.6126 -0.1886
 4554SOL     OW24340   4.406   9.408   2.238 -0.1213  0.2405  0.1914
 4554SOL    HW124341   4.436   9.325   2.284 -1.4997  0.0830  0.8494
 4554SOL    HW224342   4.463   9.485   2.268 -0.1354 -0.1100  1.1480
 4555SOL     OW24343   2.873   6.584   2.243 -0.3391 -0.4497  0.1145
 4555SOL    HW124344   2.808   6.512   2.222 -0.2250 -0.9884  1.5443
 4555SOL    HW224345   2.906   6.573   2.336 -0.0814  1.2727  0.2493
 4556SOL     OW24346   6.176   9.952   1.909 -0.1826  0.5628  0.2904
 4556SOL    HW124347   6.257   9.943   1.967  1.7030  1.8629 -2.0733
 4556SOL    HW224348   6.181  10.036   1.856 -2.8742  0.4319 -0.2608
 4557SOL     OW24349   0.494   0.502   2.610  0.7543 -0.4234 -0.6855
 4557SOL    HW124350   0.542   0.452   2.682  0.7080  0.7025  0.1433
 4557SOL    HW224351   0.460   0.438   2.541 -0.7251 -1.7301  1.2019
 4558SOL     OW24352   8.598   2.161   3.247 -0.1883  0.0457 -0.0714
 4558SOL    HW124353   8.531   2.206   3.307 -0.5459 -2.4808  1.5019
 4558SOL    HW224354   8.551   2.124   3.167 -0.4666 -0.4791  0.3270
 4559SOL     OW24355   1.399   3.745   1.980 -0.0076 -0.6221  0.1513
 4559SOL    HW124356   1.366   3.833   2.014  1.0221 -0.0236 -0.3773
 4559SOL    HW224357   1.365   3.672   2.039 -3.2856 -0.1618 -1.0438
 4560SOL     OW24358   9.361   7.367   1.479  0.5653  0.0403  0.4003
 4560SOL    HW124359   9.432   7.298   1.463  1.1534  0.6933  0.1921
 4560SOL    HW224360   9.390   7.455   1.443  0.2254  0.6246  1.5078
 4561SOL     OW24361   9.235   2.278   4.088  0.2798  0.3190 -0.1953
 4561SOL    HW124362   9.263   2.228   4.006  1.0394  0.0369  0.2296
 4561SOL    HW224363   9.180   2.357   4.062  0.4281  0.1687 -0.9707
 4562SOL     OW24364   2.920   0.970   1.378  0.2158  0.0615  0.2385
 4562SOL    HW124365   2.877   0.880   1.376  1.5112 -0.7059  2.8190
 4562SOL    HW224366   3.019   0.959   1.365  0.3461  1.1190  0.3199
 4563SOL     OW24367   1.912   0.501   4.549  0.7680 -0.3500 -0.2687
 4563SOL    HW124368   1.924   0.598   4.569  0.6782 -0.8105  2.2442
 4563SOL    HW224369   1.979   0.473   4.480  0.4211  1.5972 -1.4291
 4564SOL     OW24370   9.198   7.308   2.127 -0.3344  0.5721 -0.3799
 4564SOL    HW124371   9.219   7.262   2.213  2.4642  1.4680 -0.5453
 4564SOL    HW224372   9.264   7.281   2.057 -2.9692 -0.6827 -2.5058
 4565SOL     OW24373   6.002   9.999   2.834  0.0115 -0.6425  0.6259
 4565SOL    HW124374   5.957  10.042   2.755  1.1447 -0.3595  0.1320
 4565SOL    HW224375   6.099   9.985   2.815  0.2900 -0.6269  1.9510
 4566SOL     OW24376   5.636   1.023   2.651 -0.0630  0.5597  0.6974
 4566SOL    HW124377   5.621   1.100   2.590  0.7322  0.1020 -0.0871
 4566SOL    HW224378   5.698   0.958   2.608 -1.9702 -1.2988  0.6732
 4567SOL     OW24379   9.104   3.139   4.415  0.1655  0.3451  0.2464
 4567SOL    HW124380   9.130   3.160   4.509  1.5502 -2.0547  0.4135
 4567SOL    HW224381   9.006   3.119   4.412 -0.1303  1.5800  0.9471
 4568SOL     OW24382   4.466   7.597   3.656 -0.2793  0.3513 -0.3176
 4568SOL    HW124383   4.505   7.689   3.647 -0.1053  0.2174 -0.9284
 4568SOL    HW224384   4.522   7.543   3.719  1.2932 -0.2653 -2.2119
 4569SOL     OW24385   9.586   7.575   3.057  0.3075  0.1440  0.2413
 4569SOL    HW124386   9.546   7.643   2.996 -2.2728 -1.0952  0.4856
 4569SOL    HW224387   9.623   7.621   3.138  0.7267  1.4605 -0.6778
 4570SOL     OW24388   2.913   4.061   4.225  0.1382  0.3745  0.1655
 4570SOL    HW124389   2.839   4.035   4.163  0.7967  0.3712 -0.6304
 4570SOL    HW224390   2.884   4.137   4.282 -1.2269 -0.9998  1.3438
 4571SOL     OW24391   9.116   2.383   0.722 -0.0826  0.1572 -0.7905
 4571SOL    HW124392   9.191   2.333   0.766 -1.0834 -1.2584 -0.6535
 4571SOL    HW224393   9.114   2.362   0.625  0.1585  0.7966 -0.9382
 4572SOL     OW24394   2.852   6.542   0.890 -0.0178  0.2896 -0.1577
 4572SOL    HW124395   2.923   6.483   0.852  0.5387  0.5649  0.4282
 4572SOL    HW224396   2.807   6.495   0.966  1.7607  1.3166  1.6097
 4573SOL     OW24397   5.436   9.875   3.029  0.0121 -0.4924 -0.3335
 4573SOL    HW124398   5.481   9.789   3.008 -0.1247 -0.8071  0.6138
 4573SOL    HW224399   5.455   9.942   2.957 -0.0948 -1.3855 -1.2010
 4574SOL     OW24400   0.040   1.498   3.812  0.2483  0.3819 -0.1172
 4574SOL    HW124401   0.121   1.459   3.767 -0.1180 -0.2862 -0.1937
 4574SOL    HW224402   0.014   1.583   3.766 -0.3086 -0.4589 -1.3476
 4575SOL     OW24403   3.606   2.028   4.417  0.4277  0.3753  0.8717
 4575SOL    HW124404   3.576   2.074   4.500 -1.2847 -0.7505  0.8826
 4575SOL    HW224405   3.529   2.018   4.354  1.2787 -0.5050 -0.0466
 4576SOL     OW24406   4.800   2.647   1.253  0.7668 -0.2305  0.5802
 4576SOL    HW124407   4.758   2.585   1.186  1.3596  0.6373 -0.6080
 4576SOL    HW224408   4.892   2.613   1.276  0.7842 -0.2187  0.5261
 4577SOL     OW24409   5.301   6.723   1.781  0.6026 -0.4240  0.2070
 4577SOL    HW124410   5.263   6.740   1.872  1.0277  2.3350 -0.0826
 4577SOL    HW224411   5.229   6.690   1.721  0.1178 -1.4051  1.3152
 4578SOL     OW24412   9.186   3.309   0.373  0.2658 -0.2826 -0.2872
 4578SOL    HW124413   9.226   3.314   0.465  0.7526 -0.2971 -0.5014
 4578SOL    HW224414   9.102   3.254   0.377 -0.3371  0.6586  0.3707
 4579SOL     OW24415   2.761   5.506   2.006  0.0439 -0.4301  0.0661
 4579SOL    HW124416   2.747   5.563   2.088 -0.3788 -0.5186  0.0528
 4579SOL    HW224417   2.692   5.528   1.938  0.0070 -0.8142 -0.0208
 4580SOL     OW24418   0.417   6.568   1.403  0.1137 -0.1915 -0.7447
 4580SOL    HW124419   0.368   6.537   1.484 -0.1909 -0.3656 -0.9940
 4580SOL    HW224420   0.359   6.555   1.322  1.1677 -1.9084 -1.2565
 4581SOL     OW24421   2.010   7.115   3.778 -0.4020  0.5889 -0.5108
 4581SOL    HW124422   2.082   7.103   3.846 -1.2910  0.9040  0.4997
 4581SOL    HW224423   1.966   7.027   3.761  0.9484  0.1814 -1.9573
 4582SOL     OW24424   4.811   0.722   3.932  0.4197 -0.1663  0.1176
 4582SOL    HW124425   4.720   0.724   3.891  1.2358  0.7319 -1.7147
 4582SOL    HW224426   4.864   0.800   3.900  2.1226 -1.1390  0.4850
 4583SOL     OW24427   4.392   4.098   3.057  0.5696  0.4621  0.0120
 4583SOL    HW124428   4.418   4.040   2.979 -0.1487  1.6983 -1.1892
 4583SOL    HW224429   4.452   4.079   3.135  1.4298 -0.6722 -0.9023
 4584SOL     OW24430   8.198   0.016   3.758  0.4438 -0.1658  0.6469
 4584SOL    HW124431   8.144   0.006   3.842  0.5429 -1.3523  0.5812
 4584SOL    HW224432   8.140  -0.005   3.679 -0.2196  2.9651  0.2550
 4585SOL     OW24433   7.537   9.917   1.449  0.1678 -0.7497 -0.4391
 4585SOL    HW124434   7.618   9.881   1.496 -0.4595 -0.8103  0.6223
 4585SOL    HW224435   7.455   9.879   1.492 -0.5225  2.0394  0.7920
 4586SOL     OW24436   5.548   6.339   2.633  0.1843  0.0075 -0.7778
 4586SOL    HW124437   5.638   6.320   2.595 -0.7787 -0.9929 -2.6398
 4586SOL    HW224438   5.522   6.433   2.611  1.2289  0.6791  0.7612
 4587SOL     OW24439   1.724   4.980   0.507  0.0395 -0.3216  0.1510
 4587SOL    HW124440   1.684   4.901   0.461 -2.5985  2.0400 -1.7645
 4587SOL    HW224441   1.804   5.012   0.457  0.0522 -0.6831 -0.0591
 4588SOL     OW24442   8.508   5.360   4.448 -0.0385  0.2474  0.0415
 4588SOL    HW124443   8.562   5.321   4.374  1.3610  0.9660  0.6666
 4588SOL    HW224444   8.420   5.312   4.454  0.3058 -0.5789 -1.3215
 4589SOL     OW24445   2.014   1.723   3.659 -0.2099 -0.6879  0.0020
 4589SOL    HW124446   1.970   1.635   3.678  0.3747 -1.0689 -0.4009
 4589SOL    HW224447   2.092   1.736   3.720  0.8785 -1.3262 -1.2189
 4590SOL     OW24448   2.573   6.019   4.299 -0.5189 -0.0102 -0.5993
 4590SOL    HW124449   2.609   5.935   4.257 -1.6254  0.3243 -2.2671
 4590SOL    HW224450   2.503   6.059   4.239  0.0549  2.1603  0.1419
 4591SOL     OW24451   0.887   0.888   1.510  0.0108 -0.6219  0.3825
 4591SOL    HW124452   0.986   0.874   1.508 -0.1371 -1.6415 -0.2890
 4591SOL    HW224453   0.847   0.825   1.577  0.0305  1.2606  2.1962
 4592SOL     OW24454   0.121   6.892   2.141 -0.2119  0.1369 -0.5558
 4592SOL    HW124455   0.045   6.835   2.172  0.9870 -1.3424 -0.2574
 4592SOL    HW224456   0.157   6.945   2.218 -0.0199 -0.2512 -0.3772
 4593SOL     OW24457   8.182   1.899   2.268 -0.2048  0.1100  0.9275
 4593SOL    HW124458   8.280   1.878   2.273  0.2498  1.7137 -0.7510
 4593SOL    HW224459   8.130   1.814   2.275  1.3139 -0.8058  1.4703
 4594SOL     OW24460   4.570   0.624   2.568 -0.2680 -0.6442  0.1784
 4594SOL    HW124461   4.634   0.547   2.564 -0.0635 -0.4628 -0.0628
 4594SOL    HW224462   4.573   0.674   2.482 -1.0245 -0.8638  0.0198
 4595SOL     OW24463   0.897   3.114   0.562  0.5358 -0.5033 -0.0474
 4595SOL    HW124464   0.956   3.049   0.610  2.6143  1.7500  0.5358
 4595SOL    HW224465   0.921   3.114   0.465  0.1474 -0.9579 -0.1520
 4596SOL     OW24466   8.278   5.790   2.927 -0.4846  0.9884 -0.0994
 4596SOL    HW124467   8.278   5.819   3.022 -0.0689 -0.7755  0.4497
 4596SOL    HW224468   8.339   5.851   2.874  0.8482  0.7627  1.1428
 4597SOL     OW24469   2.143   4.026   2.029 -0.3444  0.4699  0.0964
 4597SOL    HW124470   2.127   4.046   2.126 -0.3959 -1.6840  0.5597
 4597SOL    HW224471   2.228   4.070   2.000 -0.1161  0.7984  1.2221
 4598SOL     OW24472   1.634   7.723   2.261 -0.1856 -0.0379 -0.2421
 4598SOL    HW124473   1.591   7.766   2.181 -2.1743 -0.5480  0.5448
 4598SOL    HW224474   1.725   7.689   2.235 -1.5055 -1.7790 -2.7668
 4599SOL     OW24475   0.617   2.591   3.928 -0.0437  0.0736 -0.3524
 4599SOL    HW124476   0.606   2.600   4.027 -1.5761 -2.4257 -0.2410
 4599SOL    HW224477   0.715   2.583   3.907  0.3878  2.0045  0.7963
 4600SOL     OW24478   1.902   8.360   3.083 -0.6251 -0.3332 -0.1825
 4600SOL    HW124479   1.806   8.386   3.078 -0.7323 -0.9669 -1.8269
 4600SOL    HW224480   1.911   8.276   3.137 -1.2672 -1.3674 -1.6180
 4601SOL     OW24481   3.377   6.746   0.150 -0.1967  0.1087 -0.2427
 4601SOL    HW124482   3.347   6.753   0.055  0.6141 -1.3783 -0.6184
 4601SOL    HW224483   3.388   6.650   0.175 -1.8943  0.3955  1.8370
 4602SOL     OW24484   7.921   0.102   4.364  0.3557  0.2592  0.7458
 4602SOL    HW124485   7.882   0.013   4.386 -1.7331  1.3122  1.4128
 4602SOL    HW224486   7.897   0.127   4.270 -1.9675  1.5977  1.6629
 4603SOL     OW24487   9.815   7.755   1.494 -0.9304  0.3625 -0.1816
 4603SOL    HW124488   9.732   7.791   1.450 -0.3389  2.0307  0.0240
 4603SOL    HW224489   9.894   7.809   1.464  0.1329 -1.4249 -0.6305
 4604SOL     OW24490   4.137   7.965   0.207  0.6788 -0.3716  0.6265
 4604SOL    HW124491   4.074   8.042   0.216 -0.4877 -1.2494  0.0701
 4604SOL    HW224492   4.175   7.964   0.115  0.9776 -0.2383  0.7496
 4605SOL     OW24493   9.534   1.732   4.249  0.2422 -0.1543  0.0041
 4605SOL    HW124494   9.473   1.679   4.189  0.6727 -1.2481  0.5186
 4605SOL    HW224495   9.479   1.782   4.316 -0.1191 -0.9876  0.3473
 4606SOL     OW24496   9.101   3.045   0.615  0.3547 -0.1727 -0.2078
 4606SOL    HW124497   9.083   3.078   0.708  0.8603 -1.0644  0.2162
 4606SOL    HW224498   9.030   2.980   0.588  0.8787 -0.8594  0.0392
 4607SOL     OW24499   6.758   9.921   2.234  0.1048  0.0878  0.0465
 4607SOL    HW124500   6.858   9.923   2.241  0.2468  1.3268 -1.8224
 4607SOL    HW224501   6.729   9.830   2.208  0.8516 -0.0254 -0.4358
 4608SOL     OW24502   2.299   3.736   1.105 -0.0236 -0.0726  0.0389
 4608SOL    HW124503   2.202   3.722   1.090  0.4011 -1.2135 -1.7392
 4608SOL    HW224504   2.335   3.661   1.161 -0.0009 -0.1110 -0.0267
 4609SOL     OW24505   4.079   3.568   2.479 -0.1647  0.4021  0.1103
 4609SOL    HW124506   4.066   3.560   2.380  0.1201  0.3835  0.0742
 4609SOL    HW224507   3.994   3.601   2.521 -0.5603 -0.4229 -0.0340
 4610SOL     OW24508   8.002   5.902   3.966  0.2186  1.0324  0.3250
 4610SOL    HW124509   8.057   5.896   4.049 -1.8024 -1.4780  1.5719
 4610SOL    HW224510   8.053   5.864   3.889  1.1012  0.9306  0.9493
 4611SOL     OW24511   4.611   9.791   2.710 -0.2921 -0.2482 -0.1636
 4611SOL    HW124512   4.538   9.725   2.692  1.2015 -1.4604 -1.9765
 4611SOL    HW224513   4.607   9.865   2.642 -0.5338  0.2980  0.4409
 4612SOL     OW24514   0.006   4.918   1.275  0.2502  1.2100 -0.2356
 4612SOL    HW124515   0.051   4.856   1.340 -0.4784  2.0434  1.0795
 4612SOL    HW224516  -0.040   4.991   1.325 -1.3272  1.2064 -1.6335
 4613SOL     OW24517   6.344   0.113   2.354  0.1496  0.0912  0.6927
 4613SOL    HW124518   6.441   0.096   2.376  0.3652 -1.6607 -1.3971
 4613SOL    HW224519   6.307   0.033   2.308 -2.1759  0.9810  0.9800
 4614SOL     OW24520   8.908   9.053   3.116  0.0477  0.1469  0.4339
 4614SOL    HW124521   8.833   9.106   3.077  0.5318  1.3770  1.1386
 4614SOL    HW224522   8.966   9.018   3.043  0.8967  2.3512  0.0073
 4615SOL     OW24523   9.575   5.466   2.025  0.2837 -0.4727 -0.3546
 4615SOL    HW124524   9.551   5.543   2.084 -0.5317  0.4345 -1.8236
 4615SOL    HW224525   9.662   5.426   2.054 -0.4963 -0.5556  1.9302
 4616SOL     OW24526   4.368   0.325   2.358  0.1222 -0.8327  0.4202
 4616SOL    HW124527   4.357   0.263   2.436 -1.0464 -0.9723  0.1516
 4616SOL    HW224528   4.408   0.274   2.281  0.5034 -0.8940  0.6535
 4617SOL     OW24529   7.949   5.765   3.527  0.2014  0.1895 -0.0042
 4617SOL    HW124530   8.015   5.744   3.599 -0.7234 -1.4249  0.4070
 4617SOL    HW224531   7.856   5.762   3.565 -0.1703  1.6305 -0.7549
 4618SOL     OW24532   1.355   7.221   3.295  0.1776  0.1349  0.3454
 4618SOL    HW124533   1.410   7.138   3.300  0.1792  0.1641  0.8813
 4618SOL    HW224534   1.381   7.283   3.369  0.0795  0.5546  0.0323
 4619SOL     OW24535   1.963   0.867   0.823 -0.1397 -0.3076 -1.0418
 4619SOL    HW124536   1.938   0.960   0.850  0.2725 -0.4481 -0.1476
 4619SOL    HW224537   2.047   0.869   0.770  1.1450 -0.3612  0.9335
 4620SOL     OW24538   9.885   5.222   1.828 -0.0082 -0.4531  0.1465
 4620SOL    HW124539   9.946   5.146   1.804 -0.0302 -0.7129  0.9182
 4620SOL    HW224540   9.813   5.229   1.759  0.5144 -0.5563 -0.4203
 4621SOL     OW24541   1.296   4.844   1.962  0.1175  0.3755  0.1916
 4621SOL    HW124542   1.299   4.944   1.957 -1.2923  0.4417  0.4056
 4621SOL    HW224543   1.308   4.815   2.057  4.2710  0.1347 -0.2824
 4622SOL     OW24544   0.497   4.006   1.846 -0.2660  0.1708  0.0669
 4622SOL    HW124545   0.590   4.019   1.810 -0.6071  0.3872 -0.7326
 4622SOL    HW224546   0.451   4.094   1.851  0.3800  0.3930  2.6967
 4623SOL     OW24547   1.242   6.652   1.074 -0.2957  0.1826  0.5405
 4623SOL    HW124548   1.165   6.600   1.111  0.1575 -1.4207 -0.7452
 4623SOL    HW224549   1.314   6.658   1.144 -0.6465 -0.2804  0.9468
 4624SOL     OW24550   1.401   3.077   0.986 -0.4022  0.2589 -0.3388
 4624SOL    HW124551   1.301   3.080   0.973 -0.1362 -0.5688 -2.9383
 4624SOL    HW224552   1.434   3.169   1.006 -1.4582  0.9543 -1.6465
 4625SOL     OW24553   8.193   8.177   1.509 -0.6167 -0.0183  0.0199
 4625SOL    HW124554   8.104   8.214   1.538 -1.0151 -1.4220  0.6220
 4625SOL    HW224555   8.235   8.130   1.586 -0.2172 -1.0214 -0.8117
 4626SOL     OW24556   3.697   1.344   3.252 -0.8099  0.2819 -0.0084
 4626SOL    HW124557   3.671   1.250   3.275  0.0239  0.6306  2.5277
 4626SOL    HW224558   3.622   1.406   3.277  0.0437  0.6494  1.7279
 4627SOL     OW24559   1.203   4.403   2.222  0.1494  0.2396  0.0925
 4627SOL    HW124560   1.191   4.358   2.311 -0.2520 -0.1301 -0.1481
 4627SOL    HW224561   1.293   4.382   2.185 -0.8853 -2.3151 -1.1172
 4628SOL     OW24562   1.712   0.572   3.864 -0.0402 -0.6385 -0.4377
 4628SOL    HW124563   1.764   0.487   3.855 -1.6776 -1.5860 -1.1460
 4628SOL    HW224564   1.722   0.608   3.957  1.8138 -0.8361 -0.5450
 4629SOL     OW24565   2.936   3.349   2.967  0.1162  0.1630  0.1511
 4629SOL    HW124566   2.921   3.258   2.927  0.8004  0.0073  0.2429
 4629SOL    HW224567   3.009   3.395   2.918  0.4544  0.2682  0.7525
 4630SOL     OW24568   8.405   1.729   2.207  0.0172 -0.0931  0.3438
 4630SOL    HW124569   8.363   1.661   2.267  0.4410  0.1644  0.9330
 4630SOL    HW224570   8.473   1.684   2.148  0.9908 -0.0184  1.4039
 4631SOL     OW24571   2.066   2.282   1.205  0.0280 -0.3610 -0.6234
 4631SOL    HW124572   2.092   2.258   1.112 -0.6647 -1.4891 -0.5312
 4631SOL    HW224573   2.100   2.374   1.226  1.6012 -0.7398 -1.4168
 4632SOL     OW24574   9.716   1.569   1.730  0.2217  0.1809 -0.1103
 4632SOL    HW124575   9.698   1.515   1.648  0.6289 -0.5638  0.2807
 4632SOL    HW224576   9.742   1.662   1.704  1.2318 -0.2981 -0.8559
 4633SOL     OW24577   2.846   7.805   1.631 -0.0758 -0.7379 -0.1762
 4633SOL    HW124578   2.924   7.756   1.592  0.0149 -1.2983  0.6970
 4633SOL    HW224579   2.876   7.895   1.662 -0.2697 -0.0486 -1.8949
 4634SOL     OW24580   2.969   6.420   1.578  0.1037 -0.1407 -0.1073
 4634SOL    HW124581   2.945   6.401   1.483 -1.0428  0.6194  0.0181
 4634SOL    HW224582   3.063   6.453   1.583  0.5625 -1.2778 -0.8355
 4635SOL     OW24583   3.510   8.539   3.891  0.0642 -0.4503  0.0399
 4635SOL    HW124584   3.592   8.547   3.947  0.3003 -2.8823  0.0963
 4635SOL    HW224585   3.535   8.529   3.795 -0.2423  0.8933 -0.1837
 4636SOL     OW24586   9.032   9.430   1.159 -0.7659  0.0383  0.2188
 4636SOL    HW124587   9.083   9.405   1.076 -0.4653  0.0723  0.3948
 4636SOL    HW224588   8.934   9.429   1.139 -0.7794 -1.6760  0.3450
 4637SOL     OW24589   4.480   9.557   2.762 -0.5994 -0.6380  0.1576
 4637SOL    HW124590   4.542   9.495   2.810 -0.5206 -1.2236 -0.6818
 4637SOL    HW224591   4.387   9.546   2.798 -0.6493 -1.5028 -0.2180
 4638SOL     OW24592   9.057   6.730   1.196 -0.1933 -0.0355  0.8874
 4638SOL    HW124593   9.016   6.643   1.224 -0.6466  0.2130  0.9981
 4638SOL    HW224594   9.156   6.727   1.213  0.2891 -1.6315 -1.8057
 4639SOL     OW24595   1.064   8.900   1.344  0.5007 -0.4821  0.0030
 4639SOL    HW124596   1.159   8.904   1.316  0.0073 -1.1423 -1.8300
 4639SOL    HW224597   1.033   8.990   1.373  1.4830 -0.1280 -0.0561
 4640SOL     OW24598   9.629   3.431   1.465  0.1726  0.2884  0.1861
 4640SOL    HW124599   9.686   3.500   1.420  0.6251 -0.9537 -1.1913
 4640SOL    HW224600   9.661   3.340   1.439 -3.2537 -0.4435 -1.5999
 4641SOL     OW24601   4.930   9.095   3.750  0.1328  0.7054 -0.2882
 4641SOL    HW124602   5.002   9.163   3.767  0.7415 -0.1013  0.3693
 4641SOL    HW224603   4.841   9.142   3.746  0.6249  1.6352 -0.5585
 4642SOL     OW24604   8.090   8.572   1.727 -0.5504  0.0582 -0.1523
 4642SOL    HW124605   8.106   8.574   1.629 -1.4385 -0.1382 -0.3003
 4642SOL    HW224606   8.169   8.612   1.774  1.0667 -2.2336 -0.8067
 4643SOL     OW24607   7.664   3.754   4.498 -0.2898  0.0667  0.0186
 4643SOL    HW124608   7.718   3.748   4.414  1.5917  2.2200  1.0328
 4643SOL    HW224609   7.720   3.723   4.575 -1.8048 -1.3339  0.5834
 4644SOL     OW24610   9.927   2.306   1.625  0.1835  0.1420  0.4783
 4644SOL    HW124611   9.918   2.210   1.598 -0.1027 -0.4044  2.4206
 4644SOL    HW224612   9.869   2.363   1.566 -1.3871 -1.1447  0.7391
 4645SOL     OW24613   3.136   8.399   0.322  0.7508  0.9429  0.1506
 4645SOL    HW124614   3.156   8.495   0.301  2.2056  1.1006  2.1376
 4645SOL    HW224615   3.083   8.359   0.247 -1.3877  3.7520  0.0991
 4646SOL     OW24616   9.342   3.857   4.216  0.1596  0.7223 -0.4055
 4646SOL    HW124617   9.298   3.767   4.221  0.2799  0.6469 -0.7095
 4646SOL    HW224618   9.308   3.915   4.291  0.2712  0.3406 -0.0549
 4647SOL     OW24619   1.921   8.959   0.985 -0.2392  0.4044  0.9682
 4647SOL    HW124620   1.855   8.921   0.920  0.7207 -1.3662  1.0180
 4647SOL    HW224621   2.001   8.992   0.935  0.5685 -1.1011  1.2417
 4648SOL     OW24622   3.542   6.482   3.357  0.2510  0.0162 -0.2132
 4648SOL    HW124623   3.595   6.432   3.288  1.2384  2.0493 -0.9570
 4648SOL    HW224624   3.605   6.520   3.425 -0.3728  1.3219 -0.3610
 4649SOL     OW24625   5.010   8.147   3.985  0.0834 -0.0155 -0.0930
 4649SOL    HW124626   4.942   8.220   3.989  0.6701  0.4966  0.4195
 4649SOL    HW224627   5.031   8.127   3.889 -0.3257  0.2474 -0.2398
 4650SOL     OW24628   8.276   6.163   2.162 -0.2038 -0.0298 -0.0944
 4650SOL    HW124629   8.374   6.157   2.145 -0.5849 -3.1223 -1.5076
 4650SOL    HW224630   8.250   6.093   2.229 -1.6308 -0.0088 -0.6165
 4651SOL     OW24631   4.195   0.533   2.494 -0.3354 -0.6099  0.3918
 4651SOL    HW124632   4.245   0.450   2.469  1.0203  0.4222 -0.3996
 4651SOL    HW224633   4.231   0.569   2.580  1.5663  1.0976 -1.0434
 4652SOL     OW24634   1.400   5.538   0.099 -0.8897  0.4257  0.1309
 4652SOL    HW124635   1.409   5.486   0.184  0.1981  0.3493 -0.0293
 4652SOL    HW224636   1.386   5.635   0.120 -1.8514  0.2332  0.4093
 4653SOL     OW24637   1.704   4.755   2.206 -0.0698  0.0750 -0.2139
 4653SOL    HW124638   1.744   4.770   2.116 -0.3440 -0.2805 -0.3965
 4653SOL    HW224639   1.764   4.793   2.277 -0.2592  1.1145 -0.5974
 4654SOL     OW24640   8.468   5.301   0.978  0.0879 -0.0925  0.0194
 4654SOL    HW124641   8.467   5.236   1.054  0.9963  1.4591  1.4027
 4654SOL    HW224642   8.404   5.376   0.997  0.4493  0.3959 -0.6485
 4655SOL     OW24643   0.326   7.549   3.974 -0.1403 -0.1674  0.0616
 4655SOL    HW124644   0.270   7.509   3.901 -0.6202 -1.4988  1.1500
 4655SOL    HW224645   0.279   7.539   4.062  1.6536 -1.0061  0.9495
 4656SOL     OW24646   9.915   8.031   4.092  0.2191  0.4588 -0.6435
 4656SOL    HW124647   9.893   7.956   4.030  0.7047 -0.8876  0.8037
 4656SOL    HW224648   9.832   8.083   4.113 -0.1785  0.1106 -1.3222
 4657SOL     OW24649   8.644   0.593   4.367 -0.2619  0.1534  0.2030
 4657SOL    HW124650   8.697   0.529   4.311 -1.6933 -1.4422  0.6083
 4657SOL    HW224651   8.682   0.685   4.359  1.6912 -0.7068 -0.5956
 4658SOL     OW24652   7.427   9.372   2.922  0.0764  0.0550  0.0415
 4658SOL    HW124653   7.391   9.382   2.828  0.7274  0.6481 -0.1530
 4658SOL    HW224654   7.522   9.403   2.924  0.4227 -1.0356  0.6652
 4659SOL     OW24655   9.907   2.186   3.840 -0.8693 -0.5134 -0.4722
 4659SOL    HW124656   9.820   2.225   3.810 -0.6229  1.2024  0.9215
 4659SOL    HW224657   9.929   2.106   3.785 -2.3929  0.1645 -2.1154
 4660SOL     OW24658   7.954   0.685   1.863  0.6797 -0.4806  0.6452
 4660SOL    HW124659   7.869   0.714   1.817  0.1899 -1.0030  1.2093
 4660SOL    HW224660   7.946   0.589   1.890  2.4790 -1.3332 -1.6410
 4661SOL     OW24661   2.643   3.637   2.554 -0.4141  0.8852  0.2920
 4661SOL    HW124662   2.678   3.548   2.585  1.0871  0.0099 -3.5173
 4661SOL    HW224663   2.544   3.638   2.560 -0.5827 -1.7899 -1.2155
 4662SOL     OW24664   3.697   6.003   0.968 -1.0185  0.3121 -0.1411
 4662SOL    HW124665   3.702   5.914   0.923  2.9134  0.6654 -0.6029
 4662SOL    HW224666   3.667   5.990   1.063 -2.1317 -1.2649 -0.6787
 4663SOL     OW24667   1.526   6.589   2.174 -0.2299 -0.0966  0.0695
 4663SOL    HW124668   1.482   6.506   2.208 -0.9319  0.5216  0.7069
 4663SOL    HW224669   1.525   6.590   2.074 -2.0782  0.1007  0.0651
 4664SOL     OW24670   5.718   8.848   2.299  0.1159 -0.2437  0.0779
 4664SOL    HW124671   5.671   8.762   2.278 -0.0721 -0.4251  1.2360
 4664SOL    HW224672   5.701   8.914   2.226 -0.7032 -0.8018 -0.2363
 4665SOL     OW24673   8.424   3.756   4.260 -0.3669 -0.7453  0.8042
 4665SOL    HW124674   8.482   3.777   4.181 -1.1947 -2.3537 -0.2702
 4665SOL    HW224675   8.434   3.659   4.284 -3.2214 -1.2968  0.0220
 4666SOL     OW24676   3.196   7.787   4.356 -0.3534 -0.2611  0.2163
 4666SOL    HW124677   3.231   7.816   4.266  0.5701 -0.9491  0.3449
 4666SOL    HW224678   3.270   7.791   4.423 -0.5545 -1.6145  0.5242
 4667SOL     OW24679   0.870   4.529   1.176 -0.6801 -0.4870  0.5216
 4667SOL    HW124680   0.945   4.547   1.239  0.5083  0.7490 -1.2140
 4667SOL    HW224681   0.891   4.447   1.121 -0.0340  0.5409 -0.7895
 4668SOL     OW24682   9.626   8.326   0.313 -0.3774 -0.3310  0.6258
 4668SOL    HW124683   9.714   8.283   0.293 -0.0577  1.0139 -0.9550
 4668SOL    HW224684   9.610   8.400   0.249 -3.0973 -1.1265  0.3327
 4669SOL     OW24685   1.501   8.633   3.384 -0.0125 -0.1897 -0.2062
 4669SOL    HW124686   1.586   8.588   3.411 -0.6474 -0.3150  1.6986
 4669SOL    HW224687   1.508   8.665   3.289  1.4069 -1.9437 -0.7099
 4670SOL     OW24688   9.417   0.872   3.606  0.1210  0.3843  0.0085
 4670SOL    HW124689   9.337   0.815   3.625  1.2098 -1.2186 -0.1070
 4670SOL    HW224690   9.410   0.910   3.514 -0.5328  0.2961  0.0212
 4671SOL     OW24691   0.300   0.027   0.750 -0.2459  0.0392  0.1234
 4671SOL    HW124692   0.287   0.066   0.841  0.7054  0.7417 -0.0274
 4671SOL    HW224693   0.233   0.066   0.687 -1.3449 -0.9503  0.6544
 4672SOL     OW24694   2.349   6.187   0.510  0.2350  0.3766  0.1247
 4672SOL    HW124695   2.396   6.125   0.448  0.4586  1.4315 -0.7877
 4672SOL    HW224696   2.370   6.282   0.485 -0.2765  0.8332  1.3423
 4673SOL     OW24697   2.849   2.254   4.754 -0.6360  0.2481 -0.0834
 4673SOL    HW124698   2.820   2.240   4.849  1.0132  1.0812  0.5481
 4673SOL    HW224699   2.861   2.351   4.736 -1.1549  0.1084 -1.2170
 4674SOL     OW24700   4.913   9.132   4.082  0.1822  0.1681  0.1925
 4674SOL    HW124701   4.955   9.044   4.059 -1.2863 -0.3649 -0.4909
 4674SOL    HW224702   4.820   9.135   4.045  0.1371  1.9094  0.4314
 4675SOL     OW24703   9.533   5.239   3.860  0.1044  0.6306 -0.4345
 4675SOL    HW124704   9.499   5.184   3.937  0.9059  2.3011  1.1692
 4675SOL    HW224705   9.534   5.183   3.777 -1.8690 -0.8810  0.5078
 4676SOL     OW24706   1.628   1.783   4.725 -0.0584 -0.2601  0.3159
 4676SOL    HW124707   1.539   1.825   4.707  0.3873  0.2441 -0.7638
 4676SOL    HW224708   1.646   1.785   4.823 -1.1137 -0.1124  0.5146
 4677SOL     OW24709   8.346   7.036   1.462  0.0844 -0.4903 -0.2049
 4677SOL    HW124710   8.438   7.068   1.439  0.6940 -0.9401  1.5539
 4677SOL    HW224711   8.280   7.078   1.399  1.3519  0.7836 -0.7260
 4678SOL     OW24712   0.054   1.934   0.683 -0.7449  0.1186 -0.2661
 4678SOL    HW124713   0.136   1.897   0.728 -0.7171 -1.5678 -1.6528
 4678SOL    HW224714   0.006   1.994   0.747 -0.4954 -1.9104  1.9125
 4679SOL     OW24715   1.296   5.220   0.496  0.0705  0.7502 -0.2282
 4679SOL    HW124716   1.348   5.269   0.427 -0.0027  3.3265  1.4627
 4679SOL    HW224717   1.208   5.265   0.510 -0.7731 -0.9506  0.0904
 4680SOL     OW24718   4.180   1.814   1.271  0.3069  0.0901  0.6658
 4680SOL    HW124719   4.085   1.819   1.302  0.2300 -1.0768  0.6383
 4680SOL    HW224720   4.184   1.763   1.185  0.5562  3.0938 -1.1466
 4681SOL     OW24721   7.456   6.257   2.881 -0.8846  0.1230 -0.0259
 4681SOL    HW124722   7.472   6.326   2.952  0.2311 -0.1591  0.0097
 4681SOL    HW224723   7.441   6.302   2.793  0.3077  0.4064 -0.0925
 4682SOL     OW24724   7.224   6.152   2.853  0.1190 -0.1900  0.0197
 4682SOL    HW124725   7.207   6.124   2.759  1.1055 -1.4616  0.2115
 4682SOL    HW224726   7.313   6.197   2.859 -0.7817  1.6625  0.0024
 4683SOL     OW24727   6.112   8.404   3.467 -0.0909  0.3170 -0.2306
 4683SOL    HW124728   6.209   8.403   3.444  0.5241 -1.4028  2.2272
 4683SOL    HW224729   6.067   8.325   3.426 -0.3656  0.8923 -1.0364
 4684SOL     OW24730   9.074   2.448   2.633 -1.0201 -0.0899  0.2485
 4684SOL    HW124731   9.140   2.452   2.708  0.2768 -0.8126 -0.8136
 4684SOL    HW224732   9.000   2.513   2.649 -0.9006 -0.4287  2.2711
 4685SOL     OW24733   7.967   4.917   0.141 -0.1602  0.1112  0.2687
 4685SOL    HW124734   7.993   4.974   0.063  1.0102  0.3017  0.7921
 4685SOL    HW224735   8.049   4.882   0.187 -0.8586 -3.4138 -1.0356
 4686SOL     OW24736   3.414   4.018   2.011  0.3496 -0.3980 -0.2768
 4686SOL    HW124737   3.439   4.054   1.921  0.4304 -0.7297 -0.3875
 4686SOL    HW224738   3.350   4.081   2.055  0.1239 -0.3526 -0.6646
 4687SOL     OW24739   8.085   5.584   3.005  0.0049 -0.2066 -0.3109
 4687SOL    HW124740   8.037   5.565   2.920  0.3966  0.6362 -0.7271
 4687SOL    HW224741   8.141   5.666   2.994 -0.5882  0.3884  1.0137
 4688SOL     OW24742   7.514   4.596   3.312  0.2049 -0.0085 -0.1202
 4688SOL    HW124743   7.547   4.690   3.302 -0.9912  0.2942 -1.3661
 4688SOL    HW224744   7.583   4.532   3.278  0.1038  0.5407 -1.3678
 4689SOL     OW24745   6.419   0.463   2.221 -0.1582 -0.2235  0.3600
 4689SOL    HW124746   6.342   0.525   2.205  1.6854  2.0632  0.1445
 4689SOL    HW224747   6.458   0.481   2.311  0.0201 -1.5014  0.5443
 4690SOL     OW24748   3.243   0.519   1.484  0.6587 -0.2208 -0.1431
 4690SOL    HW124749   3.310   0.475   1.544 -0.1293 -2.4135 -0.8042
 4690SOL    HW224750   3.257   0.488   1.390  0.3168  1.2841 -0.7126
 4691SOL     OW24751   4.040   0.448   2.067 -0.2086  0.6458 -0.1248
 4691SOL    HW124752   4.006   0.363   2.104  1.0094  0.4810  0.6517
 4691SOL    HW224753   4.052   0.439   1.968 -0.4183  0.0264 -0.0915
 4692SOL     OW24754   4.095   9.725   2.089 -0.2895 -0.1885 -0.1962
 4692SOL    HW124755   4.135   9.699   2.177  0.4853  0.3846 -0.3698
 4692SOL    HW224756   4.003   9.761   2.104 -1.4135 -3.0129  0.0388
 4693SOL     OW24757   6.898   9.378   1.074  0.1082 -0.3164 -0.1407
 4693SOL    HW124758   6.959   9.298   1.078 -0.4563 -0.7766 -0.6530
 4693SOL    HW224759   6.951   9.458   1.046  0.3699 -0.8495 -1.2412
 4694SOL     OW24760   5.138   3.003   1.526  0.1375  0.3943  0.2447
 4694SOL    HW124761   5.042   2.984   1.502  0.5524 -0.5223 -0.7265
 4694SOL    HW224762   5.156   2.973   1.619 -0.3004 -0.2313  0.1338
 4695SOL     OW24763   2.364   9.948   4.228 -0.3021  0.4903 -0.4546
 4695SOL    HW124764   2.334  10.016   4.295 -1.2447 -0.1225 -0.2505
 4695SOL    HW224765   2.342   9.980   4.136 -0.1415  0.7614 -0.3996
 4696SOL     OW24766   1.261   0.277   2.819 -0.5983 -0.5143 -0.3255
 4696SOL    HW124767   1.202   0.209   2.863  0.4845 -0.3072  1.4803
 4696SOL    HW224768   1.353   0.240   2.809  0.2769  1.0286  1.6577
 4697SOL     OW24769   9.640   9.330   3.558 -0.0352  0.3661 -0.1346
 4697SOL    HW124770   9.547   9.330   3.521  0.9131  1.7182 -2.6209
 4697SOL    HW224771   9.651   9.409   3.620 -0.2189  0.8236 -0.6832
 4698SOL     OW24772   9.957   9.562   1.967 -0.3601 -0.3903 -0.5695
 4698SOL    HW124773   9.917   9.653   1.974 -0.3266 -0.2635 -2.0153
 4698SOL    HW224774   9.889   9.494   1.994  0.2100  0.1477  2.3899
 4699SOL     OW24775   8.165   2.904   1.225 -0.1740  0.3276 -0.8769
 4699SOL    HW124776   8.205   2.959   1.152  0.8964 -2.1256 -2.1620
 4699SOL    HW224777   8.089   2.850   1.189  0.3079 -0.8460 -0.1521
 4700SOL     OW24778   8.949   2.136   3.066  0.5576  0.0944  0.1162
 4700SOL    HW124779   8.868   2.105   3.116  0.6332 -3.3134 -1.6826
 4700SOL    HW224780   8.922   2.197   2.991 -0.0115  1.3525  1.3315
 4701SOL     OW24781   4.016   4.267   0.130 -0.7084  0.1230  0.0518
 4701SOL    HW124782   4.096   4.275   0.070  0.0825  0.0653  1.0835
 4701SOL    HW224783   4.025   4.184   0.185 -1.7960 -0.2195 -0.2758
 4702SOL     OW24784   4.732   2.734   4.708  0.0001 -0.3681 -0.4759
 4702SOL    HW124785   4.697   2.642   4.693 -0.4069 -0.2662 -0.1601
 4702SOL    HW224786   4.741   2.751   4.806 -0.8662  0.2796 -0.5087
 4703SOL     OW24787   2.771   6.671   2.693  0.3260  0.0676 -0.0630
 4703SOL    HW124788   2.829   6.649   2.614  0.1965 -2.0541  0.3992
 4703SOL    HW224789   2.829   6.699   2.770  0.4444  2.2718 -0.9205
 4704SOL     OW24790   0.928   6.962   4.471  0.0137 -0.3050  0.1027
 4704SOL    HW124791   0.899   6.869   4.494  0.3962 -0.3507  0.3987
 4704SOL    HW224792   0.941   6.969   4.372 -2.5527  0.1528 -0.2363
 4705SOL     OW24793   9.946   7.711   2.613 -0.1315  0.1477  0.1715
 4705SOL    HW124794   9.982   7.640   2.552 -1.9419 -0.6610  0.0080
 4705SOL    HW224795   9.966   7.687   2.707  0.7444  0.2935  0.0317
 4706SOL     OW24796   2.711   1.294   4.244  0.0267  0.0972  0.0031
 4706SOL    HW124797   2.617   1.277   4.275  0.5727 -2.4462  0.3471
 4706SOL    HW224798   2.768   1.317   4.323  0.0138  0.1130  0.0075
 4707SOL     OW24799   1.964   0.966   3.028 -0.1806  0.1237  0.8846
 4707SOL    HW124800   2.046   0.972   3.085  0.4813  2.0416 -0.2343
 4707SOL    HW224801   1.891   1.021   3.068 -0.1696  0.3112  0.6500
 4708SOL     OW24802   2.637   6.341   0.084 -0.7212 -0.2949  0.1905
 4708SOL    HW124803   2.598   6.252   0.059  2.0962 -1.8662  1.1913
 4708SOL    HW224804   2.710   6.365   0.020 -0.2387  0.4207  0.9911
 4709SOL     OW24805   4.138   9.058   3.611 -0.6246 -0.7675 -0.2417
 4709SOL    HW124806   4.080   9.031   3.534 -0.1135 -2.5355 -0.0460
 4709SOL    HW224807   4.227   9.013   3.602  0.5665  1.5441 -0.3019
 4710SOL     OW24808   1.780   9.692   1.632  0.5493 -0.4204 -0.0955
 4710SOL    HW124809   1.830   9.668   1.549 -1.0603  0.2850 -1.3051
 4710SOL    HW224810   1.700   9.748   1.608 -1.1058 -1.9133  1.7023
 4711SOL     OW24811   6.807   7.698   1.746 -0.4940 -0.8727  0.4357
 4711SOL    HW124812   6.865   7.736   1.818 -0.4807 -2.3802  1.2591
 4711SOL    HW224813   6.832   7.737   1.658  0.7445 -0.3687  1.0005
 4712SOL     OW24814   3.594   0.526   0.685 -0.2569  0.1974  0.0306
 4712SOL    HW124815   3.586   0.466   0.605 -0.7100 -0.1034  0.3026
 4712SOL    HW224816   3.620   0.472   0.764  0.1164  0.4860  0.1097
 4713SOL     OW24817   1.529   1.232   1.234  0.0856 -0.0402 -0.2518
 4713SOL    HW124818   1.449   1.215   1.177 -0.7075 -1.6750  1.2870
 4713SOL    HW224819   1.562   1.145   1.272  1.9553  0.7403 -0.0354
 4714SOL     OW24820   1.097   3.078   3.284 -0.3728  0.4082  0.1540
 4714SOL    HW124821   1.010   3.049   3.324  0.0716 -0.0272  0.8355
 4714SOL    HW224822   1.167   3.079   3.356 -0.1861  2.3691 -0.0396
 4715SOL     OW24823   8.452   1.044   0.460 -0.4949  0.0417 -0.1516
 4715SOL    HW124824   8.492   1.129   0.425  0.8502 -0.4031  0.2935
 4715SOL    HW224825   8.407   1.063   0.548 -0.3895  0.3417 -0.1604
 4716SOL     OW24826   5.190   2.777   1.187  0.4896 -0.5916 -0.4945
 4716SOL    HW124827   5.174   2.702   1.250 -0.6776 -0.5016 -0.6730
 4716SOL    HW224828   5.236   2.743   1.104  1.8938 -0.7298  0.3233
 4717SOL     OW24829   2.213   1.506   4.626 -0.5441  0.2710 -0.3521
 4717SOL    HW124830   2.289   1.533   4.685  0.3540 -2.7908 -0.0144
 4717SOL    HW224831   2.239   1.425   4.574 -4.2439 -2.0776  1.2522
 4718SOL     OW24832   2.168   6.591   0.279  0.3686 -0.1588  0.2837
 4718SOL    HW124833   2.159   6.655   0.355  0.7558 -0.5809  0.6893
 4718SOL    HW224834   2.139   6.500   0.309  1.6273 -0.5785  0.2811
 4719SOL     OW24835   9.764   5.583   0.849 -0.2079 -0.2730  0.3661
 4719SOL    HW124836   9.722   5.499   0.815 -0.1562  0.1105 -0.6781
 4719SOL    HW224837   9.694   5.642   0.889 -0.5987  0.1437 -0.9040
 4720SOL     OW24838   7.979   5.536   2.758 -0.2629 -0.2313  0.0720
 4720SOL    HW124839   7.886   5.556   2.728 -0.9589 -0.8894  1.7502
 4720SOL    HW224840   7.995   5.437   2.756 -0.7892 -0.4365  3.0637
 4721SOL     OW24841   0.610   8.646   1.659 -0.0933 -0.2214  0.5010
 4721SOL    HW124842   0.680   8.592   1.706 -0.0080  0.4234  1.1288
 4721SOL    HW224843   0.628   8.744   1.674 -1.1474 -0.0480  0.7032
 4722SOL     OW24844   4.269   1.523   1.931  0.5158  0.1936 -0.1472
 4722SOL    HW124845   4.336   1.451   1.949 -0.3084 -0.3953  0.6204
 4722SOL    HW224846   4.257   1.577   2.014 -1.8014 -1.2538  0.4919
 4723SOL     OW24847   2.439   1.934   2.509  0.0828  0.0395 -0.1778
 4723SOL    HW124848   2.475   2.021   2.543  1.8243 -0.3160 -1.0750
 4723SOL    HW224849   2.510   1.864   2.515 -0.7754 -0.9159 -1.0683
 4724SOL     OW24850   0.898   2.376   1.455 -0.3991 -0.4337  0.2564
 4724SOL    HW124851   0.850   2.317   1.390 -2.1748  1.2989 -0.0218
 4724SOL    HW224852   0.996   2.376   1.433 -0.9006 -0.2711 -2.0948
 4725SOL     OW24853   1.957   9.654   3.319 -0.2898 -0.0351 -0.2079
 4725SOL    HW124854   2.046   9.640   3.362 -0.2987 -0.4411 -0.3271
 4725SOL    HW224855   1.924   9.568   3.280 -0.3347  0.3068 -0.9326
 4726SOL     OW24856   3.445   8.625   2.050 -0.4196 -0.0855 -0.3100
 4726SOL    HW124857   3.465   8.722   2.055  0.2674 -0.2613  0.3821
 4726SOL    HW224858   3.362   8.611   1.996 -0.4253  0.8654 -0.5579
 4727SOL     OW24859   9.221   0.728   4.026  0.5131 -0.7445 -0.5544
 4727SOL    HW124860   9.289   0.780   4.078 -0.6030  0.8306 -0.6238
 4727SOL    HW224861   9.150   0.790   3.994 -1.5076 -2.5165  0.3785
 4728SOL     OW24862   9.519   4.958   3.058  0.0327 -0.3545 -0.0423
 4728SOL    HW124863   9.494   5.029   3.123  1.0028  1.3023 -1.4524
 4728SOL    HW224864   9.536   4.998   2.968 -1.7049 -2.6495 -1.4726
 4729SOL     OW24865   4.606   0.517   0.716  0.2646 -0.3678  0.1884
 4729SOL    HW124866   4.587   0.426   0.678  0.9827 -0.6129  0.4176
 4729SOL    HW224867   4.684   0.558   0.668  0.4069 -0.1729  0.5845
 4730SOL     OW24868   6.819   9.894   3.811  0.3814 -0.4384  0.0818
 4730SOL    HW124869   6.777   9.930   3.728 -1.3015  0.2508  1.2000
 4730SOL    HW224870   6.782   9.943   3.890  3.6875  0.5706  1.0943
 4731SOL     OW24871   1.593   3.190   2.871  0.3331 -0.4423  0.0649
 4731SOL    HW124872   1.583   3.107   2.817 -0.6062  0.3249 -0.9337
 4731SOL    HW224873   1.504   3.235   2.883  0.7893  0.3054  0.7951
 4732SOL     OW24874   0.418   8.499   2.547 -0.0179 -0.1859 -0.3317
 4732SOL    HW124875   0.366   8.420   2.517  0.1897 -0.8585  1.0258
 4732SOL    HW224876   0.396   8.519   2.643 -0.0674  1.3907 -0.6618
 4733SOL     OW24877   0.589   7.126   2.253  0.1577 -0.3995 -0.0683
 4733SOL    HW124878   0.617   7.139   2.348  1.2089 -0.5759 -0.3479
 4733SOL    HW224879   0.517   7.057   2.248  0.3210 -0.6189  0.5696
 4734SOL     OW24880   8.908   5.064   0.173  0.0794  0.2133 -0.2465
 4734SOL    HW124881   8.833   5.000   0.154  1.4217 -1.0979 -1.2188
 4734SOL    HW224882   8.942   5.047   0.266  0.1412 -0.1758 -0.3395
 4735SOL     OW24883   9.254   9.491   2.745 -0.2434 -0.4430 -0.3437
 4735SOL    HW124884   9.181   9.550   2.781  0.4092 -1.6151  3.1483
 4735SOL    HW224885   9.216   9.430   2.675 -1.8720  1.1537 -0.8969
 4736SOL     OW24886   4.222   3.403   2.685 -0.2329  0.2841  0.4568
 4736SOL    HW124887   4.189   3.436   2.596 -0.3969  0.7331  0.6795
 4736SOL    HW224888   4.144   3.380   2.743 -0.1315  0.2390  0.5741
 4737SOL     OW24889   8.506   3.980   3.629 -0.3596  0.0332 -0.4290
 4737SOL    HW124890   8.535   4.012   3.538 -1.5696 -0.9489 -1.1855
 4737SOL    HW224891   8.457   4.053   3.676 -0.7305  0.1909 -1.0443
 4738SOL     OW24892   4.081   7.956   0.929  0.5313 -0.5528  0.4715
 4738SOL    HW124893   4.124   7.960   0.839  0.5308  1.1536  0.5237
 4738SOL    HW224894   4.124   8.023   0.990 -0.6503 -0.4288  1.2038
 4739SOL     OW24895   7.605   4.708   3.814  0.4276 -0.2670  0.1650
 4739SOL    HW124896   7.553   4.625   3.837 -1.6896  0.7319 -0.8697
 4739SOL    HW224897   7.590   4.776   3.885 -0.9866  0.5863 -0.9356
 4740SOL     OW24898   2.991   0.565   1.160 -0.2823  0.0480  0.2487
 4740SOL    HW124899   2.895   0.583   1.140 -1.2288 -1.8038  2.7249
 4740SOL    HW224900   3.006   0.466   1.160  1.7935  0.3483 -0.7628
 4741SOL     OW24901   5.120   3.748   4.729  0.3293 -0.5254  0.1346
 4741SOL    HW124902   5.167   3.829   4.761 -0.3909  0.1283 -0.4375
 4741SOL    HW224903   5.162   3.666   4.768  1.4806  0.0860  0.1761
 4742SOL     OW24904   6.138   8.866   1.482 -0.0210 -0.7335  0.3191
 4742SOL    HW124905   6.158   8.816   1.398 -0.6987 -0.1351 -0.2014
 4742SOL    HW224906   6.167   8.811   1.561  4.5396  0.5053 -0.3760
 4743SOL     OW24907   3.932   0.934   3.081  0.0848  0.1161  0.5871
 4743SOL    HW124908   3.836   0.933   3.055  0.5965 -1.5715 -1.3946
 4743SOL    HW224909   3.989   0.941   2.998  1.6917 -0.4914  1.6053
 4744SOL     OW24910   2.235   9.795   2.671  0.4342 -0.0937  0.2951
 4744SOL    HW124911   2.250   9.708   2.624 -1.5320  0.3228 -1.1514
 4744SOL    HW224912   2.294   9.865   2.632  2.9760 -1.0210  2.3278
 4745SOL     OW24913   0.220   2.030   1.187  0.1786 -0.4320 -0.2814
 4745SOL    HW124914   0.127   1.997   1.204  0.4404 -1.8042 -1.4588
 4745SOL    HW224915   0.225   2.066   1.094  1.2167 -1.7422 -0.7405
 4746SOL     OW24916   0.195   1.603   2.922  0.2868  0.1434  0.5865
 4746SOL    HW124917   0.195   1.530   2.853 -1.5497 -0.5270  1.2657
 4746SOL    HW224918   0.115   1.661   2.909 -0.4006 -0.3231  2.4651
 4747SOL     OW24919   1.499   1.655   3.662  0.7366  0.2278 -0.3116
 4747SOL    HW124920   1.487   1.735   3.602 -0.3823  0.3003 -0.0070
 4747SOL    HW224921   1.558   1.680   3.739 -0.0246  0.9173  0.0608
 4748SOL     OW24922   4.205   7.359   0.696  0.0107 -0.1331  0.0921
 4748SOL    HW124923   4.112   7.325   0.686 -0.6456  1.5382  0.3505
 4748SOL    HW224924   4.245   7.374   0.605 -0.6450  0.8934 -0.0425
 4749SOL     OW24925   1.550   8.234   0.740  0.1659  0.0415  0.5491
 4749SOL    HW124926   1.641   8.254   0.776 -0.4217  1.9910  1.0313
 4749SOL    HW224927   1.480   8.268   0.804 -0.8901 -0.6853 -0.2001
 4750SOL     OW24928   0.134   0.581   4.224 -0.5846 -0.7613  0.1165
 4750SOL    HW124929   0.039   0.588   4.254 -0.0891 -1.8253  1.9612
 4750SOL    HW224930   0.148   0.493   4.179 -0.5899 -0.3804 -0.6454
 4751SOL     OW24931   1.720   9.922   4.641  0.2173 -0.1257  0.3150
 4751SOL    HW124932   1.666   9.845   4.606  1.1951 -0.7237  0.1096
 4751SOL    HW224933   1.730   9.912   4.740 -2.8995  1.7824  0.9107
 4752SOL     OW24934   0.695   8.678   4.539  0.2847  0.4856  0.0087
 4752SOL    HW124935   0.707   8.698   4.636 -0.7520 -0.3856  0.3379
 4752SOL    HW224936   0.729   8.586   4.520  0.1840  0.5304 -0.3841
 4753SOL     OW24937   4.961   9.745   2.992 -0.0528  0.4527 -0.1271
 4753SOL    HW124938   5.000   9.818   3.048 -1.0574  1.2210 -0.3967
 4753SOL    HW224939   5.013   9.661   3.004 -0.1695  0.6536  1.8268
 4754SOL     OW24940   5.229   7.978   1.628 -0.0142  0.0766 -0.1259
 4754SOL    HW124941   5.316   7.971   1.579 -0.3094 -0.6124 -0.5533
 4754SOL    HW224942   5.231   7.916   1.707  0.0954  0.4804  0.1898
 4755SOL     OW24943   7.669   2.087   4.150 -0.0101 -0.5424  0.1574
 4755SOL    HW124944   7.717   2.007   4.113 -0.5112 -1.3246  1.1811
 4755SOL    HW224945   7.706   2.170   4.108  1.0452 -1.2574 -0.3545
 4756SOL     OW24946   7.290   9.265   0.030  0.1957 -0.0946  0.4257
 4756SOL    HW124947   7.337   9.190   0.077 -0.7730  0.5497  2.4509
 4756SOL    HW224948   7.283   9.343   0.091  0.0015  1.2056 -1.2299
 4757SOL     OW24949   8.927   9.816   3.314  0.3148 -0.1519  0.0955
 4757SOL    HW124950   8.942   9.841   3.410 -1.2843 -0.6844  0.4977
 4757SOL    HW224951   8.943   9.896   3.256  1.2095  0.1943  0.8001
 4758SOL     OW24952   6.517   9.002   3.516  0.4553  0.9526  0.0644
 4758SOL    HW124953   6.452   9.075   3.494 -2.6131 -1.6607  0.0549
 4758SOL    HW224954   6.547   8.958   3.431 -1.2019 -0.6366  0.2618
 4759SOL     OW24955   3.689   2.394   0.970 -0.0670 -0.3075 -0.4171
 4759SOL    HW124956   3.615   2.353   0.917 -2.1652  0.2261  2.0062
 4759SOL    HW224957   3.657   2.479   1.012  2.3218  0.5801 -0.3271
 4760SOL     OW24958   0.889   5.380   2.745  0.6538 -1.1023 -0.0583
 4760SOL    HW124959   0.791   5.402   2.749  0.6570 -0.5006 -2.5699
 4760SOL    HW224960   0.920   5.351   2.836 -1.4882  0.2261  1.1527
 4761SOL     OW24961   7.836   0.098   4.627 -0.5386  0.0452  0.0560
 4761SOL    HW124962   7.843   0.002   4.654 -0.5563  0.4553  1.5853
 4761SOL    HW224963   7.884   0.112   4.540 -0.9550 -1.4329 -0.4277
 4762SOL     OW24964   9.170   4.394   2.377 -0.2354 -0.1929  0.0267
 4762SOL    HW124965   9.114   4.446   2.441  0.1136 -0.0630  0.2266
 4762SOL    HW224966   9.114   4.366   2.299 -0.6420 -0.2708  0.3382
 4763SOL     OW24967   4.045   6.164   1.318 -0.1378  0.2647  0.2856
 4763SOL    HW124968   4.000   6.168   1.229 -0.5722  0.4872  0.5141
 4763SOL    HW224969   4.120   6.230   1.320 -0.2632  0.4133  0.1576
 4764SOL     OW24970   1.327   2.385   1.611 -0.7406  0.4892  0.2149
 4764SOL    HW124971   1.413   2.410   1.566 -0.3247  3.7535  2.6235
 4764SOL    HW224972   1.316   2.286   1.609  2.2409  0.1296 -1.6210
 4765SOL     OW24973   5.381   8.591   1.603  0.2522 -0.0755 -0.0918
 4765SOL    HW124974   5.346   8.512   1.653  1.2053 -0.7933 -0.5483
 4765SOL    HW224975   5.331   8.603   1.518 -0.3250  0.2048  0.2849
 4766SOL     OW24976   3.414   2.363   0.076  0.1651  0.4953 -0.0466
 4766SOL    HW124977   3.416   2.348  -0.023 -0.0885 -1.0510  0.1703
 4766SOL    HW224978   3.469   2.442   0.099  2.2591 -0.5988 -1.1749
 4767SOL     OW24979   1.454   0.162   3.707  0.6511 -0.1192  0.0617
 4767SOL    HW124980   1.401   0.238   3.669  0.3750 -0.6344 -0.5793
 4767SOL    HW224981   1.536   0.148   3.652  0.0045 -1.1835 -0.6436
 4768SOL     OW24982   2.588   1.719   3.944 -0.1945  0.1947  0.6748
 4768SOL    HW124983   2.561   1.810   3.976 -2.1253 -0.0152 -0.3074
 4768SOL    HW224984   2.551   1.650   4.007  0.4860  0.0335  0.9039
 4769SOL     OW24985   2.151   4.793   0.541  0.1360 -0.0771  0.0262
 4769SOL    HW124986   2.078   4.738   0.499 -0.9504  0.1649  1.5626
 4769SOL    HW224987   2.116   4.836   0.624  1.7267  0.9283  0.1856
 4770SOL     OW24988   9.511   7.825   0.525  1.3673  0.1043 -0.1933
 4770SOL    HW124989   9.558   7.763   0.588 -0.5707 -1.1966  0.0136
 4770SOL    HW224990   9.483   7.774   0.443 -0.9600  0.4967  0.3377
 4771SOL     OW24991   3.136   6.150   0.112  0.1175  0.4174 -0.1551
 4771SOL    HW124992   3.188   6.231   0.083  0.8442  0.3254  0.8674
 4771SOL    HW224993   3.040   6.174   0.123 -0.3146  0.3043 -3.2651
 4772SOL     OW24994   4.495   9.656   4.386 -0.1899  0.1278 -0.1192
 4772SOL    HW124995   4.431   9.618   4.454 -0.1037  2.0745  1.0959
 4772SOL    HW224996   4.446   9.721   4.328  0.6030  1.4752  0.6854
 4773SOL     OW24997   2.557   4.132   4.626  0.7038 -0.5109 -0.3205
 4773SOL    HW124998   2.627   4.101   4.691  1.3797  1.4102 -0.1176
 4773SOL    HW224999   2.578   4.224   4.596 -0.6858 -0.6564 -1.7899
 4774SOL     OW25000   3.561   9.485   3.515  0.5214 -0.6964  0.2690
 4774SOL    HW125001   3.639   9.462   3.573  0.8354 -0.7594 -0.1778
 4774SOL    HW225002   3.556   9.584   3.502  1.0324 -0.7577 -0.4067
 4775SOL     OW25003   4.666   9.038   3.523  0.1610  0.0760  0.0149
 4775SOL    HW125004   4.706   9.031   3.431 -0.8013  0.3422 -0.4354
 4775SOL    HW225005   4.696   9.122   3.567  2.3337 -1.0769  0.7908
 4776SOL     OW25006   0.993   5.611   3.218  0.1604  0.3815 -0.4370
 4776SOL    HW125007   0.978   5.557   3.300 -1.2483 -0.4831 -1.2285
 4776SOL    HW225008   0.987   5.708   3.240  2.6979  0.2389  0.9986
 4777SOL     OW25009   4.309   6.940   3.665 -0.4940 -0.2884 -0.8776
 4777SOL    HW125010   4.354   7.022   3.630 -1.6871 -0.9688 -4.1859
 4777SOL    HW225011   4.368   6.861   3.651 -0.0795 -0.2765  0.6964
 4778SOL     OW25012   8.549   4.886   1.878 -0.2450  0.1026 -0.6588
 4778SOL    HW125013   8.637   4.930   1.896 -0.0673 -0.7535  0.5942
 4778SOL    HW225014   8.496   4.943   1.816  1.8679 -0.1709 -2.7950
 4779SOL     OW25015   0.781   3.626   0.028 -0.4974  0.0860  0.4730
 4779SOL    HW125016   0.800   3.561  -0.045  1.5765  0.0648  0.9962
 4779SOL    HW225017   0.851   3.697   0.028 -2.0047  1.6047  0.7366
 4780SOL     OW25018   1.351   4.696   2.974 -0.0557 -0.0853  0.1221
 4780SOL    HW125019   1.356   4.786   2.932  0.2803 -0.7174 -1.2472
 4780SOL    HW225020   1.255   4.666   2.977 -0.0646 -0.1067 -0.3527
 4781SOL     OW25021   7.631   9.355   0.792  0.3441 -0.0111 -0.1385
 4781SOL    HW125022   7.566   9.318   0.859 -0.0427  2.3848  0.8954
 4781SOL    HW225023   7.583   9.417   0.730  1.4699  1.1137  0.0886
 4782SOL     OW25024   3.795   9.941   4.145 -0.0896  0.3465 -0.3279
 4782SOL    HW125025   3.698   9.935   4.170 -0.2501  1.6538 -0.5937
 4782SOL    HW225026   3.803   9.969   4.049  0.5504 -1.0341 -0.6895
 4783SOL     OW25027   9.091   9.749   0.370  0.4652 -0.4686  0.4424
 4783SOL    HW125028   9.043   9.664   0.390 -1.6343  0.0835 -1.9978
 4783SOL    HW225029   9.089   9.809   0.450  0.6294 -2.0720  1.6596
 4784SOL     OW25030   2.626   1.775   0.808  0.4153 -0.8448 -0.6568
 4784SOL    HW125031   2.704   1.799   0.750  0.5124 -1.0528 -0.6116
 4784SOL    HW225032   2.544   1.763   0.751  0.3228 -0.2241 -0.6615
 4785SOL     OW25033   4.894   9.067   1.258  0.1790  0.1959 -0.0901
 4785SOL    HW125034   4.951   8.995   1.297 -1.4338 -1.3931 -0.5876
 4785SOL    HW225035   4.913   9.076   1.160 -0.5287 -0.4591 -0.2935
 4786SOL     OW25036   4.699   0.195   2.590  0.4507  0.0998 -0.3564
 4786SOL    HW125037   4.612   0.151   2.565  0.8079 -1.3682  0.8684
 4786SOL    HW225038   4.739   0.147   2.669  2.7603  0.2574 -1.3849
 4787SOL     OW25039   0.160   1.222   2.500  0.4240 -0.0248  0.3211
 4787SOL    HW125040   0.116   1.167   2.571 -1.1180  1.3806  0.4951
 4787SOL    HW225041   0.230   1.167   2.454 -0.7051 -1.9596  0.8331
 4788SOL     OW25042   9.869   2.946   2.939 -0.1437 -0.4659 -0.1057
 4788SOL    HW125043   9.966   2.924   2.931 -0.1397 -0.1334 -1.0946
 4788SOL    HW225044   9.817   2.889   2.875 -0.4480  0.2939 -0.5434
 4789SOL     OW25045   9.898   2.468   2.985 -0.0843 -0.1085 -0.3694
 4789SOL    HW125046   9.821   2.527   2.962 -0.0930 -0.3099 -0.8720
 4789SOL    HW225047   9.873   2.373   2.966  0.0195 -0.2506  0.1878
 4790SOL     OW25048   0.100   2.986   1.617  0.0463 -0.1196  0.3332
 4790SOL    HW125049   0.031   2.948   1.679  0.6619 -1.4804  0.2223
 4790SOL    HW225050   0.126   2.916   1.551  3.1342 -0.3923  1.7330
 4791SOL     OW25051   9.518   0.969   3.333 -0.3517  0.3108  0.3201
 4791SOL    HW125052   9.498   0.911   3.254 -2.7773  0.3180  0.8911
 4791SOL    HW225053   9.471   1.057   3.322  1.5733  1.3835  0.4690
 4792SOL     OW25054   6.252   6.533   1.954 -0.7365 -0.0720  0.0931
 4792SOL    HW125055   6.240   6.453   2.012 -0.7781  0.6222  1.0619
 4792SOL    HW225056   6.174   6.594   1.965  1.2393  2.1402  2.6945
 4793SOL     OW25057   8.555   3.386   2.817  0.0504 -0.1024  0.1848
 4793SOL    HW125058   8.540   3.411   2.721 -0.3025  0.2024  0.3155
 4793SOL    HW225059   8.543   3.287   2.828 -3.6755  0.3196  0.5866
 4794SOL     OW25060   3.195   0.926   1.290  0.6337  0.1158 -0.6714
 4794SOL    HW125061   3.218   0.942   1.194 -0.3552 -0.7738 -1.0582
 4794SOL    HW225062   3.264   0.868   1.332  1.6119  1.3249 -0.5599
 4795SOL     OW25063   7.348   0.119   2.582 -0.2741 -0.5590 -0.6147
 4795SOL    HW125064   7.327   0.124   2.484 -3.2281 -1.2249 -0.0810
 4795SOL    HW225065   7.380   0.027   2.604 -0.9240 -0.8273 -0.7537
 4796SOL     OW25066   0.530   1.963   4.560 -0.0128  0.6268  0.6861
 4796SOL    HW125067   0.626   1.975   4.586  0.1344  0.2358  0.3190
 4796SOL    HW225068   0.516   1.994   4.466 -0.5741  2.1595  1.2581
 4797SOL     OW25069   9.744   8.522   0.500 -0.6195  0.1581  0.6800
 4797SOL    HW125070   9.673   8.587   0.528  0.0567  2.0001 -1.7355
 4797SOL    HW225071   9.710   8.466   0.425  0.2604  0.6983 -0.1403
 4798SOL     OW25072   2.634   1.562   2.680 -0.8022  0.4489  0.4482
 4798SOL    HW125073   2.674   1.631   2.620  0.8154  1.0714  2.1805
 4798SOL    HW225074   2.708   1.510   2.724 -1.9675 -0.3273  1.5009
 4799SOL     OW25075   2.299   7.546   4.116  0.0411  0.3849  0.1471
 4799SOL    HW125076   2.263   7.483   4.185 -1.5821 -0.9869 -1.8949
 4799SOL    HW225077   2.290   7.505   4.026  2.1690  2.1426 -0.8977
 4800SOL     OW25078   2.626   7.228   4.360  0.0442  0.0408 -0.0831
 4800SOL    HW125079   2.718   7.191   4.372  0.2299  0.2957 -0.6810
 4800SOL    HW225080   2.584   7.242   4.450  0.0451 -1.4092  0.1465
 4801SOL     OW25081   9.333   6.746   1.301  0.6915 -0.0400  0.2177
 4801SOL    HW125082   9.415   6.786   1.341  0.6405 -0.5267  0.8051
 4801SOL    HW225083   9.359   6.672   1.239  0.8089  1.1161 -1.1423
 4802SOL     OW25084   0.252   1.410   2.731 -0.3384 -0.0866 -0.0908
 4802SOL    HW125085   0.277   1.334   2.792  1.7598  0.3513 -0.3719
 4802SOL    HW225086   0.221   1.373   2.643  1.1129 -0.6246 -0.3906
 4803SOL     OW25087   3.749   2.838   0.580 -0.3025 -0.1614 -0.1202
 4803SOL    HW125088   3.829   2.869   0.632 -0.9900  2.7666 -0.6967
 4803SOL    HW225089   3.717   2.913   0.522 -3.0346 -1.5490 -0.4568
 4804SOL     OW25090   7.025   9.421   3.606 -0.3403  0.1806 -0.2085
 4804SOL    HW125091   7.123   9.408   3.591 -0.2228 -1.0717  1.4862
 4804SOL    HW225092   6.985   9.337   3.642 -2.0224  0.7196 -0.7690
 4805SOL     OW25093   4.306   9.092   3.952  0.3853  0.0764  0.2164
 4805SOL    HW125094   4.333   8.998   3.931  2.0291  0.4344  0.6661
 4805SOL    HW225095   4.222   9.092   4.006  0.2197 -1.1074 -0.0346
 4806SOL     OW25096   2.506   7.496   4.440  1.3231 -0.2372  0.8290
 4806SOL    HW125097   2.598   7.520   4.408  1.4778 -0.3970  1.1508
 4806SOL    HW225098   2.460   7.577   4.474 -0.1701  0.6552 -3.0337
 4807SOL     OW25099   2.560   8.566   4.725 -0.1069  0.1654 -0.9013
 4807SOL    HW125100   2.636   8.527   4.777 -1.7682 -2.0273 -0.0670
 4807SOL    HW225101   2.563   8.532   4.631  0.3177  0.6242 -1.0582
 4808SOL     OW25102   5.690   9.346   2.019 -0.0762 -0.6588  0.1857
 4808SOL    HW125103   5.665   9.287   1.942 -1.0035 -1.1612  0.8548
 4808SOL    HW225104   5.612   9.355   2.080  0.9651 -1.1335  1.6219
 4809SOL     OW25105   9.131   2.792   3.105  0.0081  0.8588  0.2092
 4809SOL    HW125106   9.069   2.714   3.114  1.0703 -0.0593 -0.3657
 4809SOL    HW225107   9.078   2.874   3.084 -1.1357  0.3326  0.9606
 4810SOL     OW25108   2.235   9.906   3.201 -0.3027  0.3127 -0.3460
 4810SOL    HW125109   2.283   9.894   3.114  1.4019 -0.7905  0.7184
 4810SOL    HW225110   2.275   9.984   3.250 -0.5306  0.2479 -0.0600
 4811SOL     OW25111   1.191   4.881   3.619  0.2271 -0.3039 -0.0424
 4811SOL    HW125112   1.137   4.870   3.535  0.8446  0.3336 -0.5321
 4811SOL    HW225113   1.130   4.902   3.695 -0.2237  0.3083 -0.5673
 4812SOL     OW25114   1.978   9.611   1.817 -0.4566 -0.3766 -0.5767
 4812SOL    HW125115   2.019   9.669   1.887 -1.1872  0.4095 -0.7868
 4812SOL    HW225116   1.911   9.664   1.765  0.2644 -0.8595 -2.0497
 4813SOL     OW25117   9.679   9.459   4.305 -0.1252  0.7500  0.2824
 4813SOL    HW125118   9.678   9.531   4.236 -1.4323 -0.5121 -1.0638
 4813SOL    HW225119   9.728   9.379   4.270  1.3086  0.9531  1.7577
 4814SOL     OW25120   5.210   0.289   3.139 -0.2991 -0.0500  0.4684
 4814SOL    HW125121   5.216   0.203   3.190  1.6847 -0.2777 -0.0873
 4814SOL    HW225122   5.267   0.283   3.057 -0.5946  1.6025  0.1203
 4815SOL     OW25123   9.356   1.052   1.373 -0.1409  0.6065  0.3141
 4815SOL    HW125124   9.385   1.120   1.440  0.5196 -0.5338  1.2054
 4815SOL    HW225125   9.359   1.091   1.281 -0.5478  2.0170  0.8992
 4816SOL     OW25126   8.384   2.864   1.629  0.0441 -0.6217 -0.1947
 4816SOL    HW125127   8.336   2.807   1.697  0.0016  0.4026  0.6390
 4816SOL    HW225128   8.319   2.893   1.559  0.1035 -1.7446 -0.7334
 4817SOL     OW25129   3.444   5.877   2.506 -0.0896  0.0095  0.0058
 4817SOL    HW125130   3.493   5.872   2.593  1.3603 -3.4320 -0.9126
 4817SOL    HW225131   3.510   5.886   2.431 -1.0991 -0.4009 -0.9505
 4818SOL     OW25132   3.173   3.523   2.871  0.2793  0.1071  0.1614
 4818SOL    HW125133   3.126   3.550   2.787  0.0302  1.6246  0.7701
 4818SOL    HW225134   3.217   3.603   2.912 -0.2851 -0.4506  1.9036
 4819SOL     OW25135   1.426   9.285   2.864  0.1565  0.1559 -0.2081
 4819SOL    HW125136   1.395   9.288   2.959 -0.6340  0.8487 -0.4742
 4819SOL    HW225137   1.525   9.272   2.861  0.1109 -0.4573  0.6973
 4820SOL     OW25138   1.060   3.819   0.631  1.1036  0.5726 -0.3355
 4820SOL    HW125139   1.009   3.898   0.596 -3.0223 -0.4510  2.9438
 4820SOL    HW225140   1.026   3.736   0.588 -0.4675 -0.1802  2.2569
 4821SOL     OW25141   8.916   3.951   3.664  0.3240  0.3760  0.5126
 4821SOL    HW125142   8.962   3.918   3.581  0.2759 -0.1726  0.7038
 4821SOL    HW225143   8.879   4.043   3.647  0.3997  0.3057 -0.0405
 4822SOL     OW25144   2.593   6.839   2.200  0.0205 -0.2253 -0.8034
 4822SOL    HW125145   2.637   6.870   2.285  1.9105  0.6466 -2.0590
 4822SOL    HW225146   2.502   6.803   2.221 -0.8711  2.9420  1.1891
 4823SOL     OW25147   6.227   8.818   3.176 -0.0795  0.1078 -0.3365
 4823SOL    HW125148   6.195   8.733   3.133 -0.9125 -0.4407  1.3226
 4823SOL    HW225149   6.277   8.796   3.259 -1.3868  1.2813  0.7880
 4824SOL     OW25150   0.493   6.559   0.907  0.7420  0.4669 -0.4906
 4824SOL    HW125151   0.455   6.610   0.984  0.5738  0.6353 -0.6859
 4824SOL    HW225152   0.553   6.486   0.942 -1.1968 -0.9789 -0.1088
 4825SOL     OW25153   2.140   4.924   4.413  0.1499 -0.3608 -0.0789
 4825SOL    HW125154   2.044   4.950   4.428  0.0995 -0.5567 -0.0524
 4825SOL    HW225155   2.194   5.005   4.391 -0.2791 -0.4264 -1.4488
 4826SOL     OW25156   7.912   3.074   0.846  0.6371  0.3623 -0.3990
 4826SOL    HW125157   7.865   3.137   0.785 -0.1334  0.1320 -0.0459
 4826SOL    HW225158   7.941   2.993   0.794  0.0016  0.1766 -0.4704
 4827SOL     OW25159   0.835   9.082   4.342 -0.1580 -0.1226 -0.2413
 4827SOL    HW125160   0.757   9.101   4.402 -0.9544  0.8721 -1.5630
 4827SOL    HW225161   0.884   9.001   4.375 -1.8254 -0.8327  0.5280
 4828SOL     OW25162   2.320   7.896   1.006  0.0952  0.8070  0.2044
 4828SOL    HW125163   2.366   7.966   1.061  3.2287 -2.6068  2.1324
 4828SOL    HW225164   2.369   7.882   0.920  0.8590 -0.5833  0.8444
 4829SOL     OW25165   7.283   8.100   1.437 -0.1001  0.7766  0.1248
 4829SOL    HW125166   7.307   8.010   1.471  0.6610  1.3479  1.1207
 4829SOL    HW225167   7.207   8.137   1.490 -0.5966  0.6170 -0.4619
 4830SOL     OW25168   9.069   5.125   4.061  0.1453  0.2215 -0.8208
 4830SOL    HW125169   9.044   5.032   4.085 -1.9890  0.6071 -1.4593
 4830SOL    HW225170   9.008   5.159   3.990 -1.2065  3.2027  1.6230
 4831SOL     OW25171   9.411   7.956   2.452  0.0160 -0.2625  0.6640
 4831SOL    HW125172   9.475   7.880   2.462  0.5546 -0.0453 -0.9327
 4831SOL    HW225173   9.342   7.933   2.383  0.6269  0.9626 -0.3824
 4832SOL     OW25174   9.266   5.317   2.789 -0.0441 -0.5149  0.1936
 4832SOL    HW125175   9.241   5.262   2.869  1.7174  0.3536  1.3808
 4832SOL    HW225176   9.320   5.261   2.725 -0.8308 -1.0051 -0.0465
 4833SOL     OW25177   0.827   6.677   4.555 -0.0185  0.3186 -0.1764
 4833SOL    HW125178   0.729   6.682   4.534  0.1044  0.5288 -0.7311
 4833SOL    HW225179   0.863   6.589   4.523  0.0418  0.3850 -0.2954
 4834SOL     OW25180   8.314   4.274   3.067 -0.2941 -0.1732  0.2346
 4834SOL    HW125181   8.287   4.197   3.009  2.3026 -0.1508 -1.0756
 4834SOL    HW225182   8.299   4.360   3.018  0.5605 -0.0812  0.1151
 4835SOL     OW25183   3.473   1.115   4.285  0.2878 -1.0385 -0.0701
 4835SOL    HW125184   3.391   1.160   4.248 -1.0081 -2.5305  0.9282
 4835SOL    HW225185   3.471   1.017   4.261  1.5065 -1.1985  0.4364
 4836SOL     OW25186   0.086   6.601   3.378  0.0492  0.0951  0.4645
 4836SOL    HW125187   0.113   6.553   3.461 -0.1900  1.4847  1.3598
 4836SOL    HW225188   0.138   6.687   3.371 -1.4197  0.9718  0.2569
 4837SOL     OW25189   8.506   3.422   4.651  0.1734 -0.8290 -0.1873
 4837SOL    HW125190   8.434   3.491   4.648  0.0280 -1.0249 -2.0223
 4837SOL    HW225191   8.488   3.353   4.581 -0.0491 -3.1242  2.0432
 4838SOL     OW25192   8.198   4.796   1.902 -0.1385  0.2396 -0.2615
 4838SOL    HW125193   8.107   4.776   1.938 -0.6471  0.1283 -1.5808
 4838SOL    HW225194   8.222   4.729   1.832 -0.5075  2.3089 -2.4103
 4839SOL     OW25195   3.864   1.467   3.483  0.1687 -0.4841 -0.1729
 4839SOL    HW125196   3.953   1.503   3.455 -0.3931  0.1565 -1.1956
 4839SOL    HW225197   3.819   1.426   3.404 -1.0367  0.4836 -0.0111
 4840SOL     OW25198   2.495   7.811   4.382 -0.2546  0.3267  0.1520
 4840SOL    HW125199   2.411   7.780   4.425  0.2500 -0.2587  0.7307
 4840SOL    HW225200   2.571   7.805   4.447  0.1091  1.5162 -0.1428
 4841SOL     OW25201   2.543   0.414   0.172  0.0727 -0.0615 -0.3870
 4841SOL    HW125202   2.489   0.497   0.174 -1.5517 -0.9832 -2.9608
 4841SOL    HW225203   2.500   0.344   0.229  2.0622  1.1270  2.7335
 4842SOL     OW25204   0.714   7.683   3.272  0.3634  0.5256 -0.1885
 4842SOL    HW125205   0.762   7.705   3.187  1.7898 -2.0335 -0.0921
 4842SOL    HW225206   0.734   7.752   3.341  0.7466  1.5715 -1.3349
 4843SOL     OW25207   3.850   2.959   0.296 -0.6168 -0.6202  0.7579
 4843SOL    HW125208   3.812   3.023   0.363 -2.4061  0.9724 -1.7068
 4843SOL    HW225209   3.850   3.001   0.206  3.5498 -2.0040 -0.0163
 4844SOL     OW25210   2.651   2.862   4.255 -0.6902 -0.4182  0.2255
 4844SOL    HW125211   2.630   2.946   4.205 -0.3336  0.1710  1.0425
 4844SOL    HW225212   2.674   2.789   4.191 -0.2735  0.3216 -0.4674
 4845SOL     OW25213   1.522   4.803   3.600  0.6181 -0.0663 -0.1754
 4845SOL    HW125214   1.446   4.753   3.640  0.1599  0.3897 -0.4731
 4845SOL    HW225215   1.491   4.892   3.569  1.0041 -0.3764 -1.4616
 4846SOL     OW25216   4.100   3.496   0.532 -0.5487 -0.8027 -0.0411
 4846SOL    HW125217   4.173   3.487   0.600  1.2940 -0.7204 -1.9642
 4846SOL    HW225218   4.058   3.586   0.541 -0.0622 -0.6440  0.7337
 4847SOL     OW25219   9.505   2.909   2.867 -0.6252  0.2526  0.3188
 4847SOL    HW125220   9.500   2.942   2.961 -1.9050  0.3986  0.2125
 4847SOL    HW225221   9.453   2.971   2.807 -1.0824 -0.6761 -0.2510
 4848SOL     OW25222   6.343   9.443   0.775  0.5349 -0.2848  0.0681
 4848SOL    HW125223   6.387   9.527   0.743  1.1099 -0.7459 -0.3674
 4848SOL    HW225224   6.285   9.463   0.854 -0.1399  0.7056 -0.6651
 4849SOL     OW25225   9.831   3.320   4.701 -0.0162 -0.2162 -0.3544
 4849SOL    HW125226   9.807   3.237   4.751  1.6689 -0.1299  0.6492
 4849SOL    HW225227   9.834   3.398   4.764 -1.5873  0.6255 -1.2839
 4850SOL     OW25228   5.068   1.985   1.356 -0.4314  0.3379  0.2878
 4850SOL    HW125229   5.028   2.075   1.341 -0.8709  0.3366  1.3851
 4850SOL    HW225230   5.001   1.925   1.400 -0.0930 -0.4782 -0.2979
 4851SOL     OW25231   0.065   5.736   1.835  0.0892  0.1675 -0.0147
 4851SOL    HW125232   0.003   5.689   1.772  0.2926 -0.4015  0.2004
 4851SOL    HW225233   0.127   5.795   1.784  1.9962 -2.2832 -0.6367
 4852SOL     OW25234   8.363   4.433   4.734  0.4258 -0.0319  0.6051
 4852SOL    HW125235   8.345   4.532   4.729  0.6708  0.0256  0.8295
 4852SOL    HW225236   8.280   4.386   4.765  0.4070  0.1417  0.8244
 4853SOL     OW25237   7.299   9.093   3.617  0.3260 -0.3844 -0.1311
 4853SOL    HW125238   7.398   9.099   3.607  0.2667  2.1325  0.5626
 4853SOL    HW225239   7.260   9.185   3.620 -2.2448 -1.3398 -2.3479
 4854SOL     OW25240   8.302   9.274   0.299  0.1422 -0.3146  0.4563
 4854SOL    HW125241   8.215   9.239   0.265  0.1085 -0.8267  1.0658
 4854SOL    HW225242   8.377   9.226   0.254  0.2588  3.3929 -3.7247
 4855SOL     OW25243   1.573   0.397   0.672 -0.0545 -0.0303  0.0021
 4855SOL    HW125244   1.482   0.359   0.657 -0.6464  2.2216 -2.6498
 4855SOL    HW225245   1.576   0.441   0.763 -1.0663 -1.5343  0.7827
 4856SOL     OW25246   3.778   8.679   2.780 -0.4248 -0.2198 -0.1546
 4856SOL    HW125247   3.780   8.591   2.732 -0.0739  0.2964 -1.0839
 4856SOL    HW225248   3.683   8.711   2.787 -0.5421 -0.6083  0.0853
 4857SOL     OW25249   3.387   6.850   0.612  0.1922  0.3721  0.1502
 4857SOL    HW125250   3.292   6.875   0.631 -0.2659 -0.2915 -1.1506
 4857SOL    HW225251   3.416   6.779   0.677 -0.3325  0.3062  0.3208
 4858SOL     OW25252   5.179   7.393   2.004  0.3073 -0.2623  0.0527
 4858SOL    HW125253   5.170   7.467   2.071 -0.7478  0.8290 -1.2583
 4858SOL    HW225254   5.099   7.333   2.010 -1.1676  1.4049 -2.0446
 4859SOL     OW25255   9.824   2.094   0.638 -0.2573 -0.6311  0.2262
 4859SOL    HW125256   9.901   2.156   0.625 -0.5098 -0.2829  0.3969
 4859SOL    HW225257   9.830   2.051   0.728 -0.4987 -0.2803  0.4068
 4860SOL     OW25258   0.308   5.455   2.187 -0.3487 -0.3065 -0.5921
 4860SOL    HW125259   0.374   5.530   2.178 -1.2956  0.4557 -1.4066
 4860SOL    HW225260   0.340   5.376   2.135  0.1353 -0.0796 -0.6398
 4861SOL     OW25261   1.991   3.070   2.238  0.0581  0.4371 -0.1714
 4861SOL    HW125262   1.902   3.099   2.203  0.6777  1.0672 -1.2455
 4861SOL    HW225263   2.026   2.994   2.182 -0.6348 -1.0645  1.3856
 4862SOL     OW25264   0.314   0.926   4.603 -0.6020  0.0523 -0.6774
 4862SOL    HW125265   0.326   0.861   4.527  0.8660  1.5317 -1.7474
 4862SOL    HW225266   0.386   0.911   4.671 -0.9698 -0.2272 -0.3513
 4863SOL     OW25267   9.915   3.082   3.194 -0.6872  0.0997 -0.0912
 4863SOL    HW125268   9.934   3.029   3.277  0.4224  0.6501  0.0085
 4863SOL    HW225269   9.883   3.020   3.122 -2.5688 -0.2692  1.0117
 4864SOL     OW25270   2.026   4.660   3.956  0.0973  0.4485 -0.1115
 4864SOL    HW125271   1.930   4.687   3.957  0.4277  1.6707 -0.9934
 4864SOL    HW225272   2.039   4.582   4.017 -1.4649  0.2334 -0.0394
 4865SOL     OW25273   3.976   9.810   4.387  0.2886 -0.2168 -0.2210
 4865SOL    HW125274   3.907   9.839   4.321  0.8492 -0.4160 -0.8965
 4865SOL    HW225275   4.061   9.787   4.340  0.5674 -0.7640  0.5218
 4866SOL     OW25276   7.853   3.022   0.553 -0.0490  0.2017  0.2187
 4866SOL    HW125277   7.783   2.959   0.519 -0.4554 -0.3803  2.1189
 4866SOL    HW225278   7.929   2.969   0.590 -1.0518  0.7961  3.2092
 4867SOL     OW25279   9.070   6.503   3.519 -0.3531  0.3723  0.0409
 4867SOL    HW125280   9.137   6.432   3.542  0.0821  0.8717  0.3425
 4867SOL    HW225281   9.119   6.585   3.490 -0.8660  0.2234 -1.2770
 4868SOL     OW25282   9.915   8.458   1.795  0.1522 -0.4482 -0.2260
 4868SOL    HW125283   9.908   8.470   1.696  0.3401  0.0099 -0.1871
 4868SOL    HW225284   9.872   8.536   1.841  0.4341 -0.4551  0.0500
 4869SOL     OW25285   3.512   4.366   1.339 -0.4746 -0.4824  0.2440
 4869SOL    HW125286   3.437   4.427   1.365 -0.3699 -0.4771  0.5328
 4869SOL    HW225287   3.572   4.351   1.417  0.1772  0.0137 -0.1573
 4870SOL     OW25288   0.986   5.582   4.374  0.1135 -0.4618  0.8039
 4870SOL    HW125289   1.076   5.581   4.417  1.1032 -0.0981 -1.2020
 4870SOL    HW225290   0.928   5.512   4.416 -0.4468  2.7158  5.7307
 4871SOL     OW25291   3.215   2.783   3.309  0.0727  0.2280  0.2307
 4871SOL    HW125292   3.281   2.755   3.378 -0.2622 -0.5465  0.2402
 4871SOL    HW225293   3.208   2.883   3.308 -0.3915  0.2235  1.7449
 4872SOL     OW25294   8.843   8.106   3.640  0.3139  0.6391  0.1918
 4872SOL    HW125295   8.835   8.175   3.712  0.5903  1.1443 -0.2680
 4872SOL    HW225296   8.756   8.100   3.590  0.1123  0.2679  0.5792
 4873SOL     OW25297   2.734   8.594   0.391  0.1550 -0.2395 -0.4440
 4873SOL    HW125298   2.824   8.588   0.434  0.7461 -0.6562 -1.7132
 4873SOL    HW225299   2.741   8.566   0.295 -1.5786 -1.5607 -0.2070
 4874SOL     OW25300   3.592   1.086   3.328  0.2003  0.1194  0.1821
 4874SOL    HW125301   3.589   1.037   3.416 -1.1227  0.1097  0.1388
 4874SOL    HW225302   3.499   1.095   3.292  0.6676  0.7731 -0.8650
 4875SOL     OW25303   0.235   8.119   2.066  0.0125  0.2928 -0.5258
 4875SOL    HW125304   0.211   8.098   2.161  0.8003  0.5677 -0.2614
 4875SOL    HW225305   0.168   8.183   2.028 -0.3214  0.1579 -0.1678
 4876SOL     OW25306   6.089   9.613   2.357  0.6189 -0.1140 -0.6753
 4876SOL    HW125307   6.088   9.517   2.328 -0.8399 -0.2073 -0.3681
 4876SOL    HW225308   6.095   9.617   2.457  0.0298  0.0995 -0.6465
 4877SOL     OW25309   3.265   2.329   3.143 -0.1025  0.2521 -0.1643
 4877SOL    HW125310   3.271   2.415   3.092 -1.5893 -0.4396 -1.5307
 4877SOL    HW225311   3.268   2.350   3.241 -1.5337  1.9839 -0.4478
 4878SOL     OW25312   2.815   8.853   0.139  0.2467  0.2161 -0.2756
 4878SOL    HW125313   2.732   8.836   0.086 -0.2610  0.7062  0.3506
 4878SOL    HW225314   2.790   8.885   0.231  1.1154 -0.5276  0.2299
 4879SOL     OW25315   9.919   4.292   2.702 -0.2129 -0.2414 -0.1186
 4879SOL    HW125316   9.843   4.237   2.668  0.3730 -2.1951  1.6745
 4879SOL    HW225317  10.000   4.276   2.645 -0.4931  0.0415 -0.5992
 4880SOL     OW25318   1.253   6.695   0.244 -0.1210 -0.5956  0.4926
 4880SOL    HW125319   1.160   6.666   0.221  0.0667 -1.2077  0.5023
 4880SOL    HW225320   1.308   6.700   0.160 -0.2801  0.2067  0.4282
 4881SOL     OW25321   7.590   3.076   4.326 -0.0501  0.4801  0.0302
 4881SOL    HW125322   7.586   2.990   4.275  0.7718 -0.3371  1.2876
 4881SOL    HW225323   7.512   3.082   4.387 -0.3429  0.8408 -0.3799
 4882SOL     OW25324   0.607   4.166   0.735 -0.2860  0.5043  0.5477
 4882SOL    HW125325   0.557   4.126   0.812 -1.0690  0.3462 -0.0355
 4882SOL    HW225326   0.575   4.125   0.650 -0.7158  1.9724 -0.0129
 4883SOL     OW25327   2.489   8.263   4.100 -0.9660 -0.3873 -0.3441
 4883SOL    HW125328   2.582   8.227   4.111 -1.0461 -0.3973  0.2871
 4883SOL    HW225329   2.484   8.354   4.140 -1.2680 -0.4422 -0.2634
 4884SOL     OW25330   3.980   1.081   0.590  0.2102  0.0691 -0.4149
 4884SOL    HW125331   3.970   1.180   0.577  0.9490  0.1225 -0.5966
 4884SOL    HW225332   3.989   1.062   0.688  2.1154  0.3945 -0.4991
 4885SOL     OW25333   2.526   2.544   0.538  0.6107  0.4807  0.2118
 4885SOL    HW125334   2.617   2.520   0.504  0.0141  1.7597 -2.4246
 4885SOL    HW225335   2.461   2.543   0.462 -0.9176  2.8521  1.4470
 4886SOL     OW25336   1.221   5.382   1.037  0.5498 -0.1150 -0.1119
 4886SOL    HW125337   1.292   5.343   0.979 -0.1819  0.5438 -1.4754
 4886SOL    HW225338   1.249   5.376   1.133  1.2429 -2.2706 -0.4397
 4887SOL     OW25339   9.374   8.513   3.830 -0.6193 -0.1678  0.3858
 4887SOL    HW125340   9.394   8.515   3.928 -1.0827  1.0032  0.4671
 4887SOL    HW225341   9.409   8.428   3.791 -0.6928 -0.7826  1.6199
 4888SOL     OW25342   5.744   7.683   1.888  0.1172 -0.7597  0.3768
 4888SOL    HW125343   5.702   7.623   1.819 -0.6549 -0.2473  0.3990
 4888SOL    HW225344   5.675   7.709   1.956 -0.0709  1.7983 -0.7628
 4889SOL     OW25345   4.439   5.697   1.286  0.4166  0.4565 -0.0147
 4889SOL    HW125346   4.461   5.692   1.189 -1.1337  0.7170 -0.3965
 4889SOL    HW225347   4.435   5.793   1.314 -1.1025  0.4495 -0.1744
 4890SOL     OW25348   9.360   0.454   4.541  0.6142  0.2028  0.8311
 4890SOL    HW125349   9.375   0.362   4.504 -0.5781  0.1382  0.4951
 4890SOL    HW225350   9.345   0.448   4.640 -0.3516 -0.0651  0.6729
 4891SOL     OW25351   9.489   7.569   4.612  0.1523  0.4410 -0.2824
 4891SOL    HW125352   9.476   7.496   4.546 -0.2050 -0.1100  0.3899
 4891SOL    HW225353   9.566   7.627   4.584  0.8699 -0.5968 -0.4478
 4892SOL     OW25354   6.037   0.558   1.810 -0.3858 -0.6571  0.2956
 4892SOL    HW125355   5.971   0.634   1.812 -0.4559 -0.6980 -0.2419
 4892SOL    HW225356   6.031   0.507   1.895 -0.5178 -0.2073  0.5592
 4893SOL     OW25357   9.969   4.407   2.030  0.0761 -0.8316 -0.2488
 4893SOL    HW125358   9.944   4.442   2.120  2.1728  0.0969  0.0110
 4893SOL    HW225359  10.047   4.458   1.995 -0.0867 -1.8503 -2.1609
 4894SOL     OW25360   8.646   3.864   1.348  0.5120  0.2895  0.4714
 4894SOL    HW125361   8.706   3.784   1.354 -1.1073 -1.0519 -0.9133
 4894SOL    HW225362   8.552   3.837   1.365 -0.3523  1.4854 -2.1717
 4895SOL     OW25363   0.814   8.815   3.292  0.2315 -0.3983 -0.0548
 4895SOL    HW125364   0.731   8.859   3.259  0.3306 -0.7763 -0.8159
 4895SOL    HW225365   0.894   8.862   3.255  0.3389 -1.1480 -0.7905
 4896SOL     OW25366   4.663   2.541   1.467 -0.6029 -0.2665 -0.8079
 4896SOL    HW125367   4.643   2.443   1.456 -2.0902  0.1647 -2.0361
 4896SOL    HW225368   4.703   2.576   1.383 -2.2436  0.6924 -1.2112
 4897SOL     OW25369   4.620   9.320   0.690  0.3084  0.1685 -0.3112
 4897SOL    HW125370   4.709   9.365   0.693  1.1915 -1.4382 -1.6614
 4897SOL    HW225371   4.632   9.221   0.677 -1.6382 -0.2576  0.8255
 4898SOL     OW25372   3.207   7.486   2.708 -0.3127 -0.5110 -0.6220
 4898SOL    HW125373   3.135   7.417   2.705 -3.1133  2.2172  1.1244
 4898SOL    HW225374   3.257   7.478   2.795 -0.0954 -0.8373 -0.7748
 4899SOL     OW25375   3.596   9.869   1.122 -0.4979  0.1518 -0.2240
 4899SOL    HW125376   3.625   9.843   1.029 -0.4272 -0.9394  0.0901
 4899SOL    HW225377   3.546   9.793   1.163 -2.0938  1.3077 -0.0249
 4900SOL     OW25378   0.750   5.471   3.623 -0.3811 -0.2173  0.1947
 4900SOL    HW125379   0.684   5.527   3.672 -1.5433 -0.8676 -0.5945
 4900SOL    HW225380   0.746   5.377   3.657  0.4641 -0.1679  0.4528
 4901SOL     OW25381   8.688   1.518   0.700 -0.2322 -0.3524  0.5527
 4901SOL    HW125382   8.606   1.494   0.753 -1.3245 -1.2913 -1.5164
 4901SOL    HW225383   8.748   1.573   0.757 -1.0951 -1.8017  2.9872
 4902SOL     OW25384   3.242   0.153   4.105  0.7060 -0.6212  0.0236
 4902SOL    HW125385   3.339   0.177   4.094  0.0990  0.8668 -2.3717
 4902SOL    HW225386   3.189   0.237   4.116 -0.4973 -1.3462 -0.2100
 4903SOL     OW25387   9.505   5.784   0.069 -0.6213  0.4762 -0.5816
 4903SOL    HW125388   9.413   5.823   0.063 -0.0648  1.8582 -0.3086
 4903SOL    HW225389   9.523   5.755   0.163 -1.3493 -1.2724 -0.9525
 4904SOL     OW25390   5.199   6.704   2.024  0.1163  0.1952 -0.4486
 4904SOL    HW125391   5.150   6.735   2.106 -0.7415 -0.7805 -0.5726
 4904SOL    HW225392   5.257   6.626   2.048  0.8552  0.7337 -0.5031
 4905SOL     OW25393   0.489   1.077   4.460 -0.3090 -0.1399 -0.3343
 4905SOL    HW125394   0.414   1.048   4.519 -0.4315  2.5431  0.8871
 4905SOL    HW225395   0.459   1.072   4.364 -1.6617 -0.1125  0.0752
 4906SOL     OW25396   4.674   7.338   2.819  0.2211 -0.4807 -0.5367
 4906SOL    HW125397   4.585   7.382   2.806 -0.2033 -1.2476 -0.3373
 4906SOL    HW225398   4.693   7.331   2.917 -0.0193 -1.3163 -0.5458
 4907SOL     OW25399   3.354   3.171   0.497 -1.0278  0.0400  0.2233
 4907SOL    HW125400   3.421   3.230   0.451 -0.3948  0.6491  1.8619
 4907SOL    HW225401   3.266   3.176   0.450 -0.2363  0.1658 -1.2549
 4908SOL     OW25402   4.066   7.695   3.988  0.0319  0.2511  0.2230
 4908SOL    HW125403   4.047   7.669   4.083  0.5528  1.1125  0.5696
 4908SOL    HW225404   4.044   7.791   3.975 -1.1185 -0.1455 -0.8402
 4909SOL     OW25405   3.350   0.961   0.659 -0.4090  0.0811  0.7641
 4909SOL    HW125406   3.388   0.913   0.581 -1.2256 -0.0062  0.4142
 4909SOL    HW225407   3.316   0.894   0.726 -0.9810  0.1712  0.5603
 4910SOL     OW25408   8.830   6.521   0.386 -0.1286  0.0808  0.3887
 4910SOL    HW125409   8.796   6.598   0.440  0.0601  0.3484  0.1240
 4910SOL    HW225410   8.925   6.537   0.361 -0.4780  0.3936 -0.8058
 4911SOL     OW25411   7.930   0.839   1.103  0.5284  0.5570 -0.3828
 4911SOL    HW125412   7.878   0.814   1.186  1.7636  0.4263  0.3627
 4911SOL    HW225413   7.924   0.937   1.089  1.5100  0.7745  0.6833
 4912SOL     OW25414   2.399   3.715   2.642  0.1690 -0.2020 -0.1528
 4912SOL    HW125415   2.432   3.717   2.737 -0.4654  1.9123  0.0539
 4912SOL    HW225416   2.316   3.659   2.637 -0.5979  0.8327  0.8190
 4913SOL     OW25417   5.838   0.179   4.055 -0.0792  0.4273  0.0711
 4913SOL    HW125418   5.792   0.255   4.100 -1.4043 -0.4262  0.2011
 4913SOL    HW225419   5.839   0.193   3.956  2.1218  1.9157  0.2603
 4914SOL     OW25420   8.729   2.380   2.410 -0.2939 -0.6740  0.1719
 4914SOL    HW125421   8.734   2.441   2.331  0.5643  1.9453  2.1263
 4914SOL    HW225422   8.822   2.355   2.438 -0.5534 -0.9533  0.7969
 4915SOL     OW25423   2.047   3.464   2.866 -0.4561 -0.1886  0.1558
 4915SOL    HW125424   1.961   3.436   2.821 -0.1423  0.4662 -0.8675
 4915SOL    HW225425   2.034   3.553   2.909  0.2174  0.7723 -1.5640
 4916SOL     OW25426   6.805   7.562   3.044  0.0460 -0.1000 -0.5688
 4916SOL    HW125427   6.775   7.653   3.015 -1.4656 -0.1286  0.8141
 4916SOL    HW225428   6.743   7.493   3.005 -0.2084 -0.3565  0.2878
 4917SOL     OW25429   8.143   1.873   0.817  0.5720 -0.1524 -0.3288
 4917SOL    HW125430   8.147   1.792   0.875 -0.3923 -0.4607 -0.6829
 4917SOL    HW225431   8.082   1.856   0.740 -1.5160  1.7270  0.8611
 4918SOL     OW25432   8.174   0.645   3.770 -0.3668 -0.2331  0.7045
 4918SOL    HW125433   8.155   0.690   3.858 -1.4270 -0.0783  0.3995
 4918SOL    HW225434   8.188   0.714   3.700 -1.4111 -0.3650  0.3587
 4919SOL     OW25435   8.492   4.219   0.077  0.8158  0.0668  0.6725
 4919SOL    HW125436   8.450   4.297   0.030 -1.5347 -0.7160  1.3796
 4919SOL    HW225437   8.551   4.169   0.014  0.6393  1.1647 -0.3793
 4920SOL     OW25438   1.387   9.401   4.222 -0.6488 -0.2371 -0.1233
 4920SOL    HW125439   1.468   9.453   4.249  0.2306 -1.3821 -0.5205
 4920SOL    HW225440   1.381   9.398   4.122 -2.3832  1.6581 -0.1195
 4921SOL     OW25441   0.946   1.733   4.690 -0.0580 -0.1888  0.4376
 4921SOL    HW125442   0.951   1.832   4.682 -0.3792 -0.2675 -0.7334
 4921SOL    HW225443   0.854   1.708   4.722 -0.1455 -0.1368  0.2304
 4922SOL     OW25444   9.006   7.799   0.146 -0.5538  0.0590  0.5127
 4922SOL    HW125445   9.046   7.890   0.158  1.7676 -0.8592  0.0797
 4922SOL    HW225446   9.007   7.774   0.049  1.7345 -1.6488  0.9289
 4923SOL     OW25447   5.032   0.321   1.003  0.3479 -0.3554 -0.1865
 4923SOL    HW125448   4.962   0.278   0.946 -0.7076 -0.9020  1.4745
 4923SOL    HW225449   5.039   0.271   1.089  2.6243 -0.1571 -0.2348
 4924SOL     OW25450   1.502   0.998   1.896  0.1339  0.4087  0.3553
 4924SOL    HW125451   1.432   0.944   1.943  0.4263 -2.2253 -2.1167
 4924SOL    HW225452   1.466   1.090   1.878 -2.3501 -0.5959 -0.0305
 4925SOL     OW25453   5.455   3.375   4.658 -0.2707  0.3483  0.1246
 4925SOL    HW125454   5.393   3.341   4.588  1.2232  0.9457 -1.5286
 4925SOL    HW225455   5.540   3.323   4.656  0.1751  1.0312  0.8358
 4926SOL     OW25456   9.519   0.012   2.622  0.6138 -0.4065 -0.0254
 4926SOL    HW125457   9.476  -0.008   2.710  0.8845  0.3383  0.2753
 4926SOL    HW225458   9.474  -0.042   2.550 -1.0146  0.5564  0.2531
 4927SOL     OW25459   4.037   4.367   1.430 -0.1161 -0.2241 -0.4238
 4927SOL    HW125460   4.059   4.270   1.441 -1.7574 -0.5921 -0.1563
 4927SOL    HW225461   4.036   4.390   1.333  1.2862 -0.2200 -0.4428
 4928SOL     OW25462   2.738   7.099   3.772  0.4931  0.2933  0.0967
 4928SOL    HW125463   2.667   7.029   3.783  2.6931 -2.4080 -2.0705
 4928SOL    HW225464   2.705   7.169   3.708 -0.0616 -1.2453 -1.3622
 4929SOL     OW25465   4.292   6.368   1.375 -0.5330  0.9180 -0.0134
 4929SOL    HW125466   4.284   6.353   1.474 -0.3291 -0.1727 -0.1634
 4929SOL    HW225467   4.302   6.466   1.358  0.7762  1.0129  1.1450
 4930SOL     OW25468   1.916   4.987   4.164 -0.0179  0.3164 -0.3576
 4930SOL    HW125469   1.855   5.023   4.093 -1.5839 -0.8417  0.3818
 4930SOL    HW225470   2.001   4.954   4.122 -0.3325  0.9518 -1.5071
 4931SOL     OW25471   8.418   1.631   3.296 -0.1339 -0.1749  0.2917
 4931SOL    HW125472   8.378   1.607   3.207 -0.7437 -0.9480  0.7675
 4931SOL    HW225473   8.402   1.556   3.361 -1.9502  1.4585  1.7753
 4932SOL     OW25474   5.987   6.703   2.814  0.2409  0.5780  0.4331
 4932SOL    HW125475   5.991   6.786   2.869  0.3392  0.5266  0.5045
 4932SOL    HW225476   5.902   6.701   2.762  1.2886  1.8956 -1.4094
 4933SOL     OW25477   9.169   3.309   1.131 -0.6077 -0.3548 -0.1316
 4933SOL    HW125478   9.237   3.253   1.084 -0.3465 -0.2151  0.0769
 4933SOL    HW225479   9.210   3.348   1.214 -0.2235  1.6543 -1.2397
 4934SOL     OW25480   9.527   6.175   4.420 -0.0218  0.1006 -0.5439
 4934SOL    HW125481   9.557   6.084   4.391 -0.8898  0.2577 -2.0047
 4934SOL    HW225482   9.447   6.203   4.366 -0.2032  1.4309  0.3806
 4935SOL     OW25483   9.075   6.844   1.448 -0.2187 -0.1467 -0.3867
 4935SOL    HW125484   9.118   6.886   1.367 -0.9038  0.7881 -0.2697
 4935SOL    HW225485   9.095   6.746   1.448  1.2168  0.1236 -0.7859
 4936SOL     OW25486   2.376   4.427   0.969 -0.7012  0.3720 -0.5044
 4936SOL    HW125487   2.325   4.494   0.915 -1.3934  0.2610 -0.0054
 4936SOL    HW225488   2.318   4.347   0.986 -0.1454 -0.0182 -0.4481
 4937SOL     OW25489   9.447   2.871   1.260  0.5368 -0.5769  0.5809
 4937SOL    HW125490   9.454   2.832   1.352 -0.8759  0.6541  1.2184
 4937SOL    HW225491   9.380   2.818   1.207  0.0048 -0.1785  0.8488
 4938SOL     OW25492   8.788   8.899   3.471 -0.7159  0.3142  0.1433
 4938SOL    HW125493   8.805   8.844   3.389 -1.8541  1.1840 -0.7041
 4938SOL    HW225494   8.711   8.859   3.522  1.0854 -1.2089  1.7197
 4939SOL     OW25495   1.427   2.373   2.479  0.4342  0.1137  0.0134
 4939SOL    HW125496   1.376   2.364   2.394  2.2254 -1.0129 -0.9880
 4939SOL    HW225497   1.367   2.356   2.557 -0.8329 -0.6049 -1.1047
 4940SOL     OW25498   9.837   5.036   2.685  0.2372 -0.6312 -0.8082
 4940SOL    HW125499   9.914   5.084   2.727  0.0267  0.1918 -1.3654
 4940SOL    HW225500   9.813   4.957   2.741 -1.2781  1.5344  1.6355
 4941SOL     OW25501   6.733   7.442   2.660  0.1931 -0.0947 -0.3555
 4941SOL    HW125502   6.690   7.385   2.591 -1.1135  1.9798 -1.2951
 4941SOL    HW225503   6.698   7.417   2.750  0.7647 -1.7703 -0.5772
 4942SOL     OW25504   2.544   4.462   0.133 -0.4857 -0.3959 -0.1002
 4942SOL    HW125505   2.519   4.463   0.036 -2.2197  0.4825  0.3296
 4942SOL    HW225506   2.639   4.491   0.143 -0.1771 -0.8345 -1.5559
 4943SOL     OW25507   9.453   3.700   3.029 -0.1064 -0.7508 -0.1759
 4943SOL    HW125508   9.406   3.690   3.117  0.3144  1.6460  0.3870
 4943SOL    HW225509   9.549   3.673   3.039 -0.3248 -1.5133 -0.1749
 4944SOL     OW25510   4.055   3.000   1.472 -0.5461  0.2346 -0.3866
 4944SOL    HW125511   4.080   2.998   1.569 -0.3792 -0.4079 -0.4368
 4944SOL    HW225512   4.088   3.085   1.430  0.4697 -0.0389 -0.1597
 4945SOL     OW25513   9.415   7.743   1.726 -0.1310  0.2018  0.4838
 4945SOL    HW125514   9.514   7.757   1.738  0.0133  0.4731 -0.9823
 4945SOL    HW225515   9.366   7.817   1.772  0.3874  0.8221  0.0496
 4946SOL     OW25516   0.092   3.339   2.896 -0.6717  0.4839  0.3745
 4946SOL    HW125517   0.083   3.329   2.995  0.2689 -0.5074  0.3673
 4946SOL    HW225518   0.030   3.275   2.851  0.1291 -0.2535  0.3225
 4947SOL     OW25519   1.733   2.191   4.167 -0.0221 -0.1560 -0.4094
 4947SOL    HW125520   1.799   2.261   4.195 -0.8202  0.2354  0.4943
 4947SOL    HW225521   1.751   2.107   4.216  1.6894 -0.9898 -2.3503
 4948SOL     OW25522   4.521   3.637   2.461 -0.2596 -0.2788 -0.4535
 4948SOL    HW125523   4.566   3.602   2.379  1.2235 -0.5775  0.4810
 4948SOL    HW225524   4.452   3.704   2.434  0.7229  0.1790 -1.8956
 4949SOL     OW25525   4.537   7.874   3.586  0.3273  0.2362  0.1205
 4949SOL    HW125526   4.521   7.940   3.659 -1.0050  0.3660 -0.2642
 4949SOL    HW225527   4.591   7.916   3.513  0.5696  0.4964  0.4502
 4950SOL     OW25528   9.378   5.290   3.490  0.2325 -0.1457  0.2817
 4950SOL    HW125529   9.476   5.275   3.483  0.5176  1.8468 -0.1438
 4950SOL    HW225530   9.351   5.291   3.586  0.7227 -0.1016  0.4206
 4951SOL     OW25531   3.026   4.905   3.940 -0.7751 -0.0591  0.2611
 4951SOL    HW125532   2.990   4.997   3.926 -0.6984 -0.0309  0.2474
 4951SOL    HW225533   3.005   4.874   4.033 -2.1045 -0.6126 -0.2134
 4952SOL     OW25534   1.357   1.188   4.488 -0.3891  0.3707 -0.1767
 4952SOL    HW125535   1.305   1.272   4.502 -0.5485  0.0117  1.4477
 4952SOL    HW225536   1.417   1.172   4.566 -0.6171 -1.2088 -0.3089
 4953SOL     OW25537   9.818   8.249   2.489 -0.1003  1.2845 -0.2351
 4953SOL    HW125538   9.874   8.292   2.417  0.8634 -0.4239 -0.5435
 4953SOL    HW225539   9.796   8.316   2.559  2.2979  2.0553 -0.1578
 4954SOL     OW25540   2.848   9.918   0.282 -0.0188  0.4775  0.3600
 4954SOL    HW125541   2.786   9.890   0.210 -0.1875  0.6572  0.4358
 4954SOL    HW225542   2.924   9.971   0.243 -0.8677  1.8069  0.4886
 4955SOL     OW25543   4.081   7.771   0.553 -0.5461 -0.3692  0.1156
 4955SOL    HW125544   4.015   7.732   0.617  1.1193 -1.4948  1.1881
 4955SOL    HW225545   4.100   7.866   0.578 -3.0898  0.5690 -1.2986
 4956SOL     OW25546   9.002   2.836   4.578 -0.8329 -0.0185 -0.2521
 4956SOL    HW125547   8.959   2.925   4.560  2.9438  1.5891 -1.8363
 4956SOL    HW225548   9.024   2.829   4.675  0.8344  1.7755 -0.4740
 4957SOL     OW25549   8.315   4.923   2.167  0.2038  0.2594 -0.0918
 4957SOL    HW125550   8.285   4.862   2.093  0.4579 -1.7389  1.4067
 4957SOL    HW225551   8.235   4.963   2.211 -0.0451 -0.3311  0.0035
 4958SOL     OW25552   0.762   2.215   1.254 -0.3677  0.1034  0.4811
 4958SOL    HW125553   0.793   2.123   1.231  2.0345  0.7837  0.9214
 4958SOL    HW225554   0.756   2.269   1.170 -0.1548  0.0411  0.4255
 4959SOL     OW25555   3.696   7.533   4.230  0.2625 -0.9147 -0.2231
 4959SOL    HW125556   3.791   7.516   4.255  1.1264 -0.4918 -3.0560
 4959SOL    HW225557   3.664   7.618   4.274  1.8150 -0.0075 -0.8373
 4960SOL     OW25558   4.037   1.501   4.571  0.3544  0.8044  0.1905
 4960SOL    HW125559   4.097   1.425   4.548  0.5483  0.8431  0.5576
 4960SOL    HW225560   4.054   1.529   4.666  0.5425  1.5399 -0.0571
 4961SOL     OW25561   0.858   7.438   1.478 -0.5013  0.8002  0.3837
 4961SOL    HW125562   0.807   7.396   1.552 -2.9949  0.9258 -1.2012
 4961SOL    HW225563   0.839   7.536   1.474 -0.2861  0.8229 -0.3308
 4962SOL     OW25564   2.941   8.157   0.742  0.2808  0.0842 -0.3288
 4962SOL    HW125565   3.040   8.157   0.736  0.3772  1.0910  0.9796
 4962SOL    HW225566   2.914   8.134   0.836 -0.7538 -1.8790 -1.0868
 4963SOL     OW25567   5.133   9.741   2.783 -0.9826  0.1990  0.1105
 4963SOL    HW125568   5.183   9.827   2.772 -1.3361  0.3160 -0.6414
 4963SOL    HW225569   5.053   9.755   2.841 -0.0219 -0.0406  1.5131
 4964SOL     OW25570   3.822   8.391   2.354  0.5588 -0.0848  0.4672
 4964SOL    HW125571   3.769   8.473   2.333  0.7397  0.2831  1.3853
 4964SOL    HW225572   3.919   8.416   2.365  0.4613 -0.2247  1.7884
 4965SOL     OW25573   2.839   9.867   3.815 -0.2136  0.2964  0.0422
 4965SOL    HW125574   2.920   9.815   3.840  0.7120  1.1280 -1.1830
 4965SOL    HW225575   2.809   9.841   3.723 -0.8379  0.6024  0.1534
 4966SOL     OW25576   9.777   0.272   2.706 -0.0730 -0.1480  0.6417
 4966SOL    HW125577   9.698   0.215   2.681 -0.1386  0.0184  0.4682
 4966SOL    HW225578   9.819   0.309   2.623  0.8494 -1.1264  0.6580
 4967SOL     OW25579   9.405   6.511   1.556 -0.1368 -0.2442  0.2205
 4967SOL    HW125580   9.372   6.596   1.599  0.3361  0.0756 -0.0426
 4967SOL    HW225581   9.340   6.484   1.485 -1.1829 -1.0470  1.4525
 4968SOL     OW25582   4.273   4.447   0.903 -0.2485 -0.5609  0.4643
 4968SOL    HW125583   4.315   4.357   0.906  1.5062  0.2406  0.6010
 4968SOL    HW225584   4.333   4.510   0.854 -2.8198 -0.1518 -2.2962
 4969SOL     OW25585   3.803   3.806   0.976  0.3559  0.5832 -0.0086
 4969SOL    HW125586   3.710   3.806   0.940  0.1486 -1.3538  0.4857
 4969SOL    HW225587   3.862   3.750   0.918  0.6347 -0.2739  1.0706
 4970SOL     OW25588   9.114   4.213   3.580  0.0301 -0.3807 -0.5169
 4970SOL    HW125589   9.128   4.151   3.502  2.5827  0.1224 -0.5134
 4970SOL    HW225590   9.101   4.306   3.547  3.2340  0.1945 -0.3642
 4971SOL     OW25591   4.297   8.025   2.249  0.2172  0.1864 -0.2693
 4971SOL    HW125592   4.285   8.034   2.348  0.0058 -0.3414 -0.2418
 4971SOL    HW225593   4.260   7.937   2.219 -0.2517  0.5919 -0.9067
 4972SOL     OW25594   0.858   5.263   0.056  0.3290  0.2466  0.2075
 4972SOL    HW125595   0.829   5.357   0.041 -1.9366 -0.4091  0.2043
 4972SOL    HW225596   0.943   5.262   0.109  1.2876  2.2963 -1.2003
 4973SOL     OW25597   9.091   5.673   0.491  0.0951  0.2687 -0.6390
 4973SOL    HW125598   9.135   5.735   0.555  0.4076 -1.4836  0.8781
 4973SOL    HW225599   9.158   5.636   0.428  0.1756  0.2753 -0.5557
 4974SOL     OW25600   1.176   1.966   3.041  0.2135 -0.1495 -0.4592
 4974SOL    HW125601   1.093   1.926   3.079 -0.0061  0.1447 -0.6312
 4974SOL    HW225602   1.226   1.896   2.989 -0.6391  0.0426 -1.5361
 4975SOL     OW25603   9.852   4.979   4.054 -0.1027  0.2173  0.3261
 4975SOL    HW125604   9.843   5.078   4.055 -0.5624  0.1833  1.4320
 4975SOL    HW225605   9.826   4.943   3.964 -0.5336  1.0521  0.1166
 4976SOL     OW25606   2.741   5.959   3.964 -0.0862 -0.2295 -0.4912
 4976SOL    HW125607   2.757   6.014   3.882 -0.4124  0.1662 -0.2901
 4976SOL    HW225608   2.669   6.001   4.019 -0.7060 -1.1441 -0.5955
 4977SOL     OW25609   3.107   6.501   0.265 -0.2902  0.4481  0.8907
 4977SOL    HW125610   3.100   6.489   0.166  0.5978 -1.9664  1.0925
 4977SOL    HW225611   3.037   6.566   0.296  0.1120  2.0212 -1.4354
 4978SOL     OW25612   2.186   4.806   2.115  0.2710  0.2859  0.0532
 4978SOL    HW125613   2.136   4.746   2.052  0.9406 -0.2205 -0.0015
 4978SOL    HW225614   2.239   4.751   2.179 -1.3144  0.7699  1.8401
 4979SOL     OW25615   2.760   2.189   2.472  0.2314  0.7077 -0.1882
 4979SOL    HW125616   2.791   2.285   2.475  2.0588  0.1235  0.3250
 4979SOL    HW225617   2.805   2.138   2.545 -2.2608 -0.1348  0.8294
 4980SOL     OW25618   8.766   6.089   2.240 -0.6664 -0.0271 -0.4103
 4980SOL    HW125619   8.785   6.179   2.200  0.8471 -1.0391 -2.0374
 4980SOL    HW225620   8.849   6.033   2.238 -0.9980 -0.6871  2.6970
 4981SOL     OW25621   3.070   4.251   0.354 -0.4747  0.2742  0.0844
 4981SOL    HW125622   3.011   4.176   0.385 -0.7685  0.1693 -0.7053
 4981SOL    HW225623   3.070   4.323   0.422 -0.3308 -0.3711  0.7757
 4982SOL     OW25624   9.419   0.864   1.142  0.1436  0.0227  0.4853
 4982SOL    HW125625   9.336   0.906   1.178  0.5873  1.1660  0.2185
 4982SOL    HW225626   9.491   0.934   1.134  0.2999 -0.3521 -1.8068
 4983SOL     OW25627   9.641   2.541   2.818  0.4916 -0.1510 -0.1967
 4983SOL    HW125628   9.646   2.640   2.799 -0.9328 -0.0371 -0.0103
 4983SOL    HW225629   9.609   2.493   2.736 -0.1203 -0.3027  0.1279
 4984SOL     OW25630   9.735   5.218   2.911 -0.0705  0.3314  0.3968
 4984SOL    HW125631   9.726   5.317   2.926 -1.4210  0.0637  1.4074
 4984SOL    HW225632   9.801   5.180   2.976 -0.4923  0.3630  0.8442
 4985SOL     OW25633   0.505   9.156   1.030  0.1114 -0.0782  0.0890
 4985SOL    HW125634   0.515   9.157   1.130 -0.7097 -1.5804  0.1983
 4985SOL    HW225635   0.415   9.191   1.005 -0.4045 -1.4412 -0.0085
 4986SOL     OW25636   0.105   0.619   1.616 -0.9769  0.3323  0.2886
 4986SOL    HW125637   0.079   0.533   1.573  0.7372 -0.3826  0.6493
 4986SOL    HW225638   0.167   0.601   1.692  0.0602  1.9402 -0.1519
 4987SOL     OW25639   1.274   5.090   4.370  0.0732 -0.5984  0.1853
 4987SOL    HW125640   1.320   5.024   4.430  0.6243 -0.3616  0.0266
 4987SOL    HW225641   1.336   5.166   4.352  0.2795 -1.1523 -1.4979
 4988SOL     OW25642   1.056   9.544   0.237 -0.0202  0.0471  0.1807
 4988SOL    HW125643   0.998   9.619   0.206  0.8075  0.7435  0.2777
 4988SOL    HW225644   1.071   9.480   0.162 -0.4780  0.1385  0.0089
 4989SOL     OW25645   9.273   6.344   3.498 -0.6073  0.3091  0.3288
 4989SOL    HW125646   9.315   6.302   3.417 -0.5523 -0.5393  0.7883
 4989SOL    HW225647   9.337   6.339   3.574 -0.4523  1.5936  0.2919
 4990SOL     OW25648   8.174   7.984   4.417 -0.0137  0.1607 -0.3339
 4990SOL    HW125649   8.134   7.963   4.327  0.4377 -2.1927 -0.0131
 4990SOL    HW225650   8.119   8.054   4.462 -0.5627  0.9716 -2.2179
 4991SOL     OW25651   4.549   3.036   3.125 -0.2451 -0.0886 -0.2041
 4991SOL    HW125652   4.534   2.984   3.209  0.9872  1.2606  0.9009
 4991SOL    HW225653   4.490   3.117   3.125 -0.2594 -0.0990 -0.6549
 4992SOL     OW25654   9.253   5.404   3.252  0.2985 -0.5083  0.5758
 4992SOL    HW125655   9.324   5.470   3.230  0.0481 -0.4747 -0.1491
 4992SOL    HW225656   9.263   5.374   3.347  0.0556  1.0237  1.0980
 4993SOL     OW25657   0.700   7.879   3.547  0.2835  0.1689 -0.1222
 4993SOL    HW125658   0.800   7.872   3.547  0.4715  2.1797  0.9657
 4993SOL    HW225659   0.666   7.860   3.639 -0.0821  2.0176  0.1523
 4994SOL     OW25660   1.249   8.207   0.007  0.5618 -0.6716 -0.1065
 4994SOL    HW125661   1.285   8.116   0.024  0.1198 -0.5336  1.6617
 4994SOL    HW225662   1.325   8.271  -0.007  0.8603 -1.3787 -1.8356
 4995SOL     OW25663   3.007   8.564   0.479  0.0138  0.9451 -0.1715
 4995SOL    HW125664   3.058   8.575   0.565  1.9380 -1.3951 -0.9477
 4995SOL    HW225665   3.057   8.501   0.420 -3.0504 -0.1638 -1.6365
 4996SOL     OW25666   5.306   0.880   2.553  0.4543 -0.0172 -0.0213
 4996SOL    HW125667   5.384   0.842   2.502  0.2803  0.0322 -0.3255
 4996SOL    HW225668   5.327   0.974   2.580  1.1929 -0.5615  1.3831
 4997SOL     OW25669   4.406   7.743   1.539 -0.2106 -0.2405 -0.0062
 4997SOL    HW125670   4.474   7.734   1.466  0.0725 -1.4574  0.3982
 4997SOL    HW225671   4.441   7.702   1.623  0.2404  2.8155  1.3695
 4998SOL     OW25672   1.842   7.002   2.499  0.0920  0.5818 -0.4603
 4998SOL    HW125673   1.818   7.087   2.546  2.3243  1.9330 -1.6757
 4998SOL    HW225674   1.776   6.931   2.522 -1.6806  2.5858  0.7625
 4999SOL     OW25675   1.601   3.250   0.167 -0.0663  0.3181 -0.4133
 4999SOL    HW125676   1.554   3.328   0.127 -1.2215  0.2593  0.8171
 4999SOL    HW225677   1.699   3.256   0.146 -0.6019  0.3651 -3.0916
 5000SOL     OW25678   0.108   8.694   0.965 -0.0153  0.2502 -0.0553
 5000SOL    HW125679   0.130   8.789   0.988  1.0581 -0.2826  1.1968
 5000SOL    HW225680   0.047   8.692   0.886  0.7482  1.9465 -0.7110
 5001SOL     OW25681   8.946   0.742   0.543 -0.0198  0.3496 -0.5284
 5001SOL    HW125682   8.878   0.802   0.585  0.5195 -0.9860  2.3884
 5001SOL    HW225683   8.900   0.665   0.499 -0.5112  0.7156 -0.6561
 5002SOL     OW25684   9.617   5.706   3.936 -0.7074  0.2170  0.3242
 5002SOL    HW125685   9.601   5.608   3.946  1.6477 -0.3179 -0.8375
 5002SOL    HW225686   9.549   5.744   3.874 -0.8996 -0.9317 -0.1893
 5003SOL     OW25687   0.974   7.825   3.467 -0.8947 -0.2151 -0.3977
 5003SOL    HW125688   1.068   7.794   3.484 -1.2977 -1.1619  0.1611
 5003SOL    HW225689   0.973   7.890   3.391  0.0574 -1.1256 -1.1988
 5004SOL     OW25690   9.515   3.227   1.949  0.2343 -0.1852 -0.4058
 5004SOL    HW125691   9.542   3.320   1.975 -0.7891 -0.0895  0.3782
 5004SOL    HW225692   9.496   3.224   1.851 -1.2071  0.8240 -0.1815
 5005SOL     OW25693   3.442   6.800   2.644 -0.1729 -0.3779 -0.1291
 5005SOL    HW125694   3.531   6.802   2.690  0.1150  3.9175 -0.7165
 5005SOL    HW225695   3.455   6.771   2.549 -0.1216 -4.2870  0.9614
 5006SOL     OW25696   8.140   7.248   4.052 -0.3503  0.2046 -0.0288
 5006SOL    HW125697   8.120   7.157   4.016 -1.5561  0.2977  0.3674
 5006SOL    HW225698   8.210   7.242   4.122  0.4414 -0.2591 -0.8565
 5007SOL     OW25699   1.266   2.666   1.126 -0.7373  0.2005 -0.4264
 5007SOL    HW125700   1.343   2.605   1.146  1.1447  2.4640 -0.5629
 5007SOL    HW225701   1.240   2.656   1.030 -1.3591 -1.3435 -0.1235
 5008SOL     OW25702   3.019   1.807   0.016  0.3394 -0.2288 -0.1551
 5008SOL    HW125703   3.035   1.904   0.032  0.7054 -0.4110  0.6237
 5008SOL    HW225704   3.102   1.765  -0.021  0.3237 -0.3283 -0.0807
 5009SOL     OW25705   3.215   4.953   3.373 -0.5996  0.5050  0.0926
 5009SOL    HW125706   3.287   4.898   3.417 -1.0079 -1.6138 -1.8249
 5009SOL    HW225707   3.242   5.050   3.376  0.0153  0.3254  3.7399
 5010SOL     OW25708   8.782   6.363   4.103  0.1893  0.4040  0.0966
 5010SOL    HW125709   8.866   6.381   4.154 -1.0235 -1.6183  2.9143
 5010SOL    HW225710   8.707   6.416   4.142 -0.1205  1.3435 -1.7058
 5011SOL     OW25711   1.116   0.842   1.740  0.1411  0.1631  0.0485
 5011SOL    HW125712   1.082   0.754   1.771  0.1868  0.5753  1.3285
 5011SOL    HW225713   1.064   0.915   1.785  1.9294  0.7855  1.1800
 5012SOL     OW25714   2.161   1.654   1.315  0.0495  0.1926 -0.0118
 5012SOL    HW125715   2.224   1.580   1.339  0.2086 -0.4853 -2.4038
 5012SOL    HW225716   2.136   1.646   1.219 -0.4559  2.9021 -0.1207
 5013SOL     OW25717   8.158   9.391   1.621  1.2233  0.0429  0.2748
 5013SOL    HW125718   8.066   9.414   1.652  1.3264  1.4302 -0.3985
 5013SOL    HW225719   8.184   9.302   1.658 -0.7832 -0.8476 -0.3452
 5014SOL     OW25720   4.469   0.725   2.142 -0.2641  0.5375 -0.2176
 5014SOL    HW125721   4.389   0.709   2.200  0.1749  0.8789  0.4811
 5014SOL    HW225722   4.452   0.806   2.084 -0.0013  1.2544  0.6976
 5015SOL     OW25723   0.812   7.317   3.715 -0.3487 -0.4193  0.0920
 5015SOL    HW125724   0.833   7.411   3.687 -0.6405  0.3080  2.2778
 5015SOL    HW225725   0.716   7.297   3.698  0.0738 -0.8949 -1.8988
 5016SOL     OW25726   0.191   8.462   2.829 -0.2234 -0.0458 -0.1927
 5016SOL    HW125727   0.136   8.500   2.755 -1.1506  1.1106  1.0506
 5016SOL    HW225728   0.170   8.364   2.839 -1.7793  0.2864 -0.0081
 5017SOL     OW25729   7.322   0.047   3.994  0.4640 -0.1275  0.1642
 5017SOL    HW125730   7.311   0.124   4.057 -0.1886 -1.2807  1.4523
 5017SOL    HW225731   7.344   0.083   3.903  1.3807  1.5486  1.0066
 5018SOL     OW25732   6.209   0.099   3.079  0.6111  0.3434 -0.4242
 5018SOL    HW125733   6.154   0.073   3.000  0.3671  2.8295 -1.1088
 5018SOL    HW225734   6.306   0.098   3.054  1.0102 -4.0413  0.7830
 5019SOL     OW25735   2.654   5.850   1.351  0.0077 -0.2426  0.2950
 5019SOL    HW125736   2.716   5.781   1.388  1.0975  0.2171 -0.6422
 5019SOL    HW225737   2.707   5.927   1.315 -1.1490  0.5957  0.3427
 5020SOL     OW25738   2.873   2.008   1.820  0.1453  0.1572 -0.1736
 5020SOL    HW125739   2.832   2.027   1.731  1.7074  2.5981 -0.4367
 5020SOL    HW225740   2.807   2.028   1.892 -0.9039 -1.1930 -0.7278
 5021SOL     OW25741   2.472   7.689   1.936 -0.2225  0.5924  0.0673
 5021SOL    HW125742   2.425   7.711   2.021  1.3941  0.3954  1.0356
 5021SOL    HW225743   2.553   7.747   1.927  0.5930 -0.6120 -0.4440
 5022SOL     OW25744   3.330   9.277   2.819 -0.4779  0.0895 -0.3404
 5022SOL    HW125745   3.351   9.266   2.916  0.8831 -0.1897 -0.6574
 5022SOL    HW225746   3.389   9.348   2.780 -0.0918 -0.7336 -1.2665
 5023SOL     OW25747   9.067   6.331   2.035 -0.1766 -0.1034  0.2186
 5023SOL    HW125748   9.073   6.337   1.935 -0.5504 -0.8948  0.1499
 5023SOL    HW225749   9.157   6.351   2.074 -0.1661  0.7903 -0.2434
 5024SOL     OW25750   3.583   7.291   1.881 -0.1208  0.3394  0.3192
 5024SOL    HW125751   3.559   7.264   1.787 -0.0462  0.0427  0.3832
 5024SOL    HW225752   3.524   7.366   1.910  0.4843  1.0729 -0.3071
 5025SOL     OW25753   9.362   5.006   1.504  0.3941 -0.2324  0.1461
 5025SOL    HW125754   9.399   4.914   1.512  1.0859  0.0729  0.5004
 5025SOL    HW225755   9.263   5.004   1.515  0.0277 -1.3466 -2.9366
 5026SOL     OW25756   1.306   4.969   0.597  0.4536  0.8267  0.3510
 5026SOL    HW125757   1.304   5.057   0.551  0.0853  0.9052  0.5093
 5026SOL    HW225758   1.212   4.937   0.612  0.5842  0.4311  0.3353
 5027SOL     OW25759   2.895   1.871   0.719  0.0347  0.2772  0.2626
 5027SOL    HW125760   2.968   1.903   0.659 -1.0949  0.6802 -0.9106
 5027SOL    HW225761   2.830   1.946   0.736 -0.9507 -0.5090  0.0262
 5028SOL     OW25762   1.389   9.456   3.950 -0.1734  0.6819  0.0655
 5028SOL    HW125763   1.426   9.549   3.949 -0.3601  0.7544 -0.7635
 5028SOL    HW225764   1.427   9.404   3.873 -0.5886  0.2863  0.1237
 5029SOL     OW25765   8.557   4.375   4.516 -0.5333 -0.0256  0.0946
 5029SOL    HW125766   8.524   4.397   4.424 -1.0861  3.4644  1.0634
 5029SOL    HW225767   8.487   4.400   4.584  0.3234 -1.4912  1.5570
 5030SOL     OW25768   9.164   3.115   1.788 -0.0062  0.2208 -0.0992
 5030SOL    HW125769   9.228   3.051   1.832  2.2025  1.2800 -1.6482
 5030SOL    HW225770   9.085   3.129   1.847  1.8655 -0.0062  2.5845
 5031SOL     OW25771   0.070   6.877   1.225  0.5208 -0.1246  0.4441
 5031SOL    HW125772   0.072   6.821   1.307  1.2723 -3.2537 -1.6373
 5031SOL    HW225773   0.127   6.835   1.154 -0.3123  2.3432 -1.7781
 5032SOL     OW25774   1.447   4.552   1.635  0.5687 -0.4929  0.1249
 5032SOL    HW125775   1.494   4.635   1.665 -0.7035  0.3344 -0.1260
 5032SOL    HW225776   1.492   4.472   1.674 -0.3205  0.4739  3.2734
 5033SOL     OW25777   0.980   9.448   2.367 -0.0855  0.3046  0.1567
 5033SOL    HW125778   1.061   9.393   2.345 -1.5408 -2.0798  0.5493
 5033SOL    HW225779   0.905   9.422   2.307 -1.9619 -1.0154  2.9886
 5034SOL     OW25780   2.315   2.629   3.064  0.0711  0.3402 -0.6583
 5034SOL    HW125781   2.368   2.545   3.064 -2.4529 -1.3291  1.5094
 5034SOL    HW225782   2.271   2.640   2.974  0.5243 -0.5574 -0.9967
 5035SOL     OW25783   8.646   6.703   0.558  0.2936  0.4601  0.1690
 5035SOL    HW125784   8.566   6.646   0.542  1.0563 -0.8727  1.0054
 5035SOL    HW225785   8.662   6.711   0.656 -1.5502  4.6043  0.2295
 5036SOL     OW25786   0.329   4.334   0.562 -0.1346 -0.1121  0.0995
 5036SOL    HW125787   0.306   4.303   0.654  4.2484  1.9921  2.0645
 5036SOL    HW225788   0.397   4.273   0.522 -0.2877  0.3024 -0.8249
 5037SOL     OW25789   1.508   9.218   1.157 -0.0654  0.0605  0.1318
 5037SOL    HW125790   1.418   9.180   1.175  0.0788 -0.1565  0.4036
 5037SOL    HW225791   1.574   9.144   1.142  0.4471  0.1684  1.7711
 5038SOL     OW25792   7.431   3.800   4.094 -0.2488 -0.1950 -0.0688
 5038SOL    HW125793   7.436   3.854   4.178 -0.0309  0.0829 -0.2564
 5038SOL    HW225794   7.446   3.704   4.115 -1.3453 -0.2766  0.3649
 5039SOL     OW25795   9.829   6.033   4.180 -0.1301 -0.2707  0.5856
 5039SOL    HW125796   9.834   5.969   4.103  0.7677  1.6339 -0.9830
 5039SOL    HW225797   9.782   6.117   4.152  1.4346  1.0197  1.6778
 5040SOL     OW25798   1.327   2.421   0.721 -0.0250 -0.3271 -0.4303
 5040SOL    HW125799   1.367   2.353   0.782 -2.5770 -1.7869 -0.2904
 5040SOL    HW225800   1.357   2.404   0.627 -0.2387 -1.3628 -0.3178
 5041SOL     OW25801   3.826   9.110   4.068 -0.0664  0.1970 -0.3859
 5041SOL    HW125802   3.768   9.135   3.990 -0.0490  0.6598 -0.2506
 5041SOL    HW225803   3.776   9.124   4.153 -0.0829 -0.3022 -0.3112
 5042SOL     OW25804   8.067   1.499   0.207  0.0233 -0.4190  0.5781
 5042SOL    HW125805   8.102   1.420   0.256  0.0794  0.1969  1.5427
 5042SOL    HW225806   8.142   1.546   0.160 -0.1397 -1.4440 -0.7595
 5043SOL     OW25807   2.122   3.906   4.441 -0.2675 -0.1153 -0.4375
 5043SOL    HW125808   2.217   3.934   4.453 -0.4580 -0.5328  2.1600
 5043SOL    HW225809   2.117   3.806   4.438 -0.8042 -0.1498  1.2171
 5044SOL     OW25810   3.573   2.074   3.422  0.4652 -0.1555  0.1260
 5044SOL    HW125811   3.476   2.049   3.433  0.1717  0.5098 -0.9247
 5044SOL    HW225812   3.588   2.109   3.330  1.0929  2.5224  1.2110
 5045SOL     OW25813   1.406   6.677   2.534  0.4807  0.3208  0.5835
 5045SOL    HW125814   1.324   6.686   2.479 -1.7373  2.8765  4.1636
 5045SOL    HW225815   1.480   6.732   2.495 -0.3454  0.2617 -1.0640
 5046SOL     OW25816   2.754   8.630   1.771 -0.0676 -0.5807 -0.3438
 5046SOL    HW125817   2.843   8.673   1.777 -0.3516  0.0636 -0.6524
 5046SOL    HW225818   2.727   8.621   1.675 -0.5945 -0.2204 -0.2344
 5047SOL     OW25819   8.366   5.565   0.651  0.4516  0.2351 -0.2832
 5047SOL    HW125820   8.462   5.539   0.663  0.3390 -0.9991 -1.9794
 5047SOL    HW225821   8.312   5.484   0.628 -1.0787  0.8585  1.0030
 5048SOL     OW25822   2.048   4.248   0.575 -0.3390 -0.0361 -0.2499
 5048SOL    HW125823   1.985   4.263   0.651 -0.1320  0.7149 -0.2265
 5048SOL    HW225824   2.000   4.199   0.502 -0.8746  0.2914 -0.1225
 5049SOL     OW25825   8.577   4.391   0.651  0.5259  0.2332 -0.1449
 5049SOL    HW125826   8.616   4.304   0.620  0.5665  1.0398 -2.5143
 5049SOL    HW225827   8.549   4.445   0.571 -1.1886  1.6237  1.3470
 5050SOL     OW25828   9.921   8.847   4.584 -0.0823 -0.0219  0.2420
 5050SOL    HW125829   9.978   8.821   4.662  0.6482 -0.3763 -0.4103
 5050SOL    HW225830   9.959   8.809   4.500  0.0418  1.7418 -0.5102
 5051SOL     OW25831   9.599   1.034   1.836  0.0351 -0.5491 -0.0377
 5051SOL    HW125832   9.633   0.948   1.874  1.1044 -1.2441 -2.4331
 5051SOL    HW225833   9.674   1.082   1.789 -0.6573  1.4788  0.8674
 5052SOL     OW25834   6.591   7.683   2.208  0.5525 -0.2673  0.6480
 5052SOL    HW125835   6.630   7.760   2.257 -0.5790  0.4357  0.4506
 5052SOL    HW225836   6.665   7.629   2.168  1.3771  0.3720  1.2885
 5053SOL     OW25837   2.922   7.596   4.212 -0.2104 -0.8301  0.2395
 5053SOL    HW125838   2.826   7.624   4.211  0.3259  1.1979  1.4941
 5053SOL    HW225839   2.948   7.567   4.304  0.5344 -0.7839  0.0502
 5054SOL     OW25840   0.364   1.254   4.120  0.2569 -0.2895  0.0624
 5054SOL    HW125841   0.381   1.167   4.167 -1.6765 -1.1067 -0.6868
 5054SOL    HW225842   0.344   1.325   4.188  1.4690 -0.5143  0.6635
 5055SOL     OW25843   4.269   2.045   4.217 -0.7460 -0.3209  0.3927
 5055SOL    HW125844   4.243   2.139   4.192 -1.2638  0.1493  2.5454
 5055SOL    HW225845   4.249   2.031   4.314  0.1718 -2.3871  0.2898
 5056SOL     OW25846   5.182   0.580   1.082  0.6316  0.6954  0.5488
 5056SOL    HW125847   5.130   0.503   1.044 -0.1035  1.3519  0.2144
 5056SOL    HW225848   5.279   0.563   1.070  0.4079  0.7915 -1.4253
 5057SOL     OW25849   8.728   1.235   4.705 -0.7049  0.8584 -0.1517
 5057SOL    HW125850   8.759   1.163   4.767  0.3083  1.7454  0.4128
 5057SOL    HW225851   8.629   1.234   4.698 -0.6728 -0.7375 -0.3431
 5058SOL     OW25852   3.150   7.432   3.525 -0.0935  0.0470  0.0862
 5058SOL    HW125853   3.225   7.487   3.561 -0.9453  0.5580  1.1292
 5058SOL    HW225854   3.078   7.424   3.595 -1.3118  0.1448 -1.1253
 5059SOL     OW25855   9.930   0.362   2.508  0.0324 -0.4246  0.1754
 5059SOL    HW125856  10.026   0.337   2.492 -0.3679 -1.1727 -1.1475
 5059SOL    HW225857   9.891   0.400   2.425 -0.7133  0.2641  0.8315
 5060SOL     OW25858   3.059   9.721   3.035  0.4533  0.0086 -0.4900
 5060SOL    HW125859   3.078   9.816   3.060  1.1197 -0.1032 -0.5505
 5060SOL    HW225860   3.094   9.660   3.107 -1.8216 -0.1052  0.5562
 5061SOL     OW25861   4.758   1.098   4.573 -0.2937  0.0531  0.0143
 5061SOL    HW125862   4.839   1.075   4.520 -0.8390  0.7631 -1.1581
 5061SOL    HW225863   4.686   1.030   4.555 -0.6054  0.5018 -0.4616
 5062SOL     OW25864   1.899   0.591   2.007  0.1598  0.2562 -0.3285
 5062SOL    HW125865   1.852   0.512   1.967 -1.8057  1.2916 -0.1674
 5062SOL    HW225866   1.857   0.614   2.095  2.8480 -0.4913  1.1756
 5063SOL     OW25867   9.806   6.492   3.960  0.2200 -0.3078  0.6774
 5063SOL    HW125868   9.851   6.477   3.872  0.3664  0.8629  0.5318
 5063SOL    HW225869   9.720   6.541   3.945  0.0891 -0.3985  1.1507
 5064SOL     OW25870   0.516   7.878   0.806 -0.5559  0.1639 -0.2823
 5064SOL    HW125871   0.555   7.792   0.770 -0.3695 -0.7923  2.1319
 5064SOL    HW225872   0.427   7.894   0.764 -0.8006 -1.4624 -0.4175
 5065SOL     OW25873   7.185   6.809   2.444 -0.5750 -0.4329 -0.1123
 5065SOL    HW125874   7.265   6.750   2.433 -0.7683 -0.6780 -0.2049
 5065SOL    HW225875   7.158   6.846   2.356 -0.7708 -0.6213 -0.1311
 5066SOL     OW25876   1.084   5.442   4.157 -0.1382 -0.0695 -0.0631
 5066SOL    HW125877   1.040   5.475   4.240  0.2449  0.4997 -0.0807
 5066SOL    HW225878   1.015   5.416   4.090 -0.4455 -0.1277  0.2782
 5067SOL     OW25879   8.482   9.407   1.599 -0.0126 -0.0841  0.1176
 5067SOL    HW125880   8.443   9.480   1.543  0.2345 -0.4202 -0.4969
 5067SOL    HW225881   8.417   9.330   1.602  0.1681 -0.2454 -0.0831
 5068SOL     OW25882   4.017   2.774   0.427 -0.1104 -0.0557 -0.1407
 5068SOL    HW125883   4.114   2.794   0.434 -0.1822 -0.3084  2.4029
 5068SOL    HW225884   3.970   2.847   0.377  0.9909  1.4750  1.0043
 5069SOL     OW25885   7.315   0.148   2.311 -0.0208 -0.1904  0.3067
 5069SOL    HW125886   7.327   0.152   2.212  0.1403  0.0145  0.3347
 5069SOL    HW225887   7.239   0.207   2.338  0.8318  0.8638  0.4562
 5070SOL     OW25888   4.195   0.904   2.545  0.0946  0.4922  0.0938
 5070SOL    HW125889   4.268   0.959   2.504  0.0623  0.1500 -0.4229
 5070SOL    HW225890   4.234   0.839   2.609  0.4018 -0.7854 -1.3733
 5071SOL     OW25891   2.316   2.741   1.593  0.1324 -0.1694  0.3050
 5071SOL    HW125892   2.279   2.792   1.515  0.4040 -2.0506 -1.0991
 5071SOL    HW225893   2.407   2.705   1.569  0.7020  0.1989  1.9036
 5072SOL     OW25894   0.712   8.573   0.391 -0.6374 -0.3879 -0.4702
 5072SOL    HW125895   0.621   8.539   0.367 -1.1604  0.7882 -0.1838
 5072SOL    HW225896   0.711   8.673   0.392  0.4347 -0.3774  0.3940
 5073SOL     OW25897   3.353   1.449   0.550 -0.1833 -0.0530 -0.2463
 5073SOL    HW125898   3.289   1.405   0.487 -1.2952  3.2250 -1.5412
 5073SOL    HW225899   3.447   1.427   0.524 -0.7048 -2.3837 -0.2394
 5074SOL     OW25900   2.330   3.299   4.152 -0.8604 -0.1001  0.2654
 5074SOL    HW125901   2.315   3.346   4.065 -3.3952  0.3354  0.9098
 5074SOL    HW225902   2.324   3.200   4.137  0.0574 -0.0841 -0.2752
 5075SOL     OW25903   7.920   2.081   1.202 -0.5879 -0.3258  0.3809
 5075SOL    HW125904   7.863   2.003   1.228 -1.2215  0.1323  0.3688
 5075SOL    HW225905   7.991   2.095   1.271 -0.1669 -1.2151  0.1408
 5076SOL     OW25906   8.401   9.792   3.785 -0.0533  0.6163  0.1057
 5076SOL    HW125907   8.419   9.797   3.883  0.1939  1.1810  0.0373
 5076SOL    HW225908   8.330   9.859   3.761 -0.4481  0.1537 -0.0277
 5077SOL     OW25909   2.270   6.322   3.278 -0.2485 -0.4639 -0.3018
 5077SOL    HW125910   2.208   6.306   3.201  0.0811  1.4099 -0.9864
 5077SOL    HW225911   2.286   6.421   3.288  0.3973 -0.7396  1.6335
 5078SOL     OW25912   0.816   9.705   2.401 -0.2209  0.1282  0.3694
 5078SOL    HW125913   0.883   9.634   2.417  1.2045  1.4361  0.3150
 5078SOL    HW225914   0.858   9.795   2.413 -2.4517  0.9778  2.3036
 5079SOL     OW25915   8.242   7.861   1.831 -0.3994  0.1718  0.1371
 5079SOL    HW125916   8.273   7.956   1.834  1.0529 -0.3261  1.7336
 5079SOL    HW225917   8.229   7.832   1.736  1.1638  1.3136 -0.4320
 5080SOL     OW25918   9.059   1.906   3.036 -0.1586  0.4102 -0.2770
 5080SOL    HW125919   9.046   1.852   3.119 -0.0486 -0.6811 -0.9502
 5080SOL    HW225920   9.023   1.998   3.050 -0.8601 -0.0027  0.7166
 5081SOL     OW25921   1.317   0.300   0.639  0.3381  0.0827  0.1207
 5081SOL    HW125922   1.316   0.238   0.561  2.5643 -0.3475  0.4060
 5081SOL    HW225923   1.230   0.348   0.644 -1.2599 -2.6382 -0.4096
 5082SOL     OW25924   0.700   6.530   2.049 -0.3346  0.6951  0.0561
 5082SOL    HW125925   0.713   6.445   2.099 -1.0677  0.6861  0.2399
 5082SOL    HW225926   0.720   6.608   2.108 -0.0574  0.6566  0.0106
 5083SOL     OW25927   2.625   3.418   1.154  0.6676 -0.1939 -0.7983
 5083SOL    HW125928   2.697   3.454   1.095  1.2628 -1.2172 -0.7090
 5083SOL    HW225929   2.638   3.320   1.167 -0.7895 -0.4056 -0.8331
 5084SOL     OW25930   8.905   3.335   4.575  0.3868  0.4903 -0.2468
 5084SOL    HW125931   8.941   3.372   4.489 -1.0453  0.4270 -0.8935
 5084SOL    HW225932   8.826   3.388   4.604 -0.3011 -0.6626  0.0257
 5085SOL     OW25933   9.420   7.219   3.691 -0.3843  0.2082  0.5927
 5085SOL    HW125934   9.391   7.315   3.693  2.2209  1.0678 -0.1311
 5085SOL    HW225935   9.411   7.183   3.598  0.1398  0.2440  0.5281
 5086SOL     OW25936   2.283   2.967   3.577 -0.1198 -0.4132 -0.0501
 5086SOL    HW125937   2.362   2.974   3.517 -0.8616 -0.2244 -1.0176
 5086SOL    HW225938   2.208   2.920   3.529  0.0608 -2.3765  1.5348
 5087SOL     OW25939   7.362   0.575   2.008 -0.2736  0.0090  0.2410
 5087SOL    HW125940   7.307   0.632   2.069  1.4602  0.1352  1.7390
 5087SOL    HW225941   7.456   0.572   2.041  0.0580 -2.3410 -0.7991
 5088SOL     OW25942   2.071   1.683   4.064 -0.1355  0.4117  0.4589
 5088SOL    HW125943   1.976   1.708   4.047 -0.4617 -0.7367  0.5736
 5088SOL    HW225944   2.075   1.595   4.111  0.9196  1.2879  2.0696
 5089SOL     OW25945   0.831   3.475   2.158 -0.1406 -0.0842  0.2932
 5089SOL    HW125946   0.894   3.434   2.224  1.6203 -0.0062 -1.3038
 5089SOL    HW225947   0.881   3.540   2.100 -1.3539 -1.1990 -2.0579
 5090SOL     OW25948   1.045   7.659   3.196  0.0271  0.1741  0.3566
 5090SOL    HW125949   1.004   7.646   3.287 -0.2331 -0.9065  0.0915
 5090SOL    HW225950   1.133   7.612   3.193  0.0637  0.2642  0.0590
 5091SOL     OW25951   3.198   1.445   0.767  0.1481  0.0067 -0.3369
 5091SOL    HW125952   3.273   1.441   0.701  1.0052  1.2400  0.5533
 5091SOL    HW225953   3.130   1.512   0.736  0.3709  0.3142 -0.1683
 5092SOL     OW25954   6.662   9.289   0.882  0.4397 -0.3622 -0.4909
 5092SOL    HW125955   6.601   9.232   0.827  0.4567 -1.5524  0.7168
 5092SOL    HW225956   6.612   9.326   0.960  0.8991 -0.1805 -0.2824
 5093SOL     OW25957   5.962   9.282   2.923 -0.3196  0.6876  0.4848
 5093SOL    HW125958   5.923   9.339   2.851  2.4154  1.0562 -0.7694
 5093SOL    HW225959   5.891   9.222   2.960 -1.5409 -0.3094 -3.2890
 5094SOL     OW25960   7.846   3.711   4.246 -0.0784  0.1307 -0.7083
 5094SOL    HW125961   7.830   3.612   4.252 -1.0833  0.2983 -0.5180
 5094SOL    HW225962   7.852   3.738   4.150 -0.2902 -0.0427 -0.7710
 5095SOL     OW25963   1.941   4.849   1.175 -0.0707  0.0458  0.1075
 5095SOL    HW125964   2.029   4.812   1.203 -0.7580  0.3570  2.8060
 5095SOL    HW225965   1.880   4.774   1.149 -0.1752 -0.4683  1.7590
 5096SOL     OW25966   3.668   2.278   4.149 -0.6221 -0.2615 -0.0670
 5096SOL    HW125967   3.646   2.290   4.052 -0.7289 -1.2919 -0.1720
 5096SOL    HW225968   3.584   2.265   4.201 -0.4457 -1.9815 -0.1638
 5097SOL     OW25969   1.589   4.590   3.372  0.1132  0.2604  0.3422
 5097SOL    HW125970   1.584   4.643   3.287  0.6287  0.3688  0.3781
 5097SOL    HW225971   1.616   4.650   3.447 -1.9341  0.5094  0.9051
 5098SOL     OW25972   7.492   1.841   2.511  0.0622  0.2007  0.0096
 5098SOL    HW125973   7.585   1.810   2.492 -0.2073 -0.0379 -0.9689
 5098SOL    HW225974   7.493   1.938   2.534  0.7222 -0.1462  1.4682
 5099SOL     OW25975   2.861   2.698   3.109 -0.1077  0.4127  0.2711
 5099SOL    HW125976   2.900   2.606   3.111  1.6428  1.0399 -2.4928
 5099SOL    HW225977   2.763   2.693   3.092 -0.3401 -0.9747  1.8747
 5100SOL     OW25978   8.109   1.680   1.242  0.4624 -0.0326 -0.1299
 5100SOL    HW125979   8.022   1.727   1.251  1.5890  1.9915  0.4587
 5100SOL    HW225980   8.148   1.663   1.333 -0.0832 -2.4655 -0.3031
 5101SOL     OW25981   0.588   9.117   4.458 -0.3342  0.2400 -0.6406
 5101SOL    HW125982   0.501   9.117   4.408 -0.8950 -1.9169  0.2831
 5101SOL    HW225983   0.572   9.144   4.553  0.1924  0.9840 -0.7619
 5102SOL     OW25984   0.640   0.142   0.137 -0.0281 -0.0115  0.3654
 5102SOL    HW125985   0.630   0.042   0.138 -1.2441  0.0819 -0.3088
 5102SOL    HW225986   0.736   0.166   0.124  0.2877 -1.0965  0.6407
 5103SOL     OW25987   1.435   3.571   3.009 -0.4181 -0.3523 -0.0455
 5103SOL    HW125988   1.424   3.477   2.975  0.2222  0.0515 -1.3811
 5103SOL    HW225989   1.484   3.569   3.096  2.3577 -1.0429 -1.5833
 5104SOL     OW25990   1.931   1.160   0.788 -0.4315  0.1663  0.1790
 5104SOL    HW125991   2.029   1.179   0.780 -0.4234 -0.0623 -0.3022
 5104SOL    HW225992   1.893   1.211   0.865  0.3386 -0.8216  1.2110
 5105SOL     OW25993   0.815   1.139   0.707 -0.0800 -0.2564 -0.3767
 5105SOL    HW125994   0.795   1.236   0.698 -1.0509 -0.3819  0.3578
 5105SOL    HW225995   0.754   1.099   0.776  0.6552 -1.2760 -0.3204
 5106SOL     OW25996   8.195   5.078   0.690  0.4606 -0.2241 -0.2930
 5106SOL    HW125997   8.133   5.130   0.749  0.1480  0.4565 -1.2204
 5106SOL    HW225998   8.148   5.053   0.606  1.1214 -0.6063 -0.5501
 5107SOL     OW25999   5.135   9.518   3.026  1.0153 -0.0619 -0.0632
 5107SOL    HW126000   5.138   9.483   2.933 -1.4092 -0.9310  0.1566
 5107SOL    HW226001   5.123   9.442   3.090 -2.1159  0.8974  0.5814
 5108SOL     OW26002   9.857   6.953   4.562 -0.1935  0.2344 -0.0687
 5108SOL    HW126003   9.892   6.972   4.653 -1.8611  0.4353  0.5288
 5108SOL    HW226004   9.895   7.019   4.497  0.8384  0.2069  0.4921
 5109SOL     OW26005   0.487   2.085   4.301  0.1189 -0.3815 -0.6979
 5109SOL    HW126006   0.499   2.035   4.215  1.1638 -0.7032 -0.3805
 5109SOL    HW226007   0.552   2.160   4.305 -0.6284  0.2631 -0.6360
 5110SOL     OW26008   1.976   6.893   3.369 -0.6233  0.1430  0.0284
 5110SOL    HW126009   2.061   6.867   3.415  1.5649  0.7823 -3.4566
 5110SOL    HW226010   1.963   6.992   3.377 -0.2359  0.2554 -0.7413
 5111SOL     OW26011   8.400   0.251   0.760  0.0637 -0.7112  0.6651
 5111SOL    HW126012   8.433   0.199   0.681  0.6554 -1.1629  1.2107
 5111SOL    HW226013   8.358   0.336   0.728 -1.0739 -1.5979 -0.2460
 5112SOL     OW26014   8.836   7.361   0.349 -0.3505 -0.3574  0.0352
 5112SOL    HW126015   8.877   7.420   0.279  0.5805  0.2450  1.0756
 5112SOL    HW226016   8.741   7.390   0.365 -0.1409  0.3649 -0.0034
 5113SOL     OW26017   5.559   3.804   4.732 -0.2112 -0.0563  0.3211
 5113SOL    HW126018   5.617   3.873   4.689  0.6837  0.0735  1.7166
 5113SOL    HW226019   5.563   3.719   4.679 -1.5382  1.0189 -1.5616
 5114SOL     OW26020   9.476   8.521   1.219  0.2823 -0.1994  0.3304
 5114SOL    HW126021   9.509   8.614   1.201  2.9403 -0.7737  1.9422
 5114SOL    HW226022   9.520   8.457   1.157 -2.7347 -0.2653 -1.8500
 5115SOL     OW26023   1.074   1.039   4.721  0.1219  0.3464 -0.2618
 5115SOL    HW126024   1.167   1.010   4.745  0.3865  0.6285 -0.9279
 5115SOL    HW226025   1.074   1.137   4.703 -0.3500  0.3831 -0.0606
 5116SOL     OW26026   0.697   4.706   2.675 -0.1197 -0.1306 -0.2881
 5116SOL    HW126027   0.733   4.760   2.599 -0.4256 -0.8312 -0.9351
 5116SOL    HW226028   0.638   4.763   2.732  3.9717  1.8236  2.2832
 5117SOL     OW26029   0.987   3.731   3.009  0.9667 -0.0594 -0.3076
 5117SOL    HW126030   0.991   3.830   2.995  1.9724  0.1097  1.1193
 5117SOL    HW226031   0.997   3.710   3.106 -1.5732 -1.4446 -0.2930
 5118SOL     OW26032   8.762   9.075   0.486  0.2960  0.4237 -0.0935
 5118SOL    HW126033   8.711   9.153   0.450  0.5494  0.3278 -0.6689
 5118SOL    HW226034   8.723   9.047   0.573 -1.5782 -0.5658 -1.2079
 5119SOL     OW26035   1.580   7.830   3.873  0.4564  0.8374  0.3891
 5119SOL    HW126036   1.608   7.838   3.777 -0.6705  0.8990  0.0591
 5119SOL    HW226037   1.571   7.734   3.897 -0.0963  0.8337  0.1800
 5120SOL     OW26038   0.643   4.497   2.852  0.3123 -0.1700  0.6508
 5120SOL    HW126039   0.625   4.539   2.941 -0.7990 -1.3828  1.0139
 5120SOL    HW226040   0.654   4.568   2.783 -1.9838  0.7052  1.1637
 5121SOL     OW26041   2.601   9.330   3.784 -0.1011  0.5895  0.1365
 5121SOL    HW126042   2.699   9.347   3.773 -0.1945  2.5087  1.9651
 5121SOL    HW226043   2.550   9.397   3.730 -0.4166 -0.3125 -0.6893
 5122SOL     OW26044   2.770   1.910   3.425  0.6053  0.2175 -0.0660
 5122SOL    HW126045   2.856   1.882   3.383  1.3188  1.6251  0.4003
 5122SOL    HW226046   2.752   2.006   3.402  0.3571  0.6276  1.7583
 5123SOL     OW26047   8.710   4.361   2.449  0.2728 -0.5340  0.7091
 5123SOL    HW126048   8.777   4.305   2.497 -2.4244 -2.4797  2.3467
 5123SOL    HW226049   8.691   4.443   2.502  0.5071 -0.5383  0.8016
 5124SOL     OW26050   3.669   9.739   0.900 -0.4733  0.0693 -0.8535
 5124SOL    HW126051   3.738   9.748   0.828  0.9801  0.0023  0.5158
 5124SOL    HW226052   3.578   9.731   0.858  0.4141 -0.5834 -2.6998
 5125SOL     OW26053   0.776   3.538   2.648 -0.0943 -0.2920  0.0776
 5125SOL    HW126054   0.829   3.561   2.730  0.0727  0.3523 -0.2094
 5125SOL    HW226055   0.754   3.440   2.649 -1.5675  0.0321  1.7360
 5126SOL     OW26056   2.054   0.418   4.337 -0.2852 -0.0100  0.4170
 5126SOL    HW126057   1.967   0.369   4.333  0.6136 -1.5547 -0.7796
 5126SOL    HW226058   2.129   0.353   4.329  0.9646  1.4988 -0.5339
 5127SOL     OW26059   2.964   9.513   0.004 -0.9019 -0.0056 -0.6614
 5127SOL    HW126060   3.035   9.566  -0.043 -1.0844  0.1059 -0.8127
 5127SOL    HW226061   2.919   9.453  -0.062  0.7714 -1.9616 -0.0837
 5128SOL     OW26062   1.274   9.647   2.302  0.2134 -0.2831 -0.2082
 5128SOL    HW126063   1.275   9.616   2.207  1.8003 -0.9439  0.0217
 5128SOL    HW226064   1.186   9.621   2.344 -0.1552 -0.7315 -1.2395
 5129SOL     OW26065   7.372   9.062   2.640  0.3072 -0.2780  0.3412
 5129SOL    HW126066   7.408   8.992   2.702  2.1893 -1.0606 -1.6078
 5129SOL    HW226067   7.408   9.048   2.548 -1.1922  1.8317 -0.6130
 5130SOL     OW26068   3.813   0.432   0.357 -0.1232  0.2591  0.0425
 5130SOL    HW126069   3.864   0.354   0.319 -0.8157  0.9781 -2.4816
 5130SOL    HW226070   3.725   0.400   0.392 -0.6236 -0.0758 -1.4506
 5131SOL     OW26071   3.092   2.971   2.316 -0.4471  0.6780  0.6419
 5131SOL    HW126072   3.025   2.897   2.319 -0.5371  0.6881 -0.7750
 5131SOL    HW226073   3.084   3.019   2.229  1.1333  0.9285  0.6255
 5132SOL     OW26074   4.594   3.842   3.967  0.1821  0.0062  0.0436
 5132SOL    HW126075   4.660   3.776   4.003 -0.4720 -0.7778 -0.1720
 5132SOL    HW226076   4.560   3.898   4.042  1.1632  0.4882  0.1424
 5133SOL     OW26077   9.932   7.203   4.699  0.0885  0.0346  0.4463
 5133SOL    HW126078  10.024   7.220   4.735  0.5164 -1.3425  0.0154
 5133SOL    HW226079   9.865   7.218   4.771  1.0286 -4.0199  2.2529
 5134SOL     OW26080   8.459   2.575   4.002 -0.3321  0.3568 -0.5056
 5134SOL    HW126081   8.533   2.516   4.034 -0.8285 -0.9402 -1.6757
 5134SOL    HW226082   8.443   2.558   3.904 -1.9375  0.8676 -0.3473
 5135SOL     OW26083   3.649   8.704   2.494  0.1359 -0.4106  0.6283
 5135SOL    HW126084   3.647   8.625   2.433  0.9024  0.4181 -0.5010
 5135SOL    HW226085   3.600   8.780   2.451  0.1653 -0.0040  1.3150
 5136SOL     OW26086   0.261   1.876   4.058  0.0066 -0.1422  0.7183
 5136SOL    HW126087   0.199   1.797   4.053 -0.5731  0.2469  1.4699
 5136SOL    HW226088   0.241   1.939   3.983 -1.0963  0.3848  1.4360
 5137SOL     OW26089   0.195   9.655   3.470 -0.6269 -0.4837 -0.9301
 5137SOL    HW126090   0.194   9.571   3.524  0.9361 -1.6057 -2.5507
 5137SOL    HW226091   0.283   9.701   3.482 -1.7066  1.2650  0.4186
 5138SOL     OW26092   9.820   3.327   0.334 -0.2241  0.5443 -0.1413
 5138SOL    HW126093   9.826   3.258   0.262 -2.6641 -0.8715  0.9652
 5138SOL    HW226094   9.728   3.328   0.372 -0.3426  4.6891 -0.3704
 5139SOL     OW26095   4.811   7.430   4.544  0.1389 -0.4604  0.2706
 5139SOL    HW126096   4.804   7.343   4.593  0.5302 -0.4296  0.3792
 5139SOL    HW226097   4.776   7.504   4.602  0.8477 -0.3885  0.6018
 5140SOL     OW26098   7.979   1.680   2.980 -0.0182  0.6079  0.0357
 5140SOL    HW126099   8.038   1.738   2.923  0.3512 -0.6999 -0.9283
 5140SOL    HW226100   7.931   1.614   2.922  0.4353 -0.8002  1.2430
 5141SOL     OW26101   2.082   6.539   2.933  0.0164  0.0743 -0.1106
 5141SOL    HW126102   2.055   6.476   3.006  1.0328  0.9327  1.0255
 5141SOL    HW226103   2.022   6.619   2.935 -0.6931 -0.4340 -0.9650
 5142SOL     OW26104   3.829   3.580   2.656 -0.2571 -0.0145 -0.1573
 5142SOL    HW126105   3.825   3.627   2.744 -0.8266  0.9031 -0.6644
 5142SOL    HW226106   3.744   3.596   2.606  2.0905  3.9572 -3.1590
 5143SOL     OW26107   3.193   8.433   1.369  0.7887 -0.8430  0.1831
 5143SOL    HW126108   3.150   8.522   1.383  1.8042 -0.4574  0.9328
 5143SOL    HW226109   3.204   8.416   1.271  1.7323  0.4238  0.0610
 5144SOL     OW26110   4.200   8.110   1.719  0.1716  0.1032 -0.1480
 5144SOL    HW126111   4.148   8.045   1.663  1.1255  0.5992 -1.6313
 5144SOL    HW226112   4.205   8.076   1.813  1.3302 -2.3846 -1.0666
 5145SOL     OW26113   5.728   8.454   3.003  0.3874 -0.4324  0.2829
 5145SOL    HW126114   5.789   8.515   3.054  1.2143  0.7499 -2.0705
 5145SOL    HW226115   5.639   8.498   2.992  0.7366  0.0168 -0.7380
 5146SOL     OW26116   3.580   2.579   0.091  0.0461 -0.1405 -0.5490
 5146SOL    HW126117   3.633   2.522   0.028  0.8454 -0.1716  0.1361
 5146SOL    HW226118   3.642   2.641   0.139 -0.5686 -0.0339  0.1137
 5147SOL     OW26119   6.148   7.113   1.767 -0.5274 -0.0881 -0.0312
 5147SOL    HW126120   6.137   7.208   1.738 -0.2758  0.3006  1.1033
 5147SOL    HW226121   6.235   7.103   1.816  0.3167 -1.3103 -1.7265
 5148SOL     OW26122   6.917   9.139   3.708  0.2072 -0.1023  0.1265
 5148SOL    HW126123   6.822   9.162   3.732  0.3610 -0.9896  1.6302
 5148SOL    HW226124   6.927   9.140   3.608 -1.5640 -0.6667 -0.0817
 5149SOL     OW26125   3.781   4.395   0.197 -0.1614  0.3019 -0.0409
 5149SOL    HW126126   3.734   4.434   0.118  0.5358 -0.9385 -1.0946
 5149SOL    HW226127   3.867   4.353   0.167 -0.2514 -0.8586  1.2750
 5150SOL     OW26128   0.191   9.096   2.961 -0.0168  0.1419 -0.4877
 5150SOL    HW126129   0.153   9.018   3.010  1.3440  0.1399  0.6181
 5150SOL    HW226130   0.257   9.064   2.893 -0.4641  0.2591 -0.9799
 5151SOL     OW26131   1.837   6.651   4.740 -0.2326  0.1706 -0.3705
 5151SOL    HW126132   1.859   6.630   4.835 -0.3739  0.3623 -0.2952
 5151SOL    HW226133   1.899   6.601   4.679  1.4062  1.8962 -0.1439
 5152SOL     OW26134   1.961   7.614   2.800  0.4003 -0.8825 -0.4466
 5152SOL    HW126135   2.037   7.648   2.855 -0.8256  1.8690 -0.3686
 5152SOL    HW226136   1.991   7.604   2.705  0.9605 -0.1024 -0.3564
 5153SOL     OW26137   5.330   9.285   3.284  0.1926 -0.0914 -0.2280
 5153SOL    HW126138   5.374   9.334   3.209 -0.1184  0.7571  0.1337
 5153SOL    HW226139   5.313   9.191   3.257 -0.4204  0.3513 -1.4307
 5154SOL     OW26140   3.017   7.069   2.026  0.4601 -0.2302 -0.7187
 5154SOL    HW126141   2.923   7.043   2.003  0.8650 -1.4936 -0.9702
 5154SOL    HW226142   3.022   7.090   2.123  0.0220 -0.6856 -0.5919
 5155SOL     OW26143   8.831   9.112   2.792 -0.0308 -0.1443 -0.0960
 5155SOL    HW126144   8.835   9.161   2.704  0.7058 -0.3031 -0.1547
 5155SOL    HW226145   8.783   9.168   2.859 -0.5204  0.0168 -0.5809
 5156SOL     OW26146   2.394   5.411   2.066 -0.3263 -0.4062  0.7516
 5156SOL    HW126147   2.416   5.507   2.047 -0.4264 -0.2274  1.5389
 5156SOL    HW226148   2.456   5.376   2.136  2.4005 -2.1115 -2.3636
 5157SOL     OW26149   9.208   3.551   2.152  0.1640 -0.2142 -0.5166
 5157SOL    HW126150   9.223   3.621   2.083  1.2212 -1.0342 -1.1403
 5157SOL    HW226151   9.144   3.585   2.221  1.0594  1.5352 -0.5258
 5158SOL     OW26152   3.665   5.157   2.246 -0.1114 -0.2910  0.4079
 5158SOL    HW126153   3.567   5.136   2.252 -0.1912  0.2839  1.2520
 5158SOL    HW226154   3.717   5.086   2.293 -0.2066  0.0244  0.9949
 5159SOL     OW26155   0.909   1.133   1.067 -0.2986  0.4391 -0.0220
 5159SOL    HW126156   0.909   1.172   1.159  0.3259  0.9646 -0.2378
 5159SOL    HW226157   0.946   1.201   1.003 -0.2272 -0.1194 -0.5719
 5160SOL     OW26158   6.535   7.668   2.566  0.2732 -0.1936  0.1160
 5160SOL    HW126159   6.548   7.718   2.652  1.0512 -0.7487  0.3293
 5160SOL    HW226160   6.609   7.691   2.503  1.4762 -2.1867  0.7562
 5161SOL     OW26161   2.792   7.568   4.513  0.1567 -0.2443 -0.1684
 5161SOL    HW126162   2.833   7.510   4.584  1.2899  0.5558 -0.1588
 5161SOL    HW226163   2.749   7.647   4.556 -0.2456 -0.3962 -0.2867
 5162SOL     OW26164   7.265   9.107   1.668 -0.2473  0.2873 -0.3186
 5162SOL    HW126165   7.221   9.196   1.681  0.8901  0.6557  1.1082
 5162SOL    HW226166   7.258   9.054   1.752  1.5204  0.1322 -0.2652
 5163SOL     OW26167   3.585   6.686   1.046 -0.0683 -0.0259 -0.5900
 5163SOL    HW126168   3.652   6.756   1.072 -0.2278 -0.4963  1.1237
 5163SOL    HW226169   3.501   6.699   1.098 -1.0830  0.1205 -2.2114
 5164SOL     OW26170   1.842   3.440   0.661 -0.2673 -0.1692  0.5693
 5164SOL    HW126171   1.785   3.378   0.607  1.0400 -0.3551 -0.6040
 5164SOL    HW226172   1.862   3.522   0.608  0.3171  0.0340  1.1013
 5165SOL     OW26173   7.782   9.623   3.244  0.5367  0.0239 -0.5168
 5165SOL    HW126174   7.871   9.666   3.235  0.0817  1.0421 -0.2496
 5165SOL    HW226175   7.736   9.658   3.326 -0.0603 -0.5815 -0.5812
 5166SOL     OW26176   2.945   8.033   1.703  0.6818 -0.3237 -0.3073
 5166SOL    HW126177   2.904   8.124   1.718  0.4430 -0.4102 -0.4281
 5166SOL    HW226178   3.040   8.034   1.733  1.2514  0.5172 -2.1071
 5167SOL     OW26179   9.375   6.747   3.192 -0.3211 -0.4347  0.0670
 5167SOL    HW126180   9.356   6.841   3.165 -0.0508 -0.2805  0.3998
 5167SOL    HW226181   9.316   6.684   3.141  0.3283 -0.1695 -1.0108
 5168SOL     OW26182   1.913   9.394   2.875 -0.4623 -0.1153  0.4408
 5168SOL    HW126183   1.990   9.453   2.852 -0.1285 -0.9308 -0.5846
 5168SOL    HW226184   1.944   9.299   2.880 -1.0247 -0.2361  1.9319
 5169SOL     OW26185   2.315   8.525   2.524  0.1370  0.3960 -0.8555
 5169SOL    HW126186   2.397   8.581   2.536 -0.0731  0.3249  1.1606
 5169SOL    HW226187   2.343   8.432   2.499  0.9182 -0.4437  2.7512
 5170SOL     OW26188   0.669   5.911   2.094 -0.1266  0.6212 -0.5636
 5170SOL    HW126189   0.611   5.990   2.077  1.3288  1.7478 -0.4210
 5170SOL    HW226190   0.693   5.907   2.192 -0.0562  0.0941 -0.5973
 5171SOL     OW26191   9.431   4.344   1.101 -0.0015 -0.1768  0.3327
 5171SOL    HW126192   9.518   4.368   1.056  0.0902 -1.1668 -0.0269
 5171SOL    HW226193   9.367   4.309   1.033 -0.2708 -0.5725  0.7865
 5172SOL     OW26194   2.793   8.504   0.092  0.5861  0.0180  0.0307
 5172SOL    HW126195   2.829   8.412   0.111  2.0753  0.9129  1.7065
 5172SOL    HW226196   2.868   8.565   0.068 -0.6406  0.3335 -3.2570
 5173SOL     OW26197   9.111   9.132   3.307 -0.4077  0.1477  0.5601
 5173SOL    HW126198   9.041   9.095   3.245 -1.3903 -0.8591  2.2246
 5173SOL    HW226199   9.202   9.109   3.272 -0.9752 -2.3679  0.6073
 5174SOL     OW26200   4.087   8.761   0.341 -0.1732 -0.5440  0.1401
 5174SOL    HW126201   4.018   8.699   0.376 -1.6653 -0.2198 -2.1393
 5174SOL    HW226202   4.109   8.738   0.247  2.8909 -0.6576  0.8036
 5175SOL     OW26203   9.902   9.844   0.272  0.4119  0.8899  0.0256
 5175SOL    HW126204   9.818   9.817   0.318  0.3752  1.0034  0.0267
 5175SOL    HW226205   9.948   9.763   0.235 -0.9469  1.0615 -2.1038
 5176SOL     OW26206   4.813   8.112   1.816 -0.4102 -0.0095  0.1537
 5176SOL    HW126207   4.819   8.128   1.914 -1.8076 -2.0011  0.5772
 5176SOL    HW226208   4.733   8.057   1.795 -1.2900  2.0954 -2.3417
 5177SOL     OW26209   0.504   6.976   3.131 -0.1507  0.8281  0.4654
 5177SOL    HW126210   0.562   7.057   3.139  1.0868  0.0006  0.1944
 5177SOL    HW226211   0.458   6.977   3.042  2.8949 -0.6578 -1.2127
 5178SOL     OW26212   3.586   9.394   0.298  0.2723 -0.0711  0.2822
 5178SOL    HW126213   3.526   9.388   0.378  2.1764  0.9438  1.8404
 5178SOL    HW226214   3.535   9.431   0.221 -1.4530 -0.5113  1.1857
 5179SOL     OW26215   4.023   0.922   0.350  0.0745  0.2986 -0.1662
 5179SOL    HW126216   3.988   0.964   0.434 -1.9053  0.0045 -0.8305
 5179SOL    HW226217   4.099   0.978   0.315  0.4880  0.7821  1.4477
 5180SOL     OW26218   7.167   8.887   1.525 -0.0720 -0.2643 -0.8529
 5180SOL    HW126219   7.077   8.918   1.494 -0.7582  0.7644  2.0577
 5180SOL    HW226220   7.223   8.966   1.551  1.1683 -0.9860 -1.2678
 5181SOL     OW26221   7.402   8.441   2.940 -0.0119  0.5876  0.1832
 5181SOL    HW126222   7.428   8.472   3.032 -1.4599  1.1727  0.4111
 5181SOL    HW226223   7.375   8.520   2.885 -0.1760  0.1204 -0.4108
 5182SOL     OW26224   1.728   2.518   4.129  0.0289  0.1113 -0.4942
 5182SOL    HW126225   1.753   2.450   4.198 -1.7140 -0.9360 -0.8593
 5182SOL    HW226226   1.784   2.600   4.142  0.8494 -0.6659  1.1474
 5183SOL     OW26227   2.247   8.054   3.570  0.2321  0.2633  0.4075
 5183SOL    HW126228   2.215   8.123   3.635  0.5735 -0.4096  1.2922
 5183SOL    HW226229   2.345   8.068   3.553  0.0668  0.6552 -0.2311
 5184SOL     OW26230   8.914   1.505   3.106 -0.7267 -0.3651 -0.5153
 5184SOL    HW126231   8.845   1.444   3.146 -1.0624  1.1185  1.2583
 5184SOL    HW226232   8.872   1.593   3.084  0.8048  0.9715  1.6773
 5185SOL     OW26233   7.054   9.863   2.324  0.8580  0.1304  0.3027
 5185SOL    HW126234   7.148   9.871   2.291  0.2182 -0.1006 -1.6224
 5185SOL    HW226235   7.018   9.772   2.301  0.2473  0.1036  1.3027
 5186SOL     OW26236   8.416   3.474   3.332  0.4755  0.4677  0.9515
 5186SOL    HW126237   8.490   3.479   3.400 -1.6102  0.6303  3.3071
 5186SOL    HW226238   8.376   3.565   3.320  0.8822  0.4490 -0.5677
 5187SOL     OW26239   0.695   4.732   0.828 -0.2886 -0.7361  0.7204
 5187SOL    HW126240   0.625   4.662   0.815 -1.1732  0.0413  1.1832
 5187SOL    HW226241   0.710   4.780   0.742 -0.2756 -0.9509  0.6024
 5188SOL     OW26242   1.169   0.525   2.104 -0.0736  0.1375  0.0897
 5188SOL    HW126243   1.228   0.584   2.160 -0.5061  1.8678 -1.2392
 5188SOL    HW226244   1.226   0.466   2.047  0.3648 -0.7685  1.4261
 5189SOL     OW26245   3.280   7.122   2.406 -0.2433 -0.2290  0.0927
 5189SOL    HW126246   3.182   7.127   2.387 -0.4052 -0.1692  0.9135
 5189SOL    HW226247   3.320   7.048   2.352 -0.9274 -0.8991  0.4830
 5190SOL     OW26248   9.774   8.520   2.038  0.4335 -0.6591 -0.1945
 5190SOL    HW126249   9.854   8.559   2.083  0.6969 -0.2852 -0.9838
 5190SOL    HW226250   9.695   8.579   2.053  0.7190 -0.0773 -0.9682
 5191SOL     OW26251   0.046   5.752   0.329  0.1931 -0.7997  0.0208
 5191SOL    HW126252   0.073   5.831   0.384  1.3854 -0.7508 -0.6138
 5191SOL    HW226253  -0.009   5.690   0.385  0.1102 -0.0146  0.8190
 5192SOL     OW26254   7.720   7.362   2.605  0.5780  0.3493  0.4986
 5192SOL    HW126255   7.773   7.296   2.551  2.1635  0.6971  1.6259
 5192SOL    HW226256   7.713   7.448   2.554 -1.8747 -0.7820 -1.1770
 5193SOL     OW26257   3.342   4.743   4.343 -0.1556 -0.5318  0.2380
 5193SOL    HW126258   3.278   4.677   4.381  0.0956 -1.5333 -1.0187
 5193SOL    HW226259   3.303   4.835   4.347 -1.5203 -1.0794 -0.1905
 5194SOL     OW26260   9.292   7.805   4.375  0.2100  0.1271  0.2638
 5194SOL    HW126261   9.259   7.829   4.467 -0.7525 -0.7456  0.1584
 5194SOL    HW226262   9.301   7.888   4.320 -0.6026  0.5124  0.7052
 5195SOL     OW26263   8.432   0.682   2.493  0.5140  0.0357  0.2070
 5195SOL    HW126264   8.332   0.684   2.495  0.4617 -1.3021 -0.6473
 5195SOL    HW226265   8.464   0.717   2.405  0.8070  0.4097  0.4588
 5196SOL     OW26266   3.122   7.078   3.176  0.5977 -0.0244  0.5722
 5196SOL    HW126267   3.187   7.115   3.242 -0.8605  2.8565  0.4422
 5196SOL    HW226268   3.146   7.110   3.084 -0.9471  1.0134  0.5139
 5197SOL     OW26269   9.157   4.087   3.335  0.4731  0.4308  0.0695
 5197SOL    HW126270   9.131   4.173   3.292  0.1673  0.7481  0.8759
 5197SOL    HW226271   9.094   4.014   3.307  0.6048  0.5130 -0.4442
 5198SOL     OW26272   0.084   9.882   3.067 -0.7073 -0.1185 -0.3051
 5198SOL    HW126273   0.108   9.940   2.988  1.7820 -1.9613 -0.9941
 5198SOL    HW226274   0.001   9.830   3.046 -0.7421  0.2998 -1.2481
 5199SOL     OW26275   2.379   9.488   2.095  0.2742  0.4438  0.4216
 5199SOL    HW126276   2.327   9.572   2.113 -0.1826 -0.3250  2.7404
 5199SOL    HW226277   2.476   9.510   2.088 -0.1246  1.6137 -2.1480
 5200SOL     OW26278   1.232   7.986   1.441  0.0638 -0.1460  0.3586
 5200SOL    HW126279   1.179   7.906   1.467  2.7098 -1.6266  1.4817
 5200SOL    HW226280   1.291   7.962   1.363 -0.4452  1.2665 -0.4714
 5201SOL     OW26281   3.233   1.957   1.159 -0.1631 -0.2434  0.0508
 5201SOL    HW126282   3.251   1.860   1.170 -1.4162 -0.5321 -0.3631
 5201SOL    HW226283   3.317   2.004   1.134 -0.0159 -1.5847 -2.0860
 5202SOL     OW26284   1.976   2.849   0.504 -0.3492 -0.9137 -0.0251
 5202SOL    HW126285   2.069   2.884   0.503  0.1772 -2.2276  1.0966
 5202SOL    HW226286   1.963   2.789   0.583 -2.4635  0.0625  0.4217
 5203SOL     OW26287   1.441   9.336   3.712  0.1990  0.2609 -0.0034
 5203SOL    HW126288   1.373   9.403   3.684  0.9654  0.4227 -1.5347
 5203SOL    HW226289   1.399   9.245   3.718 -0.8185  0.8289  1.9979
 5204SOL     OW26290   7.334   6.374   3.283 -0.6409 -0.4070 -0.1284
 5204SOL    HW126291   7.265   6.429   3.330  0.0234  0.8585 -0.5841
 5204SOL    HW226292   7.296   6.285   3.259 -1.6237 -0.2909  0.9746
 5205SOL     OW26293   1.266   5.578   2.610  0.5763  0.6853  0.2918
 5205SOL    HW126294   1.272   5.489   2.567  1.4809  1.6221 -1.5724
 5205SOL    HW226295   1.296   5.572   2.705  0.7022 -0.9548  0.1511
 5206SOL     OW26296   3.307   8.629   2.822  0.7081 -0.0527  0.0880
 5206SOL    HW126297   3.386   8.689   2.809  0.3252  0.0453 -1.8989
 5206SOL    HW226298   3.282   8.586   2.735 -1.2061 -0.3644  0.7555
 5207SOL     OW26299   9.903   9.716   2.303 -0.2763 -0.2470 -0.5623
 5207SOL    HW126300   9.961   9.766   2.239 -0.8721  1.6488  0.3399
 5207SOL    HW226301   9.954   9.697   2.386  0.0598 -1.4675 -1.0426
 5208SOL     OW26302   1.789   5.056   2.133 -0.5273  0.3157 -0.0660
 5208SOL    HW126303   1.717   5.099   2.188 -0.9803 -1.7067  0.9838
 5208SOL    HW226304   1.864   5.028   2.192 -0.6099 -1.0675 -0.5910
 5209SOL     OW26305   0.263   4.206   3.227  0.5975  0.1435 -0.0194
 5209SOL    HW126306   0.266   4.288   3.285 -0.1822 -0.0689  0.3335
 5209SOL    HW226307   0.171   4.167   3.230  0.4330  0.3591 -1.7406
 5210SOL     OW26308   0.126   0.039   3.903 -0.1080  0.3272  0.1432
 5210SOL    HW126309   0.098   0.107   3.835 -0.4732  0.4696  0.4368
 5210SOL    HW226310   0.225   0.043   3.915 -0.2856  1.7866  1.2070
 5211SOL     OW26311   3.589   2.401   1.955  0.4691 -0.5920 -0.0620
 5211SOL    HW126312   3.668   2.376   1.899 -0.2193 -1.7155 -0.5517
 5211SOL    HW226313   3.508   2.350   1.923 -0.4508  0.5457  0.4294
 5212SOL     OW26314   7.930   5.022   4.191  0.2766 -0.0797 -0.0150
 5212SOL    HW126315   7.886   4.937   4.161 -0.3555  0.3551 -0.3366
 5212SOL    HW226316   7.863   5.078   4.240  0.1194  1.1617 -1.6355
 5213SOL     OW26317   8.331   1.281   1.775 -0.2966  0.1417 -0.4612
 5213SOL    HW126318   8.425   1.251   1.790 -0.1371  0.6758 -0.3651
 5213SOL    HW226319   8.313   1.289   1.677 -0.3315 -0.2315 -0.4870
 5214SOL     OW26320   8.490   3.462   2.166  0.0617 -0.4123 -0.3179
 5214SOL    HW126321   8.395   3.462   2.198  0.5926 -0.4441  1.3094
 5214SOL    HW226322   8.524   3.368   2.159 -0.1416 -0.4226 -1.3027
 5215SOL     OW26323   1.539   9.682   3.335 -0.2815 -0.1834 -0.2629
 5215SOL    HW126324   1.578   9.624   3.408 -1.3975  0.7536  1.1118
 5215SOL    HW226325   1.613   9.714   3.276  1.0366  1.2261  2.0574
 5216SOL     OW26326   3.472   6.275   1.108  0.1765 -0.2020  0.1048
 5216SOL    HW126327   3.464   6.254   1.011 -0.1852 -0.6642  0.2312
 5216SOL    HW226328   3.383   6.261   1.152 -0.2702  2.2617  0.0678
 5217SOL     OW26329   5.247   0.444   4.173 -0.2970  0.0629 -0.0033
 5217SOL    HW126330   5.200   0.530   4.194 -1.3661 -0.7015  0.7780
 5217SOL    HW226331   5.272   0.443   4.077 -1.8481  0.5211 -0.4327
 5218SOL     OW26332   1.838   0.660   2.365  0.1884 -0.7020  0.6528
 5218SOL    HW126333   1.885   0.574   2.343  2.3492  0.8060 -0.8437
 5218SOL    HW226334   1.904   0.735   2.363 -2.0653  1.3053 -0.2732
 5219SOL     OW26335   7.438   8.704   3.631 -0.3441 -0.1110 -0.4742
 5219SOL    HW126336   7.407   8.703   3.536  0.6532  1.6870 -0.8445
 5219SOL    HW226337   7.489   8.620   3.651 -0.0530 -0.2349 -1.7145
 5220SOL     OW26338   9.480   0.144   4.705 -0.0405 -0.1258  0.2151
 5220SOL    HW126339   9.385   0.158   4.732 -0.1904 -0.7553  0.0245
 5220SOL    HW226340   9.498   0.046   4.700 -0.4982 -0.0594 -3.7058
 5221SOL     OW26341   8.030   2.143   4.221 -0.2834  0.0236  0.3783
 5221SOL    HW126342   7.983   2.076   4.278 -1.0331 -0.3541 -0.6552
 5221SOL    HW226343   8.060   2.099   4.136  1.6712  0.3385  0.8753
 5222SOL     OW26344   3.836   8.311   2.035  0.1977 -0.3134  0.3602
 5222SOL    HW126345   3.888   8.267   1.962 -1.2311 -1.7352  0.1700
 5222SOL    HW226346   3.892   8.315   2.118  1.3291  0.0537 -0.4079
 5223SOL     OW26347   0.906   2.623   0.756 -0.4459  0.4023  0.1644
 5223SOL    HW126348   0.942   2.633   0.849 -0.6130  1.9880  0.0796
 5223SOL    HW226349   0.807   2.607   0.761 -0.1741 -1.2663  0.3105
 5224SOL     OW26350   0.846   7.344   4.349 -0.3405  0.3267 -0.3731
 5224SOL    HW126351   0.843   7.349   4.449  1.3291 -0.1376 -0.2954
 5224SOL    HW226352   0.838   7.249   4.320 -3.4253  0.6563 -0.8118
 5225SOL     OW26353   5.806   1.295   2.634  0.2597  0.4293 -0.8361
 5225SOL    HW126354   5.790   1.202   2.666  2.0123  0.3796 -0.0077
 5225SOL    HW226355   5.826   1.354   2.712 -0.5622  1.4521 -1.3789
 5226SOL     OW26356   4.048   6.375   2.721 -0.1003 -0.0558 -0.3602
 5226SOL    HW126357   4.093   6.338   2.802 -0.2122  0.1765 -0.1895
 5226SOL    HW226358   4.103   6.356   2.640  0.3757  0.3442 -0.1347
 5227SOL     OW26359   8.139   4.623   2.767  0.7742 -0.5249 -0.1751
 5227SOL    HW126360   8.176   4.570   2.691 -0.2467 -0.7037 -0.5503
 5227SOL    HW226361   8.167   4.719   2.757  0.4043 -0.4953 -0.9265
 5228SOL     OW26362   9.447   2.711   4.028 -0.2617  0.1015 -0.1745
 5228SOL    HW126363   9.440   2.664   3.940  1.1464  0.9426 -0.7434
 5228SOL    HW226364   9.468   2.645   4.100  3.0211  0.0174 -1.1661
 5229SOL     OW26365   1.290   1.056   1.259 -0.1360  0.0191 -0.8494
 5229SOL    HW126366   1.234   0.974   1.271 -1.6204  1.1986  0.6240
 5229SOL    HW226367   1.297   1.079   1.162  0.9827 -2.2896 -1.3504
 5230SOL     OW26368   9.503   5.084   2.825 -0.5187  0.2909 -0.4407
 5230SOL    HW126369   9.475   5.092   2.730  0.8296  1.5995 -0.7508
 5230SOL    HW226370   9.583   5.142   2.841 -0.5415 -0.1563  1.4097
 5231SOL     OW26371   0.184   6.618   3.958 -0.3067 -0.1068  0.4491
 5231SOL    HW126372   0.125   6.600   4.036 -0.4068 -1.6348  0.0346
 5231SOL    HW226373   0.130   6.614   3.874 -0.2239  1.6489  0.3014
 5232SOL     OW26374   8.510   6.701   4.024 -0.3386  0.4672 -0.3478
 5232SOL    HW126375   8.557   6.658   3.947 -1.2543  0.2613 -0.7997
 5232SOL    HW226376   8.413   6.677   4.022 -0.2914  0.1146  1.1197
 5233SOL     OW26377   7.545   7.046   2.317  0.0567 -0.5289 -0.4064
 5233SOL    HW126378   7.457   7.001   2.330  0.4893 -1.4737 -0.6691
 5233SOL    HW226379   7.614   7.000   2.373  0.4977 -0.1429 -0.6265
 5234SOL     OW26380   8.659   3.077   2.415  0.2981  0.8006 -0.4648
 5234SOL    HW126381   8.620   2.994   2.376  2.0644 -0.1594 -0.2479
 5234SOL    HW226382   8.737   3.106   2.359  0.9301  1.1629  0.5848
 5235SOL     OW26383   1.351   1.214   1.891 -0.7782 -0.1065 -0.4601
 5235SOL    HW126384   1.388   1.263   1.970 -1.8186 -0.4567  0.2524
 5235SOL    HW226385   1.251   1.219   1.893 -0.8412 -1.0685 -1.1526
 5236SOL     OW26386   8.669   0.521   1.304 -0.0182 -0.0397  0.4874
 5236SOL    HW126387   8.708   0.572   1.381 -0.5423  0.3667  0.4891
 5236SOL    HW226388   8.603   0.454   1.338  0.3424 -0.4150  0.4509
 5237SOL     OW26389   8.102   4.291   4.506  0.1243  0.4110  0.4680
 5237SOL    HW126390   8.045   4.356   4.555 -2.1844  0.9994 -2.8088
 5237SOL    HW226391   8.115   4.323   4.412  1.1733 -2.5559 -0.4478
 5238SOL     OW26392   2.702   1.108   1.805 -0.0996 -0.3217 -1.0697
 5238SOL    HW126393   2.681   1.069   1.715  1.8570  1.3880 -2.3046
 5238SOL    HW226394   2.698   1.035   1.874  0.6945 -2.1467 -2.8840
 5239SOL     OW26395   1.710   8.442   4.265  0.3488 -0.1122  0.4547
 5239SOL    HW126396   1.789   8.500   4.283  0.0415  0.5693 -0.3412
 5239SOL    HW226397   1.669   8.468   4.178 -0.2312 -1.0460  0.4404
 5240SOL     OW26398   9.908   5.552   1.313  0.1828  0.1988  0.1653
 5240SOL    HW126399   9.921   5.557   1.214  0.1154  0.7739  0.1858
 5240SOL    HW226400   9.821   5.505   1.332  1.1875 -1.7818 -0.0011
 5241SOL     OW26401   0.484   5.860   2.513 -0.1598 -0.4131  0.5159
 5241SOL    HW126402   0.551   5.930   2.536 -0.6852  1.5910 -3.5334
 5241SOL    HW226403   0.527   5.789   2.458 -1.3322  1.1297 -2.5158
 5242SOL     OW26404   1.396   7.617   3.339 -0.0203 -0.0946  0.7552
 5242SOL    HW126405   1.333   7.626   3.261  0.1621 -0.8884  0.5116
 5242SOL    HW226406   1.487   7.651   3.312 -0.5330  1.8687  1.3760
 5243SOL     OW26407   1.399   4.402   0.311 -0.5423  0.4395 -0.3092
 5243SOL    HW126408   1.462   4.480   0.306 -1.5654  1.2472 -0.6573
 5243SOL    HW226409   1.309   4.434   0.339 -0.7863 -0.7332  0.2860
 5244SOL     OW26410   1.202   8.648   3.380 -0.0417 -0.2253  0.2190
 5244SOL    HW126411   1.157   8.576   3.432  1.8100 -1.0246  0.7233
 5244SOL    HW226412   1.300   8.649   3.400  0.3326  0.9386 -1.5013
 5245SOL     OW26413   2.990   1.617   0.718  0.0901 -0.3931 -0.3472
 5245SOL    HW126414   2.951   1.701   0.756  3.9897  1.6080 -0.4970
 5245SOL    HW226415   2.968   1.611   0.621 -1.0535 -0.0455 -0.1087
 5246SOL     OW26416   2.443   8.566   3.098  0.0239 -0.0861  0.3811
 5246SOL    HW126417   2.416   8.631   3.028 -0.0875  0.6576  1.1032
 5246SOL    HW226418   2.363   8.515   3.129  0.4843 -2.2238 -1.8272
 5247SOL     OW26419   8.842   9.051   3.688 -0.3807 -0.0049  0.6891
 5247SOL    HW126420   8.810   8.989   3.616 -0.8469 -1.7542  2.3653
 5247SOL    HW226421   8.941   9.067   3.677 -0.2144 -1.2194  0.3417
 5248SOL     OW26422   9.544   2.576   0.476  0.3334 -0.4283 -0.7886
 5248SOL    HW126423   9.610   2.504   0.452 -0.2180 -1.1156 -0.2605
 5248SOL    HW226424   9.587   2.642   0.537  1.0621  0.0966 -1.8494
 5249SOL     OW26425   3.596   0.867   0.229 -0.2230  0.7959 -0.2679
 5249SOL    HW126426   3.655   0.943   0.254  0.1447  0.8479 -1.2641
 5249SOL    HW226427   3.625   0.830   0.140 -1.2141  0.3412 -0.4087
 5250SOL     OW26428   9.650   7.371   3.666  0.3118 -0.1834  0.7239
 5250SOL    HW126429   9.720   7.316   3.622 -1.1455 -0.9127 -0.7290
 5250SOL    HW226430   9.568   7.316   3.680 -0.3776  0.9759  1.3570
 5251SOL     OW26431   0.351   4.815   3.894  0.4752  0.0378  0.5721
 5251SOL    HW126432   0.366   4.851   3.986 -1.8941 -0.3442  1.1315
 5251SOL    HW226433   0.294   4.878   3.842  0.1127 -0.7311  0.0343
 5252SOL     OW26434   1.480   8.350   4.058 -0.0503 -0.4161 -0.2070
 5252SOL    HW126435   1.486   8.251   4.067 -1.1592 -0.4303  0.4828
 5252SOL    HW226436   1.443   8.389   4.143 -2.7405  0.2736 -1.6223
 5253SOL     OW26437   0.694   2.286   4.343  0.0585  0.1925 -0.3055
 5253SOL    HW126438   0.636   2.367   4.340 -0.7478 -0.3281  1.2601
 5253SOL    HW226439   0.790   2.315   4.337 -0.2917  1.0814 -2.2757
 5254SOL     OW26440   0.602   9.225   1.325  0.2296  0.0050  0.3521
 5254SOL    HW126441   0.671   9.165   1.364  0.7237  0.3239 -0.0242
 5254SOL    HW226442   0.604   9.314   1.371 -0.8214 -0.4159  1.2322
 5255SOL     OW26443   8.527   9.697   4.381  0.2895 -0.3485  0.6153
 5255SOL    HW126444   8.571   9.741   4.303 -0.6011 -1.0476 -0.3011
 5255SOL    HW226445   8.590   9.696   4.459  0.9809  0.8602  0.0801
 5256SOL     OW26446   3.025   5.111   2.862  0.0873 -0.4104 -0.3456
 5256SOL    HW126447   2.931   5.077   2.860  0.0152 -0.3536  1.4399
 5256SOL    HW226448   3.087   5.034   2.879  0.2458 -0.2359 -0.1435
 5257SOL     OW26449   2.004   2.957   1.251 -0.0055 -0.0512  0.3093
 5257SOL    HW126450   1.937   3.030   1.242  0.8684  0.5869 -1.3812
 5257SOL    HW226451   1.973   2.889   1.318 -0.7136  1.9817  2.0690
 5258SOL     OW26452   2.747   9.684   3.329 -0.3100  0.1347  0.0579
 5258SOL    HW126453   2.844   9.707   3.338 -0.4605  0.7983 -0.0479
 5258SOL    HW226454   2.703   9.748   3.267 -1.0824  0.5580  1.0285
 5259SOL     OW26455   0.970   6.474   4.202  0.2688 -0.4422 -0.4736
 5259SOL    HW126456   1.044   6.522   4.155  1.0976 -1.2481 -0.0050
 5259SOL    HW226457   0.926   6.410   4.138 -0.6466  0.7131 -1.0160
 5260SOL     OW26458   3.421   3.820   1.204 -0.0167 -0.1739  0.2368
 5260SOL    HW126459   3.395   3.888   1.135 -2.1286 -1.1989 -0.0193
 5260SOL    HW226460   3.341   3.764   1.227  1.2315 -1.3259  1.8483
 5261SOL     OW26461   7.901   0.352   4.699  0.1541  0.2030  0.1401
 5261SOL    HW126462   7.907   0.351   4.799 -0.5306  0.0459  0.1820
 5261SOL    HW226463   7.859   0.266   4.667  1.6727 -0.3644 -0.3723
 5262SOL     OW26464   5.788   7.233   3.216 -0.2404 -1.2436  0.2920
 5262SOL    HW126465   5.774   7.295   3.293  1.7708  1.2337 -1.2523
 5262SOL    HW226466   5.867   7.174   3.234  0.6445 -0.2001 -0.1411
 5263SOL     OW26467   5.763   6.632   2.626  0.0657 -0.3596  0.0180
 5263SOL    HW126468   5.749   6.535   2.606  2.3652 -0.5019 -1.1754
 5263SOL    HW226469   5.808   6.675   2.547 -0.7334  1.6343  0.6266
 5264SOL     OW26470   2.454   5.080   0.734 -0.0958 -0.1644 -0.4253
 5264SOL    HW126471   2.434   5.173   0.765 -0.1175  0.0917 -1.1901
 5264SOL    HW226472   2.387   5.017   0.774 -1.6284  0.5010 -1.8720
 5265SOL     OW26473   4.226   9.783   2.324 -0.1130  0.5125 -0.3146
 5265SOL    HW126474   4.300   9.753   2.385 -0.6255  1.7804  0.9721
 5265SOL    HW226475   4.189   9.870   2.357 -0.0483  1.5132 -2.7620
 5266SOL     OW26476   3.126   9.179   3.850  0.3715  0.1031 -0.5108
 5266SOL    HW126477   3.206   9.148   3.903 -1.4285 -1.7454  1.2452
 5266SOL    HW226478   3.137   9.151   3.754  1.1328 -1.5881  0.0365
 5267SOL     OW26479   8.193   6.671   3.650  0.6923  0.5877 -0.0666
 5267SOL    HW126480   8.160   6.712   3.735  0.1732 -0.8905  0.4517
 5267SOL    HW226481   8.116   6.641   3.595  1.0571  0.7658 -0.6807
 5268SOL     OW26482   4.419   8.408   0.391  0.0843  0.5000  0.2172
 5268SOL    HW126483   4.432   8.404   0.490  2.2729 -0.5475 -0.0750
 5268SOL    HW226484   4.325   8.382   0.368  0.0628 -1.0203  1.9138
 5269SOL     OW26485   6.202   0.226   1.144  0.2414  0.2646 -0.3094
 5269SOL    HW126486   6.203   0.217   1.243 -0.1375  0.2929 -0.3021
 5269SOL    HW226487   6.138   0.159   1.105 -0.4627  1.0113 -0.4529
 5270SOL     OW26488   2.478   5.610   0.698  0.3702  0.2968  0.2584
 5270SOL    HW126489   2.494   5.699   0.741 -0.1899  0.7151 -0.3789
 5270SOL    HW226490   2.533   5.603   0.614 -0.1356  0.3422 -0.0815
 5271SOL     OW26491   9.218   6.120   2.745  0.0957  0.2401  0.8730
 5271SOL    HW126492   9.208   6.203   2.691  0.7976  1.4087  2.5187
 5271SOL    HW226493   9.141   6.112   2.809 -0.0843 -0.4977  0.5726
 5272SOL     OW26494   9.610   4.458   3.638 -0.1473  0.4891  0.3909
 5272SOL    HW126495   9.633   4.369   3.677 -1.2270 -0.3936 -0.9263
 5272SOL    HW226496   9.540   4.447   3.567 -1.0905  2.5225  0.9484
 5273SOL     OW26497   8.088   6.855   0.964 -0.4789  0.0606 -0.4242
 5273SOL    HW126498   8.076   6.794   1.042  0.9315  0.9171  0.4715
 5273SOL    HW226499   8.182   6.850   0.932 -0.6921  0.7969 -1.1709
 5274SOL     OW26500   2.314   7.803   3.655 -0.1851 -0.0747  0.0572
 5274SOL    HW126501   2.280   7.887   3.612  0.6447 -0.1933 -0.8469
 5274SOL    HW226502   2.370   7.752   3.589 -0.1146 -0.9937  0.8213
 5275SOL     OW26503   1.510   6.122   0.519 -0.0253  0.2962 -0.5595
 5275SOL    HW126504   1.541   6.185   0.447  1.5159 -0.5921 -0.7068
 5275SOL    HW226505   1.469   6.175   0.593  0.2434  1.3981 -1.1705
 5276SOL     OW26506   2.516   9.617   1.033  0.4980  0.0332 -0.0318
 5276SOL    HW126507   2.464   9.532   1.028  1.1098 -0.2008 -3.5719
 5276SOL    HW226508   2.590   9.607   1.099  1.4281 -2.7038 -1.4263
 5277SOL     OW26509   9.350   0.195   1.353 -0.3750  0.1019 -0.2669
 5277SOL    HW126510   9.383   0.288   1.331  0.2404 -0.4810 -1.8983
 5277SOL    HW226511   9.252   0.198   1.370 -0.5269  0.9151 -1.2161
 5278SOL     OW26512   3.951   1.858   4.754 -0.2342  0.3329 -0.1307
 5278SOL    HW126513   3.852   1.848   4.753 -0.3525  1.4156 -1.2134
 5278SOL    HW226514   3.994   1.769   4.767 -1.3047 -0.5152 -2.1596
 5279SOL     OW26515   0.875   4.780   3.071  0.0255  0.2296 -0.2669
 5279SOL    HW126516   0.795   4.797   3.014 -0.9391  1.5988  1.4531
 5279SOL    HW226517   0.868   4.689   3.112 -0.8276  0.4972  0.1827
 5280SOL     OW26518   9.972   8.615   2.209 -0.6300  0.1415 -0.1844
 5280SOL    HW126519  10.022   8.695   2.178 -1.1189  0.4803 -0.0972
 5280SOL    HW226520   9.900   8.642   2.274  1.0184 -0.6419  2.0509
 5281SOL     OW26521   9.738   3.007   1.889  0.2389  0.0398  0.0155
 5281SOL    HW126522   9.736   3.063   1.806  0.9905  0.4336  0.2507
 5281SOL    HW226523   9.773   3.062   1.965  2.6464 -1.2243 -0.1258
 5282SOL     OW26524   2.441   6.267   4.496 -0.6536 -0.2861  0.4394
 5282SOL    HW126525   2.486   6.316   4.421 -1.4615 -0.8322 -0.4207
 5282SOL    HW226526   2.508   6.209   4.543 -0.2712 -0.4472 -0.2940
 5283SOL     OW26527   1.719   7.485   4.201 -0.0894  0.0117 -0.4843
 5283SOL    HW126528   1.748   7.389   4.198 -1.8575 -0.5454 -0.7076
 5283SOL    HW226529   1.667   7.501   4.285  0.6525  0.9088 -0.1964
 5284SOL     OW26530   1.383   6.477   3.419 -0.6946  0.5559 -0.4513
 5284SOL    HW126531   1.438   6.506   3.497 -0.8728  1.6134 -0.7018
 5284SOL    HW226532   1.296   6.527   3.419 -0.0025  1.8377 -2.2316
 5285SOL     OW26533   7.012   9.961   1.326  0.2993 -0.6533 -0.0149
 5285SOL    HW126534   6.967   9.952   1.237 -0.9079 -1.4733  0.6829
 5285SOL    HW226535   7.083  10.032   1.319 -1.3607  0.9697 -1.0014
 5286SOL     OW26536   2.702   6.449   1.758  0.0921 -0.0112  0.4575
 5286SOL    HW126537   2.798   6.468   1.737  0.0803  1.2964  1.5231
 5286SOL    HW226538   2.665   6.523   1.814 -1.5036 -0.5786  0.1728
 5287SOL     OW26539   9.455   3.315   1.657 -0.0892  0.0692 -0.4223
 5287SOL    HW126540   9.524   3.350   1.594 -0.1752  0.2567 -0.4128
 5287SOL    HW226541   9.402   3.244   1.611 -1.2537  1.3759 -1.1287
 5288SOL     OW26542   1.950   3.666   0.536  0.0952  0.1206 -0.1538
 5288SOL    HW126543   1.974   3.674   0.439  0.4362  0.4664 -0.0421
 5288SOL    HW226544   2.033   3.673   0.591  0.1221 -1.7659  0.0787
 5289SOL     OW26545   5.592   9.643   3.013 -0.4732  0.2385 -0.3123
 5289SOL    HW126546   5.556   9.556   3.047  0.8867 -0.2011  0.0483
 5289SOL    HW226547   5.688   9.631   2.988 -0.1608  1.7374  0.1331
 5290SOL     OW26548   2.016   5.408   0.034  0.3820 -0.7819 -0.0663
 5290SOL    HW126549   2.061   5.356   0.107  1.0059 -0.2853 -0.0969
 5290SOL    HW226550   1.998   5.347  -0.043 -0.2204 -1.2930  0.4774
 5291SOL     OW26551   1.154   1.202   0.780 -0.1867  0.1874  0.0411
 5291SOL    HW126552   1.175   1.268   0.707  0.5658  1.6771  1.5766
 5291SOL    HW226553   1.207   1.118   0.764  0.2864  0.6513 -0.9137
 5292SOL     OW26554   0.697   0.520   3.570  0.1601 -0.3694  0.0452
 5292SOL    HW126555   0.632   0.583   3.527  1.8981  0.1993 -1.8235
 5292SOL    HW226556   0.725   0.557   3.658 -0.7761  0.1936  0.1174
 5293SOL     OW26557   2.325   9.282   4.080 -0.1342 -0.0228  0.6340
 5293SOL    HW126558   2.371   9.356   4.130  0.6154 -0.2453  0.2721
 5293SOL    HW226559   2.393   9.221   4.040 -0.7471 -0.3621  0.1052
 5294SOL     OW26560   3.024   8.590   4.614 -0.4679  0.0499 -0.3643
 5294SOL    HW126561   2.928   8.570   4.593 -0.4712 -0.6714  0.3047
 5294SOL    HW226562   3.070   8.623   4.532 -0.6443 -2.0509 -1.3574
 5295SOL     OW26563   8.768   0.906   0.686 -0.0861  0.1020 -0.2189
 5295SOL    HW126564   8.720   0.992   0.707  0.8592  0.8244 -0.9578
 5295SOL    HW226565   8.843   0.893   0.751 -0.1749 -0.1139 -0.1618
 5296SOL     OW26566   2.089   7.868   3.340  0.3050 -0.2201  0.4349
 5296SOL    HW126567   2.001   7.840   3.377 -0.5317  0.4126 -1.0292
 5296SOL    HW226568   2.124   7.945   3.393  0.3033 -0.9110  1.4439
 5297SOL     OW26569   1.050   3.396   0.081  0.2098  0.0618  0.2821
 5297SOL    HW126570   1.146   3.368   0.073  0.4806  0.8223  0.7672
 5297SOL    HW226571   1.045   3.480   0.136 -1.0450 -1.9314  3.3239
 5298SOL     OW26572   3.494   1.834   3.740  0.2217  0.0161  0.2780
 5298SOL    HW126573   3.413   1.842   3.682 -0.1315  1.0272  0.9113
 5298SOL    HW226574   3.565   1.785   3.690 -1.2223 -2.0612  0.1713
 5299SOL     OW26575   9.103   5.106   0.473  0.5243 -0.1775  0.2366
 5299SOL    HW126576   9.151   5.113   0.386 -1.1133  1.8185 -0.5722
 5299SOL    HW226577   9.035   5.033   0.468 -0.3316  0.6516 -0.5911
 5300SOL     OW26578   8.045   1.246   2.195 -0.0924 -0.4415 -0.3834
 5300SOL    HW126579   7.945   1.245   2.204 -0.0480 -1.8881  0.0903
 5300SOL    HW226580   8.084   1.178   2.257  1.1720 -0.0678 -0.7723
 5301SOL     OW26581   2.542   1.482   1.209 -0.0687 -0.1767  0.0230
 5301SOL    HW126582   2.550   1.577   1.240  0.7610  0.0650 -0.9072
 5301SOL    HW226583   2.504   1.426   1.283 -0.4018  0.8438  0.6330
 5302SOL     OW26584   6.223   0.304   2.532 -0.5489  0.1131 -0.0154
 5302SOL    HW126585   6.124   0.315   2.539 -0.4394  1.1210  0.0324
 5302SOL    HW226586   6.244   0.212   2.499 -1.4534 -0.5720  1.2464
 5303SOL     OW26587   2.698   3.183   1.443  0.2345  0.3653 -0.5255
 5303SOL    HW126588   2.598   3.184   1.441  0.2298  0.8045 -0.1497
 5303SOL    HW226589   2.732   3.118   1.376 -0.3382 -0.9070  0.3873
 5304SOL     OW26590   9.628   6.637   3.236  0.4057 -0.5764 -0.4964
 5304SOL    HW126591   9.642   6.675   3.145 -0.3656 -2.4115 -1.4127
 5304SOL    HW226592   9.533   6.650   3.265  0.4143 -0.8233 -0.3506
 5305SOL     OW26593   0.690   0.723   4.248  0.5751 -0.3680 -0.0975
 5305SOL    HW126594   0.612   0.660   4.244 -1.5075  2.1366 -0.6085
 5305SOL    HW226595   0.695   0.764   4.340  0.4797  0.4315 -0.4422
 5306SOL     OW26596   3.244   9.768   2.596  0.5425  0.6653 -0.1453
 5306SOL    HW126597   3.197   9.845   2.553  1.0217  1.0391  0.0063
 5306SOL    HW226598   3.195   9.743   2.680  0.6574  1.1053  0.0529
 5307SOL     OW26599   7.513   8.140   0.848 -0.1468  0.2080  0.4556
 5307SOL    HW126600   7.538   8.230   0.812  0.5160  0.5147  1.6286
 5307SOL    HW226601   7.596   8.088   0.866 -0.4502  0.0654  1.5036
 5308SOL     OW26602   8.232   2.660   3.312  0.4388 -0.3753  0.5363
 5308SOL    HW126603   8.230   2.594   3.237  0.4323  1.5575 -1.2151
 5308SOL    HW226604   8.316   2.714   3.307 -0.8602  1.6638  0.2344
 5309SOL     OW26605   0.038   1.454   1.673  0.2664 -0.1431  0.0358
 5309SOL    HW126606   0.047   1.499   1.762 -1.5293 -1.0569  0.7073
 5309SOL    HW226607   0.099   1.498   1.607  0.0467  1.9326  1.1772
 5310SOL     OW26608   4.163   8.872   2.942  0.3515  0.7178 -0.3517
 5310SOL    HW126609   4.194   8.889   3.036  1.3638  1.5803 -0.8262
 5310SOL    HW226610   4.152   8.959   2.894  0.1234  0.2685 -1.1192
 5311SOL     OW26611   4.748   4.388   1.409  0.0826 -0.1689 -0.0688
 5311SOL    HW126612   4.650   4.408   1.408 -0.5267 -2.8966  1.1221
 5311SOL    HW226613   4.776   4.358   1.318 -0.7632 -1.9246  0.2335
 5312SOL     OW26614   8.142   8.297   3.520 -0.1449 -0.1775 -0.1815
 5312SOL    HW126615   8.188   8.229   3.576  1.4662  1.0442  0.0212
 5312SOL    HW226616   8.133   8.382   3.571 -0.0338  0.4802 -1.2389
 5313SOL     OW26617   1.681   9.977   2.276 -0.2516 -0.0212  0.0971
 5313SOL    HW126618   1.770   9.959   2.318 -1.2722  0.8236  2.7120
 5313SOL    HW226619   1.610   9.929   2.326 -1.1849 -1.8491 -2.8284
 5314SOL     OW26620   8.322   3.650   4.669 -0.4239  0.4856 -0.1134
 5314SOL    HW126621   8.325   3.750   4.676 -1.5892  0.5014  0.2245
 5314SOL    HW226622   8.242   3.623   4.615 -1.1906 -0.3374  1.3984
 5315SOL     OW26623   2.644   7.583   1.073 -0.1317 -0.0781 -0.8315
 5315SOL    HW126624   2.629   7.617   0.980 -0.2883  0.5704 -0.5779
 5315SOL    HW226625   2.717   7.515   1.072 -1.6618 -1.7577 -1.7651
 5316SOL     OW26626   3.486   9.328   4.058 -0.6417  0.1021  0.0552
 5316SOL    HW126627   3.583   9.330   4.037 -0.5318 -0.7817  0.4702
 5316SOL    HW226628   3.463   9.405   4.118 -0.5416  1.3313 -1.4681
 5317SOL     OW26629   2.794   2.418   2.795  0.5531 -0.9110 -0.1934
 5317SOL    HW126630   2.727   2.353   2.832 -1.5023  1.7963  1.0431
 5317SOL    HW226631   2.863   2.438   2.865  0.4985 -0.8536 -0.1557
 5318SOL     OW26632   0.449   8.719   0.762  0.4347 -0.1512 -0.3382
 5318SOL    HW126633   0.527   8.661   0.785  0.9114  0.5273 -0.2165
 5318SOL    HW226634   0.476   8.815   0.771 -0.7467  0.0804  0.7740
 5319SOL     OW26635   9.594   1.982   3.184 -0.5994 -0.2087  0.5258
 5319SOL    HW126636   9.606   1.984   3.085 -1.2702  1.4280  0.4642
 5319SOL    HW226637   9.498   1.995   3.206 -0.4433 -0.5106  1.4121
 5320SOL     OW26638   0.177   2.468   0.033 -0.0377  0.3428  0.5147
 5320SOL    HW126639   0.113   2.405  -0.010  0.5468  0.8254 -1.1363
 5320SOL    HW226640   0.249   2.417   0.080 -1.4435 -0.1972  2.1252
 5321SOL     OW26641   4.517   7.115   1.324  0.4065  0.2029 -0.3200
 5321SOL    HW126642   4.450   7.147   1.256  1.5190 -1.2502 -2.1703
 5321SOL    HW226643   4.479   7.037   1.374  0.0858  0.4129 -0.2385
 5322SOL     OW26644   9.631   9.644   0.147 -0.1427 -0.0446 -0.5449
 5322SOL    HW126645   9.677   9.573   0.092  0.1086 -0.4811  0.2263
 5322SOL    HW226646   9.532   9.628   0.145  0.0850 -2.2616  2.1012
 5323SOL     OW26647   7.874   0.830   1.401  0.9461  0.4244 -0.4955
 5323SOL    HW126648   7.824   0.751   1.365  0.1938 -0.9245  3.2655
 5323SOL    HW226649   7.810   0.892   1.446  2.2398  0.1846  1.7448
 5324SOL     OW26650   0.520   4.102   2.260  0.0537 -0.2332 -0.0308
 5324SOL    HW126651   0.527   4.083   2.358  0.1206 -0.8352 -0.1496
 5324SOL    HW226652   0.451   4.173   2.245 -0.0106 -0.1904  0.4446
 5325SOL     OW26653   3.778   7.678   1.107 -0.2195  0.6857  0.0644
 5325SOL    HW126654   3.844   7.606   1.084 -0.7132  0.0476  0.6205
 5325SOL    HW226655   3.823   7.767   1.101  0.0219  0.4593 -2.0985
 5326SOL     OW26656   6.121   7.667   2.490 -0.0922  0.4178  0.3784
 5326SOL    HW126657   6.137   7.646   2.393  0.3877 -0.0668  0.5594
 5326SOL    HW226658   6.034   7.627   2.519  0.8082 -1.3468  0.7174
 5327SOL     OW26659   2.495   3.011   0.285 -0.1644 -0.2826 -0.6663
 5327SOL    HW126660   2.439   3.086   0.320 -0.9685 -1.6903  1.0921
 5327SOL    HW226661   2.521   2.950   0.359 -2.8460 -3.9617 -2.5789
 5328SOL     OW26662   9.628   6.990   4.710  0.8019 -0.1902  0.3201
 5328SOL    HW126663   9.695   6.966   4.640 -0.0788 -2.7266  0.2926
 5328SOL    HW226664   9.597   7.084   4.696  1.2726 -0.3775 -2.1754
 5329SOL     OW26665   4.579   1.959   2.424  0.3510 -0.1281 -0.0217
 5329SOL    HW126666   4.504   1.981   2.486 -0.5952  0.0098 -1.1947
 5329SOL    HW226667   4.665   1.987   2.465 -0.5231  2.7471 -0.0157
 5330SOL     OW26668   1.523   6.803   2.326 -0.1400  0.3542  0.0994
 5330SOL    HW126669   1.520   6.885   2.269  1.2789  0.1899 -0.2179
 5330SOL    HW226670   1.563   6.728   2.275 -2.2517 -0.8095  0.0793
 5331SOL     OW26671   4.536   0.172   2.212  0.1664  0.3711  0.4485
 5331SOL    HW126672   4.514   0.216   2.125 -0.5090  2.2961  1.5754
 5331SOL    HW226673   4.630   0.136   2.208  0.4374  1.1916 -0.7723
 5332SOL     OW26674   9.943   9.095   0.248  0.3367  0.1454  0.0513
 5332SOL    HW126675  10.007   9.089   0.324  2.4019 -1.1653 -1.7531
 5332SOL    HW226676   9.981   9.153   0.176  0.4467 -2.2475 -1.8889
 5333SOL     OW26677   3.781   3.734   3.685 -0.0827  0.1069  0.4951
 5333SOL    HW126678   3.749   3.655   3.633 -0.2512  0.7758 -0.4337
 5333SOL    HW226679   3.760   3.721   3.782 -1.5500 -0.2763  0.1390
 5334SOL     OW26680   4.564   0.646   1.573  0.1419 -0.2384  0.6142
 5334SOL    HW126681   4.494   0.575   1.580 -0.5126  0.4706  1.2973
 5334SOL    HW226682   4.641   0.622   1.632  0.0158 -0.4805  0.6811
 5335SOL     OW26683   9.500   9.964   0.682  0.6424 -0.2271  0.2173
 5335SOL    HW126684   9.525   9.909   0.762 -2.4929  1.2553  2.3252
 5335SOL    HW226685   9.528  10.058   0.697  1.1011 -0.1704 -0.9808
 5336SOL     OW26686   9.456   8.317   4.361  0.3151  0.1665 -0.0359
 5336SOL    HW126687   9.390   8.391   4.376  0.9930  1.1231 -1.6243
 5336SOL    HW226688   9.542   8.340   4.407  0.5638  0.4283 -0.6293
 5337SOL     OW26689   7.339   0.595   2.619  0.6348  0.5993  0.2625
 5337SOL    HW126690   7.379   0.653   2.690  1.2986  0.9667 -0.3930
 5337SOL    HW226691   7.349   0.499   2.645  1.1499  0.7220  0.5344
 5338SOL     OW26692   8.433   8.761   3.854  0.2014  0.5361 -0.2962
 5338SOL    HW126693   8.500   8.758   3.780  0.4630  1.0026 -0.0777
 5338SOL    HW226694   8.477   8.791   3.938 -0.1342  0.1714  0.0090
 5339SOL     OW26695   4.644   7.976   4.262 -0.2268 -0.4804 -0.1477
 5339SOL    HW126696   4.648   7.879   4.286  1.8974 -0.2657  0.4457
 5339SOL    HW226697   4.618   8.029   4.342 -1.7748 -0.5561 -0.5663
 5340SOL     OW26698   8.776   7.922   4.141  0.3143  0.1904  0.1401
 5340SOL    HW126699   8.698   7.882   4.093 -0.8216  0.1006  2.0243
 5340SOL    HW226700   8.743   7.978   4.217  2.1163 -0.5205  1.4526
 5341SOL     OW26701   2.922   5.909   1.124  0.0700  0.1459  0.4533
 5341SOL    HW126702   3.019   5.909   1.098 -0.1430 -0.2278 -0.3329
 5341SOL    HW226703   2.888   5.815   1.127 -0.6196  0.3539 -0.5751
 5342SOL     OW26704   6.648   8.309   1.971 -0.1086 -0.1519 -0.3452
 5342SOL    HW126705   6.551   8.314   1.946  0.0919  0.1290 -1.0690
 5342SOL    HW226706   6.701   8.368   1.910  0.3273  0.9467  1.0555
 5343SOL     OW26707   8.080   5.633   3.342  0.2719 -0.1548  0.1498
 5343SOL    HW126708   8.027   5.576   3.279  0.6493 -0.0438 -0.2682
 5343SOL    HW226709   8.018   5.684   3.401 -0.1133  0.9312 -1.1764
 5344SOL     OW26710   3.405   0.312   2.036 -0.1560  0.2826  0.5416
 5344SOL    HW126711   3.367   0.398   2.069 -0.5656  1.3814 -2.6129
 5344SOL    HW226712   3.467   0.330   1.960 -0.6195 -2.2233 -0.4957
 5345SOL     OW26713   9.825   7.983   1.943  0.2327  0.1021 -0.5924
 5345SOL    HW126714   9.888   7.912   1.912 -1.8797 -1.7416 -0.8256
 5345SOL    HW226715   9.850   8.011   2.036  0.4833 -1.6769 -0.1121
 5346SOL     OW26716   4.944   0.377   0.618 -0.7059 -0.3176  0.1496
 5346SOL    HW126717   4.974   0.281   0.613  0.3509 -0.0097  0.4970
 5346SOL    HW226718   4.975   0.426   0.537 -0.9743 -0.1834  0.1258
 5347SOL     OW26719   3.139   7.645   1.069 -0.1777 -0.5818  0.5420
 5347SOL    HW126720   3.122   7.613   0.976 -0.4257  0.4532  0.2246
 5347SOL    HW226721   3.134   7.745   1.072 -0.9306 -0.6438  1.8174
 5348SOL     OW26722   3.810   1.337   4.527 -0.1032  0.0006  0.1716
 5348SOL    HW126723   3.868   1.274   4.475 -2.4958 -0.0205 -2.6505
 5348SOL    HW226724   3.861   1.420   4.548  0.8670  0.1624 -2.5884
 5349SOL     OW26725   7.705   3.085   4.666  0.1843  0.0540  0.1176
 5349SOL    HW126726   7.779   3.033   4.624 -0.1013 -0.0754 -0.2254
 5349SOL    HW226727   7.739   3.133   4.747  0.9504  1.0154 -0.7583
 5350SOL     OW26728   4.163   3.309   4.071 -0.1430  0.9715 -0.0734
 5350SOL    HW126729   4.225   3.387   4.063 -0.7378  1.5418  0.7960
 5350SOL    HW226730   4.189   3.254   4.150  0.0638  0.4717 -0.4865
 5351SOL     OW26731   0.168   0.474   2.228  0.5485 -0.2454 -0.4170
 5351SOL    HW126732   0.161   0.563   2.271  3.4246  0.5025 -1.3624
 5351SOL    HW226733   0.092   0.462   2.164 -0.0846  1.3548  0.0084
 5352SOL     OW26734   0.282   7.946   1.734 -0.3650 -0.5234  0.3314
 5352SOL    HW126735   0.317   8.040   1.731  0.7204 -0.9430 -0.6254
 5352SOL    HW226736   0.305   7.905   1.822  1.1870 -0.6456 -0.1254
 5353SOL     OW26737   8.677   7.219   3.190  0.0793  0.3329  0.0536
 5353SOL    HW126738   8.651   7.171   3.274  3.3987 -1.9159 -0.0894
 5353SOL    HW226739   8.750   7.285   3.210 -0.8581  1.5925 -0.6493
 5354SOL     OW26740   1.576   0.756   1.425 -0.1140 -0.5970  0.1326
 5354SOL    HW126741   1.512   0.787   1.495  2.3314  3.4245  0.7003
 5354SOL    HW226742   1.574   0.818   1.346  0.2912 -2.6260 -1.5313
 5355SOL     OW26743   3.798   1.215   0.873 -0.4017  0.0720 -0.5831
 5355SOL    HW126744   3.759   1.248   0.787 -0.1964 -0.8950 -1.0583
 5355SOL    HW226745   3.748   1.133   0.902  0.1679 -0.1677 -0.2897
 5356SOL     OW26746   2.168   7.264   2.426 -0.2954  0.6473 -0.4924
 5356SOL    HW126747   2.224   7.346   2.439  0.4677  0.3304 -1.7049
 5356SOL    HW226748   2.208   7.208   2.354 -1.6324 -0.0792 -0.6774
 5357SOL     OW26749   9.723   7.426   2.368  0.4582  0.7446 -0.5328
 5357SOL    HW126750   9.709   7.372   2.451 -2.5788  3.6544  0.9777
 5357SOL    HW226751   9.742   7.521   2.394 -0.8014  1.7570 -3.1596
 5358SOL     OW26752   2.255   9.731   2.161  0.3736  0.0278 -0.3064
 5358SOL    HW126753   2.266   9.813   2.105  3.5974 -0.3253 -0.3295
 5358SOL    HW226754   2.286   9.751   2.255 -0.9302 -0.5467  0.2521
 5359SOL     OW26755   1.506   6.736   3.952 -0.7899 -0.2756  0.1661
 5359SOL    HW126756   1.575   6.799   3.987  0.2986 -0.9680 -0.7136
 5359SOL    HW226757   1.510   6.650   4.002  1.3667 -1.5939 -2.1599
 5360SOL     OW26758   8.335   4.853   4.692 -0.0358  0.0809  0.2965
 5360SOL    HW126759   8.428   4.850   4.656  0.0572 -0.6711  0.5807
 5360SOL    HW226760   8.329   4.794   4.773 -0.6410  0.4928  0.5554
 5361SOL     OW26761   1.797   2.707   3.666  0.5039  0.1260  0.1551
 5361SOL    HW126762   1.742   2.708   3.582  1.9355 -1.2006 -0.8275
 5361SOL    HW226763   1.876   2.768   3.654  1.4332 -1.0930  0.0283
 5362SOL     OW26764   0.745   0.858   0.564  0.3397 -0.5966  0.5116
 5362SOL    HW126765   0.819   0.840   0.629  2.1781 -1.1408 -1.6900
 5362SOL    HW226766   0.679   0.784   0.567  1.1556 -1.3196  0.7281
 5363SOL     OW26767   1.889   1.393   1.236 -0.5963  0.0698  0.5665
 5363SOL    HW126768   1.855   1.487   1.234 -0.2667  0.1657 -1.0239
 5363SOL    HW226769   1.967   1.384   1.175  0.2726 -0.9114  1.8022
 5364SOL     OW26770   7.535   8.831   3.879 -0.1890 -0.1677  0.0074
 5364SOL    HW126771   7.489   8.916   3.907  1.2380  0.5258  0.2731
 5364SOL    HW226772   7.494   8.798   3.794 -2.1406 -0.3478  0.9889
 5365SOL     OW26773   9.773   2.984   4.642 -0.4400  0.8040  0.4164
 5365SOL    HW126774   9.863   2.947   4.617 -0.5093  0.6733  0.3593
 5365SOL    HW226775   9.731   3.027   4.563 -1.2999 -0.9097 -0.0955
 5366SOL     OW26776   0.099   3.961   4.752 -0.0126  0.3187 -0.7077
 5366SOL    HW126777   0.089   3.961   4.653  0.6601 -0.4725 -0.7861
 5366SOL    HW226778   0.010   3.945   4.795  0.0437 -1.5802 -1.2411
 5367SOL     OW26779   4.145   8.380   0.295 -0.1039  0.2691  0.3350
 5367SOL    HW126780   4.111   8.424   0.378 -1.1535  0.6791 -0.2957
 5367SOL    HW226781   4.089   8.299   0.275 -0.7865  0.9919 -0.7514
 5368SOL     OW26782   3.903   0.995   3.733 -0.1471  0.3692 -0.1216
 5368SOL    HW126783   3.894   0.965   3.638  1.1883  0.0752 -0.1777
 5368SOL    HW226784   3.899   1.095   3.737 -2.9398  0.2895 -0.1382
 5369SOL     OW26785   8.854   6.134   2.519 -0.0937  0.0591 -0.3071
 5369SOL    HW126786   8.811   6.204   2.461 -1.8261 -1.9701 -1.5217
 5369SOL    HW226787   8.851   6.164   2.615 -0.7577  1.6743 -0.8137
 5370SOL     OW26788   1.600   3.146   3.930  0.3165 -0.0783 -0.2247
 5370SOL    HW126789   1.526   3.137   3.864  0.0837 -0.4138  0.0807
 5370SOL    HW226790   1.688   3.146   3.883  0.2320 -1.9915 -0.3833
 5371SOL     OW26791   5.102   0.690   1.334  0.0914  0.4220 -0.1395
 5371SOL    HW126792   5.140   0.633   1.261 -0.1356 -1.3048  1.0607
 5371SOL    HW226793   5.015   0.730   1.303  1.0669  1.4749 -1.5798
 5372SOL     OW26794   9.321   4.918   0.296  0.1322 -0.2062 -0.1518
 5372SOL    HW126795   9.254   4.889   0.364  1.5899 -0.5410  1.1910
 5372SOL    HW226796   9.397   4.853   0.294  0.6023  0.3639 -1.3533
 5373SOL     OW26797   3.077   7.529   0.830 -0.4043 -0.1983 -0.2759
 5373SOL    HW126798   2.982   7.509   0.805 -0.4229 -0.7926  0.2855
 5373SOL    HW226799   3.132   7.446   0.825 -0.0152  0.0466 -0.1174
 5374SOL     OW26800   4.984   8.148   0.072  0.3765  0.8414  0.3497
 5374SOL    HW126801   5.001   8.081   0.000  1.5096  0.5494  0.8683
 5374SOL    HW226802   5.004   8.107   0.161  1.0009  1.8329  0.6808
 5375SOL     OW26803   8.125   6.900   1.542  0.5216 -0.0246 -0.7727
 5375SOL    HW126804   8.131   6.806   1.509  0.1427  0.2635 -1.6954
 5375SOL    HW226805   8.205   6.951   1.511  0.3781  0.1341 -0.8850
 5376SOL     OW26806   0.993   1.806   4.210 -0.1994 -0.1098  0.3100
 5376SOL    HW126807   0.917   1.809   4.145  0.4761 -1.3233 -0.5539
 5376SOL    HW226808   1.035   1.715   4.208  1.2726  0.5489  0.7894
 5377SOL     OW26809   4.659   1.441   0.893 -0.4018 -0.0685 -0.2107
 5377SOL    HW126810   4.643   1.538   0.878  0.2135 -0.0692 -0.8915
 5377SOL    HW226811   4.578   1.399   0.933 -1.0030  0.5263 -0.8121
 5378SOL     OW26812   4.767   1.210   3.148  0.1838  0.1842  0.4337
 5378SOL    HW126813   4.724   1.287   3.101 -0.6512 -0.2183  0.5247
 5378SOL    HW226814   4.697   1.158   3.198  0.8509 -0.1951  0.9889
 5379SOL     OW26815   9.547   8.626   4.531 -0.5311 -0.2293  0.2869
 5379SOL    HW126816   9.562   8.724   4.537 -3.3358  0.2368  0.7031
 5379SOL    HW226817   9.490   8.597   4.608 -1.1016 -1.8815 -0.7413
 5380SOL     OW26818   8.349   3.198   0.393 -0.0182  0.2034  0.2032
 5380SOL    HW126819   8.406   3.124   0.357 -0.6659 -0.4295  0.4944
 5380SOL    HW226820   8.368   3.282   0.341 -0.6981 -0.6199 -1.4099
 5381SOL     OW26821   3.490   3.698   0.472 -0.2874  0.0454  0.2843
 5381SOL    HW126822   3.488   3.797   0.488 -0.5832  0.1953 -0.6197
 5381SOL    HW226823   3.474   3.680   0.375  4.0093 -0.6921 -0.3885
 5382SOL     OW26824   2.577   3.891   1.460 -0.5469  0.1456  0.0899
 5382SOL    HW126825   2.501   3.831   1.486 -1.6294  1.2276 -0.4678
 5382SOL    HW226826   2.583   3.967   1.524  0.0420  0.0941  0.0991
 5383SOL     OW26827   8.573   2.446   0.180  0.1832  0.4191  0.7077
 5383SOL    HW126828   8.518   2.383   0.234  0.4854  0.6116  1.2443
 5383SOL    HW226829   8.518   2.525   0.154 -0.8181 -1.0178 -1.7452
 5384SOL     OW26830   4.082   2.349   4.406  0.2732  0.0037  0.3829
 5384SOL    HW126831   3.986   2.322   4.414  0.6225 -1.0551  1.0937
 5384SOL    HW226832   4.136   2.299   4.473  1.1249  1.5919  0.9203
 5385SOL     OW26833   3.773   8.967   3.667  0.2124  0.1249  0.3451
 5385SOL    HW126834   3.701   8.898   3.664 -0.6772  1.0225  0.7679
 5385SOL    HW226835   3.862   8.922   3.679 -0.2167 -1.0174 -0.6428
 5386SOL     OW26836   1.589   1.471   1.835  0.3019  0.1480 -0.2326
 5386SOL    HW126837   1.569   1.492   1.740 -3.3011  1.1994  0.6939
 5386SOL    HW226838   1.584   1.372   1.850  0.7730 -0.0080 -1.0942
 5387SOL     OW26839   0.081   5.369   3.958  0.1518 -0.1730 -0.1783
 5387SOL    HW126840   0.067   5.322   3.871  0.4136 -0.0821 -0.2696
 5387SOL    HW226841   0.155   5.326   4.009 -0.8290 -1.0005  0.5600
 5388SOL     OW26842   1.930   7.415   2.438 -0.5781 -0.1191 -0.2575
 5388SOL    HW126843   2.019   7.370   2.449 -1.1485 -1.2519 -0.3200
 5388SOL    HW226844   1.860   7.364   2.487 -0.7846  2.1069  1.8769
 5389SOL     OW26845   4.415   4.525   1.129  0.0422  0.2586  0.1349
 5389SOL    HW126846   4.463   4.609   1.104  0.4102 -0.1165 -0.4233
 5389SOL    HW226847   4.375   4.484   1.048 -0.6537  0.2086  0.4982
 5390SOL     OW26848   9.658   5.115   2.466 -0.1681 -0.0173  0.5345
 5390SOL    HW126849   9.745   5.112   2.515 -0.1032  2.5761  0.6914
 5390SOL    HW226850   9.674   5.128   2.369 -0.3256  3.3002  0.8774
 5391SOL     OW26851   1.388   4.947   1.208 -0.3674  0.4442 -0.3686
 5391SOL    HW126852   1.384   4.967   1.110  1.5204  0.6737 -0.4064
 5391SOL    HW226853   1.423   4.854   1.222 -3.9741 -0.9585 -0.0010
 5392SOL     OW26854   2.700   4.837   1.108 -0.1599  0.1288  0.4827
 5392SOL    HW126855   2.652   4.899   1.045  0.9470 -0.1681 -0.6871
 5392SOL    HW226856   2.791   4.818   1.072 -0.2041 -1.5595  1.2302
 5393SOL     OW26857   0.769   6.738   3.340 -0.3422  0.1429  0.0131
 5393SOL    HW126858   0.822   6.802   3.283  0.6432 -0.8551 -0.2086
 5393SOL    HW226859   0.810   6.733   3.431 -1.9342  1.7594  0.8625
 5394SOL     OW26860   3.755   7.976   0.607  0.0124  0.1282 -0.2429
 5394SOL    HW126861   3.775   7.950   0.702 -1.7440 -0.5427 -0.0310
 5394SOL    HW226862   3.720   7.897   0.557 -0.4376  0.8218 -1.0433
 5395SOL     OW26863   7.866   0.412   2.835 -0.4049  0.0490 -0.2323
 5395SOL    HW126864   7.920   0.354   2.774 -1.7245 -1.0026 -0.4198
 5395SOL    HW226865   7.840   0.496   2.786  1.1406  0.6262 -0.0950
 5396SOL     OW26866   3.352   0.311   0.242  0.5125  1.1322 -0.5750
 5396SOL    HW126867   3.323   0.390   0.296  0.5309  0.2344  0.7851
 5396SOL    HW226868   3.313   0.317   0.150 -2.0349  1.1387  0.4814
 5397SOL     OW26869   7.629   1.590   0.757 -0.0836 -0.5832 -0.4893
 5397SOL    HW126870   7.604   1.529   0.682  1.0077  0.8703 -2.0706
 5397SOL    HW226871   7.636   1.684   0.723  1.3735 -0.0499  1.2106
 5398SOL     OW26872   1.062   5.261   3.229 -0.0638 -0.1163 -0.2219
 5398SOL    HW126873   1.156   5.270   3.262  0.1783  1.6662 -1.3316
 5398SOL    HW226874   0.999   5.269   3.306  0.6822 -0.8663  0.4660
 5399SOL     OW26875   8.124   4.766   3.611  0.0142  0.1939  0.4693
 5399SOL    HW126876   8.033   4.777   3.651 -0.0485 -1.0658  0.6728
 5399SOL    HW226877   8.192   4.799   3.676 -0.1880 -0.4048  0.9880
 5400SOL     OW26878   7.868   3.487   0.075 -0.3769 -0.0749 -0.2061
 5400SOL    HW126879   7.868   3.572   0.022 -1.0028 -0.4702 -0.8474
 5400SOL    HW226880   7.911   3.503   0.164  1.0342  0.5045 -0.9704
 5401SOL     OW26881   8.674   1.708   3.227  0.1266 -0.1312  0.0566
 5401SOL    HW126882   8.589   1.666   3.257  0.4194 -1.5014 -0.9728
 5401SOL    HW226883   8.749   1.679   3.287  0.1767 -0.3651 -0.1188
 5402SOL     OW26884   9.992   6.590   4.170  0.7578 -0.0822  0.7862
 5402SOL    HW126885   9.963   6.596   4.265 -0.9629  0.1707  0.2794
 5402SOL    HW226886   9.915   6.561   4.113  1.4647  0.7424 -0.6547
 5403SOL     OW26887   2.950   1.917   0.327 -0.2143 -0.6599  0.1852
 5403SOL    HW126888   2.939   1.922   0.228 -0.4682  0.1306  0.2544
 5403SOL    HW226889   2.972   2.007   0.364 -2.7664 -0.3619  1.1420
 5404SOL     OW26890   2.390   5.003   0.476  0.4866 -0.5573 -0.5253
 5404SOL    HW126891   2.414   4.908   0.495  1.9051 -0.1666 -0.3166
 5404SOL    HW226892   2.424   5.062   0.549 -0.4975  0.1080 -0.5906
 5405SOL     OW26893   3.987   0.572   3.527  0.9104  0.0037 -0.2597
 5405SOL    HW126894   4.006   0.496   3.464  2.5334 -0.5229  0.8478
 5405SOL    HW226895   3.898   0.612   3.504  0.6305 -1.3780 -1.7008
 5406SOL     OW26896   1.618   2.252   3.092  0.7987 -0.2954 -0.6529
 5406SOL    HW126897   1.610   2.350   3.108  1.0360 -0.1939 -1.1526
 5406SOL    HW226898   1.668   2.210   3.167  1.3607  0.0822 -0.8115
 5407SOL     OW26899   8.629   7.608   1.050 -0.2125  0.1040  0.5389
 5407SOL    HW126900   8.589   7.522   1.082  1.3696 -1.0488 -0.5010
 5407SOL    HW226901   8.560   7.661   1.001 -0.7542 -1.3435 -0.2870
 5408SOL     OW26902   6.057   8.814   3.674 -0.3447 -0.4744  0.4525
 5408SOL    HW126903   6.064   8.716   3.693  0.7390 -0.6347 -0.7183
 5408SOL    HW226904   6.146   8.857   3.686 -0.4993  0.1104 -0.4293
 5409SOL     OW26905   0.784   4.260   2.863 -0.3619 -0.1312  0.1658
 5409SOL    HW126906   0.777   4.200   2.943  0.2734 -2.5446 -1.5320
 5409SOL    HW226907   0.715   4.332   2.869 -0.4389 -0.3616  2.7892
 5410SOL     OW26908   1.908   2.103   4.471  0.2695 -0.2490  1.1111
 5410SOL    HW126909   1.959   2.040   4.413  1.2934  0.2804  1.4203
 5410SOL    HW226910   1.821   2.061   4.497  0.2810 -0.9220  0.0880
 5411SOL     OW26911   8.357   7.649   2.810 -0.4468 -0.0064 -0.1202
 5411SOL    HW126912   8.314   7.592   2.740  0.1461  2.0505 -2.2102
 5411SOL    HW226913   8.388   7.734   2.769  1.6351  0.4445  2.2719
 5412SOL     OW26914   2.336   5.950   2.259  0.3939  0.3122  0.1687
 5412SOL    HW126915   2.409   5.925   2.322  1.8961  0.2759 -1.5488
 5412SOL    HW226916   2.314   6.047   2.271  0.3092  0.1768  1.1089
 5413SOL     OW26917   4.557   7.578   0.633  0.5017 -0.5409  0.0988
 5413SOL    HW126918   4.626   7.643   0.602 -0.2781 -0.3754 -1.3330
 5413SOL    HW226919   4.590   7.530   0.714  2.8131 -1.3372 -1.2797
 5414SOL     OW26920   4.014   3.488   1.146  0.5170 -0.2055 -0.3877
 5414SOL    HW126921   4.045   3.560   1.207  0.8019 -1.3037  0.7946
 5414SOL    HW226922   3.915   3.478   1.154  0.5748 -0.4656  0.0434
 5415SOL     OW26923   1.018   6.132   2.050 -0.2666  0.2466 -0.1607
 5415SOL    HW126924   1.106   6.178   2.037 -0.6174  0.6569 -1.1140
 5415SOL    HW226925   0.950   6.174   1.990 -0.7548 -1.0515 -0.5157
 5416SOL     OW26926   7.911   7.867   3.053 -0.0922  0.0513  0.1587
 5416SOL    HW126927   7.865   7.918   3.126  0.3295  0.4254  0.1674
 5416SOL    HW226928   7.967   7.930   2.998  1.7047 -0.6393  1.1489
 5417SOL     OW26929   1.331   7.188   1.282 -0.4396 -0.9867 -0.0548
 5417SOL    HW126930   1.290   7.259   1.340 -3.7866 -3.7406  1.1458
 5417SOL    HW226931   1.430   7.202   1.277 -1.0427  4.1430 -0.4742
 5418SOL     OW26932   8.801   7.934   4.527 -0.2026 -0.4998 -0.9671
 5418SOL    HW126933   8.887   7.945   4.477 -0.7484  0.1937 -1.7667
 5418SOL    HW226934   8.733   7.891   4.469 -1.1518  1.2501 -1.1993
 5419SOL     OW26935   0.810   9.100   1.919  0.3730 -0.4374  0.3598
 5419SOL    HW126936   0.724   9.147   1.896 -0.0079 -2.3215 -2.3938
 5419SOL    HW226937   0.849   9.140   2.001 -3.0877  0.5346  1.6161
 5420SOL     OW26938   2.643   8.442   2.603 -0.4234  0.5738  0.0104
 5420SOL    HW126939   2.572   8.380   2.570  0.6819 -0.2630 -0.8588
 5420SOL    HW226940   2.635   8.530   2.557  0.4762 -0.2565 -1.7726
 5421SOL     OW26941   2.856   5.067   0.133  0.8328  0.5460 -0.1821
 5421SOL    HW126942   2.936   5.117   0.166  1.0182 -0.0063  0.2241
 5421SOL    HW226943   2.835   4.993   0.197 -0.0336  0.7191 -0.2639
 5422SOL     OW26944   7.384   3.449   3.936 -0.0848  0.8873 -0.3666
 5422SOL    HW126945   7.395   3.351   3.950  2.8626  1.4603  2.0231
 5422SOL    HW226946   7.297   3.479   3.975  1.0940 -0.1035  3.2798
 5423SOL     OW26947   2.799   2.963   1.259 -0.0407 -0.0187  0.3692
 5423SOL    HW126948   2.802   2.882   1.200  3.6408  1.4385 -1.5648
 5423SOL    HW226949   2.868   2.954   1.331  0.7560  1.6299 -0.1747
 5424SOL     OW26950   4.460   9.309   1.826 -0.3355  0.2393 -0.3807
 5424SOL    HW126951   4.434   9.297   1.730  1.8186  1.6902 -1.1921
 5424SOL    HW226952   4.395   9.370   1.871 -0.6881  0.5170 -1.2547
 5425SOL     OW26953   9.994   1.883   4.309 -0.1405 -0.0699 -0.4484
 5425SOL    HW126954  10.071   1.943   4.285  1.5378 -1.3867  1.5402
 5425SOL    HW226955   9.935   1.930   4.374  0.7030 -0.2426  0.4484
 5426SOL     OW26956   0.697   7.503   0.108 -0.1566  0.1579  0.0036
 5426SOL    HW126957   0.755   7.462   0.179 -0.9689 -0.7422  0.1648
 5426SOL    HW226958   0.602   7.474   0.123  0.0002 -2.0059 -2.8669
 5427SOL     OW26959   8.791   3.608   1.513  0.2277 -0.1381 -0.0013
 5427SOL    HW126960   8.851   3.552   1.570 -2.6774 -1.9016  1.4556
 5427SOL    HW226961   8.712   3.638   1.566 -2.2899 -1.3488 -2.8811
 5428SOL     OW26962   0.555   5.610   3.736 -0.7739  0.0530 -0.1976
 5428SOL    HW126963   0.470   5.575   3.696 -0.7821  0.7584 -0.8300
 5428SOL    HW226964   0.547   5.709   3.749 -0.0105  0.1459 -0.3785
 5429SOL     OW26965   1.705   6.898   1.239  0.8106 -0.3498 -0.5275
 5429SOL    HW126966   1.764   6.978   1.246  1.3175 -0.7811  0.2313
 5429SOL    HW226967   1.755   6.823   1.195  1.0941 -0.9499  0.7802
 5430SOL     OW26968   4.725   4.634   0.999 -0.1009 -0.4340  0.1981
 5430SOL    HW126969   4.819   4.625   0.966 -1.3398 -0.6219 -3.5110
 5430SOL    HW226970   4.717   4.718   1.053  2.5501 -1.2949  2.0101
 5431SOL     OW26971   0.807   7.450   2.140 -0.2734 -0.6039  0.6957
 5431SOL    HW126972   0.808   7.355   2.110 -1.2788 -0.5370  0.4136
 5431SOL    HW226973   0.768   7.507   2.067  1.5362  0.2153  0.3357
 5432SOL     OW26974   3.277   0.880   1.991  0.5216  0.0017 -0.1176
 5432SOL    HW126975   3.253   0.869   1.894  2.0864  1.8051 -0.7395
 5432SOL    HW226976   3.194   0.901   2.043 -0.3075 -0.7557 -1.0911
 5433SOL     OW26977   0.936   8.862   0.762 -0.3637  0.0582 -0.2510
 5433SOL    HW126978   0.856   8.803   0.752 -0.0766 -0.0649 -1.9034
 5433SOL    HW226979   0.996   8.852   0.682  0.0395  2.0553 -0.2335
 5434SOL     OW26980   8.742   2.860   1.958  0.0363  0.2246  0.5490
 5434SOL    HW126981   8.679   2.782   1.960  1.5375 -1.0400 -0.2671
 5434SOL    HW226982   8.704   2.932   1.901 -0.3417 -0.8497 -0.5869
 5435SOL     OW26983   2.056   8.044   0.470  0.1813  0.4079  0.0954
 5435SOL    HW126984   1.978   8.053   0.409  0.1093 -0.0391  0.1128
 5435SOL    HW226985   2.023   8.017   0.561  0.2121  1.9202  0.5709
 5436SOL     OW26986   0.719   8.402   2.938 -0.5216  0.3575 -0.6304
 5436SOL    HW126987   0.700   8.330   2.871 -0.2678 -1.0476  0.7855
 5436SOL    HW226988   0.665   8.386   3.020 -0.6507  1.9410 -0.4060
 5437SOL     OW26989   8.432   9.281   2.949 -0.1399 -0.6313 -0.1105
 5437SOL    HW126990   8.403   9.357   3.007 -2.5061 -1.1700 -0.5189
 5437SOL    HW226991   8.435   9.310   2.853 -0.1160 -0.7956 -0.1609
 5438SOL     OW26992   3.039   6.433   3.472 -0.5277 -0.0333  0.5824
 5438SOL    HW126993   2.966   6.433   3.404  0.7019  0.6724 -0.7781
 5438SOL    HW226994   3.055   6.526   3.504  0.0720 -0.1079  0.5177
 5439SOL     OW26995   4.839   9.614   1.940  0.5444 -0.6107  0.2864
 5439SOL    HW126996   4.822   9.611   1.842 -0.3955 -1.1023  0.4561
 5439SOL    HW226997   4.757   9.584   1.989  0.4213  1.2100  1.2722
 5440SOL     OW26998   9.814   4.293   3.480  0.0172  0.3324  0.0552
 5440SOL    HW126999   9.881   4.341   3.536  0.3206  1.5304 -1.2925
 5440SOL    HW227000   9.741   4.257   3.538  2.1101 -1.5108  1.6207
 5441SOL     OW27001   1.850   9.208   1.508  0.1124 -0.3783 -0.5709
 5441SOL    HW127002   1.828   9.128   1.563 -0.8882 -0.4338 -1.0368
 5441SOL    HW227003   1.841   9.185   1.411 -1.8562  0.7682 -0.6736
 5442SOL     OW27004   0.617   6.135   2.322 -0.5775 -0.0097 -0.0962
 5442SOL    HW127005   0.578   6.167   2.408  1.6412  1.6540  0.3524
 5442SOL    HW227006   0.679   6.058   2.341  0.5440  0.8851 -0.0739
 5443SOL     OW27007   0.798   8.439   4.544  0.5766  0.0050  0.8661
 5443SOL    HW127008   0.768   8.347   4.568  0.4310 -0.2430 -0.2261
 5443SOL    HW227009   0.894   8.451   4.569  0.2521 -0.0220  2.1377
 5444SOL     OW27010   8.643   8.983   0.697 -0.2334  0.1913  0.4856
 5444SOL    HW127011   8.696   8.898   0.694  1.8015  1.2346  4.1207
 5444SOL    HW227012   8.607   8.997   0.789  0.5885  3.9255  0.3308
 5445SOL     OW27013   9.860   7.383   3.089 -0.0275 -0.4657 -0.0709
 5445SOL    HW127014   9.908   7.344   3.011  0.8323  0.9309 -0.2549
 5445SOL    HW227015   9.794   7.452   3.057  1.5327  1.3424  0.5307
 5446SOL     OW27016   9.129   8.114   4.523 -0.3575  0.3478  0.0118
 5446SOL    HW127017   9.071   8.138   4.601 -0.6856 -1.9184  0.4853
 5446SOL    HW227018   9.224   8.136   4.545 -0.7738  2.2925 -0.0357
 5447SOL     OW27019   9.122   1.258   0.310 -0.2073 -0.1749 -0.4134
 5447SOL    HW127020   9.029   1.227   0.331 -0.0718  1.8039  3.4926
 5447SOL    HW227021   9.187   1.212   0.370  0.9797  0.8723 -0.8860
 5448SOL     OW27022   8.801   4.307   1.127 -0.5340  0.3301  0.0456
 5448SOL    HW127023   8.830   4.291   1.222 -0.1339  2.1458  0.2370
 5448SOL    HW227024   8.732   4.240   1.103 -0.5508 -0.2447  1.5841
 5449SOL     OW27025   2.598   1.644   2.951 -0.4788  0.1018  0.2760
 5449SOL    HW127026   2.623   1.740   2.937 -0.7661  0.1342 -0.0363
 5449SOL    HW227027   2.612   1.593   2.866 -0.2205 -0.1561  0.4745
 5450SOL     OW27028   8.289   8.977   4.074 -0.2607 -0.0812 -0.5698
 5450SOL    HW127029   8.212   9.016   4.124  0.6221 -0.6932  1.3023
 5450SOL    HW227030   8.304   8.882   4.103  0.8727 -0.1385 -1.2754
 5451SOL     OW27031   9.750   7.961   0.644  0.0319  0.0139  0.1109
 5451SOL    HW127032   9.665   7.917   0.614  1.0809 -1.2861 -1.0088
 5451SOL    HW227033   9.732   8.056   0.668 -1.2780  0.4718 -2.5287
 5452SOL     OW27034   2.478   4.962   1.029 -0.6771 -0.4537 -0.4925
 5452SOL    HW127035   2.446   5.048   1.069  1.0436  0.0281 -0.0806
 5452SOL    HW227036   2.412   4.929   0.962 -1.9788  0.5097  0.2868
 5453SOL     OW27037   1.816   6.568   4.375 -0.5397  0.0039 -0.0583
 5453SOL    HW127038   1.749   6.637   4.403 -0.4033 -0.5478  1.7143
 5453SOL    HW227039   1.825   6.500   4.448  2.8636  0.7233  0.2630
 5454SOL     OW27040   0.988   9.546   2.639  0.1442  0.0847 -0.6456
 5454SOL    HW127041   1.070   9.584   2.683  2.0877 -1.0330 -3.2176
 5454SOL    HW227042   1.015   9.488   2.562 -2.9211 -2.9798  0.4328
 5455SOL     OW27043   9.787   8.239   1.386  0.2310  0.2182 -0.0286
 5455SOL    HW127044   9.862   8.242   1.320 -0.1319 -0.0898 -0.4569
 5455SOL    HW227045   9.818   8.194   1.470  0.7255  0.7088  0.0528
 5456SOL     OW27046   0.423   3.318   3.291 -0.0699  0.1558 -0.5291
 5456SOL    HW127047   0.360   3.242   3.277 -0.4626  0.6510 -1.5349
 5456SOL    HW227048   0.446   3.359   3.202  1.1230  0.4192 -0.1137
 5457SOL     OW27049   8.432   6.521   0.548 -0.0138  0.2665 -0.2043
 5457SOL    HW127050   8.339   6.558   0.540  0.4809  1.2624 -1.5203
 5457SOL    HW227051   8.457   6.475   0.462  0.5056 -0.4771  0.3415
 5458SOL     OW27052   6.721   8.560   3.499  0.6147 -0.3255  0.0800
 5458SOL    HW127053   6.779   8.614   3.560  1.8852 -0.2745 -1.1372
 5458SOL    HW227054   6.746   8.579   3.404 -0.9547 -0.8221 -0.4469
 5459SOL     OW27055   4.509   8.231   1.773  0.2763  0.0994  0.1584
 5459SOL    HW127056   4.588   8.171   1.765 -0.0496 -0.1005 -1.7317
 5459SOL    HW227057   4.443   8.191   1.837  0.1117 -1.5234 -0.9935
 5460SOL     OW27058   2.605   8.927   2.348  0.0213 -0.0767 -0.1643
 5460SOL    HW127059   2.628   8.885   2.260  1.2586 -1.3787  0.7499
 5460SOL    HW227060   2.646   9.018   2.353  1.1602 -0.5657 -0.3827
 5461SOL     OW27061   4.422   2.134   0.634  0.1053 -0.5656  0.4617
 5461SOL    HW127062   4.399   2.117   0.538 -0.4996  0.2721  0.4517
 5461SOL    HW227063   4.471   2.221   0.641  0.6782 -0.9155  0.8485
 5462SOL     OW27064   8.584   5.156   0.144  0.1535 -0.0441  0.2493
 5462SOL    HW127065   8.625   5.069   0.174 -0.6562 -1.3489 -2.2938
 5462SOL    HW227066   8.492   5.164   0.184 -1.5419 -2.5106 -2.9206
 5463SOL     OW27067   8.098   2.908   3.751 -0.1705 -0.1199 -0.3763
 5463SOL    HW127068   8.155   2.974   3.800  0.4615 -0.2614 -0.9083
 5463SOL    HW227069   8.039   2.956   3.687  0.2548 -0.0681 -0.7274
 5464SOL     OW27070   8.285   9.467   3.088  0.5958  0.2197 -0.5825
 5464SOL    HW127071   8.235   9.398   3.140 -0.7618  1.0336 -0.8088
 5464SOL    HW227072   8.325   9.534   3.151  0.0958  0.4361 -0.4887
 5465SOL     OW27073   2.489   9.453   2.897  0.0656 -0.3456 -0.3020
 5465SOL    HW127074   2.541   9.431   2.815 -0.3848  0.6568 -0.8601
 5465SOL    HW227075   2.534   9.529   2.945  0.7720 -1.4447  0.8116
 5466SOL     OW27076   2.139   4.000   2.836  0.0640 -0.0231 -0.4054
 5466SOL    HW127077   2.120   4.082   2.888 -1.2379  0.1627 -1.1430
 5466SOL    HW227078   2.143   3.921   2.898  2.7235  0.7697  0.4763
 5467SOL     OW27079   1.947   1.555   4.544 -0.2649 -0.7953  0.2052
 5467SOL    HW127080   1.933   1.637   4.601  0.3407 -0.5384 -0.0131
 5467SOL    HW227081   2.045   1.537   4.536 -0.3934 -1.4090  0.0569
 5468SOL     OW27082   0.347   2.827   2.623 -0.0706  0.6406 -0.4026
 5468SOL    HW127083   0.287   2.864   2.552  0.7408 -1.7832 -2.4002
 5468SOL    HW227084   0.303   2.749   2.668  1.0793 -0.3692 -1.0238
 5469SOL     OW27085   3.417   4.135   4.635 -0.1105 -0.5433 -0.2008
 5469SOL    HW127086   3.442   4.199   4.562  0.3118 -1.9604 -1.3180
 5469SOL    HW227087   3.353   4.067   4.600  0.7707 -1.7632  0.4907
 5470SOL     OW27088   3.039   7.268   2.760 -0.7639 -0.3377 -0.1162
 5470SOL    HW127089   2.949   7.223   2.764  0.2218 -2.2295  1.3413
 5470SOL    HW227090   3.102   7.223   2.822  0.3677  2.9715  1.2516
 5471SOL     OW27091   2.843   5.403   0.523  0.1377 -0.1450 -0.1846
 5471SOL    HW127092   2.828   5.394   0.622 -0.3149  1.1039 -0.1264
 5471SOL    HW227093   2.915   5.470   0.506 -2.9208  3.1736 -0.7760
 5472SOL     OW27094   8.612   2.607   1.962 -0.1290 -0.3212 -0.2799
 5472SOL    HW127095   8.694   2.587   2.016 -0.9251 -0.7840  0.7947
 5472SOL    HW227096   8.566   2.521   1.939 -0.6524 -0.0335 -0.3263
 5473SOL     OW27097   1.444   6.111   2.168 -0.1647 -0.4546 -0.1878
 5473SOL    HW127098   1.495   6.123   2.083  0.2670 -1.5537 -0.0836
 5473SOL    HW227099   1.374   6.041   2.156 -0.8677  0.2059  0.0250
 5474SOL     OW27100   2.492   7.143   0.392  0.2654  0.1228  0.2622
 5474SOL    HW127101   2.545   7.070   0.435  0.5135  0.1642  0.0309
 5474SOL    HW227102   2.520   7.232   0.430  0.0171  0.1012  0.4902
 5475SOL     OW27103   3.465   2.024   3.096  0.4517 -0.2888  0.7847
 5475SOL    HW127104   3.515   2.111   3.094  1.7812 -1.0139  1.8708
 5475SOL    HW227105   3.511   1.958   3.036 -1.1440  0.0448 -0.8551
 5476SOL     OW27106   8.887   2.647   1.753  0.1946  0.3826  0.6029
 5476SOL    HW127107   8.822   2.698   1.809  0.0614 -1.5784  2.2720
 5476SOL    HW227108   8.838   2.595   1.683 -0.0001 -0.6843  1.5272
 5477SOL     OW27109   9.214   6.429   4.101  0.4763  0.2826  0.1585
 5477SOL    HW127110   9.262   6.391   4.021  1.0467 -2.2797  1.6484
 5477SOL    HW227111   9.121   6.392   4.104  1.4359 -2.0803  2.3092
 5478SOL     OW27112   9.374   6.769   1.677 -0.9437  0.5703 -0.3905
 5478SOL    HW127113   9.358   6.790   1.774 -2.3337 -0.3681 -0.3970
 5478SOL    HW227114   9.398   6.853   1.628 -0.7629  1.1432  0.6617
 5479SOL     OW27115   2.923   2.532   1.662  0.3528 -0.2163 -0.4753
 5479SOL    HW127116   2.923   2.592   1.742  0.4863 -1.6100  0.5948
 5479SOL    HW227117   2.914   2.587   1.579 -0.8268  1.1815  0.5488
 5480SOL     OW27118   1.993   8.753   1.155 -0.2353  0.4522 -0.0883
 5480SOL    HW127119   2.021   8.681   1.091 -0.6493  0.5541 -0.3832
 5480SOL    HW227120   1.954   8.830   1.105  1.6415  1.5752  0.0956
 5481SOL     OW27121   2.530   0.968   0.979  0.2788  0.4219  0.1266
 5481SOL    HW127122   2.539   1.052   1.031  0.9534  1.3199 -1.3910
 5481SOL    HW227123   2.614   0.915   0.985  0.0339  0.0845  0.6683
 5482SOL     OW27124   3.649   0.108   3.531  0.6176 -0.1707  0.2214
 5482SOL    HW127125   3.742   0.090   3.498  0.6706 -0.6306  0.6131
 5482SOL    HW227126   3.583   0.075   3.463  0.7320 -0.6064  0.3219
 5483SOL     OW27127   5.190   9.776   0.889  0.0424 -0.1143  0.2126
 5483SOL    HW127128   5.106   9.830   0.882  0.5352  0.7082  0.4779
 5483SOL    HW227129   5.248   9.815   0.960  0.4500 -0.9529  0.3455
 5484SOL     OW27130   9.447   1.627   0.930 -0.0985  0.0342  0.1921
 5484SOL    HW127131   9.497   1.556   0.881 -1.4948 -0.4011 -0.6225
 5484SOL    HW227132   9.477   1.717   0.898  0.0864 -0.2298 -0.3764
 5485SOL     OW27133   3.406   0.762   2.514 -0.6347  0.1387 -0.7086
 5485SOL    HW127134   3.430   0.751   2.418 -0.6247  0.2515 -0.7182
 5485SOL    HW227135   3.433   0.679   2.564  0.1922  0.4457 -0.6398
 5486SOL     OW27136   0.632   0.568   2.225  0.0197  0.5456  0.3834
 5486SOL    HW127137   0.708   0.567   2.160 -0.3278 -3.3901 -0.0616
 5486SOL    HW227138   0.665   0.602   2.314  2.0323 -0.1114 -0.0819
 5487SOL     OW27139   1.273   9.394   0.864  0.2156 -0.3610 -0.3017
 5487SOL    HW127140   1.207   9.396   0.939 -0.8382  0.4270 -1.2330
 5487SOL    HW227141   1.256   9.313   0.807 -2.3328  1.7261 -2.6204
 5488SOL     OW27142   9.865   6.011   3.775 -0.4235 -0.1634 -0.1376
 5488SOL    HW127143   9.888   5.943   3.845  1.1806 -1.3433 -1.7678
 5488SOL    HW227144   9.874   5.970   3.684  0.2424  2.1193 -1.1420
 5489SOL     OW27145   3.352   3.384   0.952  0.3708 -0.6468 -0.0257
 5489SOL    HW127146   3.376   3.442   0.874 -2.1513 -0.4332 -0.7159
 5489SOL    HW227147   3.390   3.293   0.940  2.0488  0.0831 -0.2995
 5490SOL     OW27148   2.694   7.774   0.449 -0.0695  0.0986  0.1184
 5490SOL    HW127149   2.766   7.726   0.400  0.3150 -0.1554  0.9196
 5490SOL    HW227150   2.615   7.786   0.389  0.8957  1.0176 -0.9928
 5491SOL     OW27151   3.057   4.412   2.648 -0.2421  0.1888 -1.6809
 5491SOL    HW127152   3.118   4.360   2.708  1.4093  1.5062 -2.1533
 5491SOL    HW227153   2.964   4.378   2.657  0.4211 -1.3479 -0.3239
 5492SOL     OW27154   0.011   6.984   3.812 -0.1739 -0.2231  0.0573
 5492SOL    HW127155  -0.008   7.004   3.715  0.8177 -2.2062 -0.5577
 5492SOL    HW227156  -0.064   6.931   3.850 -0.4315  0.3191  0.3213
 5493SOL     OW27157   0.411   2.345   2.125  1.1128  0.1836  0.1524
 5493SOL    HW127158   0.335   2.320   2.185  1.0305  0.4328  0.1561
 5493SOL    HW227159   0.405   2.294   2.040  1.1348 -0.0499  0.2924
 5494SOL     OW27160   5.865   0.841   3.329 -0.6361  0.0534  0.4898
 5494SOL    HW127161   5.955   0.805   3.308 -0.1678  1.3996  0.1097
 5494SOL    HW227162   5.835   0.807   3.418  0.4713  0.0045  0.8485
 5495SOL     OW27163   0.043   7.533   1.196 -0.1915  0.1258  0.0618
 5495SOL    HW127164   0.105   7.591   1.249 -2.3590  0.2949  2.5330
 5495SOL    HW227165   0.034   7.444   1.241  1.0553 -1.2299 -2.2713
 5496SOL     OW27166   4.739   8.114   3.090  0.2479 -0.5056  0.0813
 5496SOL    HW127167   4.775   8.159   3.008 -1.1161 -2.3793 -1.5758
 5496SOL    HW227168   4.810   8.055   3.130  1.0687  0.7855  0.5541
 5497SOL     OW27169   8.782   7.282   4.684 -0.1502  0.0309 -0.3222
 5497SOL    HW127170   8.751   7.371   4.650  0.8201  0.1286 -0.9615
 5497SOL    HW227171   8.879   7.270   4.663 -0.0217 -0.7474  0.6738
 5498SOL     OW27172   1.000   3.676   1.527 -0.3517 -0.1104 -0.1350
 5498SOL    HW127173   1.089   3.701   1.567 -0.5297  1.2508 -0.5396
 5498SOL    HW227174   1.014   3.630   1.440  0.0232 -2.4893  1.1512
 5499SOL     OW27175   0.726   5.108   1.500  0.4766 -0.2844 -0.0569
 5499SOL    HW127176   0.630   5.082   1.496  0.8192 -1.3681 -2.0876
 5499SOL    HW227177   0.775   5.047   1.562 -0.1736  0.4027  1.1426
 5500SOL     OW27178   9.724   8.730   3.535 -0.5909  0.2972  0.2891
 5500SOL    HW127179   9.719   8.829   3.542  1.1215  0.4253  0.0864
 5500SOL    HW227180   9.684   8.701   3.448 -0.1583  0.9068 -0.1146
 5501SOL     OW27181   4.528   8.930   2.176 -0.1477  0.4930 -0.5461
 5501SOL    HW127182   4.448   8.913   2.118 -0.4486 -0.4594  0.1234
 5501SOL    HW227183   4.536   8.856   2.243  1.6663  0.2689 -1.0086
 5502SOL     OW27184   0.246   5.656   2.830  0.2778  0.8169  0.7501
 5502SOL    HW127185   0.338   5.674   2.797  0.8149 -1.1412  1.1217
 5502SOL    HW227186   0.247   5.650   2.930 -0.1882  0.4516  0.7364
 5503SOL     OW27187   9.163   3.244   0.097  0.1554  0.3950 -0.0874
 5503SOL    HW127188   9.244   3.235   0.039 -0.1233  0.0612 -0.4287
 5503SOL    HW227189   9.191   3.254   0.192  0.5634 -2.3965  0.1267
 5504SOL     OW27190   3.613   7.898   3.696  0.1411 -0.2859  0.0245
 5504SOL    HW127191   3.640   7.802   3.706  0.2262 -0.4184 -1.2928
 5504SOL    HW227192   3.686   7.957   3.730  0.5615 -0.6875 -0.1728
 5505SOL     OW27193   4.723   6.726   1.557 -0.2752 -0.5871 -0.4908
 5505SOL    HW127194   4.776   6.809   1.569  1.7401 -1.9963  0.7018
 5505SOL    HW227195   4.693   6.692   1.647 -1.5943 -0.8322 -1.0101
 5506SOL     OW27196   8.286   6.162   0.008  0.1742  0.0239 -0.1670
 5506SOL    HW127197   8.257   6.183  -0.085  0.5380 -0.4347 -0.3898
 5506SOL    HW227198   8.263   6.238   0.068 -2.9503 -0.9973 -0.0020
 5507SOL     OW27199   8.261   3.340   3.022  0.4376  0.2253  0.5634
 5507SOL    HW127200   8.270   3.316   3.119 -0.1391 -1.7385  0.1596
 5507SOL    HW227201   8.188   3.408   3.012  0.1241  0.0320  1.4433
 5508SOL     OW27202   6.878   9.039   1.168  0.1416  0.0830 -0.1443
 5508SOL    HW127203   6.877   8.946   1.132 -0.9255 -0.1689  0.5061
 5508SOL    HW227204   6.786   9.076   1.168  0.6388  1.3518 -0.9063
 5509SOL     OW27205   3.187   5.585   0.774  0.5704  0.0016 -0.1558
 5509SOL    HW127206   3.276   5.587   0.818 -0.2804  0.6357  1.6032
 5509SOL    HW227207   3.129   5.657   0.813 -0.4326  0.1667 -1.8785
 5510SOL     OW27208   9.247   2.751   2.702 -0.1533  0.2812  0.0461
 5510SOL    HW127209   9.310   2.748   2.624 -1.1503  1.5510 -0.8516
 5510SOL    HW227210   9.162   2.797   2.674  0.2704  2.6831  2.4325
 5511SOL     OW27211   6.386   0.005   1.506  0.2820 -0.4859  0.5611
 5511SOL    HW127212   6.416   0.026   1.599  0.6809  2.6598 -0.2149
 5511SOL    HW227213   6.286   0.010   1.502  0.2575 -0.7244  0.8363
 5512SOL     OW27214   8.354   6.928   0.853  0.2775 -0.1606 -0.2815
 5512SOL    HW127215   8.449   6.932   0.823  1.0225  1.0933  2.0436
 5512SOL    HW227216   8.317   7.021   0.858 -0.6996 -0.5574 -0.0726
 5513SOL     OW27217   0.590   2.952   3.687  0.8373 -0.0181 -0.0824
 5513SOL    HW127218   0.541   2.941   3.601  0.1232  2.9830 -0.0959
 5513SOL    HW227219   0.531   2.996   3.754  1.8324 -1.0979  1.5468
 5514SOL     OW27220   3.909   0.079   3.524  0.0292  0.2315  0.3104
 5514SOL    HW127221   3.995   0.037   3.496 -0.7722  0.2968 -2.3803
 5514SOL    HW227222   3.928   0.171   3.560  1.2028 -0.2040  0.8308
 5515SOL     OW27223   4.818   2.774   0.233 -0.4223  0.0432 -0.4738
 5515SOL    HW127224   4.794   2.816   0.320  0.0981  1.2026 -0.8804
 5515SOL    HW227225   4.917   2.775   0.221 -0.5453  0.9312 -1.5754
 5516SOL     OW27226   1.289   1.274   2.569  0.0339 -0.1809  0.2998
 5516SOL    HW127227   1.255   1.227   2.650  0.4535 -0.0337  0.5605
 5516SOL    HW227228   1.221   1.267   2.496 -0.4577 -0.0862  0.7461
 5517SOL     OW27229   4.186   0.579   0.196 -0.4735  0.1310 -0.0096
 5517SOL    HW127230   4.235   0.605   0.280 -0.2594  0.0673 -0.1125
 5517SOL    HW227231   4.167   0.480   0.199 -0.7252  0.1830  0.0961
 5518SOL     OW27232   4.520   0.907   3.121  0.1655 -0.4748 -0.6254
 5518SOL    HW127233   4.573   0.967   3.061 -0.4737 -0.6295 -1.3452
 5518SOL    HW227234   4.541   0.929   3.217  0.7026  0.2016 -0.8965
 5519SOL     OW27235   0.735   1.498   4.063 -0.4928  0.1058  0.6249
 5519SOL    HW127236   0.713   1.454   3.976  1.8746  0.1287 -0.0249
 5519SOL    HW227237   0.781   1.432   4.123  0.1092  0.7810  0.9127
 5520SOL     OW27238   7.348   0.354   4.111 -0.1785  0.8809  0.3134
 5520SOL    HW127239   7.433   0.340   4.163  1.0551  2.9973 -1.0438
 5520SOL    HW227240   7.278   0.392   4.171  1.6737  4.6941  0.2682
 5521SOL     OW27241   2.652   9.172   1.397 -0.3845 -0.0411  0.1881
 5521SOL    HW127242   2.580   9.216   1.452 -1.2862 -2.7552  1.2460
 5521SOL    HW227243   2.738   9.175   1.447 -0.8265 -0.9958  1.0267
 5522SOL     OW27244   6.984   9.743   4.263  0.7374 -0.0628  0.1963
 5522SOL    HW127245   7.053   9.752   4.191 -0.2905  0.9069 -0.6881
 5522SOL    HW227246   6.902   9.793   4.236 -0.0161 -0.5322  1.6065
 5523SOL     OW27247   3.280   9.603   1.791  0.0187  0.2588  0.0592
 5523SOL    HW127248   3.374   9.597   1.758 -0.1281 -0.3137 -0.2578
 5523SOL    HW227249   3.261   9.525   1.851  0.0107  0.8238  0.7965
 5524SOL     OW27250   2.250   8.244   2.766 -0.0677  0.8459 -0.0260
 5524SOL    HW127251   2.163   8.200   2.743 -0.2032 -0.6514  3.0564
 5524SOL    HW227252   2.250   8.268   2.863  3.4458 -0.4137  0.3555
 5525SOL     OW27253   9.325   0.408   0.040 -0.7416 -1.0346  0.3617
 5525SOL    HW127254   9.276   0.321   0.048 -2.8290  0.3074  2.7395
 5525SOL    HW227255   9.373   0.427   0.126 -1.1510  0.6606  0.2272
 5526SOL     OW27256   1.290   2.766   3.662 -0.1841 -0.3227  0.2166
 5526SOL    HW127257   1.275   2.779   3.564 -0.8480 -0.8035  0.2505
 5526SOL    HW227258   1.384   2.738   3.677  0.9251  3.0475  0.0286
 5527SOL     OW27259   9.956   8.967   4.062 -0.4291  0.3534 -0.3340
 5527SOL    HW127260  10.012   8.900   4.014  1.1817  0.6858  1.0598
 5527SOL    HW227261   9.906   9.022   3.996  0.9006  0.0682 -1.5889
 5528SOL     OW27262   7.080   0.825   2.780  0.0746  0.0042 -0.0559
 5528SOL    HW127263   7.006   0.887   2.804  0.7499  0.2974  1.3142
 5528SOL    HW227264   7.059   0.733   2.812 -0.4967 -0.2895 -1.2493
 5529SOL     OW27265   3.178   1.244   4.547  0.5690  0.0549  0.4401
 5529SOL    HW127266   3.236   1.181   4.496 -0.2063 -0.1460 -0.2115
 5529SOL    HW227267   3.220   1.266   4.634  1.1132 -0.9191  0.4230
 5530SOL     OW27268   6.844   9.684   0.498 -0.5156  0.5454 -0.6097
 5530SOL    HW127269   6.828   9.609   0.433 -0.9899  0.4969 -0.4409
 5530SOL    HW227270   6.901   9.754   0.455  2.1444 -1.1245  0.0961
 5531SOL     OW27271   2.710   9.329   0.556 -0.2501 -0.5286 -0.5264
 5531SOL    HW127272   2.755   9.386   0.488 -1.3337 -0.6614 -1.3574
 5531SOL    HW227273   2.771   9.254   0.582  0.5851  0.1433 -0.5457
 5532SOL     OW27274   5.483   8.051   2.206 -0.2560  0.1547  0.0429
 5532SOL    HW127275   5.519   7.992   2.278 -0.8750  1.4637  1.4584
 5532SOL    HW227276   5.506   8.012   2.116  0.1776 -1.7095  0.9297
 5533SOL     OW27277   7.123   3.108   4.671  0.5606  0.8734 -0.2749
 5533SOL    HW127278   7.091   3.184   4.615 -0.0854  0.2124 -0.7966
 5533SOL    HW227279   7.066   3.028   4.656  1.4023  0.1965  0.0762
 5534SOL     OW27280   7.708   5.769   2.816 -0.3147  0.0557  0.1189
 5534SOL    HW127281   7.637   5.839   2.824 -0.6579 -0.1656 -0.9567
 5534SOL    HW227282   7.798   5.811   2.820 -0.4903  0.3058  1.8547
 5535SOL     OW27283   6.299   9.749   2.287 -0.6765 -0.5471  0.2042
 5535SOL    HW127284   6.212   9.715   2.322 -0.8229  1.9141  2.3817
 5535SOL    HW227285   6.282   9.819   2.217 -0.3933 -2.7570 -2.1274
 5536SOL     OW27286   9.303   6.218   4.281  0.4892 -0.0338  0.6527
 5536SOL    HW127287   9.270   6.255   4.367 -3.3315 -1.0462 -0.2738
 5536SOL    HW227288   9.276   6.279   4.206  2.7289  0.2256  0.0054
 5537SOL     OW27289   8.016   1.175   3.032  0.1985  0.3442 -0.0878
 5537SOL    HW127290   7.918   1.188   3.019  0.1700 -0.7299 -1.0201
 5537SOL    HW227291   8.049   1.239   3.101 -0.6410  2.6632 -1.7492
 5538SOL     OW27292   1.159   6.869   4.604 -0.5080  0.7465  0.3851
 5538SOL    HW127293   1.115   6.906   4.522 -0.1391 -0.8632 -0.5651
 5538SOL    HW227294   1.092   6.816   4.656  0.3714 -2.2220 -1.3806
 5539SOL     OW27295   0.362   5.768   0.895  0.5063 -0.8875  0.3086
 5539SOL    HW127296   0.343   5.713   0.977  1.1886 -0.3830  0.8136
 5539SOL    HW227297   0.439   5.728   0.845  0.1031 -1.1832 -0.0782
 5540SOL     OW27298   2.023   2.871   3.696 -0.0840  0.3983  0.0073
 5540SOL    HW127299   1.997   2.957   3.652 -0.5414  0.3575  0.1969
 5540SOL    HW227300   2.075   2.891   3.779  0.9657  0.4728 -0.6520
 5541SOL     OW27301   3.322   0.726   4.471 -0.4000 -0.3940  0.5975
 5541SOL    HW127302   3.328   0.781   4.388  0.2601  0.0918  0.9646
 5541SOL    HW227303   3.313   0.629   4.446  1.7965 -0.4505 -0.0402
 5542SOL     OW27304   3.408   8.886   3.688 -0.1196  0.0418  0.1239
 5542SOL    HW127305   3.484   8.858   3.630 -0.6361 -0.5149 -0.2845
 5542SOL    HW227306   3.441   8.903   3.781  0.2980 -1.3318  0.2350
 5543SOL     OW27307   0.037   0.885   1.298  0.0372 -0.2601 -0.1332
 5543SOL    HW127308  -0.059   0.876   1.323  0.7343 -1.2782  2.2815
 5543SOL    HW227309   0.051   0.844   1.207 -1.7571 -0.3073 -0.4037
 5544SOL     OW27310   3.697   1.781   3.277 -0.3191 -0.2492 -0.2245
 5544SOL    HW127311   3.783   1.731   3.264 -0.5049 -0.6926  0.2533
 5544SOL    HW227312   3.718   1.875   3.304  0.0243 -0.2430 -0.5038
 5545SOL     OW27313   9.499   6.382   3.318 -0.0105  0.4756  0.2117
 5545SOL    HW127314   9.547   6.398   3.232 -0.9225  0.3923 -0.3124
 5545SOL    HW227315   9.566   6.367   3.391  0.7786  1.4927 -0.2897
 5546SOL     OW27316   0.292   7.825   0.653 -0.1048 -0.0557 -0.6575
 5546SOL    HW127317   0.276   7.883   0.574 -2.1131 -1.4348 -1.3038
 5546SOL    HW227318   0.216   7.760   0.663  0.9806 -1.0741  1.3530
 5547SOL     OW27319   0.136   5.239   1.575  0.2395 -0.6481  0.0408
 5547SOL    HW127320   0.071   5.184   1.628  1.0113 -1.4932  0.1322
 5547SOL    HW227321   0.108   5.240   1.479  0.1912 -1.1684  0.0472
 5548SOL     OW27322   0.703   5.948   4.656  0.3587  0.6509 -0.2223
 5548SOL    HW127323   0.634   6.020   4.644  0.2156  0.9007  1.9430
 5548SOL    HW227324   0.789   5.978   4.615 -0.7792  0.3016 -3.0292
 5549SOL     OW27325   8.095   4.425   1.181  0.4531 -0.1984 -0.4065
 5549SOL    HW127326   8.055   4.463   1.098 -0.7409  1.1295  0.7546
 5549SOL    HW227327   8.115   4.499   1.245  0.3001 -1.3118  0.9487
 5550SOL     OW27328   1.364   5.907   3.326  0.0656  0.7890  0.4083
 5550SOL    HW127329   1.284   5.870   3.372  0.4311 -1.4304 -0.7011
 5550SOL    HW227330   1.336   5.979   3.262 -0.9232  0.7036  0.7402
 5551SOL     OW27331   2.155   0.401   0.830 -0.0943 -0.0947  0.7523
 5551SOL    HW127332   2.188   0.375   0.739  0.3472 -0.7219  1.0881
 5551SOL    HW227333   2.078   0.463   0.820 -0.4546 -0.6546 -0.0630
 5552SOL     OW27334   1.117   1.282   4.014  0.2049 -0.2349 -0.1594
 5552SOL    HW127335   1.073   1.302   4.101  0.2050 -2.7258  0.4532
 5552SOL    HW227336   1.079   1.342   3.943 -0.4757  1.1627  1.3518
 5553SOL     OW27337   0.728   3.631   3.683 -0.0987  0.5380 -0.2049
 5553SOL    HW127338   0.738   3.725   3.651  1.1354 -0.2115 -2.0614
 5553SOL    HW227339   0.800   3.610   3.749 -1.0778  1.2491  1.1116
 5554SOL     OW27340   2.312   7.683   4.538  0.0216  0.6837  0.2789
 5554SOL    HW127341   2.244   7.672   4.465  1.1069 -0.3489 -0.6132
 5554SOL    HW227342   2.267   7.676   4.627 -1.0106 -0.2821 -0.2968
 5555SOL     OW27343   2.021   8.401   1.398 -0.2790  0.1464 -0.2738
 5555SOL    HW127344   1.977   8.408   1.488  1.7221 -1.9198  0.9094
 5555SOL    HW227345   1.965   8.346   1.337 -0.9129  0.2962  0.1674
 5556SOL     OW27346   8.383   1.954   0.710  0.4182  0.1172  0.6928
 5556SOL    HW127347   8.456   1.936   0.775 -1.1463  2.4805  3.1835
 5556SOL    HW227348   8.295   1.933   0.752 -0.6949  2.5441 -0.3352
 5557SOL     OW27349   3.497   1.169   3.847 -0.2021  0.2851 -0.2245
 5557SOL    HW127350   3.406   1.149   3.883  0.6925  0.9448  2.5061
 5557SOL    HW227351   3.501   1.266   3.821 -0.7189 -0.0940 -1.7699
 5558SOL     OW27352   8.912   8.871   1.571 -0.2445  0.2402  0.5923
 5558SOL    HW127353   8.868   8.958   1.594  0.4418  1.6027 -2.9669
 5558SOL    HW227354   8.863   8.827   1.495 -0.1514 -2.1791  1.8557
 5559SOL     OW27355   1.873   8.944   2.706 -0.4237  0.0597  0.4222
 5559SOL    HW127356   1.939   8.869   2.705  1.6794  1.8689 -0.9115
 5559SOL    HW227357   1.802   8.927   2.637  1.4097  0.4429 -1.5910
 5560SOL     OW27358   4.517   3.751   4.516  0.4561  0.0898 -0.2614
 5560SOL    HW127359   4.435   3.748   4.459  0.9788  2.6310 -1.2201
 5560SOL    HW227360   4.549   3.658   4.532 -2.0697 -0.9040 -0.6284
 5561SOL     OW27361   8.893   9.467   2.972 -0.0790  0.0516  0.1793
 5561SOL    HW127362   8.817   9.515   2.928 -0.8328 -0.5645  0.7840
 5561SOL    HW227363   8.859   9.419   3.053  0.9510 -0.2676  0.4255
 5562SOL     OW27364   0.790   2.088   1.519  0.5897 -0.4681 -0.2080
 5562SOL    HW127365   0.755   2.164   1.466  2.8381  0.6543 -0.1184
 5562SOL    HW227366   0.762   2.002   1.477  1.1890  0.4091 -2.4181
 5563SOL     OW27367   8.702   5.919   4.106  0.2402 -0.0598  0.7164
 5563SOL    HW127368   8.652   5.845   4.061  2.1824  0.0811 -1.7793
 5563SOL    HW227369   8.742   5.885   4.192 -0.0428 -1.5235  0.2834
 5564SOL     OW27370   0.362   8.897   0.497 -0.0745  0.0612  0.1949
 5564SOL    HW127371   0.456   8.902   0.463  0.1058 -0.7691  0.5656
 5564SOL    HW227372   0.361   8.916   0.595 -0.6070  2.5481 -0.2748
 5565SOL     OW27373   6.181   8.437   2.008  0.4322 -0.1310 -0.1147
 5565SOL    HW127374   6.182   8.530   1.971 -0.1653  0.2414  0.7784
 5565SOL    HW227375   6.159   8.440   2.106 -1.2601 -1.3374 -0.4394
 5566SOL     OW27376   2.325   6.735   2.014  0.6273  0.1548 -0.2765
 5566SOL    HW127377   2.270   6.799   2.068 -2.9034 -0.3003 -3.1152
 5566SOL    HW227378   2.322   6.644   2.056 -0.1600  0.3182  0.0277
 5567SOL     OW27379   4.362   5.095   1.471 -0.3874  0.2103 -0.1044
 5567SOL    HW127380   4.328   5.017   1.524  1.7746  0.1371  1.2196
 5567SOL    HW227381   4.446   5.070   1.424 -0.8863  1.0777 -1.4784
 5568SOL     OW27382   3.894   9.770   0.754  0.2630 -0.0109 -0.1541
 5568SOL    HW127383   3.964   9.748   0.821  1.1765  0.5777 -0.8938
 5568SOL    HW227384   3.927   9.843   0.694 -1.0235  0.3455 -0.4496
 5569SOL     OW27385   9.396   2.479   3.384 -0.3575  0.2382  0.2201
 5569SOL    HW127386   9.319   2.525   3.341 -0.3950 -0.5745 -0.5999
 5569SOL    HW227387   9.447   2.429   3.315  0.5372  0.2459  0.8635
 5570SOL     OW27388   0.994   7.987   1.862 -0.3872 -0.4063 -0.0339
 5570SOL    HW127389   1.064   7.918   1.849 -0.2532 -0.2546 -0.1212
 5570SOL    HW227390   1.036   8.078   1.863 -0.1144 -0.4809  3.3502
 5571SOL     OW27391   9.432   4.425   0.308  0.0736 -0.4554  0.1090
 5571SOL    HW127392   9.399   4.400   0.399  0.1479  1.2318  0.6104
 5571SOL    HW227393   9.365   4.395   0.240 -1.3816  0.8011  0.9399
 5572SOL     OW27394   6.901   8.425   2.757 -0.7931  0.0363  0.1483
 5572SOL    HW127395   6.811   8.405   2.797 -0.7749 -2.5886 -0.9697
 5572SOL    HW227396   6.889   8.480   2.674 -1.3316  0.0737  0.2497
 5573SOL     OW27397   3.838   8.749   3.059  0.3132  0.4729  0.1929
 5573SOL    HW127398   3.865   8.846   3.059  0.2770  0.4953  1.3987
 5573SOL    HW227399   3.810   8.722   2.967  0.9396  1.4354 -0.2926
 5574SOL     OW27400   6.935   6.895   1.870 -0.1451 -0.3992  0.4794
 5574SOL    HW127401   6.974   6.809   1.837  2.2093 -0.6233  3.6794
 5574SOL    HW227402   6.853   6.875   1.924 -0.9988 -0.4088 -0.7905
 5575SOL     OW27403   4.523   5.304   0.878 -0.4213  0.2244 -0.0404
 5575SOL    HW127404   4.433   5.261   0.879 -0.4439  0.2200 -1.5964
 5575SOL    HW227405   4.520   5.387   0.934 -1.5689  0.5578 -0.5710
 5576SOL     OW27406   2.046   0.054   3.430 -0.4816 -0.7750  0.2650
 5576SOL    HW127407   2.002   0.144   3.427 -0.3746 -0.6036  2.8932
 5576SOL    HW227408   2.092   0.042   3.518  0.9515 -2.7455 -0.6976
 5577SOL     OW27409   4.833   8.098   2.577  0.5380  0.3608 -0.4259
 5577SOL    HW127410   4.873   8.009   2.602 -0.1190  0.4685  1.0180
 5577SOL    HW227411   4.733   8.092   2.583  0.5288  1.5278  0.8281
 5578SOL     OW27412   5.317   1.430   0.989  0.0450  0.0323 -0.1877
 5578SOL    HW127413   5.240   1.435   1.053 -1.0565 -1.7340 -1.3127
 5578SOL    HW227414   5.290   1.376   0.910  1.7621  1.2602 -1.6338
 5579SOL     OW27415   0.560   1.863   2.704 -0.3605  0.0527 -0.2385
 5579SOL    HW127416   0.563   1.958   2.674  0.5706  0.3024  0.6429
 5579SOL    HW227417   0.650   1.834   2.737 -0.7849 -0.9329  0.1011
 5580SOL     OW27418   2.721   6.367   2.159 -0.2221  0.0898 -0.5380
 5580SOL    HW127419   2.730   6.273   2.128  1.1804  0.3752 -1.0792
 5580SOL    HW227420   2.696   6.426   2.082  0.2596  0.3473 -0.5057
 5581SOL     OW27421   9.261   9.025   2.145  0.3437 -0.1253  0.5266
 5581SOL    HW127422   9.310   8.982   2.221 -1.7871 -0.5854  1.6963
 5581SOL    HW227423   9.215   9.108   2.177  2.0830  1.5029 -1.0580
 5582SOL     OW27424   1.354   7.880   1.228 -0.0498  0.0638  0.0106
 5582SOL    HW127425   1.398   7.918   1.147 -0.2358  0.9297  0.3196
 5582SOL    HW227426   1.287   7.811   1.200 -0.0792  0.3292 -0.5628
 5583SOL     OW27427   4.269   8.893   1.460 -0.2605  0.4914 -0.1707
 5583SOL    HW127428   4.363   8.929   1.456  0.5614 -1.2575  1.8282
 5583SOL    HW227429   4.271   8.802   1.503 -2.5508 -0.8308 -2.7177
 5584SOL     OW27430   1.569   9.543   2.396 -0.3947 -0.2667  0.1566
 5584SOL    HW127431   1.495   9.577   2.337 -0.6215 -1.2190 -0.1147
 5584SOL    HW227432   1.573   9.598   2.479 -0.8927  0.2912 -0.1799
 5585SOL     OW27433   8.459   4.991   0.919  0.1073 -0.0194 -0.2636
 5585SOL    HW127434   8.384   4.928   0.939  0.1712 -0.1955 -0.5770
 5585SOL    HW227435   8.427   5.062   0.856  0.2592 -0.2168 -0.5660
 5586SOL     OW27436   9.068   2.400   0.453  0.0723  0.0315  0.0486
 5586SOL    HW127437   9.093   2.495   0.470 -1.6810  0.8117 -1.5158
 5586SOL    HW227438   8.977   2.396   0.410  0.5416 -2.2845 -0.8218
 5587SOL     OW27439   1.922   0.965   1.166  0.3316 -0.0720 -0.0381
 5587SOL    HW127440   1.906   1.027   1.243  2.0543  1.1111 -0.6135
 5587SOL    HW227441   1.841   0.964   1.107 -0.6995 -0.3951  1.3599
 5588SOL     OW27442   0.801   6.629   0.406  0.3411  0.3202  0.2503
 5588SOL    HW127443   0.753   6.658   0.488  2.1713  1.0395  1.0978
 5588SOL    HW227444   0.842   6.539   0.421 -1.0075 -0.4456 -0.5868
 5589SOL     OW27445   0.795   1.243   2.955  0.2321  0.1447 -0.7316
 5589SOL    HW127446   0.790   1.342   2.968  2.4163  0.0070  1.6257
 5589SOL    HW227447   0.726   1.199   3.012  2.3685  0.1338  1.9724
 5590SOL     OW27448   3.298   9.792   3.441  0.0705  0.0772 -0.5998
 5590SOL    HW127449   3.330   9.749   3.525  0.8928  0.5141 -0.6858
 5590SOL    HW227450   3.216   9.846   3.461 -0.6389 -1.0774 -0.3888
 5591SOL     OW27451   9.517   1.333   2.152  0.7157 -0.3756 -0.1730
 5591SOL    HW127452   9.478   1.360   2.240  1.9885  0.1895  0.2258
 5591SOL    HW227453   9.598   1.276   2.167 -0.2204 -1.9707 -1.0004
 5592SOL     OW27454   3.480   5.095   0.654  0.2679 -0.8846  0.1779
 5592SOL    HW127455   3.572   5.111   0.689  0.8642  1.5825 -2.3200
 5592SOL    HW227456   3.422   5.173   0.678 -0.3774 -1.0632 -0.7912
 5593SOL     OW27457   2.904   0.889   0.902 -0.0392  0.3343  0.3064
 5593SOL    HW127458   2.987   0.891   0.846 -2.0787 -2.4934 -3.0910
 5593SOL    HW227459   2.892   0.797   0.940 -2.0004  0.4797  0.0824
 5594SOL     OW27460   9.077   4.389   1.823 -0.0349  0.1760 -0.6800
 5594SOL    HW127461   9.008   4.415   1.891  0.3317  0.0403 -0.2581
 5594SOL    HW227462   9.145   4.330   1.865 -0.6760 -1.2301 -1.5321
 5595SOL     OW27463   8.979   1.523   2.837  0.0510 -0.2244  0.0964
 5595SOL    HW127464   8.907   1.486   2.897  1.4682  0.7909  2.4747
 5595SOL    HW227465   9.068   1.487   2.865  1.1423  2.8367  0.7744
 5596SOL     OW27466   4.752   0.759   2.002  0.4433 -0.7202 -0.1970
 5596SOL    HW127467   4.732   0.810   1.919  0.7782 -1.0880 -0.5037
 5596SOL    HW227468   4.666   0.737   2.049  0.1541 -1.7119 -1.1629
 5597SOL     OW27469   3.617   1.721   4.002 -0.3309 -0.2344 -0.1075
 5597SOL    HW127470   3.565   1.779   3.941  0.5041  0.7906  0.1376
 5597SOL    HW227471   3.699   1.769   4.033 -1.1658 -0.3743  2.5083
 5598SOL     OW27472   8.755   4.378   1.749 -0.4173  0.4136 -0.2867
 5598SOL    HW127473   8.731   4.424   1.664  0.0447  1.6880  0.2655
 5598SOL    HW227474   8.740   4.280   1.739 -1.2406  0.6585 -1.5329
 5599SOL     OW27475   9.634   8.548   0.158  0.4878  0.3067  0.1075
 5599SOL    HW127476   9.675   8.575   0.070 -0.2763  0.3794 -0.2308
 5599SOL    HW227477   9.565   8.615   0.185 -0.0556 -0.2883  0.2137
 5600SOL     OW27478   3.747   1.272   2.220  0.0621 -0.0809 -0.3828
 5600SOL    HW127479   3.834   1.278   2.171  0.3740  1.3342  0.3259
 5600SOL    HW227480   3.721   1.362   2.254 -2.4372 -0.2084 -1.8387
 5601SOL     OW27481   8.776   5.033   1.869  0.0747 -0.2654  0.4146
 5601SOL    HW127482   8.822   5.054   1.955  0.6100 -1.1862  0.3637
 5601SOL    HW227483   8.727   5.114   1.836  0.5037  0.3110  1.1861
 5602SOL     OW27484   2.189   5.100   0.308  0.3460  0.2149 -0.2428
 5602SOL    HW127485   2.254   5.051   0.366  0.3928 -0.3942 -0.8053
 5602SOL    HW227486   2.204   5.198   0.316  0.1914  0.1459  0.9695
 5603SOL     OW27487   3.508   8.076   1.197 -0.4201  0.5280 -0.0716
 5603SOL    HW127488   3.497   8.064   1.098 -1.8670  1.8000 -0.0916
 5603SOL    HW227489   3.586   8.135   1.215  0.1346 -0.0973 -0.4398
 5604SOL     OW27490   0.892   0.396   2.977  0.2718  0.3577 -0.1267
 5604SOL    HW127491   0.865   0.301   2.991 -1.8819  0.9058 -0.3604
 5604SOL    HW227492   0.924   0.434   3.064  0.9871 -0.5166  0.0062
 5605SOL     OW27493   2.884   6.193   0.183 -0.2346 -0.4107 -0.6385
 5605SOL    HW127494   2.802   6.194   0.127 -0.3951 -0.2016 -0.3979
 5605SOL    HW227495   2.861   6.217   0.277 -0.0069 -1.0040 -0.4282
 5606SOL     OW27496   6.500   9.808   4.235 -0.0681 -0.6942  0.4862
 5606SOL    HW127497   6.453   9.734   4.187 -1.6899  1.3741 -1.2078
 5606SOL    HW227498   6.464   9.815   4.328 -1.5879 -0.5692 -0.0959
 5607SOL     OW27499   0.908   0.540   2.097 -0.6445  0.0710 -0.2256
 5607SOL    HW127500   0.869   0.631   2.083  0.2858  0.2341 -1.8950
 5607SOL    HW227501   1.004   0.550   2.124 -0.8008 -0.4023  0.5169
 5608SOL     OW27502   5.082   0.744   2.572  0.0764  0.4369  0.0334
 5608SOL    HW127503   5.161   0.804   2.565 -1.5508  2.9527  2.3330
 5608SOL    HW227504   5.109   0.660   2.620  1.4680  1.0694  0.4037
 5609SOL     OW27505   2.569   1.558   1.570 -0.3731 -0.1784 -0.1458
 5609SOL    HW127506   2.499   1.501   1.614  0.3421 -0.3438  0.8043
 5609SOL    HW227507   2.647   1.501   1.545 -0.0613  0.2220 -0.0867
 5610SOL     OW27508   1.458   8.004   0.544  0.5113 -0.0942  0.6441
 5610SOL    HW127509   1.386   8.045   0.488  0.9793 -1.3889 -0.9178
 5610SOL    HW227510   1.495   8.074   0.605  0.2470  1.4325 -0.9049
 5611SOL     OW27511   3.397   4.860   1.043 -0.2434 -0.5715 -0.1509
 5611SOL    HW127512   3.493   4.847   1.065 -0.3854 -1.0507  0.1973
 5611SOL    HW227513   3.346   4.876   1.128 -0.3794  0.2503 -0.3880
 5612SOL     OW27514   7.669   0.500   3.970 -0.0060 -0.8490  0.2894
 5612SOL    HW127515   7.718   0.573   3.922 -0.4828 -0.1071  0.9256
 5612SOL    HW227516   7.685   0.413   3.923  0.4236 -0.3120 -0.5714
 5613SOL     OW27517   7.842   6.946   3.211 -0.4996 -0.1483  0.9368
 5613SOL    HW127518   7.758   6.893   3.197  0.7004 -2.3432  1.8351
 5613SOL    HW227519   7.831   7.004   3.292 -1.3616  0.0676  0.6782
 5614SOL     OW27520   1.907   0.778   2.626  0.5178 -0.4313  0.4245
 5614SOL    HW127521   1.846   0.736   2.559 -1.5366 -0.2250  2.1092
 5614SOL    HW227522   1.892   0.736   2.715  0.3425  2.0048  1.5809
 5615SOL     OW27523   2.642   3.576   3.897  0.0054  0.3703  0.4105
 5615SOL    HW127524   2.564   3.638   3.898 -0.1449  0.3231 -2.6895
 5615SOL    HW227525   2.613   3.486   3.864  0.9802 -0.2154  1.1281
 5616SOL     OW27526   2.130   6.731   4.463 -0.2478 -0.3295  0.1902
 5616SOL    HW127527   2.113   6.795   4.538 -1.7244 -0.9633  0.4160
 5616SOL    HW227528   2.101   6.772   4.377  2.0943  0.6742 -0.1640
 5617SOL     OW27529   7.847   2.307   1.888 -0.6855 -0.2833 -0.3705
 5617SOL    HW127530   7.893   2.220   1.904 -1.8067 -0.7723  0.3015
 5617SOL    HW227531   7.817   2.312   1.793  1.4195  0.3817 -1.0221
 5618SOL     OW27532   2.767   5.966   0.833 -0.1145  0.1548 -0.0680
 5618SOL    HW127533   2.801   5.896   0.897  0.9250  0.4875 -0.2412
 5618SOL    HW227534   2.840   5.990   0.769 -1.3508 -0.6306 -1.7808
 5619SOL     OW27535   1.520   5.991   3.809 -0.0051 -0.6748 -0.3471
 5619SOL    HW127536   1.501   6.089   3.818  0.2893 -0.5960 -0.5726
 5619SOL    HW227537   1.435   5.940   3.821 -0.4284 -0.3059 -1.6472
 5620SOL     OW27538   1.997   4.242   1.901 -0.0308 -0.0794  0.5577
 5620SOL    HW127539   2.058   4.176   1.946  0.9698  1.2952  1.2481
 5620SOL    HW227540   1.942   4.289   1.971 -0.2761  0.2862  0.1191
 5621SOL     OW27541   2.887   9.635   2.501 -0.0109  0.0951 -0.1624
 5621SOL    HW127542   2.981   9.650   2.533  1.2904 -3.1918 -2.1277
 5621SOL    HW227543   2.826   9.626   2.580  2.0403 -1.7167  1.3012
 5622SOL     OW27544   9.344   4.900   2.257  0.0857 -0.3048 -0.3550
 5622SOL    HW127545   9.349   4.995   2.287 -1.3944 -0.3464  0.0749
 5622SOL    HW227546   9.361   4.895   2.159 -0.2120  0.4491 -0.4500
 5623SOL     OW27547   4.124   0.463   1.033  0.4219 -0.4085 -0.2499
 5623SOL    HW127548   4.222   0.471   1.012  0.2158  1.9139 -0.5400
 5623SOL    HW227549   4.106   0.503   1.123 -0.2929 -0.5840 -0.3112
 5624SOL     OW27550   2.555   1.769   1.233 -0.4196 -0.1950  0.0345
 5624SOL    HW127551   2.522   1.852   1.279 -2.3125 -0.4906 -0.7572
 5624SOL    HW227552   2.634   1.792   1.177  0.0588  0.7613  1.0663
 5625SOL     OW27553   0.228   3.241   2.510  0.0336  0.0256 -0.0918
 5625SOL    HW127554   0.215   3.171   2.580 -0.5180 -0.5779 -0.8000
 5625SOL    HW227555   0.325   3.247   2.487 -0.1433 -1.7696 -1.3333
 5626SOL     OW27556   7.954   9.316   3.602 -0.1176 -0.3139 -0.1076
 5626SOL    HW127557   7.978   9.229   3.560  0.2736  0.3697 -1.3321
 5626SOL    HW227558   7.972   9.312   3.700 -1.3406 -2.0474  0.0731
 5627SOL     OW27559   9.696   0.548   2.280  0.0565 -0.7042  0.1133
 5627SOL    HW127560   9.697   0.459   2.234  1.0847 -1.4217  1.4399
 5627SOL    HW227561   9.628   0.547   2.353 -0.9363  0.1111 -0.7882
 5628SOL     OW27562   3.090   6.406   0.791  0.3817  0.4314 -0.5418
 5628SOL    HW127563   3.178   6.451   0.807 -0.6599  2.4116 -0.2107
 5628SOL    HW227564   3.087   6.371   0.698  1.3949  0.6552 -0.6666
 5629SOL     OW27565   7.210   0.352   1.965 -0.4238 -0.0939 -0.1950
 5629SOL    HW127566   7.282   0.419   1.983  0.7950 -1.3285 -0.4468
 5629SOL    HW227567   7.250   0.267   1.931 -1.9435 -1.0512  0.3512
 5630SOL     OW27568   3.721   1.418   2.790 -0.0409 -0.2581 -0.4966
 5630SOL    HW127569   3.752   1.324   2.778  2.1715  0.4749 -0.7001
 5630SOL    HW227570   3.735   1.469   2.705  1.3172  0.9512  0.4334
 5631SOL     OW27571   5.030   7.950   1.289  0.4409 -0.1657  0.2665
 5631SOL    HW127572   5.046   8.002   1.372 -1.8573 -1.0864  1.3313
 5631SOL    HW227573   5.008   8.012   1.214  1.4253  0.6055  0.6105
 5632SOL     OW27574   8.162   9.597   3.906 -0.2825  0.1166 -0.2174
 5632SOL    HW127575   8.159   9.585   3.807  1.9718 -0.4734 -0.2554
 5632SOL    HW227576   8.224   9.529   3.945 -1.0473  0.4280  1.5897
 5633SOL     OW27577   5.919   7.124   1.909 -0.4900 -0.1862  0.3061
 5633SOL    HW127578   5.928   7.158   2.002 -1.7274  1.0829 -0.0153
 5633SOL    HW227579   6.007   7.089   1.877  1.0553  3.3066  0.4339
 5634SOL     OW27580   9.610   8.215   3.977  0.0590 -0.2309  0.0646
 5634SOL    HW127581   9.571   8.224   3.885  0.0063  1.4242  0.2281
 5634SOL    HW227582   9.698   8.262   3.981  0.4368 -0.9745  0.6483
 5635SOL     OW27583   2.166   2.986   0.272  0.3520  0.0316 -0.0222
 5635SOL    HW127584   2.214   2.940   0.347 -2.4069  0.6484  2.2125
 5635SOL    HW227585   2.168   3.085   0.287 -1.7804  0.0564  0.2638
 5636SOL     OW27586   8.950   5.116   1.162 -0.0163 -0.1356  0.7216
 5636SOL    HW127587   8.928   5.202   1.117  0.4371 -0.8390 -0.8796
 5636SOL    HW227588   8.996   5.134   1.249 -1.4564  1.2486  1.2249
 5637SOL     OW27589   0.107   3.431   4.588 -0.4082 -0.3864 -0.7644
 5637SOL    HW127590   0.088   3.355   4.651  1.5826  0.6942  1.2259
 5637SOL    HW227591   0.183   3.407   4.528  2.5085  1.2069  2.1575
 5638SOL     OW27592   7.986   9.334   4.186  0.0778  0.1362 -0.3255
 5638SOL    HW127593   8.015   9.425   4.155  1.4840 -0.6930 -1.5273
 5638SOL    HW227594   7.886   9.328   4.185  0.0357  0.6466 -3.3591
 5639SOL     OW27595   4.023   9.560   0.218 -0.1498  0.3035 -0.0692
 5639SOL    HW127596   3.956   9.632   0.238  0.4851  0.7155  0.6008
 5639SOL    HW227597   4.024   9.493   0.292  0.6863  0.6849  0.2713
 5640SOL     OW27598   3.989   2.062   0.668  0.2185  0.0793  0.3513
 5640SOL    HW127599   4.073   2.108   0.698 -0.2337  0.2193  1.4338
 5640SOL    HW227600   3.911   2.105   0.713 -0.5509  0.7786 -1.6101
 5641SOL     OW27601   1.061   1.372   1.654  0.1448  0.2290  0.2772
 5641SOL    HW127602   1.075   1.471   1.659  0.1131  0.1417  2.4018
 5641SOL    HW227603   1.114   1.336   1.577  0.1749  1.8889 -0.5085
 5642SOL     OW27604   1.950   4.905   0.713 -0.0444 -0.5014 -0.3716
 5642SOL    HW127605   1.894   4.898   0.631 -0.1130  0.8354 -0.4560
 5642SOL    HW227606   1.891   4.925   0.792  0.1973 -0.1386 -0.2814
 5643SOL     OW27607   1.088   0.847   3.451  0.0783  0.1219  0.1700
 5643SOL    HW127608   1.106   0.805   3.362 -0.5397 -0.1297  0.1583
 5643SOL    HW227609   1.174   0.855   3.502  0.4151  0.1514 -0.3973
 5644SOL     OW27610   8.089   2.414   1.752 -0.3360  0.4519  0.0101
 5644SOL    HW127611   8.166   2.477   1.762  0.6284 -0.9126  1.3467
 5644SOL    HW227612   8.023   2.428   1.826 -1.0036  1.0986 -0.7007
 5645SOL     OW27613   3.504   3.362   1.447  0.8979  0.3358 -0.3021
 5645SOL    HW127614   3.541   3.444   1.489 -0.2102 -0.1408  1.6560
 5645SOL    HW227615   3.579   3.304   1.414  1.8206  0.5536  1.3595
 5646SOL     OW27616   0.962   1.704   3.407  0.1331  0.0416  0.4027
 5646SOL    HW127617   1.017   1.739   3.484 -1.2020  3.7184 -0.2064
 5646SOL    HW227618   0.885   1.651   3.443 -0.8489  2.2694  1.7092
 5647SOL     OW27619   2.785   9.325   2.111  0.4302 -0.5590  0.4108
 5647SOL    HW127620   2.715   9.321   2.040 -0.7222 -1.2916  1.5841
 5647SOL    HW227621   2.853   9.395   2.086 -0.7871  0.2710 -0.6557
 5648SOL     OW27622   3.839   4.295   1.908 -0.6062  0.3452  0.4085
 5648SOL    HW127623   3.887   4.222   1.957 -2.2570 -1.0044  0.0653
 5648SOL    HW227624   3.903   4.342   1.848  0.0769 -2.1142 -0.8338
 5649SOL     OW27625   0.310   4.530   2.422 -0.1137 -0.3098  0.1332
 5649SOL    HW127626   0.284   4.475   2.344  0.0587  0.2695 -0.3369
 5649SOL    HW227627   0.410   4.533   2.430 -0.1209 -0.0259  0.1287
 5650SOL     OW27628   5.875   0.248   3.257 -0.4072  0.1780 -0.3574
 5650SOL    HW127629   5.781   0.281   3.260 -0.0912  1.0976 -0.3423
 5650SOL    HW227630   5.906   0.225   3.349 -0.9192 -0.9888 -0.4784
 5651SOL     OW27631   2.529   2.913   3.397 -0.5631  0.5934 -0.4757
 5651SOL    HW127632   2.537   2.994   3.339 -0.5781 -0.3695 -1.8408
 5651SOL    HW227633   2.514   2.832   3.340  1.0968 -0.6217  0.7437
 5652SOL     OW27634   4.762   9.703   3.778 -0.2368 -0.2008 -0.0206
 5652SOL    HW127635   4.803   9.795   3.779 -0.2394 -0.0996 -3.2257
 5652SOL    HW227636   4.834   9.634   3.777 -0.1593 -0.1161 -1.5233
 5653SOL     OW27637   9.017   0.561   4.589  0.4839 -0.5164 -0.3913
 5653SOL    HW127638   9.063   0.645   4.616  0.8153  0.0451 -2.5937
 5653SOL    HW227639   9.049   0.533   4.498 -1.7920 -1.3846 -0.9695
 5654SOL     OW27640   9.394   7.465   0.831 -0.5938  0.0115  0.0629
 5654SOL    HW127641   9.334   7.416   0.768  0.6396  2.6421 -3.2883
 5654SOL    HW227642   9.473   7.407   0.853 -1.2756 -1.1149 -0.3903
 5655SOL     OW27643   7.883   0.903   2.310  0.2416 -0.8350 -0.1599
 5655SOL    HW127644   7.957   0.954   2.354 -0.4132  0.4467 -0.5108
 5655SOL    HW227645   7.921   0.824   2.263  1.4870  0.1834 -0.9117
 5656SOL     OW27646   2.728   0.131   4.496 -0.0276 -0.3631 -0.4045
 5656SOL    HW127647   2.824   0.155   4.485 -0.2709 -0.4265 -2.8124
 5656SOL    HW227648   2.682   0.202   4.549  1.0012  0.4506 -0.5884
 5657SOL     OW27649   7.834   0.517   3.440  0.2384  0.0446  0.3315
 5657SOL    HW127650   7.928   0.528   3.407  0.8926 -1.3652  1.6352
 5657SOL    HW227651   7.790   0.441   3.391 -0.7758  1.7032 -1.3881
 5658SOL     OW27652   3.718   2.393   1.485  0.0201 -0.0465  0.2923
 5658SOL    HW127653   3.775   2.405   1.565  0.7205  1.6819 -0.4268
 5658SOL    HW227654   3.769   2.345   1.413  0.3427  0.8301 -0.0787
 5659SOL     OW27655   0.269   6.856   2.872 -0.1271  0.5381 -0.8925
 5659SOL    HW127656   0.343   6.809   2.920 -0.9656 -0.7208 -0.8178
 5659SOL    HW227657   0.291   6.954   2.866  1.8202  0.0887 -1.4274
 5660SOL     OW27658   2.999   2.639   0.970  0.2417  0.3971  0.1990
 5660SOL    HW127659   3.047   2.724   0.949 -1.3225  1.1327 -0.5665
 5660SOL    HW227660   3.053   2.583   1.032  0.7038  2.5536  1.7635
 5661SOL     OW27661   3.294   8.163   0.872  0.1364 -0.0936 -0.2534
 5661SOL    HW127662   3.312   8.139   0.777 -1.7418  0.6059 -0.8085
 5661SOL    HW227663   3.217   8.110   0.906  1.2464 -0.8740  1.1399
 5662SOL     OW27664   3.914   0.595   2.537 -0.4110 -0.4422 -0.1299
 5662SOL    HW127665   4.013   0.582   2.542 -0.2606  0.8793  0.4491
 5662SOL    HW227666   3.894   0.679   2.488 -1.2366 -0.5470  0.0232
 5663SOL     OW27667   0.791   1.149   4.205  0.3483  0.3835  0.1465
 5663SOL    HW127668   0.843   1.075   4.248 -1.3341 -0.6334  0.4430
 5663SOL    HW227669   0.699   1.118   4.183  0.6231  1.4237 -2.6770
 5664SOL     OW27670   8.866   2.898   0.573 -0.4096 -0.1639  0.5706
 5664SOL    HW127671   8.872   2.837   0.494  0.1490  1.9467 -1.0765
 5664SOL    HW227672   8.792   2.965   0.557  0.2140  0.7540  1.4816
 5665SOL     OW27673   0.251   3.692   2.631  0.2071  0.8018  0.3869
 5665SOL    HW127674   0.348   3.669   2.640  0.3827  0.7857 -1.2955
 5665SOL    HW227675   0.198   3.609   2.613 -0.1789  0.7586  1.6851
 5666SOL     OW27676   4.591   7.297   1.077 -0.2775 -0.0428 -1.0635
 5666SOL    HW127677   4.653   7.222   1.055  0.0821  0.1822 -0.8068
 5666SOL    HW227678   4.521   7.264   1.140 -0.2982 -0.2394 -1.1868
 5667SOL     OW27679   2.227   4.201   1.723  0.6741  0.0404 -0.4387
 5667SOL    HW127680   2.147   4.245   1.763  0.3181 -1.8415  0.9539
 5667SOL    HW227681   2.198   4.133   1.655  1.2126  1.6708 -2.3505
 5668SOL     OW27682   8.410   5.585   1.758 -0.2517 -0.3326  0.1807
 5668SOL    HW127683   8.320   5.547   1.777 -0.3215 -1.2983 -1.9925
 5668SOL    HW227684   8.405   5.685   1.765 -1.0931 -0.4559  1.6306
 5669SOL     OW27685   3.028   9.395   2.380 -0.5005  0.2279  0.1395
 5669SOL    HW127686   3.011   9.490   2.355  2.2955  0.1993 -2.1815
 5669SOL    HW227687   3.104   9.390   2.445 -0.2921 -0.4263 -0.1480
 5670SOL     OW27688   9.731   4.151   2.562  0.0566  0.4884 -0.8160
 5670SOL    HW127689   9.778   4.065   2.544 -0.4005  0.1087 -0.2107
 5670SOL    HW227690   9.679   4.179   2.482 -1.8549 -1.1125 -0.1675
 5671SOL     OW27691   0.431   9.391   3.595 -0.4909 -0.3047 -0.6764
 5671SOL    HW127692   0.433   9.376   3.496 -2.3803  0.0157 -0.7804
 5671SOL    HW227693   0.499   9.460   3.619  0.3650 -0.7804 -1.6699
 5672SOL     OW27694   0.922   7.325   0.648 -0.0862  0.4057  0.2451
 5672SOL    HW127695   0.859   7.252   0.619  1.0846 -0.9585  1.0531
 5672SOL    HW227696   0.981   7.290   0.721  2.0689  1.4698 -0.9597
 5673SOL     OW27697   2.301   9.911   0.244 -0.6008  0.4614  0.3504
 5673SOL    HW127698   2.397   9.926   0.222  0.7100 -5.6305  0.9759
 5673SOL    HW227699   2.291   9.905   0.344 -1.0826 -1.5911  0.1941
 5674SOL     OW27700   2.047   2.186   4.711 -0.0614 -0.1057 -0.0788
 5674SOL    HW127701   2.117   2.238   4.760 -1.4797  0.3628  1.5043
 5674SOL    HW227702   2.041   2.218   4.617 -0.3156  2.0365  0.6399
 5675SOL     OW27703   2.912   4.728   4.433 -0.3211 -0.0393  0.6468
 5675SOL    HW127704   2.994   4.701   4.484  0.0323  0.7203  0.4849
 5675SOL    HW227705   2.846   4.768   4.496 -0.0221  0.5842  0.5698
 5676SOL     OW27706   2.392   9.894   2.957 -0.1936  0.2911 -0.0870
 5676SOL    HW127707   2.422   9.813   2.907 -0.2155 -0.0511  0.4436
 5676SOL    HW227708   2.409   9.976   2.903 -2.1941 -0.2437 -1.5587
 5677SOL     OW27709   9.670   5.678   1.810 -0.0678  0.3564 -0.2244
 5677SOL    HW127710   9.755   5.642   1.770  1.6412  1.4425  2.2877
 5677SOL    HW227711   9.633   5.612   1.875  0.7321  1.2905  1.2030
 5678SOL     OW27712   7.896   0.226   4.117  0.0877  0.2466 -0.2470
 5678SOL    HW127713   7.833   0.216   4.040 -0.3317  0.9640 -0.0052
 5678SOL    HW227714   7.978   0.276   4.087 -0.1265  0.6278 -0.2051
 5679SOL     OW27715   0.366   6.677   4.301 -0.5105 -0.2000 -0.2060
 5679SOL    HW127716   0.414   6.608   4.247  0.1980  0.5388 -0.5319
 5679SOL    HW227717   0.334   6.750   4.240  0.0301  0.4878  0.3319
 5680SOL     OW27718   8.087   1.989   2.584 -0.0363 -0.3024  0.4558
 5680SOL    HW127719   8.061   1.925   2.511 -1.4767  2.1854 -1.3352
 5680SOL    HW227720   8.179   2.023   2.567  0.1760 -0.8233  0.5814
 5681SOL     OW27721   9.065   8.503   3.067 -0.6937  0.6774 -0.3757
 5681SOL    HW127722   9.075   8.404   3.077  1.9622  1.0202  0.7603
 5681SOL    HW227723   8.977   8.524   3.025 -0.8376 -2.2244 -1.5999
 5682SOL     OW27724   0.191   0.189   0.987 -0.2244  0.2455  0.2265
 5682SOL    HW127725   0.104   0.141   0.993  0.4214 -0.8971  0.5267
 5682SOL    HW227726   0.243   0.175   1.071  1.7052 -1.9585 -1.2705
 5683SOL     OW27727   9.691   6.295   4.120 -0.2939 -0.4567 -0.0987
 5683SOL    HW127728   9.664   6.335   4.208 -3.3257  0.0214 -1.1732
 5683SOL    HW227729   9.746   6.361   4.069 -3.7029  1.7476 -1.0768
 5684SOL     OW27730   8.864   2.584   2.769 -0.0021 -0.0454  0.0804
 5684SOL    HW127731   8.852   2.652   2.841  0.5235 -0.2661  0.3879
 5684SOL    HW227732   8.828   2.496   2.801  1.7122 -0.5395  0.7337
 5685SOL     OW27733   3.765   8.181   3.826 -0.3663 -0.0593 -0.1112
 5685SOL    HW127734   3.805   8.203   3.915  0.0665  2.7306 -0.9760
 5685SOL    HW227735   3.831   8.128   3.772 -0.1015 -0.5373  0.6690
 5686SOL     OW27736   9.099   2.797   1.484 -0.1420  0.3246 -0.0571
 5686SOL    HW127737   9.010   2.794   1.528 -0.2262  1.6459 -0.1145
 5686SOL    HW227738   9.100   2.871   1.417  0.9461  0.2333 -0.1450
 5687SOL     OW27739   0.212   0.575   1.075  0.3572 -0.0551 -0.0878
 5687SOL    HW127740   0.198   0.524   0.989 -1.6886 -0.7748  0.6650
 5687SOL    HW227741   0.156   0.657   1.075  0.5552  0.0805  0.4595
 5688SOL     OW27742   0.465   6.218   2.727  0.1805  0.9231  0.0207
 5688SOL    HW127743   0.410   6.135   2.724 -1.3150  1.8762  0.4015
 5688SOL    HW227744   0.429   6.284   2.661  0.4467  1.8167  0.7592
 5689SOL     OW27745   9.373   9.562   1.852 -0.2945 -0.2637  0.6774
 5689SOL    HW127746   9.283   9.605   1.855  1.0235  2.5245  1.9299
 5689SOL    HW227747   9.435   9.609   1.915  2.1331 -1.9366 -0.3621
 5690SOL     OW27748   1.704   6.548   1.240  0.1368  0.2040 -0.2967
 5690SOL    HW127749   1.787   6.494   1.257  0.3853  1.0019  1.0472
 5690SOL    HW227750   1.713   6.596   1.153  1.6253  1.2905  0.4382
 5691SOL     OW27751   4.644   4.699   1.497  0.2033  0.1473  0.3111
 5691SOL    HW127752   4.730   4.681   1.545  0.0971  0.2082  0.5270
 5691SOL    HW227753   4.589   4.616   1.495  0.0728  0.2246  0.5744
 5692SOL     OW27754   0.777   9.787   4.560 -0.8808 -0.8244  0.4061
 5692SOL    HW127755   0.703   9.811   4.498  0.8787  0.5717 -1.1765
 5692SOL    HW227756   0.794   9.688   4.554 -0.9792 -0.7617 -1.0396
 5693SOL     OW27757   1.812   8.173   1.437 -0.2676 -0.3492  0.3744
 5693SOL    HW127758   1.835   8.102   1.504  1.1583 -1.5250 -1.3106
 5693SOL    HW227759   1.769   8.131   1.358  0.6486  0.6570 -0.6680
 5694SOL     OW27760   5.487   0.384   0.865  0.4003 -0.2718 -0.2196
 5694SOL    HW127761   5.538   0.324   0.803 -1.2573 -0.6795 -1.2141
 5694SOL    HW227762   5.395   0.397   0.830  0.2513  1.6161  0.8133
 5695SOL     OW27763   3.094   4.221   2.417 -0.0834 -0.1596  0.5029
 5695SOL    HW127764   3.124   4.178   2.502  0.7095 -0.3048  0.1574
 5695SOL    HW227765   3.001   4.255   2.428  0.7993  1.8428  2.1571
 5696SOL     OW27766   0.775   9.544   2.830  0.2244 -0.0882  0.3498
 5696SOL    HW127767   0.857   9.537   2.774  1.3969  0.7917  1.9216
 5696SOL    HW227768   0.793   9.602   2.910 -2.4977  1.7730 -0.3067
 5697SOL     OW27769   8.240   4.469   0.409 -0.4081  0.0201  0.0606
 5697SOL    HW127770   8.245   4.383   0.359  0.2309  1.1187 -1.7925
 5697SOL    HW227771   8.332   4.495   0.441 -0.2589  1.0397 -1.1673
 5698SOL     OW27772   7.125   9.625   3.864  0.4471  0.2262 -0.6704
 5698SOL    HW127773   7.219   9.592   3.873  0.3872  0.8072  2.3211
 5698SOL    HW227774   7.102   9.684   3.941 -1.9169  1.2956 -2.1143
 5699SOL     OW27775   0.892   6.911   3.170  0.0891  0.0174  0.4660
 5699SOL    HW127776   0.864   7.007   3.163  0.3326  0.0094 -0.6142
 5699SOL    HW227777   0.992   6.905   3.172  0.1556 -0.3650 -2.1102
 5700SOL     OW27778   1.422   4.022   1.537  0.0511  0.1055 -0.8112
 5700SOL    HW127779   1.399   4.029   1.634  0.1766 -1.2697 -0.6628
 5700SOL    HW227780   1.339   4.031   1.482  0.0132  1.1379 -0.5990
 5701SOL     OW27781   7.483   8.420   1.035  0.2168 -0.6015  0.2172
 5701SOL    HW127782   7.570   8.428   1.084  0.6686 -0.8365 -0.5346
 5701SOL    HW227783   7.428   8.347   1.076  1.2893 -1.9136 -0.6436
 5702SOL     OW27784   0.600   0.519   4.529  0.1756  0.2926 -0.8015
 5702SOL    HW127785   0.566   0.609   4.500 -2.0642 -0.6529 -1.1627
 5702SOL    HW227786   0.580   0.506   4.626  0.5535  0.1944 -0.7343
 5703SOL     OW27787   9.230   4.981   2.874  0.1562 -0.5257  0.1277
 5703SOL    HW127788   9.202   4.926   2.796 -0.2304  0.2865 -0.3136
 5703SOL    HW227789   9.329   4.969   2.890  0.4932  0.2875 -1.2837
 5704SOL     OW27790   1.564   6.346   1.774  0.1432  0.2070  0.4954
 5704SOL    HW127791   1.624   6.340   1.695  0.0826 -0.2876  0.4870
 5704SOL    HW227792   1.561   6.441   1.807  1.1644  0.1777  0.6782
 5705SOL     OW27793   1.828   3.011   0.346 -0.1989 -0.1880  0.2698
 5705SOL    HW127794   1.898   2.963   0.399 -0.3679 -2.6401 -1.6122
 5705SOL    HW227795   1.871   3.058   0.269 -0.3969 -0.0717  0.2305
 5706SOL     OW27796   1.508   4.917   2.322  0.5315  0.0787  0.2473
 5706SOL    HW127797   1.568   4.867   2.260  0.6337 -1.2887  1.4458
 5706SOL    HW227798   1.413   4.891   2.304  0.3493  1.4848 -0.9543
 5707SOL     OW27799   3.615   7.780   2.030 -0.8677  0.7720  0.4768
 5707SOL    HW127800   3.551   7.704   2.024 -0.0739  0.0337  1.2143
 5707SOL    HW227801   3.658   7.780   2.120  1.2239  0.3963 -0.4931
 5708SOL     OW27802   5.305   9.932   0.628  0.2379  0.0632 -0.3869
 5708SOL    HW127803   5.244   9.861   0.664  1.1035 -1.3146 -1.5364
 5708SOL    HW227804   5.399   9.913   0.657  0.1372  2.2031  1.4143
 5709SOL     OW27805   0.769   2.252   1.928 -0.3558  0.0160 -0.2163
 5709SOL    HW127806   0.778   2.341   1.884 -0.6337 -0.3946 -1.1184
 5709SOL    HW227807   0.860   2.213   1.944 -0.1520  1.2898  1.9325
 5710SOL     OW27808   4.053   9.443   1.050  0.0172 -0.6565 -0.3958
 5710SOL    HW127809   4.052   9.469   0.953  0.7131  1.0987  0.0511
 5710SOL    HW227810   3.960   9.446   1.086  0.0180  0.8350 -0.4754
 5711SOL     OW27811   8.128   6.883   4.183 -0.0210 -0.4547 -0.0352
 5711SOL    HW127812   8.122   6.881   4.084 -2.5208 -1.0421  0.0959
 5711SOL    HW227813   8.131   6.790   4.219  2.6994 -0.2362  0.3729
 5712SOL     OW27814   2.816   6.454   3.298 -0.2234 -0.6332  0.2852
 5712SOL    HW127815   2.757   6.381   3.331 -1.5786  0.2810 -0.0636
 5712SOL    HW227816   2.818   6.452   3.198 -0.5656  0.0211  0.2603
 5713SOL     OW27817   6.580   9.748   0.907 -0.2357 -0.0600 -0.1598
 5713SOL    HW127818   6.519   9.740   0.829 -0.2155 -0.8317 -0.0972
 5713SOL    HW227819   6.559   9.832   0.958 -0.1869  0.4908 -1.0375
 5714SOL     OW27820   9.817   6.629   1.031 -0.5225  0.4248  0.4940
 5714SOL    HW127821   9.798   6.542   1.077 -1.7902 -0.1289 -1.0262
 5714SOL    HW227822   9.913   6.633   1.006 -0.7774 -1.2930 -0.8987
 5715SOL     OW27823   2.658   9.945   0.817 -0.3726 -0.5567  0.1289
 5715SOL    HW127824   2.571   9.895   0.827 -0.5328 -0.2979  0.0235
 5715SOL    HW227825   2.734   9.880   0.825 -0.5817 -0.8230 -0.0372
 5716SOL     OW27826   8.263   6.723   0.717  0.2804  0.3834  0.3809
 5716SOL    HW127827   8.313   6.775   0.786 -0.3680 -0.2111  1.3044
 5716SOL    HW227828   8.224   6.787   0.650  2.1208  0.8528 -0.2623
 5717SOL     OW27829   8.336   8.976   4.469 -0.0453 -0.2409 -0.4672
 5717SOL    HW127830   8.378   8.889   4.497 -1.6491 -0.8401  0.1366
 5717SOL    HW227831   8.250   8.957   4.421 -0.1483  1.0085 -0.7816
 5718SOL     OW27832   0.746   5.049   2.136  0.2163 -0.6007 -0.3627
 5718SOL    HW127833   0.698   5.065   2.222  0.0277 -1.6526 -0.2689
 5718SOL    HW227834   0.698   5.097   2.062 -0.6659 -1.1769 -0.1757
 5719SOL     OW27835   1.202   4.168   2.039 -0.2694 -0.2381  0.9037
 5719SOL    HW127836   1.124   4.138   2.094 -0.1404  0.9113  1.7241
 5719SOL    HW227837   1.282   4.181   2.097 -0.1422  1.0431  0.4551
 5720SOL     OW27838   1.009   9.382   3.832  0.3113 -0.8904  0.4941
 5720SOL    HW127839   1.023   9.481   3.834 -2.0368 -0.5605  1.7985
 5720SOL    HW227840   1.036   9.342   3.920  0.2456 -1.2781  0.3401
 5721SOL     OW27841   3.412   1.538   4.515 -0.0392  0.5497  0.6432
 5721SOL    HW127842   3.485   1.590   4.559  1.2032 -0.1810 -0.5404
 5721SOL    HW227843   3.443   1.445   4.497 -1.5531 -0.0190  0.8825
 5722SOL     OW27844   9.388   8.317   3.304  0.0195 -0.2488 -0.0577
 5722SOL    HW127845   9.349   8.379   3.371  0.7776 -0.7448  0.8551
 5722SOL    HW227846   9.368   8.222   3.331  0.3794 -0.4514 -0.4958
 5723SOL     OW27847   1.592   5.876   0.413  0.6673  0.2548 -0.1171
 5723SOL    HW127848   1.687   5.888   0.443  0.3324  1.2699  0.5628
 5723SOL    HW227849   1.542   5.961   0.427 -0.7089 -0.6933  0.8855
 5724SOL     OW27850   0.235   2.059   4.563 -0.7583  0.0167  0.1397
 5724SOL    HW127851   0.326   2.020   4.575 -1.8218 -2.6353 -0.0890
 5724SOL    HW227852   0.219   2.079   4.466 -1.0643 -1.1669 -0.0558
 5725SOL     OW27853   1.677   3.491   3.442  0.4875  0.5311 -0.1377
 5725SOL    HW127854   1.701   3.409   3.391 -0.6203  0.7389 -1.0182
 5725SOL    HW227855   1.739   3.502   3.520  1.2013 -0.6402 -0.5365
 5726SOL     OW27856   0.727   8.174   2.570  0.8065  0.0250 -0.4627
 5726SOL    HW127857   0.736   8.264   2.529  1.8511 -0.1672 -0.6729
 5726SOL    HW227858   0.641   8.132   2.540  0.1384  1.0952 -0.0638
 5727SOL     OW27859   0.919   0.147   0.189 -0.2260  0.0933  0.3458
 5727SOL    HW127860   0.973   0.069   0.220  0.0060 -0.6474 -1.8593
 5727SOL    HW227861   0.980   0.216   0.150 -0.7282 -0.1556 -0.9093
 5728SOL     OW27862   3.457   1.567   2.330 -0.0547 -0.1476 -0.2904
 5728SOL    HW127863   3.398   1.518   2.266 -0.2707 -0.0875 -0.1394
 5728SOL    HW227864   3.426   1.548   2.423 -0.0069  0.1056 -0.2245
 5729SOL     OW27865   2.235   1.883   3.423  0.1949 -0.4177  0.1474
 5729SOL    HW127866   2.137   1.883   3.442  0.2299  0.7108  0.3638
 5729SOL    HW227867   2.279   1.807   3.470 -0.5356 -0.7729  0.2545
 5730SOL     OW27868   2.252   5.626   1.139  0.2211  0.1622  0.0999
 5730SOL    HW127869   2.292   5.551   1.191 -0.1295  0.2972  0.5654
 5730SOL    HW227870   2.184   5.589   1.074  0.7823 -0.0215 -0.3845
 5731SOL     OW27871   8.770   8.308   1.188 -0.0901 -0.3208  0.3935
 5731SOL    HW127872   8.686   8.254   1.176 -0.6674  0.7415 -0.3691
 5731SOL    HW227873   8.846   8.246   1.207 -0.7450 -1.4156 -0.4621
 5732SOL     OW27874   9.135   2.441   3.776 -1.1693  0.2492 -0.1969
 5732SOL    HW127875   9.042   2.473   3.795 -1.3075 -0.3207  0.1223
 5732SOL    HW227876   9.137   2.341   3.782 -0.2292  0.3379  1.1759
 5733SOL     OW27877   8.138   9.326   0.001 -0.0752 -0.4273 -0.5366
 5733SOL    HW127878   8.228   9.308  -0.038 -0.3786 -2.4483 -0.3361
 5733SOL    HW227879   8.127   9.274   0.086 -1.1483  0.4112 -0.1419
 5734SOL     OW27880   3.163   6.217   3.023 -0.1315 -0.0459 -0.0935
 5734SOL    HW127881   3.192   6.312   3.017 -1.2168  0.3133  0.3466
 5734SOL    HW227882   3.109   6.204   3.106  2.5722 -1.7209  1.4996
 5735SOL     OW27883   4.229   9.153   0.178  0.1702  0.0143 -0.3855
 5735SOL    HW127884   4.169   9.143   0.257  2.6811 -0.5014  1.5199
 5735SOL    HW227885   4.231   9.067   0.127 -2.4709  0.7500 -1.8117
 5736SOL     OW27886   5.974   9.770   3.005 -0.7310  0.1769  0.6973
 5736SOL    HW127887   6.014   9.835   2.940 -1.0099 -2.7101 -2.5257
 5736SOL    HW227888   6.028   9.770   3.089  1.7995  1.4827 -0.8596
 5737SOL     OW27889   1.851   0.255   3.412  0.4090  0.0396  0.1733
 5737SOL    HW127890   1.850   0.311   3.495 -1.8224 -1.1343  0.9780
 5737SOL    HW227891   1.761   0.260   3.367  1.0469 -0.7514 -1.2208
 5738SOL     OW27892   8.643   2.000   4.377  0.3483  0.0076  0.5672
 5738SOL    HW127893   8.654   2.075   4.443  1.2268 -0.2887  0.7569
 5738SOL    HW227894   8.631   1.914   4.427  1.3150 -0.2612  0.3372
 5739SOL     OW27895   4.679   7.605   2.495 -0.0429  0.3192  0.4333
 5739SOL    HW127896   4.689   7.518   2.446  0.3939  0.5660  0.0816
 5739SOL    HW227897   4.586   7.639   2.483  0.5093  1.2025 -1.6276
 5740SOL     OW27898   3.767   0.628   1.754  0.4936  0.0150 -0.3729
 5740SOL    HW127899   3.740   0.603   1.847  0.4361  0.3916 -0.2884
 5740SOL    HW227900   3.840   0.696   1.758 -0.1941  0.7691 -0.6010
 5741SOL     OW27901   3.064   8.297   4.478 -0.0774  0.4638 -0.1835
 5741SOL    HW127902   3.124   8.255   4.546 -1.6990  1.2023  1.7174
 5741SOL    HW227903   3.119   8.352   4.415  1.5238 -0.8437  0.0436
 5742SOL     OW27904   1.510   4.191   1.837 -0.6712 -0.5967  0.2225
 5742SOL    HW127905   1.472   4.276   1.871 -2.5588 -0.9760 -0.9013
 5742SOL    HW227906   1.522   4.196   1.738  0.0744 -1.3183  0.2616
 5743SOL     OW27907   1.992   0.610   1.251 -0.7061  0.4552 -0.3851
 5743SOL    HW127908   1.947   0.617   1.162 -0.4874 -1.6387 -0.6835
 5743SOL    HW227909   1.969   0.522   1.293  1.5531  0.1795  0.3102
 5744SOL     OW27910   9.330   6.236   2.436 -0.4130  0.1385 -0.5751
 5744SOL    HW127911   9.312   6.291   2.517 -0.0861  1.1448 -1.1893
 5744SOL    HW227912   9.315   6.290   2.354  0.0299 -0.6434 -1.1849
 5745SOL     OW27913   2.010   8.113   2.770 -0.8043 -0.3934 -0.3606
 5745SOL    HW127914   2.013   8.096   2.868 -0.5305  0.9739 -0.1263
 5745SOL    HW227915   1.931   8.171   2.749 -0.6408 -0.3624 -0.8910
 5746SOL     OW27916   0.580   9.356   0.247 -0.3733 -0.7673 -0.2549
 5746SOL    HW127917   0.481   9.360   0.264 -0.0100  1.6961  1.5401
 5746SOL    HW227918   0.614   9.448   0.229  1.4204 -1.7579 -2.0970
 5747SOL     OW27919   4.523   9.921   0.701 -0.2058  0.3246  0.1499
 5747SOL    HW127920   4.519   9.959   0.793  0.0646 -0.2925  0.4223
 5747SOL    HW227921   4.504   9.822   0.705  2.7392 -0.3070 -0.0637
 5748SOL     OW27922   9.079   0.473   1.759  0.3444  0.2551 -0.0737
 5748SOL    HW127923   9.131   0.492   1.842  0.2668  1.2081 -0.2415
 5748SOL    HW227924   9.116   0.526   1.683 -0.8192  0.9010 -0.2082
 5749SOL     OW27925   2.858   9.406   1.115  0.4969 -0.3263  0.1056
 5749SOL    HW127926   2.829   9.347   1.040 -0.1467 -0.9784  0.8575
 5749SOL    HW227927   2.875   9.498   1.080 -2.3073  0.0351 -0.4201
 5750SOL     OW27928   3.282   4.509   1.417 -0.0810 -0.6802 -0.0598
 5750SOL    HW127929   3.232   4.525   1.332 -0.1618 -1.2467 -0.1168
 5750SOL    HW227930   3.220   4.474   1.486  0.0046 -0.3070  0.2079
 5751SOL     OW27931   8.638   6.200   0.569  0.1570  0.2543 -0.2818
 5751SOL    HW127932   8.686   6.262   0.632 -0.2569  0.2565  0.0390
 5751SOL    HW227933   8.705   6.149   0.514  0.6077 -1.2151  1.5611
 5752SOL     OW27934   4.179   8.381   1.634 -0.2538 -0.1996  0.0699
 5752SOL    HW127935   4.199   8.308   1.699 -0.3540  0.7145  1.1507
 5752SOL    HW227936   4.085   8.373   1.601 -0.5014 -0.1351  0.7526
 5753SOL     OW27937   3.025   8.894   2.379 -0.6152 -0.4835 -0.4277
 5753SOL    HW127938   2.948   8.891   2.444  1.0061 -1.2310  1.5163
 5753SOL    HW227939   3.029   8.984   2.336 -0.8418  0.5228  1.6023
 5754SOL     OW27940   8.290   0.887   4.752 -0.2827 -0.4350 -0.4858
 5754SOL    HW127941   8.376   0.939   4.752 -1.5633  1.7376 -1.7093
 5754SOL    HW227942   8.300   0.806   4.693  0.9146 -0.1816 -0.6437
 5755SOL     OW27943   0.953   0.380   2.381 -0.0092 -0.0825 -0.2714
 5755SOL    HW127944   0.906   0.469   2.378 -2.8337 -1.5396 -1.3013
 5755SOL    HW227945   0.991   0.365   2.472 -1.9956  0.9732  0.7664
 5756SOL     OW27946   8.801   8.429   2.210 -0.0041  0.3833  0.5863
 5756SOL    HW127947   8.844   8.353   2.161  0.5669  0.2834  1.2447
 5756SOL    HW227948   8.866   8.469   2.274  0.1072  2.2586 -0.6763
 5757SOL     OW27949   1.820   9.860   0.189 -0.1358 -0.1835  0.4436
 5757SOL    HW127950   1.910   9.901   0.172  0.0767 -0.9144 -0.2165
 5757SOL    HW227951   1.817   9.821   0.281  0.3686 -0.5385  0.3102
 5758SOL     OW27952   8.806   3.489   2.499 -0.0434  0.6695  0.0566
 5758SOL    HW127953   8.889   3.442   2.470 -0.9109 -0.1428 -1.1895
 5758SOL    HW227954   8.767   3.539   2.422 -1.9474 -0.8464 -0.0008
 5759SOL     OW27955   1.764   3.873   3.860  0.1862  0.2630 -0.7601
 5759SOL    HW127956   1.802   3.812   3.929 -0.2683 -0.1770 -0.8983
 5759SOL    HW227957   1.741   3.961   3.901 -0.3267 -0.0869 -0.2983
 5760SOL     OW27958   2.175   0.265   0.241 -0.3560  0.1034 -0.2796
 5760SOL    HW127959   2.138   0.324   0.169  1.5974  1.9394  0.1763
 5760SOL    HW227960   2.147   0.299   0.331  0.5493  0.1595 -0.0190
 5761SOL     OW27961   4.104   8.178   2.081  0.0920  0.2674 -0.3315
 5761SOL    HW127962   4.161   8.136   2.151 -1.4900 -1.4916 -0.0451
 5761SOL    HW227963   4.068   8.107   2.020  1.6303  1.7763 -3.0934
 5762SOL     OW27964   3.890   0.367   4.168  0.0122 -0.5552  0.5212
 5762SOL    HW127965   3.984   0.351   4.199  0.7710 -0.4500 -1.5781
 5762SOL    HW227966   3.826   0.344   4.240  1.6039 -1.9635  1.5233
 5763SOL     OW27967   5.110   9.805   1.290 -0.0161  0.5136  0.4994
 5763SOL    HW127968   5.015   9.776   1.279  0.0252  0.3686  0.5343
 5763SOL    HW227969   5.140   9.787   1.384  0.5239 -0.8273  0.0770
 5764SOL     OW27970   0.028   3.446   3.749 -0.4506 -0.6407 -0.2603
 5764SOL    HW127971   0.056   3.502   3.671  0.9245  0.4491  0.9708
 5764SOL    HW227972  -0.038   3.497   3.804 -0.1366 -0.7254  0.1955
 5765SOL     OW27973   2.896   7.654   0.252  0.4085 -0.1363 -0.4040
 5765SOL    HW127974   2.931   7.747   0.260 -0.2653 -0.0495  1.8709
 5765SOL    HW227975   2.939   7.596   0.321 -2.1397 -0.5483  0.9155
 5766SOL     OW27976   2.329   1.406   1.389 -0.0294  0.4507 -0.0928
 5766SOL    HW127977   2.328   1.311   1.357  0.3197  0.9678 -1.7140
 5766SOL    HW227978   2.313   1.409   1.487 -1.1001 -1.2191 -0.2061
 5767SOL     OW27979   1.411   0.598   3.306 -0.0933 -0.6054 -0.1362
 5767SOL    HW127980   1.318   0.608   3.270 -0.4798 -1.0885  0.7135
 5767SOL    HW227981   1.477   0.601   3.231 -0.6350  1.8392 -0.5735
 5768SOL     OW27982   0.166   2.387   1.757 -0.3452 -0.3066  0.5154
 5768SOL    HW127983   0.083   2.359   1.709  0.0334 -0.4408 -0.0663
 5768SOL    HW227984   0.194   2.477   1.725 -0.9191  0.2602  1.5611
 5769SOL     OW27985   9.547   5.454   4.146 -0.0883 -0.3631  0.0575
 5769SOL    HW127986   9.565   5.359   4.123 -0.2002 -0.7393  1.4336
 5769SOL    HW227987   9.615   5.486   4.212  0.2720  0.6776 -0.8212
 5770SOL     OW27988   5.908   6.298   2.755  0.1611  0.2320  0.3498
 5770SOL    HW127989   5.953   6.209   2.760  0.8118  0.5482  0.2319
 5770SOL    HW227990   5.825   6.297   2.811 -0.0560 -0.5706  0.0132
 5771SOL     OW27991   1.881   5.475   2.962 -0.4684  0.2221 -0.1071
 5771SOL    HW127992   1.838   5.536   2.895 -0.6145  2.0742  1.6528
 5771SOL    HW227993   1.968   5.514   2.992  0.5623 -1.5724 -0.6685
 5772SOL     OW27994   8.459   4.881   3.064  0.2517  0.4470 -0.5272
 5772SOL    HW127995   8.399   4.805   3.088  0.7552 -0.6999 -2.7755
 5772SOL    HW227996   8.553   4.860   3.093  0.0073  1.1851  0.8219
 5773SOL     OW27997   2.609   8.215   3.267  0.1398  0.5849  0.5253
 5773SOL    HW127998   2.543   8.239   3.195 -0.9609  0.5992  1.5221
 5773SOL    HW227999   2.602   8.118   3.288 -0.3099  0.7894  1.3606
 5774SOL     OW28000   8.528   2.290   2.588 -0.0754 -0.1250  0.1533
 5774SOL    HW128001   8.584   2.327   2.514 -0.0224 -1.4526 -0.4868
 5774SOL    HW228002   8.515   2.359   2.658  1.7070  0.4560 -0.0689
 5775SOL     OW28003   0.132   1.461   0.567 -0.4877  0.1093  0.2767
 5775SOL    HW128004   0.042   1.493   0.538 -0.5036  0.7482  0.9909
 5775SOL    HW228005   0.164   1.389   0.505 -1.0786  0.5258 -0.5212
 5776SOL     OW28006   5.333   2.267   1.324  0.5103  0.1840  0.0382
 5776SOL    HW128007   5.302   2.181   1.284 -0.8850  0.1251  1.2209
 5776SOL    HW228008   5.423   2.254   1.367  0.8216 -0.3837 -0.7663
 5777SOL     OW28009   8.658   3.959   4.414 -0.0757  0.0880  0.0793
 5777SOL    HW128010   8.757   3.950   4.403 -0.0979 -1.7523  1.1927
 5777SOL    HW228011   8.612   3.905   4.344 -0.2771  0.0466  0.2428
 5778SOL     OW28012   6.691   7.079   2.139 -0.8207  0.4381 -0.2614
 5778SOL    HW128013   6.684   7.156   2.075 -0.1748  1.4594  0.8718
 5778SOL    HW228014   6.603   7.063   2.182 -0.5745  1.6268  0.7126
 5779SOL     OW28015   4.627   1.437   3.020 -0.3852 -0.4240  0.0964
 5779SOL    HW128016   4.645   1.447   2.922 -0.4833 -3.0160 -0.2139
 5779SOL    HW228017   4.530   1.421   3.035 -0.3058 -0.4651  0.5815
 5780SOL     OW28018   1.726   0.312   0.392  0.2816 -0.2103 -0.3942
 5780SOL    HW128019   1.687   0.371   0.462  0.7833  1.8043 -1.7585
 5780SOL    HW228020   1.731   0.362   0.305  2.5071 -1.6354 -1.1289
 5781SOL     OW28021   8.481   4.819   1.531 -0.1988  0.8367  0.0291
 5781SOL    HW128022   8.402   4.825   1.591 -0.5485 -1.1401 -0.1936
 5781SOL    HW228023   8.473   4.738   1.472  2.8788 -0.5300  1.3418
 5782SOL     OW28024   3.641   9.715   3.234 -0.0227 -0.6142 -0.5054
 5782SOL    HW128025   3.721   9.776   3.238  0.7643 -1.7674  2.5050
 5782SOL    HW228026   3.565   9.757   3.283  0.0847 -1.4148  0.3487
 5783SOL     OW28027   1.551   1.727   0.300  0.0625  0.3511  0.0101
 5783SOL    HW128028   1.631   1.674   0.271  0.2288  0.3162  0.5366
 5783SOL    HW228029   1.481   1.665   0.337 -0.7371  0.2364 -1.6328
 5784SOL     OW28030   5.195   7.325   2.934 -0.3578  0.1817  0.1200
 5784SOL    HW128031   5.229   7.345   2.843 -0.9503  1.3110  0.1304
 5784SOL    HW228032   5.237   7.241   2.969 -2.0328 -1.6804 -2.2014
 5785SOL     OW28033   2.754   5.433   2.484 -0.3523 -0.3257  0.3360
 5785SOL    HW128034   2.836   5.434   2.428 -0.4842 -0.6312  0.1337
 5785SOL    HW228035   2.776   5.397   2.574 -0.0647  0.5057  0.6052
 5786SOL     OW28036   0.038   0.809   1.014 -1.0615 -0.3715  0.4361
 5786SOL    HW128037   0.055   0.863   0.932  0.2652 -1.9262 -0.3627
 5786SOL    HW228038  -0.052   0.766   1.007 -1.0913 -0.2356 -0.0589
 5787SOL     OW28039   5.275   9.503   1.348  0.7502 -0.2362  0.7275
 5787SOL    HW128040   5.297   9.417   1.395  0.6069 -0.1802  0.8962
 5787SOL    HW228041   5.176   9.512   1.341  0.7633  0.0047  0.8693
 5788SOL     OW28042   1.004   2.021   2.756  0.2269  0.0489  0.2494
 5788SOL    HW128043   0.935   1.970   2.807  0.0300  0.4818  0.4170
 5788SOL    HW228044   1.041   2.093   2.814 -0.4898  0.9809 -0.4451
 5789SOL     OW28045   9.885   6.894   0.103 -0.4069 -0.0078 -0.0192
 5789SOL    HW128046   9.823   6.816   0.114 -0.9519  0.2232 -1.3245
 5789SOL    HW228047   9.976   6.860   0.077 -0.2256 -0.2970  0.9923
 5790SOL     OW28048   5.613   2.214   1.460  0.2823 -0.3895  0.0592
 5790SOL    HW128049   5.686   2.191   1.396  0.2357 -0.4204  0.0172
 5790SOL    HW228050   5.566   2.130   1.488  0.4610 -0.3985  0.3244
 5791SOL     OW28051   1.919   9.155   4.510 -0.2207  0.6402  0.1952
 5791SOL    HW128052   2.011   9.187   4.532 -0.1069  0.3941  0.0757
 5791SOL    HW228053   1.893   9.082   4.573  0.3009 -0.4128 -0.7992
 5792SOL     OW28054   2.627   6.586   2.017 -0.1569 -0.3427 -0.3939
 5792SOL    HW128055   2.665   6.667   2.061 -1.1982  0.0500 -0.2053
 5792SOL    HW228056   2.537   6.607   1.979  0.4338 -0.8502 -2.1578
 5793SOL     OW28057   8.048   8.167   2.062 -0.3395  0.0706  0.9618
 5793SOL    HW128058   8.109   8.210   1.996 -0.0697 -1.8350 -0.0638
 5793SOL    HW228059   7.963   8.220   2.068  0.2523  1.1176  0.2488
 5794SOL     OW28060   7.805   2.362   3.345  0.0244 -0.9476  0.6080
 5794SOL    HW128061   7.763   2.376   3.435 -0.0698 -1.8625  0.7137
 5794SOL    HW228062   7.829   2.450   3.305  1.3647 -0.5853  2.1414
 5795SOL     OW28063   9.550   5.028   1.253 -0.2241  0.1431  0.0556
 5795SOL    HW128064   9.527   4.957   1.185 -0.4532  2.3892 -2.3012
 5795SOL    HW228065   9.469   5.049   1.307 -0.6037 -0.2609 -0.3434
 5796SOL     OW28066   2.645   0.512   3.955 -0.1289  0.4131  0.7132
 5796SOL    HW128067   2.589   0.551   3.882 -1.0943 -2.5163 -0.1894
 5796SOL    HW228068   2.735   0.555   3.955 -0.4210  1.0883 -1.6594
 5797SOL     OW28069   8.651   6.940   0.837 -0.0457 -0.0947 -0.1010
 5797SOL    HW128070   8.631   6.988   0.923 -1.1065 -0.6547 -0.0237
 5797SOL    HW228071   8.655   7.006   0.762 -2.3056  0.0455 -0.1272
 5798SOL     OW28072   1.858   4.365   3.560  0.1404 -0.0096  0.7518
 5798SOL    HW128073   1.835   4.369   3.463  0.7021 -1.8190  0.5158
 5798SOL    HW228074   1.912   4.445   3.585 -0.2406  0.6046 -0.3592
 5799SOL     OW28075   4.257   3.528   3.710 -0.2602 -0.1184 -0.1318
 5799SOL    HW128076   4.180   3.585   3.682  0.4648  1.3079  0.7348
 5799SOL    HW228077   4.322   3.583   3.762  2.3626 -0.7676 -2.5673
 5800SOL     OW28078   3.202   6.896   1.865 -0.4120  0.1521 -0.2035
 5800SOL    HW128079   3.159   6.945   1.940  0.3947  2.0720 -0.9596
 5800SOL    HW228080   3.295   6.869   1.892 -1.0608 -1.4901  0.4184
 5801SOL     OW28081   9.460   5.162   0.404 -0.3082 -0.2014  0.3638
 5801SOL    HW128082   9.553   5.130   0.384  0.0814  0.7782  0.6049
 5801SOL    HW228083   9.394   5.092   0.375  0.5546 -1.4124  1.2375
 5802SOL     OW28084   4.132   1.212   1.619 -0.1991 -0.5843  0.3913
 5802SOL    HW128085   4.098   1.301   1.650  0.0586  0.3858 -1.9876
 5802SOL    HW228086   4.086   1.186   1.535  0.7671 -2.0322  0.2909
 5803SOL     OW28087   4.008   6.105   2.307  0.1250 -0.3563  0.2939
 5803SOL    HW128088   3.918   6.149   2.312  0.1096 -0.2796 -0.6027
 5803SOL    HW228089   4.006   6.021   2.361  0.1228  0.6623  1.9453
 5804SOL     OW28090   9.221   2.561   2.233 -0.2199  0.2637  0.6582
 5804SOL    HW128091   9.183   2.475   2.267 -0.2702  0.2940  0.6763
 5804SOL    HW228092   9.191   2.636   2.291 -0.0941  0.2811  0.6991
 5805SOL     OW28093   7.353   4.533   3.539 -0.5030  0.1779  0.2279
 5805SOL    HW128094   7.415   4.536   3.461  0.2007  0.5487  0.7953
 5805SOL    HW228095   7.291   4.455   3.530 -0.5345  0.3201 -0.7819
 5806SOL     OW28096   5.432   0.973   2.112  0.1128  0.5167  1.1952
 5806SOL    HW128097   5.494   0.921   2.170  0.9290  0.9835  0.7546
 5806SOL    HW228098   5.465   1.067   2.104 -0.5016  0.6995  0.7284
 5807SOL     OW28099   9.355   8.919   4.330 -0.1017 -0.1151  0.2993
 5807SOL    HW128100   9.440   8.926   4.382 -0.3863  2.5352  0.4725
 5807SOL    HW228101   9.371   8.946   4.235 -0.7008  0.1339  0.2677
 5808SOL     OW28102   1.661   7.188   3.922  0.3085  0.6622 -0.9420
 5808SOL    HW128103   1.561   7.189   3.918  0.3015 -1.5295 -2.2024
 5808SOL    HW228104   1.691   7.113   3.980  1.2392 -0.1732 -2.4734
 5809SOL     OW28105   3.120   6.823   0.348 -0.0032  0.2970 -0.2961
 5809SOL    HW128106   3.187   6.786   0.283  0.9062  1.9915 -0.3413
 5809SOL    HW228107   3.041   6.859   0.297  0.1379  0.4887 -0.3772
 5810SOL     OW28108   4.273   2.513   2.076  0.1355  0.1215  0.3250
 5810SOL    HW128109   4.336   2.436   2.061 -0.4046 -0.9321  3.1557
 5810SOL    HW228110   4.205   2.516   2.002  0.9313 -1.3295 -0.4873
 5811SOL     OW28111   9.133   8.298   4.060 -0.4792 -0.4313  0.2425
 5811SOL    HW128112   9.128   8.263   3.967 -1.3670  0.8268 -0.1921
 5811SOL    HW228113   9.219   8.349   4.071 -1.3520  1.2906 -0.5814
 5812SOL     OW28114   7.077   8.832   2.977 -0.1520  0.1653 -0.0195
 5812SOL    HW128115   7.013   8.906   2.995  0.7976  0.6595  1.3887
 5812SOL    HW228116   7.130   8.812   3.059  1.6954 -0.0444 -1.2155
 5813SOL     OW28117   0.309   1.465   4.292 -0.2102  0.0869 -0.1815
 5813SOL    HW128118   0.352   1.489   4.379  1.7766  0.7171 -1.3108
 5813SOL    HW228119   0.215   1.435   4.308 -0.0348  0.7184  2.1187
 5814SOL     OW28120   4.269   2.251   1.761 -0.3036  0.2308  0.1340
 5814SOL    HW128121   4.356   2.275   1.717 -0.2261  0.5265  0.4460
 5814SOL    HW228122   4.202   2.227   1.692  0.1585 -0.4345 -0.0896
 5815SOL     OW28123   2.200   0.918   1.235  0.0311 -0.3341  0.4038
 5815SOL    HW128124   2.205   0.847   1.306 -0.3482 -1.4293 -0.6542
 5815SOL    HW228125   2.106   0.925   1.203  0.2528 -0.0038 -0.1628
 5816SOL     OW28126   9.138   9.382   3.093 -0.6962 -0.1143  0.3971
 5816SOL    HW128127   9.152   9.471   3.137  1.0204 -0.8536  1.3803
 5816SOL    HW228128   9.069   9.392   3.020  0.7537  2.4156 -0.7208
 5817SOL     OW28129   0.206   6.335   0.148 -0.2144 -0.6605 -0.5052
 5817SOL    HW128130   0.133   6.320   0.081 -3.1431  0.6665  2.2443
 5817SOL    HW228131   0.247   6.248   0.173 -0.6922 -1.4145 -2.2601
 5818SOL     OW28132   9.498   0.684   4.529 -0.0747  0.0684  0.6366
 5818SOL    HW128133   9.423   0.618   4.537  0.3277 -0.2863  1.4681
 5818SOL    HW228134   9.464   0.775   4.553 -0.7251  0.2438 -0.8595
 5819SOL     OW28135   9.765   4.670   3.711 -0.0682 -0.3772  0.3534
 5819SOL    HW128136   9.721   4.590   3.671 -0.3335 -0.8347  1.5383
 5819SOL    HW228137   9.846   4.641   3.762  0.8900  0.3205 -0.7547
 5820SOL     OW28138   2.450   7.067   3.165 -0.4789 -0.3663  0.1010
 5820SOL    HW128139   2.361   7.023   3.177 -0.7749  0.7000  2.0523
 5820SOL    HW228140   2.508   7.009   3.108 -1.5164 -2.3415  0.9982
 5821SOL     OW28141   2.881   2.663   1.431 -0.5150  0.2445 -0.2382
 5821SOL    HW128142   2.868   2.581   1.375 -0.7401  0.1405 -0.0319
 5821SOL    HW228143   2.902   2.741   1.371 -1.2733  0.2411 -0.5121
 5822SOL     OW28144   4.458   7.217   2.410  0.1011 -0.2747 -0.3743
 5822SOL    HW128145   4.423   7.172   2.492  1.3545  0.0386  0.3525
 5822SOL    HW228146   4.465   7.151   2.336 -3.0237 -0.1052 -0.8644
 5823SOL     OW28147   2.993   7.106   2.320  0.4067  0.6394  0.6844
 5823SOL    HW128148   2.907   7.145   2.286 -0.0327 -0.3060  0.6927
 5823SOL    HW228149   2.995   7.008   2.300  2.0015  0.8707 -0.3509
 5824SOL     OW28150   2.843   6.162   2.470 -0.3295  1.0331 -0.4203
 5824SOL    HW128151   2.865   6.069   2.441 -0.4193  0.7599  0.3509
 5824SOL    HW228152   2.912   6.193   2.536 -1.1575  0.9154  0.5094
 5825SOL     OW28153   8.379   2.446   1.358  0.5683  0.1751 -0.0725
 5825SOL    HW128154   8.421   2.390   1.286  0.1440  0.1803 -0.3214
 5825SOL    HW228155   8.445   2.459   1.432  1.1984  0.6358 -0.7095
 5826SOL     OW28156   1.887   2.959   4.019  0.0979 -0.3438  0.4223
 5826SOL    HW128157   1.971   2.926   3.976  0.4886  0.0440  0.8667
 5826SOL    HW228158   1.857   2.893   4.089  0.8056  0.1631  1.2212
 5827SOL     OW28159   2.479   7.192   1.485 -0.0717 -0.2260 -0.4516
 5827SOL    HW128160   2.440   7.158   1.571  1.0979  0.9526  0.5695
 5827SOL    HW228161   2.443   7.284   1.468  0.6130  0.0087 -0.6093
 5828SOL     OW28162   1.973   5.710   3.721  0.1005  0.0917 -0.8624
 5828SOL    HW128163   1.957   5.732   3.625 -1.7528  1.0422 -0.3571
 5828SOL    HW228164   1.886   5.707   3.769  1.0419 -0.0873  0.8597
 5829SOL     OW28165   3.763   3.793   3.335 -0.5866  0.2970 -0.3819
 5829SOL    HW128166   3.751   3.741   3.419  1.6570  0.4443  0.0779
 5829SOL    HW228167   3.792   3.732   3.262  0.8974  0.6716 -0.1361
 5830SOL     OW28168   2.840   6.409   4.649 -0.0878  0.8392  0.3046
 5830SOL    HW128169   2.930   6.430   4.687 -0.2242 -0.7246  1.5566
 5830SOL    HW228170   2.844   6.322   4.601 -0.7165  1.2077 -0.4192
 5831SOL     OW28171   9.861   7.017   4.268 -0.1291  0.1464  0.0418
 5831SOL    HW128172   9.808   7.034   4.185 -0.3883 -0.2389  0.1238
 5831SOL    HW228173   9.898   7.103   4.303 -0.9766  0.4636  0.1663
 5832SOL     OW28174   6.579   8.885   3.272  0.6880  0.6544  0.4317
 5832SOL    HW128175   6.542   8.794   3.256 -0.1073  0.7569  1.6667
 5832SOL    HW228176   6.567   8.940   3.189  1.5273 -0.4661 -0.4546
 5833SOL     OW28177   0.674   9.313   0.893 -0.4517  0.0123 -0.0686
 5833SOL    HW128178   0.728   9.243   0.848 -0.6291  0.3245 -0.7627
 5833SOL    HW228179   0.601   9.270   0.948  0.2442 -0.3869  0.5477
 5834SOL     OW28180   9.314   9.081   0.270 -0.0054  0.1452 -0.1677
 5834SOL    HW128181   9.334   9.044   0.361 -0.2570 -1.5348 -0.7839
 5834SOL    HW228182   9.292   9.007   0.208  0.4245  1.2658 -1.6871
 5835SOL     OW28183   7.888   0.637   0.232  0.1231 -0.3829 -0.2437
 5835SOL    HW128184   7.851   0.725   0.203  1.3367  0.4536  0.6869
 5835SOL    HW228185   7.963   0.611   0.171 -1.0466 -1.3877 -1.2730
 5836SOL     OW28186   9.671   8.667   1.615 -0.0694  0.4037  0.1546
 5836SOL    HW128187   9.619   8.587   1.645  0.8840 -0.1933  0.2323
 5836SOL    HW228188   9.744   8.686   1.681 -0.8967  1.9357  0.6493
 5837SOL     OW28189   9.149   1.200   1.745 -0.5728  0.2300 -0.1983
 5837SOL    HW128190   9.120   1.291   1.774 -0.5022  0.0331  0.5005
 5837SOL    HW228191   9.240   1.182   1.782 -0.7740 -0.2998  0.0372
 5838SOL     OW28192   1.516   0.839   2.627 -0.5768  0.2406 -0.1630
 5838SOL    HW128193   1.542   0.746   2.600 -0.3395  0.5617 -1.0277
 5838SOL    HW228194   1.546   0.904   2.558 -0.2855  1.0231  0.6933
 5839SOL     OW28195   8.133   8.687   1.431  0.1731 -0.4932  0.1366
 5839SOL    HW128196   8.114   8.785   1.446 -0.1706 -0.8887  2.5194
 5839SOL    HW228197   8.212   8.677   1.371  0.4073  1.2557  0.1208
 5840SOL     OW28198   0.537   0.687   0.577  0.0340  0.1320  0.1215
 5840SOL    HW128199   0.489   0.600   0.592 -0.3765 -0.1124 -2.2467
 5840SOL    HW228200   0.479   0.763   0.606 -0.0759 -0.3464  1.1543
 5841SOL     OW28201   9.585   5.782   0.965 -0.2303 -0.3868  0.8216
 5841SOL    HW128202   9.537   5.857   0.920  1.9912 -0.9409 -2.6328
 5841SOL    HW228203   9.526   5.701   0.968 -2.2574  1.0925  3.6541
 5842SOL     OW28204   3.740   9.455   4.042  0.2059  0.0626 -0.2736
 5842SOL    HW128205   3.834   9.449   4.006  0.1908  0.8004 -0.4499
 5842SOL    HW228206   3.743   9.458   4.142  0.4217  0.7414 -0.2930
 5843SOL     OW28207   9.449   4.746   2.709 -0.3135  0.5190 -0.2315
 5843SOL    HW128208   9.349   4.754   2.717 -0.4102 -0.6846 -0.1364
 5843SOL    HW228209   9.481   4.803   2.634 -1.1505  0.3882 -0.6962
 5844SOL     OW28210   8.239   3.873   0.563  0.0670 -0.0881 -0.1459
 5844SOL    HW128211   8.239   3.907   0.469  0.0853 -0.8746 -0.4358
 5844SOL    HW228212   8.172   3.923   0.617  0.4885  0.7866 -0.4285
 5845SOL     OW28213   4.209   1.379   1.274  0.2716 -0.3206  0.1262
 5845SOL    HW128214   4.176   1.433   1.196 -0.1268 -0.6405  0.0714
 5845SOL    HW228215   4.233   1.441   1.349 -0.0234 -0.0580  0.0071
 5846SOL     OW28216   4.588   4.304   1.026 -0.3522  0.2066  0.3294
 5846SOL    HW128217   4.574   4.389   1.077  0.2635  0.6370 -0.2107
 5846SOL    HW228218   4.541   4.229   1.073  0.4006  0.5476  1.6476
 5847SOL     OW28219   5.496   9.740   2.240  0.7611  0.2270  0.0330
 5847SOL    HW128220   5.452   9.795   2.311 -0.3354 -0.0089 -0.4554
 5847SOL    HW228221   5.593   9.763   2.235  0.4725  1.5250  0.3893
 5848SOL     OW28222   9.598   8.239   1.168 -0.6974 -0.0882  0.6601
 5848SOL    HW128223   9.505   8.208   1.189 -0.6683 -0.2185  0.6012
 5848SOL    HW228224   9.659   8.215   1.243 -0.6360 -0.3487  0.5318
 5849SOL     OW28225   2.955   4.481   3.571  0.3836 -0.0336  0.4094
 5849SOL    HW128226   2.946   4.580   3.561  0.0873 -0.2347 -1.5339
 5849SOL    HW228227   3.051   4.457   3.584  0.5744  0.4547 -0.0667
 5850SOL     OW28228   9.475   1.592   3.342 -1.0895 -0.5662  0.0390
 5850SOL    HW128229   9.562   1.544   3.350 -1.3652 -1.3011 -1.2133
 5850SOL    HW228230   9.436   1.606   3.433  1.3855  1.7708  0.8256
 5851SOL     OW28231   7.987   0.450   0.414  0.3638 -0.1854  0.4367
 5851SOL    HW128232   8.026   0.437   0.506 -0.4155  0.4822  0.8675
 5851SOL    HW228233   7.974   0.547   0.398  2.2097 -0.1608 -1.1091
 5852SOL     OW28234   2.396   7.309   3.521 -0.4038  0.5167 -0.2842
 5852SOL    HW128235   2.308   7.289   3.564 -0.1084 -0.0651  0.0410
 5852SOL    HW228236   2.440   7.225   3.491 -0.3780  0.8749 -1.2929
 5853SOL     OW28237   5.108   1.776   2.090 -0.6122  0.5477 -0.2977
 5853SOL    HW128238   5.175   1.849   2.105 -1.4188  1.2840 -0.2644
 5853SOL    HW228239   5.025   1.796   2.141 -1.0331 -0.1357 -0.7110
 5854SOL     OW28240   9.839   8.778   1.133 -0.6452  0.4462  0.6558
 5854SOL    HW128241   9.896   8.831   1.070 -2.2308  0.6064 -0.6961
 5854SOL    HW228242   9.894   8.747   1.210  1.1350  1.0401 -0.3409
 5855SOL     OW28243   4.721   8.981   0.933 -0.1403  0.0224  0.4641
 5855SOL    HW128244   4.652   9.007   1.001 -1.4010  0.2295 -0.8802
 5855SOL    HW228245   4.684   8.994   0.841  1.3119 -0.9289 -0.2690
 5856SOL     OW28246   3.999   6.428   3.373 -1.0345 -0.1570  0.0808
 5856SOL    HW128247   3.951   6.365   3.312 -3.2998  0.5675  1.0882
 5856SOL    HW228248   3.954   6.518   3.370  2.2914  1.5572 -1.5470
 5857SOL     OW28249   3.028   4.895   0.353 -1.0596  0.6131 -0.1554
 5857SOL    HW128250   3.063   4.989   0.355  2.2789 -0.5495 -0.2410
 5857SOL    HW228251   3.026   4.859   0.446 -3.5182  1.1457  0.0197
 5858SOL     OW28252   2.377   8.902   0.513  0.5493 -0.1655  0.2163
 5858SOL    HW128253   2.465   8.855   0.517 -0.1802 -1.5026  0.8695
 5858SOL    HW228254   2.314   8.861   0.579 -0.6669  0.5401 -0.4831
 5859SOL     OW28255   1.335   8.357   3.352 -0.1690 -0.0185 -0.0827
 5859SOL    HW128256   1.396   8.291   3.396 -0.1558  0.3291  0.4219
 5859SOL    HW228257   1.387   8.438   3.326 -0.3979  0.2331  0.2511
 5860SOL     OW28258   0.275   7.141   4.518 -0.2709 -0.4085 -0.1226
 5860SOL    HW128259   0.363   7.187   4.528 -0.4225  0.4947 -2.5530
 5860SOL    HW228260   0.290   7.042   4.511  0.3098 -0.4971  2.0380
 5861SOL     OW28261   7.259   7.116   2.287  0.2749  0.0594  0.9515
 5861SOL    HW128262   7.201   7.148   2.362 -0.4322  1.5124 -0.1809
 5861SOL    HW228263   7.346   7.165   2.289  0.2232  0.1563  0.7586
 5862SOL     OW28264   3.406   9.962   3.937 -0.8043  0.4558 -0.0178
 5862SOL    HW128265   3.464   9.950   3.856 -0.4746 -1.2917  0.4443
 5862SOL    HW228266   3.421  10.053   3.976  0.4021  0.6345 -0.8688
 5863SOL     OW28267   0.176   2.924   2.458 -0.3503  0.0581 -0.1355
 5863SOL    HW128268   0.085   2.959   2.479  0.1132  1.3903 -0.3383
 5863SOL    HW228269   0.170   2.855   2.385 -1.1490  0.4045 -0.3918
 5864SOL     OW28270   9.657   8.254   3.215  0.5890 -0.1228  0.5394
 5864SOL    HW128271   9.566   8.245   3.254  0.8061  0.9993  1.3226
 5864SOL    HW228272   9.723   8.203   3.270  0.5013 -0.6263  0.1854
 5865SOL     OW28273   8.892   0.120   0.176 -0.1751  0.1325  0.0973
 5865SOL    HW128274   8.803   0.164   0.188 -0.3120  0.1159 -0.8695
 5865SOL    HW228275   8.931   0.101   0.266 -1.0507  0.3320  0.5308
 5866SOL     OW28276   8.484   8.749   4.514  0.2975 -0.3817  0.2119
 5866SOL    HW128277   8.489   8.698   4.600 -0.5381 -1.0686 -0.1374
 5866SOL    HW228278   8.574   8.749   4.470  0.1042 -2.3408 -0.2242
 5867SOL     OW28279   2.262   8.388   3.883 -0.3325  0.2437  0.0127
 5867SOL    HW128280   2.310   8.349   3.962 -1.5802  2.7186  2.0705
 5867SOL    HW228281   2.271   8.488   3.885 -2.1202  0.4687 -1.8345
 5868SOL     OW28282   9.568   0.834   2.967 -0.1227 -0.5083  0.0757
 5868SOL    HW128283   9.604   0.774   3.038  0.9920 -0.1063 -0.1348
 5868SOL    HW228284   9.585   0.793   2.877 -0.3516 -0.3966 -0.0200
 5869SOL     OW28285   7.428   7.574   1.014 -0.5114  0.3273  0.0670
 5869SOL    HW128286   7.504   7.615   0.965  0.2581  0.1669  1.1175
 5869SOL    HW228287   7.424   7.476   0.994 -0.9994  0.4972 -0.6959
 5870SOL     OW28288   7.003   0.589   3.267  0.6203 -0.2236  0.1035
 5870SOL    HW128289   7.012   0.556   3.361  1.2612  0.0475  0.1441
 5870SOL    HW228290   6.923   0.547   3.223  0.9391 -1.1709  0.4259
 5871SOL     OW28291   2.696   6.133   2.048 -0.5505  0.0720  0.0699
 5871SOL    HW128292   2.713   6.155   1.951  0.1447 -0.6366  0.0262
 5871SOL    HW228293   2.633   6.056   2.054 -0.0989 -0.2973  0.1621
 5872SOL     OW28294   2.677   4.258   0.473  0.1790  0.0363 -0.4459
 5872SOL    HW128295   2.633   4.279   0.560 -1.5825 -1.6514 -0.9025
 5872SOL    HW228296   2.751   4.193   0.488  0.3602  0.3236 -0.1015
 5873SOL     OW28297   6.955   9.908   0.244  0.2526  0.3845 -0.1607
 5873SOL    HW128298   6.940   9.868   0.154  0.6159 -2.0054  0.7886
 5873SOL    HW228299   6.884   9.976   0.263 -1.9965 -1.7081 -0.8003
 5874SOL     OW28300   7.245   7.802   2.886  0.0459  0.1106  0.0142
 5874SOL    HW128301   7.286   7.721   2.926  0.1185  0.9633  1.7081
 5874SOL    HW228302   7.316   7.870   2.868 -0.2503  0.4888  0.2711
 5875SOL     OW28303   1.727   1.634   0.919 -0.3359  0.3688  0.3208
 5875SOL    HW128304   1.641   1.679   0.895 -0.6424 -0.2230  0.3076
 5875SOL    HW228305   1.779   1.615   0.836 -1.0006 -0.8870  0.1891
 5876SOL     OW28306   3.352   2.577   0.906  0.4690  0.6397  0.0480
 5876SOL    HW128307   3.410   2.614   0.979  1.5906 -0.3105 -0.3355
 5876SOL    HW228308   3.358   2.637   0.826  1.8106 -0.0043 -0.3649
 5877SOL     OW28309   7.923   8.538   0.426 -0.1856  0.9176 -0.0779
 5877SOL    HW128310   7.960   8.584   0.346 -0.5184  1.1193 -0.1142
 5877SOL    HW228311   7.995   8.480   0.467 -0.9920 -1.9995 -2.5777
 5878SOL     OW28312   3.726   4.331   1.507 -0.2913  0.1502  0.5680
 5878SOL    HW128313   3.700   4.345   1.603  0.8921 -1.6037  1.1632
 5878SOL    HW228314   3.825   4.346   1.498 -0.5451  1.1749 -0.5611
 5879SOL     OW28315   8.967   5.812   3.127 -0.0841 -0.7837  0.0195
 5879SOL    HW128316   9.015   5.783   3.210 -1.4557  1.7374  1.7807
 5879SOL    HW228317   8.926   5.733   3.082 -1.2667 -1.9658  3.0389
 5880SOL     OW28318   1.623   5.959   3.101  0.1073 -0.1516 -0.0253
 5880SOL    HW128319   1.646   6.024   3.028 -0.5769 -0.8711 -0.9022
 5880SOL    HW228320   1.543   5.905   3.073  1.4556 -2.2766  0.1113
 5881SOL     OW28321   0.848   6.564   0.904 -0.2461 -0.2772  0.0392
 5881SOL    HW128322   0.774   6.506   0.937 -0.4840 -0.3499 -0.6070
 5881SOL    HW228323   0.831   6.658   0.933  0.0449 -0.4968  0.9292
 5882SOL     OW28324   0.396   0.127   2.671 -0.1616  0.2267 -0.4355
 5882SOL    HW128325   0.493   0.149   2.686  0.0671 -0.3352 -1.0178
 5882SOL    HW228326   0.389   0.033   2.637 -0.9683  0.0370  0.2535
 5883SOL     OW28327   4.711   1.556   1.882  0.0145 -0.5139  0.2760
 5883SOL    HW128328   4.804   1.551   1.847 -0.1554 -1.3838 -0.0480
 5883SOL    HW228329   4.647   1.529   1.810 -0.7810  3.8444 -0.8104
 5884SOL     OW28330   1.390   7.897   2.769  0.6948  0.7866  0.2235
 5884SOL    HW128331   1.320   7.918   2.701 -0.2785  0.0787  1.0015
 5884SOL    HW228332   1.369   7.946   2.854  0.6625 -0.1244  0.7406
 5885SOL     OW28333   4.462   0.034   1.719  0.5802  0.2493 -0.1348
 5885SOL    HW128334   4.496  -0.056   1.691 -1.0549 -0.3256 -0.3550
 5885SOL    HW228335   4.536   0.101   1.714  2.2442 -1.3850  1.5243
 5886SOL     OW28336   2.332   8.092   2.266 -0.6634  0.0491  0.4822
 5886SOL    HW128337   2.309   8.013   2.322 -1.6161 -0.0063  0.0176
 5886SOL    HW228338   2.267   8.166   2.283 -0.4879  0.3119  0.0392
 5887SOL     OW28339   2.467   6.679   1.076 -0.1088 -0.1878  0.0683
 5887SOL    HW128340   2.545   6.722   1.121 -0.9147  0.8327  0.5072
 5887SOL    HW228341   2.460   6.583   1.106  2.8256 -1.2473 -2.3515
 5888SOL     OW28342   9.218   5.007   4.336  0.4411  0.0304 -0.0467
 5888SOL    HW128343   9.295   4.962   4.290  0.1141 -0.3803 -0.1969
 5888SOL    HW228344   9.252   5.071   4.404  0.9617  1.2693 -1.4340
 5889SOL     OW28345   7.980   2.653   3.452 -0.4582 -0.0360 -0.1828
 5889SOL    HW128346   7.957   2.565   3.495 -0.6594 -0.0237 -0.2628
 5889SOL    HW228347   8.075   2.651   3.420  0.5412  0.8816  2.5888
 5890SOL     OW28348   2.159   5.038   1.937 -0.2948 -0.0956  0.4292
 5890SOL    HW128349   2.146   4.968   2.008  0.9453 -1.2827 -0.4673
 5890SOL    HW228350   2.175   4.992   1.849 -1.8853  1.3555 -0.6248
 5891SOL     OW28351   4.238   4.194   1.759 -0.1533 -0.1519 -0.3449
 5891SOL    HW128352   4.168   4.159   1.697  0.6266 -0.7838 -0.8858
 5891SOL    HW228353   4.218   4.166   1.852 -1.4288  0.9432 -0.2830
 5892SOL     OW28354   8.606   1.993   0.175 -0.8596 -0.6887 -0.0550
 5892SOL    HW128355   8.629   2.082   0.137 -0.6843 -1.4815 -1.8722
 5892SOL    HW228356   8.634   1.989   0.271 -0.2047  0.9429 -0.1646
 5893SOL     OW28357   3.367   8.304   0.179  0.1412  0.4052 -0.3282
 5893SOL    HW128358   3.287   8.334   0.232  1.4618  1.1502  1.2794
 5893SOL    HW228359   3.403   8.219   0.218  1.5731  1.3576  0.4564
 5894SOL     OW28360   0.006   0.157   1.970  0.3216 -0.0369  0.1366
 5894SOL    HW128361   0.024   0.096   1.893  0.4393  0.2827 -0.0891
 5894SOL    HW228362  -0.046   0.107   2.040  2.6781 -1.2019  1.1130
 5895SOL     OW28363   3.082   5.119   1.835 -0.5268 -0.1872  0.5638
 5895SOL    HW128364   2.983   5.102   1.838 -0.3374 -1.2482  1.0507
 5895SOL    HW228365   3.129   5.051   1.892  0.4784  0.3471  0.3751
 5896SOL     OW28366   0.358   1.537   3.392 -0.6752 -0.3090  0.6883
 5896SOL    HW128367   0.370   1.478   3.312 -4.0192 -0.8641  0.5296
 5896SOL    HW228368   0.431   1.605   3.394  1.5757 -2.5842 -0.7671
 5897SOL     OW28369   2.853   1.655   4.310  0.1635 -0.5535  0.2410
 5897SOL    HW128370   2.776   1.702   4.354  0.9895 -0.0431  1.1727
 5897SOL    HW228371   2.907   1.721   4.258 -1.8962 -1.4772 -3.2129
 5898SOL     OW28372   9.419   7.610   4.201  0.4776 -0.5232  0.3715
 5898SOL    HW128373   9.336   7.652   4.239  0.5810 -0.5280  0.6041
 5898SOL    HW228374   9.396   7.555   4.121  0.3995  0.3860 -0.2418
 5899SOL     OW28375   9.016   5.744   1.020  0.6621  0.2253  0.2638
 5899SOL    HW128376   9.101   5.781   1.057 -1.8227  4.3752  2.1672
 5899SOL    HW228377   8.992   5.792   0.935 -1.2367  1.2438  1.3264
 5900SOL     OW28378   5.229   0.541   2.174  0.0684  0.3397 -0.1916
 5900SOL    HW128379   5.148   0.598   2.165 -0.0953  0.4839  1.9214
 5900SOL    HW228380   5.300   0.592   2.223 -0.4472 -1.5870  2.6863
 5901SOL     OW28381   0.959   4.301   3.526  0.2141  0.1807  0.3049
 5901SOL    HW128382   0.863   4.291   3.499  0.1456 -1.2903  1.0251
 5901SOL    HW228383   0.964   4.325   3.623  0.5881 -1.3348  0.6808
 5902SOL     OW28384   0.413   9.414   1.176 -0.0588  0.1080  0.2011
 5902SOL    HW128385   0.441   9.499   1.222  0.7639 -0.7097  1.2315
 5902SOL    HW228386   0.447   9.336   1.227  1.4353 -0.8278 -2.1658
 5903SOL     OW28387   5.589   4.878   0.997 -0.1900 -0.3137 -0.0693
 5903SOL    HW128388   5.536   4.865   0.913 -1.6197 -2.4776  1.1169
 5903SOL    HW228389   5.530   4.918   1.067  0.9954  1.4759 -0.0665
 5904SOL     OW28390   2.480   0.540   2.936  0.3573  0.0616 -0.0966
 5904SOL    HW128391   2.427   0.533   3.021  0.0985  1.0854 -0.1628
 5904SOL    HW228392   2.505   0.636   2.921  0.1611 -0.0800 -1.3329
 5905SOL     OW28393   1.270   9.082   1.163  0.0996 -0.8837  0.1662
 5905SOL    HW128394   1.191   9.067   1.104 -0.1880 -1.0508  0.5898
 5905SOL    HW228395   1.325   8.998   1.167  1.0742 -0.3283 -1.2620
 5906SOL     OW28396   2.287   8.943   1.250  0.0581 -0.1837  0.0894
 5906SOL    HW128397   2.267   8.880   1.175  0.2338 -1.3763  1.0345
 5906SOL    HW228398   2.383   8.934   1.277 -0.0723  0.0384  0.6373
 5907SOL     OW28399   8.976   7.054   0.179  0.0517 -0.0733 -0.0309
 5907SOL    HW128400   8.949   6.957   0.179  0.1362 -0.0990 -0.2479
 5907SOL    HW228401   9.019   7.077   0.266 -0.1999 -0.1674  0.1165
 5908SOL     OW28402   6.424   7.628   2.917 -0.0850 -0.7933  0.2659
 5908SOL    HW128403   6.484   7.696   2.875  0.5240 -1.5527 -0.1097
 5908SOL    HW228404   6.330   7.645   2.889 -0.3174  1.4786  2.2330
 5909SOL     OW28405   2.101   2.412   3.407  0.4615  0.0657  1.1012
 5909SOL    HW128406   2.030   2.483   3.410  0.2924 -0.1392  2.0068
 5909SOL    HW228407   2.075   2.336   3.465  0.1317 -1.2476 -0.7190
 5910SOL     OW28408   7.521   3.471   4.492  0.3256 -0.4322 -0.2915
 5910SOL    HW128409   7.571   3.407   4.551  0.1421 -0.7041 -0.4329
 5910SOL    HW228410   7.560   3.563   4.503  3.5029 -1.3159 -3.3636
 5911SOL     OW28411   2.113   4.571   2.846  0.5534  0.3699 -0.3793
 5911SOL    HW128412   2.091   4.511   2.923  0.6267 -2.1567 -2.2640
 5911SOL    HW228413   2.197   4.622   2.866 -0.2446  0.8822  1.7956
 5912SOL     OW28414   8.813   8.509   1.000 -0.1417 -0.5001  0.2938
 5912SOL    HW128415   8.863   8.483   0.917 -0.8171  3.3689 -1.4672
 5912SOL    HW228416   8.816   8.435   1.066  2.8147 -2.6246 -2.1073
 5913SOL     OW28417   3.798   7.463   2.019 -0.4200  0.3197  0.2289
 5913SOL    HW128418   3.750   7.544   2.053 -1.2340  0.7304 -1.8315
 5913SOL    HW228419   3.731   7.397   1.984  0.3376 -0.5178  0.3344
 5914SOL     OW28420   8.602   8.473   0.323 -0.0824  0.9425  0.5524
 5914SOL    HW128421   8.527   8.434   0.270 -0.1852  0.5924  0.9552
 5914SOL    HW228422   8.655   8.400   0.366  0.4791  1.1898  0.2854
 5915SOL     OW28423   2.811   1.493   4.591  0.4462 -0.3917 -0.3080
 5915SOL    HW128424   2.757   1.515   4.673  3.2180  0.1919  1.4290
 5915SOL    HW228425   2.788   1.558   4.519  0.0274  0.8930  0.9527
 5916SOL     OW28426   0.433   8.751   2.355 -0.5501  0.1350  0.3891
 5916SOL    HW128427   0.532   8.743   2.369 -0.3318  0.3619 -0.9628
 5916SOL    HW228428   0.391   8.661   2.362 -0.2144 -0.0001  0.6914
 5917SOL     OW28429   0.082   2.046   1.801  0.3986 -0.4430  0.8137
 5917SOL    HW128430   0.108   2.118   1.737 -1.0826 -0.4040  0.2478
 5917SOL    HW228431   0.123   1.959   1.773 -0.1030 -0.3881 -0.0810
 5918SOL     OW28432   1.142   9.818   1.801  0.0145  0.0547 -0.0960
 5918SOL    HW128433   1.147   9.825   1.901  2.4134  0.7851 -0.2343
 5918SOL    HW228434   1.133   9.909   1.762  0.4572 -0.1303 -0.6223
 5919SOL     OW28435   9.505   7.408   4.385 -0.1696 -0.3198 -0.0022
 5919SOL    HW128436   9.482   7.470   4.311  1.8305  1.7197  1.0297
 5919SOL    HW228437   9.541   7.322   4.347 -0.2843  0.2422 -1.3904
 5920SOL     OW28438   9.779   6.386   1.161  0.1048 -0.6218 -0.4647
 5920SOL    HW128439   9.767   6.289   1.143 -1.1198 -0.8983  1.6489
 5920SOL    HW228440   9.692   6.425   1.193  0.1409  1.5320 -2.8744
 5921SOL     OW28441   1.966   0.215   3.153 -0.7412 -0.0710 -0.2158
 5921SOL    HW128442   1.948   0.245   3.247  0.8964 -1.0808  0.4380
 5921SOL    HW228443   1.946   0.117   3.145 -0.8592  0.0074 -0.9117
 5922SOL     OW28444   4.915   7.419   3.716 -0.4072 -0.2207  0.5465
 5922SOL    HW128445   4.863   7.415   3.631 -1.8415 -0.0377  1.3951
 5922SOL    HW228446   4.908   7.511   3.755  0.1427 -0.3386  0.9211
 5923SOL     OW28447   8.375   0.796   1.917 -0.2569  0.4630 -0.4541
 5923SOL    HW128448   8.442   0.859   1.955  1.3314 -1.5146  0.0553
 5923SOL    HW228449   8.285   0.816   1.956  0.6510  0.9222  1.4512
 5924SOL     OW28450   3.130   7.026   1.614  0.5111  0.2581  0.1265
 5924SOL    HW128451   3.154   7.003   1.708  1.8898  2.3346  0.3109
 5924SOL    HW228452   3.030   7.032   1.605  0.3886  0.3619  1.5219
 5925SOL     OW28453   1.630   1.118   4.167  0.3998 -0.1797  0.3193
 5925SOL    HW128454   1.584   1.067   4.241  0.2937  0.5135  0.7296
 5925SOL    HW228455   1.713   1.160   4.202 -0.0722  0.8192  0.2452
 5926SOL     OW28456   8.791   6.372   3.188 -0.0119  0.4170  0.1881
 5926SOL    HW128457   8.823   6.278   3.176  1.1762  0.6684  1.3045
 5926SOL    HW228458   8.710   6.372   3.247  0.6109  0.1848  1.0513
 5927SOL     OW28459   9.973   9.412   3.345 -0.2070 -0.1224 -0.6747
 5927SOL    HW128460   9.962   9.354   3.426  2.5544  1.1252  0.6369
 5927SOL    HW228461  10.059   9.462   3.351 -1.3555  2.2301 -2.9992
 5928SOL     OW28462   2.171   0.597   2.868  0.3585 -0.4273 -0.4550
 5928SOL    HW128463   2.237   0.672   2.860  0.6039 -0.7275 -1.2269
 5928SOL    HW228464   2.149   0.561   2.777  0.4720 -1.4875 -0.0727
 5929SOL     OW28465   1.369   6.956   1.662  0.7459  0.2589 -0.1681
 5929SOL    HW128466   1.375   6.870   1.713 -0.1537  0.9390  1.1106
 5929SOL    HW228467   1.442   6.960   1.594  1.9011 -0.7228  1.0033
 5930SOL     OW28468   3.374   7.989   0.679  0.4854  0.0910  0.2359
 5930SOL    HW128469   3.315   7.938   0.616  1.6000  1.4032 -1.9401
 5930SOL    HW228470   3.450   7.930   0.708 -1.2160 -1.2307  2.1549
 5931SOL     OW28471   2.549   0.267   4.018  0.1876 -0.3719  0.1771
 5931SOL    HW128472   2.576   0.357   3.983  1.3908 -0.4243  0.9578
 5931SOL    HW228473   2.623   0.229   4.073  0.0248 -2.2097 -0.8311
 5932SOL     OW28474   8.488   3.846   0.261 -0.3223  0.2282 -0.9482
 5932SOL    HW128475   8.564   3.856   0.196  0.5925 -2.9570 -0.4842
 5932SOL    HW228476   8.522   3.862   0.354 -0.3280 -0.6811 -0.7865
 5933SOL     OW28477   9.380   9.519   4.385 -0.5018 -0.1284  0.2944
 5933SOL    HW128478   9.399   9.549   4.292  1.8840 -2.6542 -0.1091
 5933SOL    HW228479   9.288   9.480   4.390 -0.7917  0.4049 -0.9146
 5934SOL     OW28480   2.195   0.680   0.097  0.4529  0.4517 -0.5165
 5934SOL    HW128481   2.111   0.626   0.094  1.0076 -0.4074 -1.1662
 5934SOL    HW228482   2.184   0.756   0.161 -2.0740  2.4931 -3.2687
 5935SOL     OW28483   1.672   0.147   0.725  0.0665 -0.2573  0.3057
 5935SOL    HW128484   1.636   0.235   0.693  1.2310 -0.2462 -1.0627
 5935SOL    HW228485   1.770   0.156   0.744 -0.2353 -0.7561  2.1316
 5936SOL     OW28486   5.667   9.971   2.438  0.1263 -0.7520 -0.4289
 5936SOL    HW128487   5.600   9.919   2.491  0.5722 -0.6931  0.2031
 5936SOL    HW228488   5.743   9.911   2.414  0.8420 -0.2999  0.6618
 5937SOL     OW28489   9.442   2.411   2.009 -0.5027 -0.3540  0.4505
 5937SOL    HW128490   9.359   2.461   1.983  0.5318  0.7260 -0.8019
 5937SOL    HW228491   9.465   2.344   1.938 -0.3429 -0.7144  0.8394
 5938SOL     OW28492   6.394   6.125   3.072 -0.0229 -0.1789 -0.2954
 5938SOL    HW128493   6.368   6.165   3.160 -0.4939  1.1793 -1.0369
 5938SOL    HW228494   6.491   6.103   3.073 -0.0807 -0.3904  0.6595
 5939SOL     OW28495   2.069   5.586   0.690  0.2987 -0.2238 -0.2216
 5939SOL    HW128496   2.090   5.491   0.665  1.8316  0.6577 -2.3960
 5939SOL    HW228497   2.105   5.606   0.780  0.6807 -1.4669 -0.0956
 5940SOL     OW28498   0.506   6.504   4.137 -0.2865  0.1991 -0.0288
 5940SOL    HW128499   0.512   6.472   4.042  1.1200 -1.1141  0.4893
 5940SOL    HW228500   0.570   6.453   4.194 -3.0727 -0.9677  2.1910
 5941SOL     OW28501   4.115   8.636   1.968  0.5813  0.1172  0.3290
 5941SOL    HW128502   4.016   8.634   1.959  0.5453  1.4112  0.3488
 5941SOL    HW228503   4.144   8.572   2.039 -0.2925  0.2182  0.7805
 5942SOL     OW28504   1.188   8.248   2.065  0.5162 -0.0748 -0.5199
 5942SOL    HW128505   1.105   8.203   2.098  0.1506  1.1652  0.2891
 5942SOL    HW228506   1.226   8.305   2.138  1.2213  0.5761 -1.3902
 5943SOL     OW28507   1.675   7.635   4.432  0.3264  0.5913 -0.1794
 5943SOL    HW128508   1.744   7.678   4.374 -0.5827  1.6304 -0.4989
 5943SOL    HW228509   1.656   7.693   4.511  1.5304 -0.8026  1.1658
 5944SOL     OW28510   2.799   5.818   2.064 -0.1543  0.3554  0.4950
 5944SOL    HW128511   2.702   5.796   2.059 -0.0564 -0.1060  0.5786
 5944SOL    HW228512   2.842   5.763   2.136  0.6030 -1.0250 -0.9975
 5945SOL     OW28513   1.693   2.476   1.599 -0.3081  0.3637  0.6881
 5945SOL    HW128514   1.683   2.408   1.671  2.0494 -2.8215 -1.7945
 5945SOL    HW228515   1.786   2.514   1.602 -0.1488  0.1218 -0.6542
 5946SOL     OW28516   2.310   6.462   4.085 -0.2318  0.1019 -0.4196
 5946SOL    HW128517   2.280   6.461   3.990 -0.7217 -0.0098 -0.2660
 5946SOL    HW228518   2.238   6.501   4.142 -0.4974 -1.1103  0.0926
 5947SOL     OW28519   2.201   6.300   3.549  0.2343 -0.1910  0.8436
 5947SOL    HW128520   2.121   6.242   3.558 -1.5114  1.7069 -1.6561
 5947SOL    HW228521   2.232   6.299   3.454  1.4051  1.3406  1.1938
 5948SOL     OW28522   0.794   4.716   4.089 -0.0144  0.0332 -0.4470
 5948SOL    HW128523   0.800   4.732   3.991 -1.4700 -2.9226 -1.0945
 5948SOL    HW228524   0.725   4.645   4.107 -0.3446  1.0686  2.7766
 5949SOL     OW28525   8.511   5.589   3.028 -0.0768  0.0224  0.2719
 5949SOL    HW128526   8.467   5.500   3.024 -0.2352  0.1326 -0.4379
 5949SOL    HW228527   8.529   5.613   3.124  3.0649 -2.2790  0.3451
 5950SOL     OW28528   1.723   5.776   1.995  0.1442 -0.1195 -0.1274
 5950SOL    HW128529   1.734   5.853   1.932 -0.0983  0.0001 -0.0247
 5950SOL    HW228530   1.629   5.775   2.030  0.1978 -0.3547  0.0095
 5951SOL     OW28531   8.584   6.573   4.238  0.0738 -0.1591  0.0769
 5951SOL    HW128532   8.567   6.626   4.155  0.0070  0.9799  0.7953
 5951SOL    HW228533   8.517   6.598   4.308  0.5012 -0.6491  0.6699
 5952SOL     OW28534   8.209   5.625   4.003  0.3960 -0.2506  0.3809
 5952SOL    HW128535   8.280   5.641   4.071  1.0451  0.9339 -0.5409
 5952SOL    HW228536   8.210   5.700   3.936 -0.9157 -0.8500 -0.3246
 5953SOL     OW28537   9.995   1.747   0.955 -0.2081  0.2211 -0.2789
 5953SOL    HW128538   9.930   1.711   0.889 -0.2160  2.7593 -1.7427
 5953SOL    HW228539  10.087   1.714   0.933 -0.6166 -1.2157  0.1658
 5954SOL     OW28540   5.481   6.930   2.155 -0.0529 -0.3338 -0.1376
 5954SOL    HW128541   5.466   6.982   2.071 -0.4890  0.3791  0.3782
 5954SOL    HW228542   5.576   6.899   2.158  0.0803  0.0139 -0.6873
 5955SOL     OW28543   8.905   6.216   4.526  0.1727  0.2948  0.5911
 5955SOL    HW128544   8.816   6.176   4.502  0.3312 -0.2756  0.9628
 5955SOL    HW228545   8.923   6.294   4.466 -0.9574  0.9232  1.0503
 5956SOL     OW28546   4.562   7.263   2.020 -0.4990  0.4004  0.2022
 5956SOL    HW128547   4.583   7.282   1.924 -2.1572  0.9275 -0.0593
 5956SOL    HW228548   4.641   7.217   2.062  1.3616  2.7186 -0.6306
 5957SOL     OW28549   9.440   6.257   3.946  0.3403  0.3740 -0.4598
 5957SOL    HW128550   9.507   6.276   4.018 -1.4985  2.9513  0.6492
 5957SOL    HW228551   9.385   6.177   3.971  0.7163  0.3347  0.2465
 5958SOL     OW28552   8.456   2.927   0.377  0.0639 -0.0477 -0.2472
 5958SOL    HW128553   8.387   2.925   0.305 -0.2284 -0.7850  0.0512
 5958SOL    HW228554   8.441   2.851   0.440  0.8637  0.0645  0.0850
 5959SOL     OW28555   3.898   2.000   0.381  0.6755 -0.1487  0.0209
 5959SOL    HW128556   3.955   2.051   0.446 -0.8753  0.7208  0.7213
 5959SOL    HW228557   3.894   2.050   0.294 -0.0573  0.4675  0.3957
 5960SOL     OW28558   0.243   9.512   0.122 -0.1295 -0.4708  0.4386
 5960SOL    HW128559   0.230   9.483   0.027  0.1666 -0.0544  0.2713
 5960SOL    HW228560   0.169   9.573   0.149 -1.6431 -2.6114  1.2964
 5961SOL     OW28561   4.527   5.263   1.166  0.3672  0.5897  0.1843
 5961SOL    HW128562   4.506   5.217   1.080  1.4040 -1.8553  1.1628
 5961SOL    HW228563   4.448   5.316   1.196 -1.2517 -1.3233 -0.5573
 5962SOL     OW28564   2.643   7.356   3.652  0.4708  0.2425 -0.3775
 5962SOL    HW128565   2.642   7.379   3.750 -0.0574  0.3208 -0.4006
 5962SOL    HW228566   2.549   7.353   3.618  0.6839  0.7259 -1.0059
 5963SOL     OW28567   8.922   0.161   4.423  0.2098 -0.0939  0.0934
 5963SOL    HW128568   8.980   0.182   4.502  0.9944 -1.0662 -0.2236
 5963SOL    HW228569   8.832   0.131   4.455  0.0396  0.9208  0.5917
 5964SOL     OW28570   1.845   4.589   0.307  0.0117  0.3857 -0.2993
 5964SOL    HW128571   1.888   4.508   0.268 -2.8181 -1.3417  0.0217
 5964SOL    HW228572   1.896   4.671   0.281  1.8692 -1.3340 -2.1462
 5965SOL     OW28573   0.570   7.084   4.348  0.5785  0.2000 -0.2160
 5965SOL    HW128574   0.642   7.055   4.285 -1.3579 -0.1148 -2.3556
 5965SOL    HW228575   0.514   7.154   4.304 -0.6696  0.1426  1.2484
 5966SOL     OW28576   0.128   0.020   2.820 -0.2501  0.1580  0.3180
 5966SOL    HW128577   0.145   0.112   2.855 -1.5458 -0.4395  2.6368
 5966SOL    HW228578   0.068   0.026   2.740 -1.2100  1.2818  1.1012
 5967SOL     OW28579   9.566   7.251   4.698 -0.4588  0.2121  0.4373
 5967SOL    HW128580   9.477   7.247   4.653 -1.7682  1.0734  2.8594
 5967SOL    HW228581   9.596   7.346   4.704  1.0741 -0.1369 -1.1308
 5968SOL     OW28582   4.537   8.830   3.149  0.3315 -0.0247  0.4792
 5968SOL    HW128583   4.556   8.744   3.197  1.9376 -0.2904 -0.6170
 5968SOL    HW228584   4.557   8.819   3.052 -2.1102  0.7699 -0.1393
 5969SOL     OW28585   8.858   7.690   0.650  0.0410 -0.8216  0.0821
 5969SOL    HW128586   8.841   7.610   0.592 -0.8844 -1.9296  1.8136
 5969SOL    HW228587   8.805   7.767   0.617  0.2370 -1.1671 -1.0763
 5970SOL     OW28588   0.524   6.157   4.641 -0.7598 -0.5363  0.7154
 5970SOL    HW128589   0.446   6.189   4.694 -1.0698  0.1185 -0.1348
 5970SOL    HW228590   0.492   6.099   4.566 -0.5863  1.3071 -0.8014
 5971SOL     OW28591   8.842   2.500   1.451 -0.0759  0.7927  0.5025
 5971SOL    HW128592   8.941   2.493   1.448 -0.0142  1.4894  0.8048
 5971SOL    HW228593   8.803   2.409   1.469  0.4874  0.4744  0.1387
 5972SOL     OW28594   8.682   9.856   4.204 -0.5263 -0.4832  0.3678
 5972SOL    HW128595   8.639   9.938   4.242 -0.7786  0.3220 -1.5536
 5972SOL    HW228596   8.782   9.869   4.204 -0.5565 -0.2333  0.2179
 5973SOL     OW28597   3.711   3.201   1.375  0.3233 -0.4361 -0.1811
 5973SOL    HW128598   3.738   3.160   1.288  2.5419 -2.3744  1.3660
 5973SOL    HW228599   3.789   3.245   1.418 -1.1704  2.1450  0.0248
 5974SOL     OW28600   0.856   4.938   0.332 -0.6044  0.0094  0.8628
 5974SOL    HW128601   0.863   5.024   0.381 -1.7622  0.1188  0.8525
 5974SOL    HW228602   0.856   4.955   0.233 -2.1155  0.1282  0.8636
 5975SOL     OW28603   8.335   3.631   2.701  0.0239  0.7674 -0.3011
 5975SOL    HW128604   8.359   3.631   2.798 -0.9418  0.7409 -0.0537
 5975SOL    HW228605   8.308   3.538   2.674 -2.7603  1.3788  0.2009
 5976SOL     OW28606   2.325   2.666   2.587 -0.4055  0.1206  0.2573
 5976SOL    HW128607   2.420   2.637   2.580 -0.4961  0.0773 -0.8210
 5976SOL    HW228608   2.307   2.740   2.522 -1.4879 -0.8689 -0.5791
 5977SOL     OW28609   1.043   5.228   2.598 -0.1220  0.1639  0.4003
 5977SOL    HW128610   0.984   5.147   2.594  1.3763 -0.9149 -0.4410
 5977SOL    HW228611   0.997   5.300   2.649 -2.7350 -0.1864 -1.3644
 5978SOL     OW28612   2.282   2.286   0.049 -0.1552  0.1166  0.7944
 5978SOL    HW128613   2.289   2.319  -0.045  0.0911 -1.3966  0.2735
 5978SOL    HW228614   2.374   2.271   0.086 -0.2455 -3.0863 -0.1057
 5979SOL     OW28615   2.036   0.246   4.063  0.2189  0.2482  0.1686
 5979SOL    HW128616   1.973   0.255   4.140  1.9228  0.2703  1.6132
 5979SOL    HW228617   2.045   0.149   4.039 -0.4326  0.2548 -0.1073
 5980SOL     OW28618   1.033   6.912   2.500  0.2887  0.5519 -0.0525
 5980SOL    HW128619   1.036   6.878   2.594  3.1001  0.4983 -0.1037
 5980SOL    HW228620   1.010   6.838   2.438  1.0099 -0.0235  0.3607
 5981SOL     OW28621   4.789   9.560   2.513  0.1921 -0.2145 -0.4222
 5981SOL    HW128622   4.855   9.590   2.445 -0.7225 -0.3205 -1.3796
 5981SOL    HW228623   4.729   9.637   2.537  1.3896  0.2067  1.3322
 5982SOL     OW28624   0.130   2.379   3.571  0.6509 -0.5459 -0.3550
 5982SOL    HW128625   0.061   2.451   3.571 -0.2267 -1.3854  0.2417
 5982SOL    HW228626   0.192   2.392   3.649 -0.6759 -1.5385  0.8878
 5983SOL     OW28627   3.598   7.415   0.272  0.0050  0.5182 -0.1780
 5983SOL    HW128628   3.691   7.398   0.304 -0.4869 -0.8014  0.6210
 5983SOL    HW228629   3.534   7.407   0.350 -1.0065 -0.7906 -1.1250
 5984SOL     OW28630   8.646   3.143   4.082 -0.5690  0.4011 -0.1778
 5984SOL    HW128631   8.724   3.094   4.043 -0.2875  0.0334  0.8215
 5984SOL    HW228632   8.571   3.079   4.098 -0.5653  0.4838  0.1776
 5985SOL     OW28633   7.445   6.360   2.635 -0.0799 -0.5063 -0.1159
 5985SOL    HW128634   7.532   6.410   2.637  1.4930 -3.1040 -1.3512
 5985SOL    HW228635   7.410   6.357   2.542 -0.8342 -0.5985  0.1684
 5986SOL     OW28636   6.065   0.765   2.355  0.5371 -0.0373 -0.0320
 5986SOL    HW128637   6.111   0.729   2.273  2.1056 -1.8457  1.5879
 5986SOL    HW228638   6.091   0.861   2.368  2.7114 -0.5995  0.0126
 5987SOL     OW28639   2.611   0.583   0.547 -0.4383  0.2364 -0.1978
 5987SOL    HW128640   2.648   0.676   0.549 -0.1915  0.1254  0.6186
 5987SOL    HW228641   2.660   0.528   0.479 -0.5444  0.6795 -0.6392
 5988SOL     OW28642   8.648   1.912   3.780  0.8230  0.1448  0.5093
 5988SOL    HW128643   8.574   1.952   3.833 -0.4461  0.8481 -1.7246
 5988SOL    HW228644   8.654   1.958   3.691  3.7411 -0.0955  0.5142
 5989SOL     OW28645   9.100   0.521   3.426  0.2194  0.3068 -0.3661
 5989SOL    HW128646   9.142   0.443   3.472  0.3213  0.9342  0.6137
 5989SOL    HW228647   9.149   0.540   3.341  0.0432 -0.8482 -0.7445
 5990SOL     OW28648   9.663   3.230   3.393  0.0870  0.0073 -0.1990
 5990SOL    HW128649   9.653   3.235   3.492  0.7803 -0.7367 -0.0810
 5990SOL    HW228650   9.758   3.250   3.368 -0.2208  0.7643 -0.7582
 5991SOL     OW28651   4.381   2.776   2.090 -0.3688  0.0188 -0.2059
 5991SOL    HW128652   4.297   2.809   2.134 -0.1640 -0.8336  0.8501
 5991SOL    HW228653   4.378   2.676   2.083  0.1884  0.0484 -0.9409
 5992SOL     OW28654   2.862   8.989   1.562  0.2222 -0.4741 -0.5710
 5992SOL    HW128655   2.948   9.040   1.551  0.3344 -0.8763 -1.5395
 5992SOL    HW228656   2.808   9.031   1.635  0.9151  0.2202 -0.4518
 5993SOL     OW28657   9.703   2.735   1.176 -0.4160 -0.1747 -0.2568
 5993SOL    HW128658   9.642   2.782   1.240  1.0941 -0.0577  1.1359
 5993SOL    HW228659   9.692   2.636   1.186 -0.8557 -0.1475 -0.4787
 5994SOL     OW28660   7.894   5.421   3.459 -0.1014  0.6021  0.2853
 5994SOL    HW128661   7.884   5.409   3.360  1.0459 -2.3967  0.4759
 5994SOL    HW228662   7.805   5.407   3.503 -0.4332  1.0182 -0.2534
 5995SOL     OW28663   9.242   1.097   3.760 -0.2114  0.1948  0.4563
 5995SOL    HW128664   9.307   1.117   3.834 -0.0475  0.6001  0.2088
 5995SOL    HW228665   9.176   1.029   3.791  1.2085 -1.3202  0.2305
 5996SOL     OW28666   8.149   7.661   3.068  0.2804  0.1218  0.0467
 5996SOL    HW128667   8.223   7.678   3.003 -1.0082  1.6111 -1.0699
 5996SOL    HW228668   8.061   7.670   3.021 -0.6433  0.1922  1.7596
 5997SOL     OW28669   7.625   0.276   3.608 -0.7424  0.3304 -0.1226
 5997SOL    HW128670   7.679   0.198   3.575 -0.9520  0.6325 -1.2060
 5997SOL    HW228671   7.594   0.330   3.530 -2.9740 -0.0704  0.4652
 5998SOL     OW28672   9.711   0.284   4.666  0.1937  0.1602 -0.0028
 5998SOL    HW128673   9.620   0.248   4.687  1.2047 -1.2029  2.1782
 5998SOL    HW228674   9.760   0.219   4.608  0.4892 -0.0078  0.4359
 5999SOL     OW28675   4.025   9.680   2.878 -0.0046 -0.0906 -0.5053
 5999SOL    HW128676   3.928   9.691   2.854  0.5055  0.2483 -2.5242
 5999SOL    HW228677   4.068   9.770   2.884  0.5216 -0.3014 -1.1047
 6000SOL     OW28678   9.845   5.891   3.520  0.0809 -0.0711 -0.5770
 6000SOL    HW128679   9.808   5.938   3.440  0.0140  0.7861 -0.0485
 6000SOL    HW228680   9.884   5.803   3.492  2.0072  1.1602 -1.9099
 6001SOL     OW28681   1.971   9.474   4.608  0.1765  0.2357 -0.4594
 6001SOL    HW128682   1.972   9.566   4.568  0.5855  0.5475  0.2630
 6001SOL    HW228683   2.034   9.470   4.686  0.6928 -0.8490 -0.9080
 6002SOL     OW28684   9.668   8.226   0.733 -0.6729  0.0350 -0.0466
 6002SOL    HW128685   9.734   8.299   0.713  0.5701 -1.3557 -1.0913
 6002SOL    HW228686   9.575   8.261   0.721 -0.0590  0.7913 -2.8836
 6003SOL     OW28687   7.459   0.612   3.263 -0.4095 -0.0319 -0.4187
 6003SOL    HW128688   7.509   0.566   3.189  1.6762  0.5165  0.6215
 6003SOL    HW228689   7.510   0.602   3.348 -1.5025  1.5464  0.4296
 6004SOL     OW28690   9.292   5.053   3.809 -0.4760  0.1748 -0.0166
 6004SOL    HW128691   9.322   5.036   3.903  1.5149  0.6321 -0.5619
 6004SOL    HW228692   9.263   5.149   3.800 -0.2358  0.2504  0.0160
 6005SOL     OW28693   9.111   1.551   1.097 -0.1770 -0.5296  0.1209
 6005SOL    HW128694   9.170   1.555   1.177  0.2447  2.3575 -0.2595
 6005SOL    HW228695   9.167   1.554   1.014 -0.7111 -1.0409 -0.2641
 6006SOL     OW28696   2.867   9.443   1.742 -0.4563 -0.3624  0.0203
 6006SOL    HW128697   2.948   9.395   1.709 -0.5723 -0.0019 -0.8091
 6006SOL    HW228698   2.880   9.470   1.837  1.0341  1.0956 -0.5698
 6007SOL     OW28699   3.423   3.695   4.019  0.1075 -0.3505 -0.2460
 6007SOL    HW128700   3.386   3.713   3.928  1.0716 -0.8476 -0.7435
 6007SOL    HW228701   3.443   3.782   4.065 -2.1555 -0.0628  0.2451
 6008SOL     OW28702   2.563   2.455   0.779 -0.5291  0.8069 -0.2848
 6008SOL    HW128703   2.654   2.414   0.775 -1.3089 -1.2651  1.9258
 6008SOL    HW228704   2.539   2.492   0.689  2.3299  1.0734 -0.9772
 6009SOL     OW28705   2.358   6.636   4.497  0.5204 -0.1014 -0.1686
 6009SOL    HW128706   2.353   6.591   4.586  0.6781 -0.8649 -0.5366
 6009SOL    HW228707   2.270   6.680   4.477  0.4758  0.0471  0.3494
 6010SOL     OW28708   5.209   8.797   3.775 -0.3973 -0.6035 -0.5901
 6010SOL    HW128709   5.124   8.795   3.722 -1.3540 -2.0435  0.9689
 6010SOL    HW228710   5.217   8.713   3.828  2.1306 -0.5823 -0.9017
 6011SOL     OW28711   3.512   7.955   2.583 -0.2582 -0.0433 -0.4342
 6011SOL    HW128712   3.511   8.054   2.591 -0.4122  0.0223 -1.2610
 6011SOL    HW228713   3.512   7.929   2.487 -1.0910 -0.8540 -0.2251
 6012SOL     OW28714   1.905   9.509   3.582  0.5299 -0.6162 -0.0020
 6012SOL    HW128715   1.862   9.528   3.670 -1.5439 -1.3968 -0.8248
 6012SOL    HW228716   2.003   9.492   3.596  0.3026 -0.3231  2.0905
 6013SOL     OW28717   3.145   9.006   1.070  0.4463  0.2170  0.0792
 6013SOL    HW128718   3.197   9.036   1.150  0.5994  0.0975  0.0257
 6013SOL    HW228719   3.066   8.952   1.100 -1.3146  2.8677  0.3016
 6014SOL     OW28720   0.554   6.524   4.757  0.3604  0.0585 -0.3678
 6014SOL    HW128721   0.614   6.458   4.713 -0.8905 -0.4013 -1.4388
 6014SOL    HW228722   0.551   6.507   4.855  0.4737 -1.1330 -0.5618
 6015SOL     OW28723   9.050   6.313   1.123 -0.1272 -0.4113 -0.4516
 6015SOL    HW128724   8.978   6.367   1.080  2.1446  4.0107  0.9783
 6015SOL    HW228725   9.137   6.330   1.077  1.2978  0.0186  2.2760
 6016SOL     OW28726   4.040   6.853   3.597 -0.3745 -0.5058  0.5357
 6016SOL    HW128727   4.002   6.892   3.513  0.0656 -1.3435 -0.0687
 6016SOL    HW228728   4.120   6.907   3.626 -0.3595 -0.3778  0.2552
 6017SOL     OW28729   1.755   4.720   3.956  0.6293 -0.4045 -0.2032
 6017SOL    HW128730   1.701   4.639   3.980  0.3460 -0.1782 -0.0640
 6017SOL    HW228731   1.703   4.803   3.979 -0.2976 -0.1587 -3.0449
 6018SOL     OW28732   0.189   4.614   3.791  0.0098 -0.0061  0.2024
 6018SOL    HW128733   0.216   4.517   3.792  2.3149  0.5296 -2.1365
 6018SOL    HW228734   0.251   4.666   3.849 -0.7413  0.1910  0.8309
 6019SOL     OW28735   2.064   8.893   4.236  0.3970 -0.5922  0.7515
 6019SOL    HW128736   2.082   8.990   4.224 -0.8312 -0.0785  2.7945
 6019SOL    HW228737   2.007   8.859   4.161  0.6986  0.2913  0.1208
 6020SOL     OW28738   2.614   7.680   1.510  0.2417 -0.0147 -0.3779
 6020SOL    HW128739   2.691   7.721   1.559  0.9436  0.9839 -2.2691
 6020SOL    HW228740   2.529   7.701   1.558  0.8214  1.7402 -0.0968
 6021SOL     OW28741   0.912   5.061   4.035 -0.1162 -0.5502 -0.6044
 6021SOL    HW128742   0.885   5.034   4.127  1.8423 -0.3825  0.0305
 6021SOL    HW228743   0.906   5.160   4.025  0.4898 -0.4937 -0.3951
 6022SOL     OW28744   5.151   9.482   2.730 -0.0796  0.5962 -0.5261
 6022SOL    HW128745   5.158   9.581   2.744  3.4290  0.5039 -1.3142
 6022SOL    HW228746   5.094   9.464   2.650 -1.5455  1.8914  0.1744
 6023SOL     OW28747   2.540   8.911   1.371 -0.1690 -0.3137  0.7889
 6023SOL    HW128748   2.619   8.850   1.370 -0.0816 -0.1929 -0.1227
 6023SOL    HW228749   2.570   9.006   1.359 -0.4414 -0.2538  0.5788
 6024SOL     OW28750   4.456   8.576   4.306  0.0179 -0.3628  0.2169
 6024SOL    HW128751   4.501   8.657   4.342 -2.2830  0.3241  1.6055
 6024SOL    HW228752   4.412   8.598   4.219  1.2194 -0.7212 -0.5073
 6025SOL     OW28753   4.096   8.944   1.253 -0.0795 -0.2612 -0.0690
 6025SOL    HW128754   4.145   8.949   1.340  0.9249  0.6902 -0.6786
 6025SOL    HW228755   4.142   8.880   1.192 -1.1165 -1.3741  0.2958
 6026SOL     OW28756   4.735   9.724   4.499  0.1002  0.3212 -0.5431
 6026SOL    HW128757   4.640   9.702   4.477 -0.3501  1.0945  0.5849
 6026SOL    HW228758   4.782   9.643   4.533  0.0654 -0.2430 -1.8030
 6027SOL     OW28759   0.685   5.411   1.532  0.2697 -0.6208 -0.5002
 6027SOL    HW128760   0.694   5.328   1.587  1.0995 -0.0321  0.2645
 6027SOL    HW228761   0.738   5.401   1.448  2.3402  0.0567  0.6984
 6028SOL     OW28762   9.168   9.743   1.848  0.4794 -0.2801  0.2165
 6028SOL    HW128763   9.194   9.821   1.790  1.0533 -1.0776 -0.6285
 6028SOL    HW228764   9.130   9.776   1.934 -1.7659  0.9356 -1.2092
 6029SOL     OW28765   3.787   0.623   1.429 -0.0775  0.0004 -0.2620
 6029SOL    HW128766   3.841   0.569   1.494 -0.7531 -1.2254 -0.7163
 6029SOL    HW228767   3.794   0.720   1.454  0.3243 -0.3748  1.1615
 6030SOL     OW28768   2.724   0.066   4.159  0.2058  0.1053  0.3228
 6030SOL    HW128769   2.694   0.116   4.241 -0.3178 -2.0256  1.4812
 6030SOL    HW228770   2.824   0.057   4.161  0.1672 -0.2435  0.9304
 6031SOL     OW28771   1.231   5.879   2.187 -0.1150 -0.0898 -0.1027
 6031SOL    HW128772   1.239   5.814   2.263  0.9425 -0.8624 -0.8502
 6031SOL    HW228773   1.149   5.860   2.134  0.7946 -1.5962 -1.0099
 6032SOL     OW28774   2.453   3.431   0.093  0.0322 -0.4165 -0.0499
 6032SOL    HW128775   2.494   3.475   0.173  0.1178  0.1632 -0.4051
 6032SOL    HW228776   2.481   3.335   0.089  3.9428  0.6981 -1.9848
 6033SOL     OW28777   9.282   3.517   3.859 -0.1291 -0.1831 -0.2994
 6033SOL    HW128778   9.339   3.583   3.907 -1.2790 -0.0546  0.9311
 6033SOL    HW228779   9.305   3.517   3.762  0.1531  1.7447 -0.2493
 6034SOL     OW28780   2.204   8.883   2.533  0.3690  0.0596  0.2967
 6034SOL    HW128781   2.239   8.930   2.614 -1.0937  2.2972 -0.2983
 6034SOL    HW228782   2.263   8.903   2.455 -0.4937  1.3239 -0.0509
 6035SOL     OW28783   0.298   6.217   0.990 -0.7265 -0.0339 -0.1716
 6035SOL    HW128784   0.203   6.208   0.961 -0.7232  1.2258 -0.5959
 6035SOL    HW228785   0.356   6.232   0.910 -0.2925  0.1345  0.1729
 6036SOL     OW28786   8.751   8.246   0.122 -0.1718  0.1755  0.0558
 6036SOL    HW128787   8.778   8.235   0.218  0.3164  0.2734 -0.0669
 6036SOL    HW228788   8.684   8.176   0.098 -0.1141 -0.0024  0.4009
 6037SOL     OW28789   4.883   9.433   0.780  0.0213 -0.2572  0.4344
 6037SOL    HW128790   4.846   9.514   0.735 -1.0715 -0.8117  0.3172
 6037SOL    HW228791   4.959   9.459   0.839  2.3644  0.3310 -2.7428
 6038SOL     OW28792   4.043   7.535   1.597 -0.1311  0.1007 -0.1759
 6038SOL    HW128793   4.062   7.633   1.604 -0.3757  0.0200  1.8315
 6038SOL    HW228794   4.126   7.483   1.617 -0.0854 -0.1178 -0.9106
 6039SOL     OW28795   9.430   1.138   1.103  0.8403  0.6688  0.2036
 6039SOL    HW128796   9.334   1.110   1.097  1.0931 -0.6151  1.7835
 6039SOL    HW228797   9.436   1.237   1.091 -0.6344  0.7137 -0.3141
 6040SOL     OW28798   0.597   2.895   0.865  0.4780 -0.0293  0.4837
 6040SOL    HW128799   0.646   2.976   0.832 -0.6728  0.9145  1.0022
 6040SOL    HW228800   0.536   2.923   0.939 -1.0592 -1.1091 -0.3624
 6041SOL     OW28801   8.001   9.648   2.949  0.1096 -0.3937 -0.0372
 6041SOL    HW128802   8.060   9.727   2.935  0.4476 -0.1655  2.4413
 6041SOL    HW228803   8.006   9.588   2.869 -0.9586  2.5630 -2.4107
 6042SOL     OW28804   0.246   2.257   2.408  0.1824  0.0736  0.1806
 6042SOL    HW128805   0.236   2.276   2.506  0.1380  1.3764 -0.0655
 6042SOL    HW228806   0.338   2.222   2.389  0.2144 -0.1106  0.6746
 6043SOL     OW28807   8.103   9.676   0.951  0.3526  0.4134  0.2910
 6043SOL    HW128808   8.030   9.741   0.932 -0.3793 -0.5173 -0.0758
 6043SOL    HW228809   8.191   9.722   0.942 -0.1586  1.3600  0.0600
 6044SOL     OW28810   2.687   1.590   0.968 -0.5059  0.3092 -0.0207
 6044SOL    HW128811   2.634   1.582   1.052 -0.0743  1.0495  0.3315
 6044SOL    HW228812   2.668   1.678   0.924  0.2792  0.5057  0.0163
 6045SOL     OW28813   4.767   0.729   0.531 -0.4020  0.0743 -0.0113
 6045SOL    HW128814   4.799   0.648   0.482 -0.7560  0.5163 -0.9774
 6045SOL    HW228815   4.773   0.809   0.472  0.4467  0.8590  1.1107
 6046SOL     OW28816   6.178   7.688   3.211 -0.7946  0.4205  0.0180
 6046SOL    HW128817   6.154   7.608   3.266 -0.9434  0.8660  0.6025
 6046SOL    HW228818   6.277   7.688   3.195 -0.5699  0.9141  1.2962
 6047SOL     OW28819   2.740   6.695   0.410  0.0178 -0.0779  0.1991
 6047SOL    HW128820   2.766   6.632   0.482  0.7668  0.4954  0.4356
 6047SOL    HW228821   2.810   6.695   0.339 -1.5351 -1.9457 -1.3960
 6048SOL     OW28822   3.116   0.730   3.731  0.3739 -0.0937  0.2285
 6048SOL    HW128823   3.144   0.819   3.767 -0.9969  0.6449 -0.4565
 6048SOL    HW228824   3.177   0.659   3.765  2.9049  1.4029 -1.0655
 6049SOL     OW28825   0.170   4.724   2.580  0.3091 -0.1862  0.3744
 6049SOL    HW128826   0.225   4.642   2.566  3.0965  1.2262  2.3406
 6049SOL    HW228827   0.220   4.803   2.544 -1.6148  0.8587 -0.0623
 6050SOL     OW28828   0.234   1.826   1.706 -0.2403 -0.2005  0.4215
 6050SOL    HW128829   0.268   1.758   1.772 -0.8511  0.4338  1.4116
 6050SOL    HW228830   0.310   1.880   1.672  0.0172 -0.1296  1.0915
 6051SOL     OW28831   4.849   0.361   2.225  0.0160  0.0356 -0.5514
 6051SOL    HW128832   4.852   0.267   2.191 -0.4176 -0.5687  1.0355
 6051SOL    HW228833   4.754   0.385   2.247  0.2615  0.4938  0.0003
 6052SOL     OW28834   9.628   8.975   2.527  0.1727 -0.0265 -0.6662
 6052SOL    HW128835   9.563   8.921   2.474 -0.2400  2.8477 -3.3105
 6052SOL    HW228836   9.578   9.033   2.592  0.4855 -1.4162  0.8442
 6053SOL     OW28837   3.271   1.608   0.015  0.0799 -0.1495 -0.0162
 6053SOL    HW128838   3.282   1.580   0.110  1.4895 -0.4379 -0.2406
 6053SOL    HW228839   3.321   1.544  -0.044 -1.4527 -0.4574 -1.0229
 6054SOL     OW28840   3.858   1.258   3.674 -0.1561  0.0332 -0.2479
 6054SOL    HW128841   3.831   1.313   3.753  0.1947  1.2609 -0.9718
 6054SOL    HW228842   3.839   1.308   3.590  0.7069 -0.7150 -0.8997
 6055SOL     OW28843   3.343   0.115   1.592  0.8275  0.1597 -0.0691
 6055SOL    HW128844   3.394   0.031   1.576 -1.0341 -0.7401 -1.5814
 6055SOL    HW228845   3.268   0.097   1.656  0.4008  0.6302 -0.4277
 6056SOL     OW28846   9.806   2.664   0.610 -0.4602 -0.9072  0.4744
 6056SOL    HW128847   9.853   2.590   0.658  1.7349 -0.2019 -0.5349
 6056SOL    HW228848   9.836   2.752   0.648  0.9008 -0.3671 -1.7822
 6057SOL     OW28849   8.817   8.844   4.043 -0.2604  0.0498  0.9477
 6057SOL    HW128850   8.877   8.770   4.014 -1.0714  0.1594 -1.0892
 6057SOL    HW228851   8.748   8.808   4.106 -1.5731 -1.2609 -1.1843
 6058SOL     OW28852   2.833   7.031   4.710 -0.3012 -0.1181 -0.2157
 6058SOL    HW128853   2.927   7.054   4.686 -0.2120  1.5152  1.6342
 6058SOL    HW228854   2.774   7.110   4.696 -1.2553 -0.8665 -0.5148
 6059SOL     OW28855   2.407   6.689   1.759  0.6014 -0.6558  0.2454
 6059SOL    HW128856   2.349   6.680   1.840 -0.3537  2.7647  0.0573
 6059SOL    HW228857   2.353   6.669   1.677 -0.1602  1.6924  0.1271
 6060SOL     OW28858   5.546   0.276   3.656 -0.1571  0.7073  0.7697
 6060SOL    HW128859   5.527   0.267   3.753  1.4786 -1.2587  0.9442
 6060SOL    HW228860   5.536   0.187   3.611  0.9683  1.1944 -0.5033
 6061SOL     OW28861   8.741   5.403   0.165  0.4332  0.0006 -0.0942
 6061SOL    HW128862   8.678   5.334   0.200  2.1679 -0.7837  1.5734
 6061SOL    HW228863   8.774   5.460   0.241  0.4303  1.4799 -1.1843
 6062SOL     OW28864   1.720   1.867   2.732  0.1625 -0.4454 -0.0282
 6062SOL    HW128865   1.786   1.814   2.678  0.2226  0.0211 -0.4217
 6062SOL    HW228866   1.703   1.820   2.818  0.6478 -0.8151 -0.1247
 6063SOL     OW28867   8.384   1.683   4.343  0.5675 -0.1020 -0.0420
 6063SOL    HW128868   8.343   1.765   4.301 -0.1089 -1.3928 -1.9745
 6063SOL    HW228869   8.464   1.655   4.290  1.7997  0.2531  1.5852
 6064SOL     OW28870   3.655   9.417   2.271 -0.5810  0.2560  0.5613
 6064SOL    HW128871   3.677   9.504   2.315  1.5540  0.5574 -1.0296
 6064SOL    HW228872   3.740   9.367   2.252 -1.6484 -1.1871 -0.5006
 6065SOL     OW28873   7.912   2.153   3.608  0.1095 -0.1744 -0.1393
 6065SOL    HW128874   7.861   2.155   3.693 -1.8152 -0.4949 -1.2613
 6065SOL    HW228875   7.900   2.241   3.560  1.1687  0.0027 -0.0948
 6066SOL     OW28876   9.538   1.341   3.092  0.1005 -1.0337 -0.2577
 6066SOL    HW128877   9.542   1.269   3.023  1.5166  0.0555 -1.3577
 6066SOL    HW228878   9.519   1.429   3.048 -0.3123 -0.5312  0.9011
 6067SOL     OW28879   0.144   9.473   1.184 -0.3548  0.3715  0.2455
 6067SOL    HW128880   0.078   9.453   1.257 -0.2652  1.6417  0.6869
 6067SOL    HW228881   0.231   9.428   1.205 -0.8201 -0.6251  0.0811
 6068SOL     OW28882   4.301   0.127   2.554  0.9347  0.2370 -0.5424
 6068SOL    HW128883   4.306   0.180   2.638 -0.5104  0.4844 -0.5951
 6068SOL    HW228884   4.342   0.037   2.568 -0.1491 -0.0718  0.7033
 6069SOL     OW28885   3.920   4.886   1.930  0.7486 -0.4354  0.0327
 6069SOL    HW128886   3.919   4.846   1.838 -0.6849 -1.4627  0.4890
 6069SOL    HW228887   3.939   4.815   1.997 -0.6485 -0.1544  0.7474
 6070SOL     OW28888   6.197   9.699   3.248  0.2840  0.0653 -0.3859
 6070SOL    HW128889   6.152   9.652   3.324  0.9027  0.0903 -0.0069
 6070SOL    HW228890   6.230   9.632   3.182 -0.8927  0.0722 -0.9993
 6071SOL     OW28891   2.474   3.330   3.112  0.2554 -0.3574  0.1456
 6071SOL    HW128892   2.527   3.409   3.080  0.0838  0.0994  0.9688
 6071SOL    HW228893   2.427   3.288   3.035 -2.3758  2.4003  0.1404
 6072SOL     OW28894   9.788   9.303   2.989  0.4183 -0.1939  0.5046
 6072SOL    HW128895   9.774   9.343   3.080  0.2017  0.2622  0.2703
 6072SOL    HW228896   9.700   9.273   2.953  0.3810  0.4189  0.0790
 6073SOL     OW28897   0.929   5.174   1.219  0.1016 -0.9053  0.2159
 6073SOL    HW128898   0.933   5.264   1.262 -0.4148 -1.4480  1.4270
 6073SOL    HW228899   1.022   5.141   1.204  0.2985 -0.0324 -0.5428
 6074SOL     OW28900   7.695   4.844   3.331 -0.1786  0.0924  0.0913
 6074SOL    HW128901   7.791   4.817   3.319  0.5107  2.9131 -1.2099
 6074SOL    HW228902   7.683   4.885   3.421 -0.3379 -0.8731  0.5186
 6075SOL     OW28903   7.782   9.825   1.559  0.3142  0.1664 -0.2540
 6075SOL    HW128904   7.860   9.877   1.597 -1.3972  0.2841  3.3243
 6075SOL    HW228905   7.774   9.738   1.606 -2.0673  0.4133 -0.1336
 6076SOL     OW28906   0.716   6.432   2.547  0.0929  0.5193 -0.5712
 6076SOL    HW128907   0.720   6.475   2.638 -1.7759 -0.1567 -0.1493
 6076SOL    HW228908   0.807   6.400   2.522  0.6648  0.8731  0.9851
 6077SOL     OW28909   8.641   9.222   0.991 -0.2131 -0.3343 -0.2933
 6077SOL    HW128910   8.653   9.124   1.007 -2.2561 -0.6667 -0.7031
 6077SOL    HW228911   8.615   9.238   0.896  0.8336  0.6721 -0.4200
 6078SOL     OW28912   2.954   4.737   4.151 -0.1252 -0.1793  0.3539
 6078SOL    HW128913   2.916   4.765   4.239  0.5461 -0.9515  0.9029
 6078SOL    HW228914   2.880   4.711   4.089 -0.5393 -0.7714  1.0915
 6079SOL     OW28915   1.987   4.434   1.175  0.2814 -0.3397  0.5637
 6079SOL    HW128916   1.930   4.515   1.194  0.9577 -0.1685  1.9378
 6079SOL    HW228917   1.998   4.381   1.259  3.2065  0.3132  0.6545
 6080SOL     OW28918   0.737   7.392   2.788  0.2847  0.0576 -0.2085
 6080SOL    HW128919   0.827   7.385   2.831  0.9688  0.2928 -1.5995
 6080SOL    HW228920   0.730   7.477   2.737  0.1578 -1.0246 -2.0643
 6081SOL     OW28921   2.697   4.638   2.739  0.1230 -0.1291  0.1653
 6081SOL    HW128922   2.610   4.648   2.787  0.8323 -0.2923  1.5194
 6081SOL    HW228923   2.686   4.667   2.644 -0.7476  2.4051  0.9946
 6082SOL     OW28924   2.556   7.355   4.117 -0.0635 -0.2279 -0.1017
 6082SOL    HW128925   2.594   7.313   4.200 -1.2486 -0.1038  0.5074
 6082SOL    HW228926   2.537   7.451   4.134 -1.6944 -0.5488 -0.0473
 6083SOL     OW28927   3.958   2.265   2.357  0.1307  0.6798 -0.0641
 6083SOL    HW128928   3.958   2.263   2.457 -0.2559  1.3387 -0.0434
 6083SOL    HW228929   3.864   2.256   2.324  0.4017 -0.8865 -0.4082
 6084SOL     OW28930   0.621   9.482   1.415 -0.0410  0.2907  0.3993
 6084SOL    HW128931   0.583   9.570   1.390  0.1342  0.2445 -0.0376
 6084SOL    HW228932   0.713   9.473   1.376 -1.4161 -1.5192 -2.5813
 6085SOL     OW28933   8.987   4.862   1.102  0.4384  0.0464  0.0553
 6085SOL    HW128934   8.970   4.958   1.122 -0.6130 -0.4215  1.4273
 6085SOL    HW228935   8.901   4.814   1.087  0.9245 -0.8081 -0.0868
 6086SOL     OW28936   9.560   2.323   4.104  0.0088  0.8152 -0.0575
 6086SOL    HW128937   9.561   2.260   4.182  1.7819  1.3892  0.4054
 6086SOL    HW228938   9.518   2.278   4.025  3.2782 -1.7753 -0.4127
 6087SOL     OW28939   3.802   9.844   2.181  0.0801 -0.2356 -0.4590
 6087SOL    HW128940   3.805   9.943   2.162 -1.6411  0.0043  0.4631
 6087SOL    HW228941   3.793   9.829   2.279  0.5627 -1.3237 -0.5771
 6088SOL     OW28942   3.696   8.515   3.698 -0.2264 -0.2345 -0.3316
 6088SOL    HW128943   3.699   8.419   3.669 -0.3761 -0.1195 -0.7286
 6088SOL    HW228944   3.778   8.536   3.752  0.6431 -0.1337 -1.6711
 6089SOL     OW28945   0.507   6.808   1.503  0.0641 -0.9028 -0.2628
 6089SOL    HW128946   0.475   6.715   1.486 -1.2385 -0.5326  0.1384
 6089SOL    HW228947   0.607   6.810   1.496  0.2568 -2.6932  1.5141
 6090SOL     OW28948   9.125   7.655   1.094  0.1115  0.4060  0.0480
 6090SOL    HW128949   9.201   7.590   1.095  0.5298  0.8982  1.7263
 6090SOL    HW228950   9.121   7.703   1.181 -1.9302  0.6182 -0.1329
 6091SOL     OW28951   1.144   6.202   4.483  0.0807 -0.5773  0.0370
 6091SOL    HW128952   1.195   6.269   4.430 -2.7639 -1.6965 -4.4342
 6091SOL    HW228953   1.205   6.156   4.546  3.4665  1.6448 -1.4618
 6092SOL     OW28954   0.047   5.224   2.399  0.5150 -0.1765 -0.0848
 6092SOL    HW128955   0.013   5.313   2.367 -1.0535 -0.6462  0.2472
 6092SOL    HW228956  -0.019   5.153   2.376 -0.0255 -0.7268  2.9887
 6093SOL     OW28957   7.857   1.319   0.813  0.0621  0.8117 -0.0144
 6093SOL    HW128958   7.857   1.352   0.719 -0.4178  0.6338 -0.0738
 6093SOL    HW228959   7.871   1.396   0.875  0.0136  0.9784 -0.2108
 6094SOL     OW28960   9.553   5.156   0.698 -0.8328  0.5125  0.6291
 6094SOL    HW128961   9.644   5.121   0.674 -0.6828  0.3494  1.4214
 6094SOL    HW228962   9.524   5.117   0.785 -1.8488  0.2381  0.1809
 6095SOL     OW28963   0.928   8.646   1.369 -0.0149  0.1949 -0.5577
 6095SOL    HW128964   0.967   8.738   1.366 -1.0211  0.6962  0.9187
 6095SOL    HW228965   0.829   8.651   1.354  0.0746 -0.7608 -1.5139
 6096SOL     OW28966   2.397   4.390   1.955 -0.7091  0.3102 -0.8330
 6096SOL    HW128967   2.374   4.457   2.026  0.7541 -0.5574  0.4834
 6096SOL    HW228968   2.433   4.438   1.875 -1.6883  1.2481 -0.7263
 6097SOL     OW28969   2.862   7.761   3.576 -0.3152  0.1264 -0.6423
 6097SOL    HW128970   2.933   7.715   3.629 -1.0853  0.7004  0.9426
 6097SOL    HW228971   2.869   7.860   3.590 -1.1815  0.2110 -0.7646
 6098SOL     OW28972   7.939   4.284   0.562  1.0321  0.3195 -0.5002
 6098SOL    HW128973   7.939   4.341   0.479 -0.6610  0.4569 -0.4236
 6098SOL    HW228974   8.033   4.265   0.589  1.6109  1.6544 -1.5113
 6099SOL     OW28975   2.741   4.632   3.960  0.3067  0.4446  0.0262
 6099SOL    HW128976   2.681   4.701   3.920 -0.7607 -0.9846 -0.8858
 6099SOL    HW228977   2.755   4.558   3.894 -1.6220 -2.0597  2.3002
 6100SOL     OW28978   1.140   9.394   2.926  0.2796 -0.4515 -0.5166
 6100SOL    HW128979   1.205   9.428   2.858  0.5299 -2.2438 -1.1844
 6100SOL    HW228980   1.123   9.466   2.994  2.2094  0.3655 -0.8669
 6101SOL     OW28981   6.341   7.156   2.579  0.3622 -0.4981  0.4860
 6101SOL    HW128982   6.363   7.228   2.645  2.3414  0.1248 -0.8436
 6101SOL    HW228983   6.409   7.083   2.584  0.8832 -0.1606 -1.2813
 6102SOL     OW28984   9.314   9.184   3.014 -0.1905 -0.3801 -0.3032
 6102SOL    HW128985   9.342   9.122   3.088 -0.5577 -1.9133 -1.4147
 6102SOL    HW228986   9.255   9.256   3.051 -1.0010 -1.5774  0.7916
 6103SOL     OW28987   8.318   5.226   1.846  0.5516 -0.1840  0.0905
 6103SOL    HW128988   8.254   5.300   1.866 -0.3907 -0.5137 -1.6095
 6103SOL    HW228989   8.357   5.192   1.932 -1.7307 -0.1202  1.1963
 6104SOL     OW28990   1.813   3.715   2.432 -0.2588 -0.4077  0.0588
 6104SOL    HW128991   1.733   3.710   2.374 -1.8317  0.3151  2.0890
 6104SOL    HW228992   1.815   3.636   2.493 -0.0413  0.1189  0.7499
 6105SOL     OW28993   7.768   9.791   3.675  0.4063  0.3356 -0.2227
 6105SOL    HW128994   7.842   9.738   3.634  0.8822  1.3761 -0.7481
 6105SOL    HW228995   7.780   9.794   3.774  0.3408 -0.5801 -0.1864
 6106SOL     OW28996   8.991   6.882   1.750  0.2969 -0.1662 -0.0842
 6106SOL    HW128997   9.061   6.943   1.714  0.2474  0.2023  0.4484
 6106SOL    HW228998   9.008   6.789   1.717  1.0328 -0.0790  0.0538
 6107SOL     OW28999   7.225   6.655   2.135 -0.1942 -0.2413 -0.7256
 6107SOL    HW129000   7.184   6.571   2.171 -1.4966  0.2993 -0.9079
 6107SOL    HW229001   7.177   6.734   2.173  0.7691  0.4176 -0.8660
 6108SOL     OW29002   1.258   7.061   0.005  0.0957  0.5557 -0.1057
 6108SOL    HW129003   1.215   6.994  -0.055  0.0956  0.5549 -0.1051
 6108SOL    HW229004   1.203   7.145   0.007  0.0241  0.5055  0.0016
 6109SOL     OW29005   8.170   4.889   2.853 -0.5896  0.2467 -0.7514
 6109SOL    HW129006   8.153   4.985   2.872  1.8157  0.3294  1.2898
 6109SOL    HW229007   8.131   4.833   2.927  0.3517 -0.1293 -0.5281
 6110SOL     OW29008   7.618   0.308   2.810  0.3246  1.0202 -0.3072
 6110SOL    HW129009   7.700   0.361   2.833  0.3143  0.4893  1.0402
 6110SOL    HW229010   7.644   0.227   2.757  0.5764  1.2973 -0.6074
 6111SOL     OW29011   3.491   0.126   0.630 -0.5740  0.4145  0.0574
 6111SOL    HW129012   3.446   0.048   0.586  0.0394  0.4316 -0.6278
 6111SOL    HW229013   3.555   0.092   0.699 -1.0309  0.3537  0.4506
 6112SOL     OW29014   1.278   1.686   0.400  0.2277 -0.4947  0.2231
 6112SOL    HW129015   1.231   1.604   0.369  1.9639 -1.2444 -0.4761
 6112SOL    HW229016   1.294   1.680   0.499 -1.1893 -0.1968  0.4810
 6113SOL     OW29017   7.524   3.513   4.199  0.1404 -0.3537  0.1138
 6113SOL    HW129018   7.573   3.466   4.272  0.4657  1.0601  0.8253
 6113SOL    HW229019   7.575   3.503   4.113  0.3666 -1.0359  0.3253
 6114SOL     OW29020   1.149   2.418   0.207 -0.5962  0.6738 -0.3320
 6114SOL    HW129021   1.104   2.337   0.169 -0.7675  1.2073 -1.2888
 6114SOL    HW229022   1.092   2.457   0.279  0.2250 -0.9646  1.2534
 6115SOL     OW29023   3.072   9.183   1.775 -0.4304 -0.2484  0.4404
 6115SOL    HW129024   3.017   9.132   1.841  0.8838 -1.8471  0.3307
 6115SOL    HW229025   3.066   9.140   1.685 -0.9504  1.0055 -0.1403
 6116SOL     OW29026   6.571   8.224   1.459  0.1546 -0.0253  0.3136
 6116SOL    HW129027   6.624   8.148   1.496  0.1044 -1.6097 -2.6983
 6116SOL    HW229028   6.628   8.276   1.395 -0.3345  1.4357  1.0576
 6117SOL     OW29029   9.610   2.679   3.133  0.4466  0.4954 -0.3895
 6117SOL    HW129030   9.532   2.672   3.070 -0.5418 -0.6228  0.9212
 6117SOL    HW229031   9.612   2.770   3.173 -0.2164  0.5284 -0.4227
 6118SOL     OW29032   0.522   4.627   1.648  0.1003  0.5744  0.0620
 6118SOL    HW129033   0.567   4.584   1.727 -1.6822  1.2583  1.4875
 6118SOL    HW229034   0.439   4.576   1.625 -1.1988  2.2912  0.7878
 6119SOL     OW29035   1.939   3.448   2.528 -0.7698  0.2033 -0.4661
 6119SOL    HW129036   1.989   3.394   2.462  2.6285  0.5443  1.6866
 6119SOL    HW229037   1.900   3.388   2.599 -0.6828  0.2091 -0.4138
 6120SOL     OW29038   3.188   4.872   4.590 -0.0175 -0.1532 -0.0662
 6120SOL    HW129039   3.165   4.776   4.606  1.3543 -0.1946  1.8645
 6120SOL    HW229040   3.105   4.928   4.594 -0.6556 -1.0955  0.0157
 6121SOL     OW29041   5.182   6.585   2.380  0.2105 -0.1288  0.3282
 6121SOL    HW129042   5.089   6.548   2.384  0.1281 -0.1336 -1.3430
 6121SOL    HW229043   5.183   6.677   2.419 -0.3296 -0.4376  1.0832
 6122SOL     OW29044   0.281   0.430   1.312  0.1680  0.3971  0.2328
 6122SOL    HW129045   0.202   0.381   1.347  1.2084  0.4883  2.7918
 6122SOL    HW229046   0.264   0.457   1.217 -1.8805 -1.6753 -0.0355
 6123SOL     OW29047   9.041   0.440   1.075  0.3394  0.3856 -0.1048
 6123SOL    HW129048   8.944   0.419   1.065 -0.0614  0.7435  2.7737
 6123SOL    HW229049   9.064   0.450   1.171  3.4736 -0.6806 -0.6726
 6124SOL     OW29050   9.007   5.868   0.318  0.5883 -0.1752 -0.0034
 6124SOL    HW129051   8.941   5.825   0.257  2.0968 -0.6394 -1.3590
 6124SOL    HW229052   9.040   5.800   0.384 -0.2031  0.0276  0.6013
 6125SOL     OW29053   0.357   4.047   0.017 -0.0938 -0.1192 -0.2679
 6125SOL    HW129054   0.431   3.981   0.005  0.0873  0.0459 -0.0465
 6125SOL    HW229055   0.269   3.999   0.010  0.0319 -0.3301 -0.4349
 6126SOL     OW29056   8.326   9.701   3.270 -0.1937  0.3332 -0.2291
 6126SOL    HW129057   8.388   9.778   3.287 -1.4684  1.3507 -0.1156
 6126SOL    HW229058   8.323   9.643   3.351 -1.2350  1.6143  0.6866
 6127SOL     OW29059   8.808   4.080   1.670 -0.5484 -0.1940  0.2395
 6127SOL    HW129060   8.709   4.066   1.680 -0.6156  1.7845  3.0499
 6127SOL    HW229061   8.857   4.006   1.716 -0.7100 -1.0767 -0.9950
 6128SOL     OW29062   9.482   8.275   4.749  0.4836  0.7342  0.4663
 6128SOL    HW129063   9.424   8.222   4.687 -1.4539  2.8819  0.3441
 6128SOL    HW229064   9.545   8.214   4.797 -1.7344 -1.6681  0.4422
 6129SOL     OW29065   3.277   2.223   2.681  0.8708  1.0623  0.2918
 6129SOL    HW129066   3.337   2.224   2.761 -0.5375 -2.4898  1.4994
 6129SOL    HW229067   3.202   2.288   2.694  1.8653  2.0950  0.8709
 6130SOL     OW29068   3.772   0.213   3.966 -0.5585 -0.1678  0.7411
 6130SOL    HW129069   3.846   0.218   3.899 -1.4613  1.1997 -0.2014
 6130SOL    HW229070   3.782   0.288   4.032 -1.5443  0.5564  0.0976
 6131SOL     OW29071   1.837   3.294   2.733 -0.3086 -0.5535 -0.1622
 6131SOL    HW129072   1.745   3.305   2.770 -0.8781  0.9165 -1.9130
 6131SOL    HW229073   1.876   3.208   2.765 -1.9607 -0.7993  1.2668
 6132SOL     OW29074   1.377   8.600   0.516  0.0878 -0.8987 -0.7081
 6132SOL    HW129075   1.366   8.671   0.446  1.3046 -1.8277 -1.8602
 6132SOL    HW229076   1.316   8.620   0.593 -0.0564  1.0483 -1.2921
 6133SOL     OW29077   2.272   3.303   2.819 -0.7860  0.0605  0.0833
 6133SOL    HW129078   2.189   3.352   2.842 -1.0327 -0.1932 -0.2627
 6133SOL    HW229079   2.346   3.368   2.803 -1.0433  0.3058 -0.1063
 6134SOL     OW29080   8.217   9.519   2.767  0.3317  0.9645 -0.4266
 6134SOL    HW129081   8.256   9.438   2.724 -0.3352  0.5715 -0.2984
 6134SOL    HW229082   8.238   9.519   2.864 -1.8385 -0.4029  0.0900
 6135SOL     OW29083   8.881   0.371   2.159 -0.3195 -0.5707  0.1062
 6135SOL    HW129084   8.812   0.306   2.191  0.4584 -0.4281  2.1751
 6135SOL    HW229085   8.897   0.439   2.231  0.0924  0.9257 -1.3770
 6136SOL     OW29086   2.581   8.686   3.288  0.4145 -0.6096 -0.4852
 6136SOL    HW129087   2.535   8.633   3.216  0.4677 -0.1387 -0.8715
 6136SOL    HW229088   2.614   8.772   3.249  0.0556 -0.1558  0.2080
 6137SOL     OW29089   8.010   1.723   3.284 -0.9870 -0.0067 -0.8465
 6137SOL    HW129090   8.028   1.655   3.355 -0.1560  0.8197 -0.2389
 6137SOL    HW229091   7.998   1.677   3.196 -0.1020 -0.9239 -0.5068
 6138SOL     OW29092   4.620   0.438   0.328 -0.4102  0.1014  0.4644
 6138SOL    HW129093   4.551   0.509   0.324  0.8035  1.2981  0.3503
 6138SOL    HW229094   4.624   0.399   0.420  0.0546  1.3471  0.9857
 6139SOL     OW29095   2.390   7.536   0.720  0.6817  0.0780 -0.3132
 6139SOL    HW129096   2.441   7.608   0.767 -0.1716  0.9102 -0.6504
 6139SOL    HW229097   2.295   7.537   0.750  0.8522 -1.4740  0.3096
 6140SOL     OW29098   2.914   1.907   3.646  0.8713  0.0278  0.1923
 6140SOL    HW129099   2.845   1.922   3.575  0.3068 -0.2616  0.6698
 6140SOL    HW229100   2.870   1.866   3.726  1.0089  2.7610  1.7167
 6141SOL     OW29101   8.970   2.553   3.077 -0.5645  0.5002  0.1973
 6141SOL    HW129102   8.973   2.461   3.117 -0.1112  1.0086  1.3407
 6141SOL    HW229103   8.886   2.562   3.023 -0.4865 -0.6738 -0.1349
 6142SOL     OW29104   2.648   7.426   2.682  0.1279  0.5608 -0.1119
 6142SOL    HW129105   2.700   7.487   2.622  1.2138  0.0831  0.3233
 6142SOL    HW229106   2.598   7.480   2.749  1.1206  0.9695  0.3011
 6143SOL     OW29107   4.504   0.662   4.370  0.3648 -0.2308  0.1851
 6143SOL    HW129108   4.462   0.573   4.355 -0.4522  0.2456 -0.4004
 6143SOL    HW229109   4.576   0.678   4.303  0.3519 -0.3533  0.1443
 6144SOL     OW29110   1.286   2.096   1.664 -0.0621  0.0888  0.3333
 6144SOL    HW129111   1.284   2.058   1.756  1.4814 -0.0390  0.3252
 6144SOL    HW229112   1.345   2.040   1.606 -0.9587  0.2150 -0.7195
 6145SOL     OW29113   9.761   5.060   3.167  0.4128  0.3498  0.3466
 6145SOL    HW129114   9.682   5.000   3.148  1.5317 -0.8620 -0.5566
 6145SOL    HW229115   9.743   5.111   3.251 -1.3411  0.0919  0.1639
 6146SOL     OW29116   7.535   7.023   3.134  0.0604 -0.0702 -0.0455
 6146SOL    HW129117   7.563   7.069   3.050  1.4471  1.9694  1.4791
 6146SOL    HW229118   7.565   6.928   3.132  0.0353 -0.0590 -1.8646
 6147SOL     OW29119   1.128   4.914   1.550  0.4500 -0.6610  0.1068
 6147SOL    HW129120   1.162   4.828   1.587 -0.1532 -0.3955  1.3217
 6147SOL    HW229121   1.051   4.895   1.489  1.2265 -1.0819 -0.7482
 6148SOL     OW29122   0.383   4.669   0.262 -0.3059 -0.3812  0.0478
 6148SOL    HW129123   0.473   4.626   0.259 -0.2855 -0.5108  1.9356
 6148SOL    HW229124   0.316   4.602   0.297 -0.8667  0.1374 -0.0302
 6149SOL     OW29125   8.571   4.232   3.183  0.1668 -0.4908  0.2886
 6149SOL    HW129126   8.489   4.247   3.127  1.1796 -1.7146 -1.5680
 6149SOL    HW229127   8.652   4.251   3.129  1.1471  1.9446  2.4976
 6150SOL     OW29128   7.825   4.005   4.194  0.0746  0.8688 -0.3949
 6150SOL    HW129129   7.823   3.953   4.108  2.6228 -2.7226  1.5741
 6150SOL    HW229130   7.918   4.035   4.213 -0.2775  0.7641  1.5981
 6151SOL     OW29131   5.921   7.480   2.838 -0.2983  0.4533 -0.1063
 6151SOL    HW129132   6.018   7.475   2.816 -0.2172  3.6357 -0.6766
 6151SOL    HW229133   5.909   7.524   2.927 -1.3128  2.6461 -1.3013
 6152SOL     OW29134   9.230   1.207   2.951 -0.4354  0.6416  0.2245
 6152SOL    HW129135   9.319   1.162   2.955 -0.9053 -0.2582  0.6908
 6152SOL    HW229136   9.221   1.271   3.027 -0.8710 -0.5790  1.2348
 6153SOL     OW29137   3.605   6.078   1.226  0.5702  0.2190 -0.4638
 6153SOL    HW129138   3.665   6.104   1.302 -0.9065 -0.2633  0.9023
 6153SOL    HW229139   3.553   6.158   1.196 -0.0165  0.0678  0.1254
 6154SOL     OW29140   4.470   6.980   3.413  0.5073  0.1957  0.2411
 6154SOL    HW129141   4.558   6.962   3.370  0.8226 -0.5009  1.1854
 6154SOL    HW229142   4.478   7.057   3.476  0.4933 -0.0152  0.5008
 6155SOL     OW29143   7.723   9.093   0.134  0.0637 -0.6623 -0.0099
 6155SOL    HW129144   7.769   9.126   0.051 -2.5289 -0.7175 -1.5321
 6155SOL    HW229145   7.738   8.995   0.144  0.9704 -0.5264 -0.0195
 6156SOL     OW29146   5.535   9.793   2.599 -0.0502 -0.8852 -0.0367
 6156SOL    HW129147   5.497   9.701   2.588 -0.5257 -0.6931 -0.0178
 6156SOL    HW229148   5.577   9.801   2.689 -0.5481 -0.8949  0.2031
 6157SOL     OW29149   1.320   0.279   1.090 -0.0299  0.6603  0.2647
 6157SOL    HW129150   1.415   0.253   1.075 -0.7294 -1.6582 -0.2429
 6157SOL    HW229151   1.264   0.247   1.013 -1.5309  0.2527  1.5138
 6158SOL     OW29152   4.992   3.421   2.135  0.6920  0.1323  0.2835
 6158SOL    HW129153   4.959   3.326   2.129  0.1269  0.3522 -0.1888
 6158SOL    HW229154   4.959   3.472   2.055  0.1873  0.9679  1.0202
 6159SOL     OW29155   3.941   2.264   2.645  0.4304 -0.2774  0.2919
 6159SOL    HW129156   3.952   2.318   2.729 -0.2366 -1.5919  1.2499
 6159SOL    HW229157   3.844   2.243   2.632  0.5665 -0.3393 -0.6583
 6160SOL     OW29158   1.501   1.831   1.163  0.2544 -0.4074 -0.1820
 6160SOL    HW129159   1.555   1.892   1.221  0.0527 -0.5935  0.2071
 6160SOL    HW229160   1.538   1.738   1.169  0.2873 -0.4096 -0.4197
 6161SOL     OW29161   7.563   5.996   2.715 -0.2889 -0.4580  0.0420
 6161SOL    HW129162   7.538   6.023   2.622  1.8225  1.1818 -0.0935
 6161SOL    HW229163   7.536   6.069   2.779  1.8167  0.2237  0.1853
 6162SOL     OW29164   8.728   0.677   0.869  0.0013  0.7137  0.3672
 6162SOL    HW129165   8.708   0.671   0.771  0.8093  0.9246  0.1865
 6162SOL    HW229166   8.825   0.658   0.884 -0.1895  0.3698  1.1589
 6163SOL     OW29167   1.752   5.583   0.683  0.0400 -0.1196  0.2599
 6163SOL    HW129168   1.681   5.627   0.738  0.3457  0.1204  0.4596
 6163SOL    HW229169   1.839   5.588   0.731  0.0244 -1.1792  0.4066
 6164SOL     OW29170   2.887   1.169   3.577 -0.2900 -0.2559  0.4442
 6164SOL    HW129171   2.899   1.126   3.667  0.5010 -0.0173  0.4619
 6164SOL    HW229172   2.803   1.222   3.577 -0.0518  0.1420  1.2161
 6165SOL     OW29173   2.249   9.528   1.418  0.1110  0.0732  0.3356
 6165SOL    HW129174   2.201   9.440   1.417  1.1270 -0.5171 -2.5394
 6165SOL    HW229175   2.329   9.522   1.478  0.2547 -1.0262  0.0503
 6166SOL     OW29176   8.578   0.520   4.603  0.1908 -0.1312 -0.7845
 6166SOL    HW129177   8.599   0.527   4.505  2.7756  1.3175 -0.1776
 6166SOL    HW229178   8.562   0.611   4.640  1.4640 -0.4583  0.5997
 6167SOL     OW29179   3.487   6.890   2.006  0.0190 -0.0621  0.2086
 6167SOL    HW129180   3.574   6.939   2.010  0.1871 -0.4154  1.0482
 6167SOL    HW229181   3.503   6.792   2.020 -0.7632  0.1579  2.9978
 6168SOL     OW29182   0.729   8.676   0.064 -0.4801 -0.5306 -0.6050
 6168SOL    HW129183   0.666   8.609   0.102  0.5468 -0.0475  2.0890
 6168SOL    HW229184   0.817   8.670   0.112  1.0228 -0.1458 -3.2326
 6169SOL     OW29185   0.376   2.531   4.122  0.2647 -0.5343 -0.2698
 6169SOL    HW129186   0.355   2.454   4.061 -1.1126 -0.8112  0.5379
 6169SOL    HW229187   0.356   2.617   4.075  0.8747 -0.6885 -0.8232
 6170SOL     OW29188   7.821   1.485   2.430 -0.4709  0.5584  0.6445
 6170SOL    HW129189   7.789   1.462   2.338 -0.1538  3.2203 -0.1657
 6170SOL    HW229190   7.918   1.463   2.437 -0.3441  0.9491  0.1419
 6171SOL     OW29191   2.483   1.228   4.386 -0.4084  0.4749 -0.2411
 6171SOL    HW129192   2.392   1.214   4.348 -0.6538 -1.8982  1.1170
 6171SOL    HW229193   2.477   1.237   4.485  0.8636  0.0025 -0.1146
 6172SOL     OW29194   1.361   8.064   1.008  0.3353  0.0819  0.4792
 6172SOL    HW129195   1.266   8.096   1.009  0.1206 -0.4490 -1.2842
 6172SOL    HW229196   1.421   8.139   1.036 -0.4255  1.1599 -0.6669
 6173SOL     OW29197   0.483   3.850   0.906  0.6029  0.0616 -0.1230
 6173SOL    HW129198   0.432   3.828   0.823 -0.5790  0.3688  0.5115
 6173SOL    HW229199   0.419   3.874   0.979  1.6672  0.6925  0.6166
 6174SOL     OW29200   2.635   6.127   1.041  0.6513  0.5887 -0.3431
 6174SOL    HW129201   2.674   6.059   0.979  2.6617  0.6056  0.8485
 6174SOL    HW229202   2.556   6.170   0.998  1.0255 -0.5501 -2.2289
 6175SOL     OW29203   6.592   0.160   2.068  0.0707 -0.4941  0.0180
 6175SOL    HW129204   6.638   0.190   1.984  0.1380 -1.2749 -0.2331
 6175SOL    HW229205   6.644   0.190   2.147  1.0141 -1.3640 -0.2661
 6176SOL     OW29206   4.328   3.637   3.015 -0.3498  0.4761  0.6208
 6176SOL    HW129207   4.340   3.546   2.977 -2.0249  0.2414  0.6511
 6176SOL    HW229208   4.417   3.671   3.047  0.5083 -0.6093 -0.5474
 6177SOL     OW29209   8.647   4.871   0.734 -1.0260  0.0448  0.2503
 6177SOL    HW129210   8.596   4.932   0.793 -1.8269 -1.2126  0.8810
 6177SOL    HW229211   8.699   4.806   0.790  2.1773  1.9729 -0.3340
 6178SOL     OW29212   9.506   3.489   1.079 -0.4971 -0.4680 -0.5670
 6178SOL    HW129213   9.569   3.414   1.102 -0.0040 -0.3214 -1.4019
 6178SOL    HW229214   9.465   3.525   1.162  1.9491  0.6564  0.1874
 6179SOL     OW29215   2.373   0.191   2.894  0.5823  0.3970 -0.0647
 6179SOL    HW129216   2.437   0.210   2.819  1.1986  1.3281  0.6818
 6179SOL    HW229217   2.315   0.271   2.909  0.9147  0.4658  0.8801
 6180SOL     OW29218   2.913   5.863   0.109 -0.1769 -0.2269 -0.5122
 6180SOL    HW129219   2.921   5.951   0.156 -0.5195 -0.3604 -0.1953
 6180SOL    HW229220   2.858   5.801   0.165 -2.6456  0.3766 -2.2068
 6181SOL     OW29221   3.598   2.059   1.650 -0.3294 -0.1307 -0.0010
 6181SOL    HW129222   3.505   2.027   1.665 -0.1795 -1.0333 -0.9220
 6181SOL    HW229223   3.649   1.990   1.599  0.6046  0.7198 -0.2366
 6182SOL     OW29224   8.173   3.687   4.165  0.0926 -0.1541 -0.5889
 6182SOL    HW129225   8.213   3.674   4.074 -1.0099 -2.7702 -0.7502
 6182SOL    HW229226   8.245   3.706   4.231  1.1704 -0.6922 -1.5846
 6183SOL     OW29227   4.640   6.943   2.410 -0.4784  0.0774  0.1047
 6183SOL    HW129228   4.591   6.954   2.324  0.3129 -0.2423 -0.3834
 6183SOL    HW229229   4.727   6.897   2.394 -0.3942 -0.1207  1.0927
 6184SOL     OW29230   9.294   1.550   4.573  0.0723 -0.4477  0.0890
 6184SOL    HW129231   9.224   1.496   4.619 -0.6934 -1.0809 -1.8103
 6184SOL    HW229232   9.258   1.641   4.552  0.4254 -0.1528  0.7501
 6185SOL     OW29233   8.114   6.863   3.286  0.4817 -0.6156  0.3321
 6185SOL    HW129234   8.047   6.900   3.221  1.8938 -2.2939 -2.1686
 6185SOL    HW229235   8.120   6.924   3.365 -2.3221  0.7489 -0.4212
 6186SOL     OW29236   7.088   0.040   0.566 -0.6085 -0.4564 -0.3911
 6186SOL    HW129237   7.011   0.044   0.502 -1.0106  1.3141  0.1479
 6186SOL    HW229238   7.065  -0.022   0.641 -1.2229 -0.5018 -0.6071
 6187SOL     OW29239   3.150   2.487   2.684 -0.1606 -0.3612  0.0402
 6187SOL    HW129240   3.161   2.523   2.592 -0.0252 -0.1360  0.1425
 6187SOL    HW229241   3.082   2.542   2.734 -1.1942 -1.2911 -0.3477
 6188SOL     OW29242   8.050   2.732   2.961 -0.0633 -0.1264  0.3293
 6188SOL    HW129243   8.019   2.722   2.866 -0.6852 -1.1924  0.6334
 6188SOL    HW229244   8.053   2.642   3.004  1.1954  0.2442  1.0231
 6189SOL     OW29245   0.196   3.730   2.204 -0.3436  0.2124  0.4906
 6189SOL    HW129246   0.296   3.737   2.215  0.4487 -1.5759 -4.2957
 6189SOL    HW229247   0.165   3.642   2.241  0.8758 -1.8973 -3.2747
 6190SOL     OW29248   5.468   0.518   1.349  0.2869 -0.4402  0.4714
 6190SOL    HW129249   5.564   0.518   1.377  0.5656  0.3068 -0.4354
 6190SOL    HW229250   5.417   0.584   1.405  0.4149 -0.4522  0.6017
 6191SOL     OW29251   0.437   9.928   4.604 -0.6265  0.9224 -0.1845
 6191SOL    HW129252   0.481   9.877   4.531 -1.1180  0.8920 -0.4659
 6191SOL    HW229253   0.473  10.022   4.606 -0.4352  0.8512 -0.3088
 6192SOL     OW29254   9.004   3.699   4.071 -0.1272 -0.2373 -0.0497
 6192SOL    HW129255   9.020   3.604   4.045 -3.0015 -0.6538 -0.4052
 6192SOL    HW229256   9.007   3.707   4.171  1.3870 -0.4355 -0.0655
 6193SOL     OW29257   3.120   4.477   0.558 -0.1901  0.0387  0.1448
 6193SOL    HW129258   3.157   4.560   0.518 -0.3608 -0.7018 -1.5689
 6193SOL    HW229259   3.020   4.483   0.562 -0.2085 -0.1207 -0.0626
 6194SOL     OW29260   4.471   1.415   2.244  0.1834 -0.0193 -0.0186
 6194SOL    HW129261   4.490   1.507   2.276  1.9378  0.1875 -1.5559
 6194SOL    HW229262   4.557   1.364   2.235 -0.7229 -1.6842  0.4211
 6195SOL     OW29263   9.839   0.497   3.483  0.5022 -0.4259  0.1109
 6195SOL    HW129264   9.877   0.583   3.518  1.5270 -0.3712 -1.1125
 6195SOL    HW229265   9.904   0.423   3.499  1.0307 -0.3849 -1.7263
 6196SOL     OW29266   6.368   9.849   3.855  0.3695 -0.3255 -0.0574
 6196SOL    HW129267   6.273   9.873   3.836  0.2341 -1.8389 -1.4184
 6196SOL    HW229268   6.411   9.811   3.772  1.0095 -3.1834  1.5058
 6197SOL     OW29269   2.957   3.231   1.826  0.1529  0.2875  0.1447
 6197SOL    HW129270   2.864   3.221   1.790  0.1366  0.5707  0.1059
 6197SOL    HW229271   3.023   3.221   1.752  0.3373 -3.3602  0.7012
 6198SOL     OW29272   1.730   8.531   3.438  0.2174  0.1599  0.2579
 6198SOL    HW129273   1.740   8.605   3.505 -1.5400  0.9521 -0.3322
 6198SOL    HW229274   1.796   8.543   3.365  0.7969  0.4230  0.8196
 6199SOL     OW29275   1.179   6.824   0.475  0.1585  0.4262 -0.6308
 6199SOL    HW129276   1.230   6.855   0.555 -0.9739  1.3483 -0.2512
 6199SOL    HW229277   1.238   6.767   0.418  1.3004  0.6460  0.3092
 6200SOL     OW29278   3.391   5.042   4.546 -0.7683  0.4478 -0.0894
 6200SOL    HW129279   3.397   5.126   4.599  0.0017 -0.2271  0.9050
 6200SOL    HW229280   3.309   4.991   4.573  0.9926 -1.1629  2.3578
 6201SOL     OW29281   8.857   0.974   1.481 -0.3167 -0.3790  0.2745
 6201SOL    HW129282   8.846   0.875   1.476  0.3860 -0.3744 -1.4953
 6201SOL    HW229283   8.774   1.019   1.447  0.5439 -0.3745 -1.8982
 6202SOL     OW29284   1.375   2.239   0.932  0.6103  0.3542  0.3763
 6202SOL    HW129285   1.322   2.261   1.015  0.4021 -0.5639  0.4839
 6202SOL    HW229286   1.462   2.198   0.959  0.6764  0.3437  0.1411
 6203SOL     OW29287   7.844   9.444   2.504  0.4987  0.5823 -0.2247
 6203SOL    HW129288   7.898   9.460   2.421 -0.7626  2.8496 -0.6416
 6203SOL    HW229289   7.888   9.490   2.582  0.0295  1.0765 -0.2505
 6204SOL     OW29290   3.892   7.377   0.300  0.0141 -0.5847  0.4098
 6204SOL    HW129291   3.893   7.320   0.218  0.0713 -0.1911  0.1349
 6204SOL    HW229292   3.964   7.446   0.293  0.8142 -1.3089  1.3306
 6205SOL     OW29293   1.047   6.504   1.194  0.4420  0.5180 -0.4246
 6205SOL    HW129294   1.023   6.432   1.128  0.1617  0.5105 -0.3171
 6205SOL    HW229295   0.971   6.569   1.200 -0.9807 -1.2817  2.3742
 6206SOL     OW29296   9.168   8.240   0.362  0.4077  0.4008  0.1066
 6206SOL    HW129297   9.108   8.163   0.384  2.2978 -1.6326 -1.6695
 6206SOL    HW229298   9.263   8.213   0.371  1.1206  2.4646 -0.8145
 6207SOL     OW29299   0.443   5.062   1.426 -0.5202  0.2880  0.9046
 6207SOL    HW129300   0.432   5.154   1.390 -0.1755  0.0739  0.2443
 6207SOL    HW229301   0.413   4.996   1.356  0.2428 -0.1316  0.9739
 6208SOL     OW29302   4.040   8.711   0.026  0.5079 -0.1596  0.3605
 6208SOL    HW129303   4.083   8.658  -0.047 -0.4506  0.2375 -0.4973
 6208SOL    HW229304   3.960   8.661   0.060  0.3886  0.1078  0.4729
 6209SOL     OW29305   9.237   1.561   2.424 -0.0271 -0.4087 -0.3765
 6209SOL    HW129306   9.159   1.526   2.475 -1.6038  1.6664 -1.2897
 6209SOL    HW229307   9.204   1.607   2.342  2.2065  0.1386 -0.9840
 6210SOL     OW29308   8.430   5.103   2.911  0.0196 -0.0616  0.3711
 6210SOL    HW129309   8.352   5.152   2.949  0.5721 -1.2332  3.1363
 6210SOL    HW229310   8.431   5.009   2.945  2.5495 -0.1069  0.2946
 6211SOL     OW29311   6.615   7.545   1.879 -0.4320 -0.4408 -0.0099
 6211SOL    HW129312   6.516   7.537   1.864 -0.5501  0.5060  0.2080
 6211SOL    HW229313   6.656   7.598   1.805 -0.1517 -0.5028  0.1011
 6212SOL     OW29314   9.686   7.442   4.140 -0.2379 -0.5530 -0.1492
 6212SOL    HW129315   9.685   7.480   4.047  0.4408 -1.3265 -0.4874
 6212SOL    HW229316   9.652   7.511   4.205 -0.0604  0.2417 -0.8811
 6213SOL     OW29317   0.965   8.627   4.137  0.6609  0.2211 -0.9638
 6213SOL    HW129318   0.920   8.540   4.115  0.7070 -0.0011 -0.2089
 6213SOL    HW229319   0.914   8.674   4.209  1.7607 -0.1687  0.1119
 6214SOL     OW29320   0.406   2.204   1.549  0.3141  0.1866  0.3109
 6214SOL    HW129321   0.419   2.293   1.592  0.2912 -0.4179  1.5788
 6214SOL    HW229322   0.371   2.217   1.456 -1.2744  1.4600  1.0542
 6215SOL     OW29323   9.369   1.370   0.115  0.2536  0.1196  0.8477
 6215SOL    HW129324   9.395   1.349   0.210  0.3667  1.8713  1.2161
 6215SOL    HW229325   9.276   1.404   0.113  0.6647  1.2430  0.4841
 6216SOL     OW29326   2.561   4.330   1.252  0.5200  0.5373 -0.1695
 6216SOL    HW129327   2.487   4.288   1.200  1.2237 -0.1278 -0.6316
 6216SOL    HW229328   2.564   4.428   1.231  0.5840  0.3374 -1.1418
 6217SOL     OW29329   2.567   6.115   4.718 -0.3263 -0.2336 -0.1738
 6217SOL    HW129330   2.585   6.034   4.662 -1.6207 -0.2872 -0.5311
 6217SOL    HW229331   2.469   6.123   4.734 -0.3130  1.8748 -1.0461
 6218SOL     OW29332   8.128   6.085   2.889 -0.3717  0.2189 -0.0560
 6218SOL    HW129333   8.187   6.103   2.968  2.0152 -0.5330 -1.6200
 6218SOL    HW229334   8.101   5.988   2.891  1.0784 -0.2196 -1.0488
 6219SOL     OW29335   1.153   9.838   3.337 -0.0071 -0.3355  0.0048
 6219SOL    HW129336   1.133   9.833   3.239  0.1882 -1.0036 -0.0006
 6219SOL    HW229337   1.079   9.887   3.383 -0.7754 -1.2096 -0.2810
 6220SOL     OW29338   8.952   1.216   0.918  0.1073  0.4726  0.6852
 6220SOL    HW129339   8.860   1.203   0.880  0.8782  0.8119 -1.3495
 6220SOL    HW229340   8.978   1.312   0.908  0.4719  0.4883  1.7611
 6221SOL     OW29341   1.533   3.631   3.263  0.5670 -0.0351  0.2368
 6221SOL    HW129342   1.448   3.657   3.308  0.3485  0.9477 -0.7194
 6221SOL    HW229343   1.603   3.612   3.332 -0.0666  0.3909  1.0019
 6222SOL     OW29344   9.767   4.162   4.437 -0.2440  0.3041 -0.1087
 6222SOL    HW129345   9.686   4.149   4.496  0.3040  0.5093  0.7008
 6222SOL    HW229346   9.738   4.169   4.342 -1.3240  1.8304  0.3082
 6223SOL     OW29347   7.883   1.898   4.055 -0.4199  0.5234  0.4688
 6223SOL    HW129348   7.852   1.829   3.991 -0.6359  0.2237  0.8903
 6223SOL    HW229349   7.966   1.942   4.021  0.5682 -0.9792  0.9037
 6224SOL     OW29350   5.059   2.215   1.586  0.4326  0.1377  0.7557
 6224SOL    HW129351   5.111   2.130   1.578 -0.8652 -0.7341  1.4437
 6224SOL    HW229352   5.106   2.278   1.648  0.5380 -0.7449  1.5772
 6225SOL     OW29353   8.657   6.259   3.726 -0.2068 -0.0581 -0.2595
 6225SOL    HW129354   8.627   6.252   3.822  0.6380  2.6852  0.2591
 6225SOL    HW229355   8.588   6.308   3.673 -0.1876 -0.6346 -0.8209
 6226SOL     OW29356   4.177   7.048   1.772 -0.2006  0.2870 -0.2170
 6226SOL    HW129357   4.209   7.107   1.846 -1.9816  0.5416  0.3721
 6226SOL    HW229358   4.187   7.095   1.684  1.0030  0.3581 -0.0521
 6227SOL     OW29359   0.060   4.442   1.697 -0.7089 -0.2629 -0.1879
 6227SOL    HW129360   0.006   4.515   1.654 -1.1304 -1.2651 -1.3971
 6227SOL    HW229361   0.005   4.359   1.701 -0.9993  0.0394  3.1727
 6228SOL     OW29362   2.373   5.145   2.402  0.1009  0.2994 -0.2884
 6228SOL    HW129363   2.414   5.196   2.327  1.0726  2.1933  1.4547
 6228SOL    HW229364   2.285   5.185   2.426  0.0683  0.0765 -0.0325
 6229SOL     OW29365   0.448   2.864   0.107 -0.4965 -0.3349 -0.2613
 6229SOL    HW129366   0.528   2.841   0.052 -0.2744  0.8395 -0.4328
 6229SOL    HW229367   0.412   2.953   0.079 -0.7610 -0.0111  1.0623
 6230SOL     OW29368   4.636   7.844   1.827  0.1204  0.3596  0.1843
 6230SOL    HW129369   4.631   7.839   1.927 -0.1793  1.2545  0.2168
 6230SOL    HW229370   4.664   7.755   1.791  1.9646  0.5060  1.1769
 6231SOL     OW29371   1.725   0.466   0.145 -0.2475  0.6236 -0.3870
 6231SOL    HW129372   1.705   0.429   0.054  1.6240  1.6537 -1.2566
 6231SOL    HW229373   1.649   0.524   0.175 -0.7286  0.5569 -1.4426
 6232SOL     OW29374   3.626   2.455   4.379 -0.4525 -0.3140  0.4347
 6232SOL    HW129375   3.541   2.404   4.394 -0.9124  0.2642 -0.1662
 6232SOL    HW229376   3.685   2.404   4.316 -0.3498 -0.7241  0.8654
 6233SOL     OW29377   1.709   3.252   3.327 -0.3737 -0.0108  0.0008
 6233SOL    HW129378   1.734   3.260   3.230 -0.3516  0.3179  0.0335
 6233SOL    HW229379   1.714   3.156   3.355 -2.4133 -0.3780 -0.8576
 6234SOL     OW29380   0.444   2.302   0.056  0.0499 -0.1369  0.6926
 6234SOL    HW129381   0.480   2.337   0.142  1.0347  0.5250  0.0313
 6234SOL    HW229382   0.417   2.206   0.067  0.8213 -0.2601  1.5477
 6235SOL     OW29383   6.625   9.565   2.538 -0.1070 -0.0495  0.4438
 6235SOL    HW129384   6.699   9.631   2.549  1.7761 -1.8489 -1.1676
 6235SOL    HW229385   6.659   9.473   2.558 -2.1479 -0.8031  0.5705
 6236SOL     OW29386   2.054   5.225   0.863 -0.7831 -0.3924 -0.3936
 6236SOL    HW129387   2.083   5.179   0.947 -0.3474 -0.0027 -0.3254
 6236SOL    HW229388   1.955   5.220   0.854 -0.7344 -1.3579 -0.3936
 6237SOL     OW29389   8.554   2.904   3.590 -0.3405  0.5735  0.4345
 6237SOL    HW129390   8.498   2.986   3.603 -2.4222 -0.7902  0.2877
 6237SOL    HW229391   8.496   2.823   3.597  1.3996 -0.8370 -1.0422
 6238SOL     OW29392   4.318   7.240   1.150  0.2711  0.1033  0.9095
 6238SOL    HW129393   4.302   7.270   1.056  0.9032 -0.1494  0.7184
 6238SOL    HW229394   4.260   7.292   1.212 -0.6804 -0.2262  0.3126
 6239SOL     OW29395   1.047   8.466   4.682  0.7698 -0.1885  0.3005
 6239SOL    HW129396   1.137   8.425   4.703  1.4384  0.5879 -0.9777
 6239SOL    HW229397   1.018   8.524   4.758  2.7268  1.8772 -0.4739
 6240SOL     OW29398   8.519   3.312   3.615 -0.2995  0.2594  0.3622
 6240SOL    HW129399   8.607   3.286   3.653 -0.5240  1.7707  1.9606
 6240SOL    HW229400   8.461   3.231   3.606  0.3808 -0.3642  1.5964
 6241SOL     OW29401   3.951   3.318   1.562 -0.6734 -0.1477 -0.2382
 6241SOL    HW129402   3.939   3.408   1.519 -1.8750 -1.1316 -2.0313
 6241SOL    HW229403   3.883   3.308   1.635 -0.2699  0.5511  0.2431
 6242SOL     OW29404   3.996   7.422   2.217 -0.2427 -0.3898  0.5795
 6242SOL    HW129405   4.022   7.327   2.233  1.2760 -0.0211  0.3940
 6242SOL    HW229406   3.941   7.428   2.134 -1.0038 -1.2041  1.0237
 6243SOL     OW29407   9.579   7.943   4.482 -0.3126  0.4374 -0.3687
 6243SOL    HW129408   9.607   7.847   4.488  0.1381  0.5677 -0.3332
 6243SOL    HW229409   9.647   7.999   4.528 -1.0558  0.6857  0.4272
 6244SOL     OW29410   1.210   2.960   2.622  0.0521 -0.1296  0.0608
 6244SOL    HW129411   1.137   2.893   2.631 -0.3248  0.0274 -1.7296
 6244SOL    HW229412   1.255   2.949   2.533  0.1421  1.8315 -0.1643
 6245SOL     OW29413   1.063   1.264   2.762 -0.1205  0.3184  0.1155
 6245SOL    HW129414   0.986   1.217   2.805 -1.3672  0.8447 -1.4846
 6245SOL    HW229415   1.034   1.302   2.674  1.6477  1.5724  0.0423
 6246SOL     OW29416   6.804   7.919   2.592  0.2554  0.2821  0.1211
 6246SOL    HW129417   6.869   7.945   2.664 -0.6132 -0.2460  1.1141
 6246SOL    HW229418   6.797   7.820   2.587  1.0911  0.2857 -1.4173
 6247SOL     OW29419   2.500   7.383   2.343  0.0564  0.1438  0.0442
 6247SOL    HW129420   2.534   7.427   2.260 -0.9233  1.2654  0.2143
 6247SOL    HW229421   2.443   7.448   2.393 -1.1157 -1.2179  0.5040
 6248SOL     OW29422   2.481   6.050   1.686  0.1949 -0.3926 -0.2333
 6248SOL    HW129423   2.462   5.972   1.627  0.4677 -1.7013  1.3810
 6248SOL    HW229424   2.459   6.027   1.781  1.1951  1.1457  0.3958
 6249SOL     OW29425   1.609   4.009   3.454  0.0986 -0.4111 -0.0987
 6249SOL    HW129426   1.693   4.021   3.400 -1.8043  0.4648 -2.9685
 6249SOL    HW229427   1.615   4.066   3.536  2.0952  0.0206 -0.4986
 6250SOL     OW29428   0.358   8.964   4.243 -0.3686 -0.0934 -1.0944
 6250SOL    HW129429   0.278   9.019   4.267 -0.4689 -0.7082  0.0178
 6250SOL    HW229430   0.335   8.902   4.168 -0.7269  0.2297 -1.2558
 6251SOL     OW29431   3.489   7.482   4.556  0.0080 -0.1592 -0.1776
 6251SOL    HW129432   3.588   7.486   4.569  0.3328  1.5977 -2.8087
 6251SOL    HW229433   3.468   7.427   4.475 -1.1728 -0.7191  0.5021
 6252SOL     OW29434   0.399   5.801   1.654  0.2659 -0.6733  0.7072
 6252SOL    HW129435   0.439   5.829   1.567  0.8777 -0.6730  0.9886
 6252SOL    HW229436   0.386   5.701   1.653 -0.6303 -0.5663  0.2469
 6253SOL     OW29437   0.061   2.205   4.073  0.5819 -0.2253  0.3021
 6253SOL    HW129438   0.040   2.212   3.976  0.4000 -1.0100  0.2786
 6253SOL    HW229439  -0.020   2.176   4.123  0.2738  1.6149  0.8985
 6254SOL     OW29440   3.456   7.651   4.003 -0.1333 -0.3063  0.3169
 6254SOL    HW129441   3.502   7.598   3.932 -1.4227 -2.4462  1.0417
 6254SOL    HW229442   3.365   7.614   4.019 -1.0161  2.0487  0.9685
 6255SOL     OW29443   7.803   0.826   0.054  0.3327 -0.3244 -0.1152
 6255SOL    HW129444   7.887   0.880   0.061  0.1835  0.2278 -2.2541
 6255SOL    HW229445   7.816   0.752  -0.013 -2.0138  2.0555 -3.3717
 6256SOL     OW29446   9.134   8.238   3.782 -0.1807  0.1789  0.1599
 6256SOL    HW129447   9.066   8.173   3.749  1.2370 -2.4215  2.1872
 6256SOL    HW229448   9.223   8.218   3.740  0.1288  1.2458  0.2821
 6257SOL     OW29449   2.907   8.597   3.473 -0.0816  0.2312 -0.0568
 6257SOL    HW129450   2.846   8.518   3.466 -0.6392  0.4864  1.7018
 6257SOL    HW229451   2.854   8.681   3.463 -0.1145  0.4656  1.9380
 6258SOL     OW29452   0.405   9.351   4.244  0.1867  0.3961  0.4402
 6258SOL    HW129453   0.377   9.292   4.320 -1.4816 -0.4040 -0.7524
 6258SOL    HW229454   0.430   9.294   4.166  2.9448  1.1701  0.6742
 6259SOL     OW29455   9.370   0.551   4.274  0.5281 -0.4302  0.6123
 6259SOL    HW129456   9.329   0.538   4.365  0.8464 -0.2337  0.7838
 6259SOL    HW229457   9.306   0.519   4.204 -0.5761  1.3336  0.7899
 6260SOL     OW29458   1.439   4.038   1.217 -0.2738 -0.4560  0.0145
 6260SOL    HW129459   1.434   4.075   1.124  0.3588  1.5410  0.7452
 6260SOL    HW229460   1.351   3.997   1.242 -1.2389  1.2171 -0.5764
 6261SOL     OW29461   3.111   8.786   3.176  0.0573 -0.2032 -0.1225
 6261SOL    HW129462   3.042   8.839   3.127  1.9823  0.6697 -1.9900
 6261SOL    HW229463   3.090   8.688   3.168 -3.2683  0.1584  2.9664
 6262SOL     OW29464   0.548   6.962   0.446 -0.4452 -0.4781  0.3813
 6262SOL    HW129465   0.474   6.923   0.501 -2.7604  2.8328 -0.2227
 6262SOL    HW229466   0.545   6.923   0.354  0.3960 -2.4828  1.1899
 6263SOL     OW29467   3.704   1.097   1.755  0.1454 -0.7059  0.5413
 6263SOL    HW129468   3.791   1.144   1.771  0.1426  0.7256 -2.9867
 6263SOL    HW229469   3.721   1.001   1.734  0.8261 -0.6164  0.6711
 6264SOL     OW29470   9.483   3.728   2.340 -0.3632 -0.5337  0.3089
 6264SOL    HW129471   9.512   3.773   2.424  2.0802 -0.6666 -0.4347
 6264SOL    HW229472   9.502   3.630   2.346 -0.8043 -0.6502 -0.1275
 6265SOL     OW29473   0.751   7.803   2.979 -0.0781 -0.3410  0.3990
 6265SOL    HW129474   0.750   7.758   2.890  1.8674 -0.2397  0.3088
 6265SOL    HW229475   0.694   7.885   2.974  0.4480 -0.0328 -0.9270
 6266SOL     OW29476   4.285   7.441   1.630 -0.1137 -0.1961  0.1629
 6266SOL    HW129477   4.295   7.514   1.698  0.6313 -0.2561  0.1224
 6266SOL    HW229478   4.375   7.413   1.598 -0.4949  0.3248 -1.3866
 6267SOL     OW29479   9.841   7.807   4.331 -0.1920 -0.2194  0.8022
 6267SOL    HW129480   9.767   7.827   4.267 -0.0004  0.5241  0.7990
 6267SOL    HW229481   9.928   7.802   4.281 -0.3986 -2.3701  0.6228
 6268SOL     OW29482   2.847   7.022   1.580 -0.0983 -0.4510 -0.1536
 6268SOL    HW129483   2.807   7.041   1.490  1.3693 -0.3221 -0.7884
 6268SOL    HW229484   2.831   6.926   1.604 -0.9471 -0.3567 -0.3019
 6269SOL     OW29485   6.168   9.184   2.548  0.7272  0.0616  0.2079
 6269SOL    HW129486   6.241   9.253   2.551  0.6938  0.0485  1.8732
 6269SOL    HW229487   6.159   9.142   2.638  0.2683 -1.6278 -0.6196
 6270SOL     OW29488   6.737   0.760   2.292 -0.1765  0.1506  0.3066
 6270SOL    HW129489   6.766   0.708   2.373 -1.6639 -0.0215  0.7392
 6270SOL    HW229490   6.648   0.802   2.310 -0.8234 -0.4364 -1.4801
 6271SOL     OW29491   2.298   4.470   4.496 -0.3598 -0.4289 -0.0932
 6271SOL    HW129492   2.316   4.566   4.473 -0.6083 -0.0044  1.4333
 6271SOL    HW229493   2.255   4.425   4.418 -0.9520  0.9132 -0.5615
 6272SOL     OW29494   8.231   5.526   0.254  0.7759 -0.7852 -0.0687
 6272SOL    HW129495   8.275   5.579   0.326  2.1734 -0.9706 -0.7744
 6272SOL    HW229496   8.259   5.560   0.165  0.7914 -1.9634 -0.5270
 6273SOL     OW29497   1.244   1.034   4.012  0.7728 -0.1018  0.0331
 6273SOL    HW129498   1.266   1.015   4.108  2.8678  0.4609 -0.3060
 6273SOL    HW229499   1.180   1.112   4.007  0.6073 -0.1696  0.9639
 6274SOL     OW29500   0.290   9.343   1.875 -0.0604  0.1801  0.5093
 6274SOL    HW129501   0.279   9.389   1.963 -1.3826  0.5007  0.1826
 6274SOL    HW229502   0.203   9.343   1.827  0.7087  0.1873 -0.8932
 6275SOL     OW29503   1.312   3.260   0.153 -0.1192 -0.4026  0.0807
 6275SOL    HW129504   1.315   3.205   0.069 -0.0156 -0.7393  0.3018
 6275SOL    HW229505   1.405   3.267   0.191  0.1064  1.0788 -0.6790
 6276SOL     OW29506   3.786   9.355   4.540 -0.0823 -0.5433 -0.5932
 6276SOL    HW129507   3.720   9.309   4.599  0.9036 -0.2847  0.7511
 6276SOL    HW229508   3.878   9.338   4.575  0.4757  0.1627 -1.6955
 6277SOL     OW29509   4.812   0.962   1.812  0.0210  0.6661  0.0821
 6277SOL    HW129510   4.853   1.004   1.893  1.9221  0.3981 -0.7208
 6277SOL    HW229511   4.832   1.018   1.732  1.5757 -1.1104 -0.8138
 6278SOL     OW29512   7.698   8.790   1.296 -0.1792 -0.3029  0.2134
 6278SOL    HW129513   7.688   8.860   1.225  1.6642 -0.6788 -0.4413
 6278SOL    HW229514   7.612   8.783   1.348 -1.7884 -0.4512 -2.3512
 6279SOL     OW29515   1.434   1.898   4.008 -0.9295  0.1399  0.0405
 6279SOL    HW129516   1.449   1.997   4.002 -0.8088  0.0606 -1.1625
 6279SOL    HW229517   1.337   1.879   4.000 -0.7521  0.0210 -2.2277
 6280SOL     OW29518   5.091   9.539   1.871 -0.3991 -0.6340  0.3493
 6280SOL    HW129519   5.002   9.578   1.893 -0.0272  0.2631  0.2983
 6280SOL    HW229520   5.157   9.566   1.941  0.1984  0.0669 -0.4742
 6281SOL     OW29521   4.752   8.565   2.516 -0.4046  0.3617  0.0877
 6281SOL    HW129522   4.793   8.475   2.527 -0.6110  0.3885  1.1982
 6281SOL    HW229523   4.652   8.557   2.518 -0.4210  0.6674  0.7184
 6282SOL     OW29524   0.098   8.753   4.381  0.8401 -0.1344  0.0786
 6282SOL    HW129525   0.167   8.682   4.370  0.9579 -0.0936  0.5207
 6282SOL    HW229526   0.134   8.840   4.349  0.0335 -0.6169 -2.2304
 6283SOL     OW29527   2.608   9.845   1.959 -0.4944  0.5895  0.1384
 6283SOL    HW129528   2.617   9.749   1.986 -0.1037  1.2183  2.3728
 6283SOL    HW229529   2.669   9.901   2.016  0.2873  2.0232 -2.0437
 6284SOL     OW29530   4.200   6.936   4.132  0.3182  0.4381 -0.5223
 6284SOL    HW129531   4.105   6.907   4.122 -0.6163  2.6267  1.4013
 6284SOL    HW229532   4.237   6.963   4.043 -1.5584  1.5810 -0.9799
 6285SOL     OW29533   9.157   7.329   3.146 -0.1549 -0.3528 -0.3588
 6285SOL    HW129534   9.237   7.367   3.099  1.1209 -0.4663  1.6141
 6285SOL    HW229535   9.148   7.232   3.125  1.0732 -0.6633  0.4881
 6286SOL     OW29536   4.912   7.368   2.237  0.3285  0.1884 -0.0928
 6286SOL    HW129537   4.981   7.441   2.229 -1.1514  1.7240  0.6430
 6286SOL    HW229538   4.823   7.410   2.257 -0.6100 -1.8318  0.0092
 6287SOL     OW29539   7.989   0.443   3.672 -0.1536  0.0511 -0.5557
 6287SOL    HW129540   8.041   0.520   3.711  1.1960 -1.1620  0.0961
 6287SOL    HW229541   7.958   0.467   3.580  0.9804  1.0780 -0.6852
 6288SOL     OW29542   9.876   7.855   4.731  0.4678 -0.2727  0.2988
 6288SOL    HW129543   9.818   7.794   4.677 -0.6183  0.6203  0.4281
 6288SOL    HW229544   9.888   7.817   4.823 -0.9147  0.1197  0.6492
 6289SOL     OW29545   2.500   8.587   3.988 -0.2813  0.4875  0.2170
 6289SOL    HW129546   2.546   8.574   3.900 -1.0044 -1.1803  0.0608
 6289SOL    HW229547   2.422   8.648   3.976 -0.0364  0.7244 -0.1891
 6290SOL     OW29548   9.783   7.694   2.398  0.0261  0.0940  0.0128
 6290SOL    HW129549   9.689   7.717   2.423  0.2893  0.2990  0.8137
 6290SOL    HW229550   9.847   7.740   2.460  0.6459 -0.3706 -0.2758
 6291SOL     OW29551   8.606   7.973   2.793  0.2455 -0.0557  0.4876
 6291SOL    HW129552   8.519   7.949   2.752 -0.1317 -0.0253  1.2554
 6291SOL    HW229553   8.598   8.063   2.837  0.8452  0.2337  0.0187
 6292SOL     OW29554   8.432   7.418   0.741  0.2226 -0.5360 -0.0752
 6292SOL    HW129555   8.524   7.423   0.779 -0.0993  3.8001  0.3451
 6292SOL    HW229556   8.372   7.372   0.806  0.9453  1.5694  2.1781
 6293SOL     OW29557   1.698   5.813   3.946  0.0498  0.4976  0.3094
 6293SOL    HW129558   1.705   5.845   4.041 -1.0016  0.3218  0.4603
 6293SOL    HW229559   1.626   5.863   3.899 -1.7921 -1.7495  0.6251
 6294SOL     OW29560   3.653   0.382   3.471 -0.1280 -0.6404  0.3309
 6294SOL    HW129561   3.657   0.334   3.558  2.8161  1.8939  1.7231
 6294SOL    HW229562   3.578   0.448   3.473 -1.0405 -1.6684  0.3344
 6295SOL     OW29563   7.526   2.672   4.704  0.2878 -0.0715  0.3070
 6295SOL    HW129564   7.428   2.660   4.687  0.3481 -0.0499 -0.0600
 6295SOL    HW229565   7.567   2.722   4.628  0.9233 -1.6694 -0.4294
 6296SOL     OW29566   4.793   2.152   1.225  0.0166  0.1437 -0.2612
 6296SOL    HW129567   4.811   2.149   1.126  1.4500  0.9668 -0.0295
 6296SOL    HW229568   4.869   2.197   1.272 -0.1121 -1.3084  1.3659
 6297SOL     OW29569   2.599   2.452   3.441 -0.0065  0.2420 -0.2304
 6297SOL    HW129570   2.525   2.493   3.387  2.2453  1.6949 -2.2656
 6297SOL    HW229571   2.665   2.522   3.466  1.1362 -1.2077  0.8997
 6298SOL     OW29572   2.126   1.455   3.510 -0.4715  0.1015 -0.7610
 6298SOL    HW129573   2.191   1.526   3.535 -1.9021  1.6354 -1.3166
 6298SOL    HW229574   2.046   1.460   3.570 -0.4249 -1.2639 -0.5761
 6299SOL     OW29575   9.207   7.412   2.751  0.3731  0.1643  0.0199
 6299SOL    HW129576   9.109   7.433   2.754  0.3805  0.2742 -0.3542
 6299SOL    HW229577   9.239   7.384   2.841  0.1173  0.6765  0.2680
 6300SOL     OW29578   3.192   1.950   4.463 -0.2720  0.0391  0.3707
 6300SOL    HW129579   3.180   1.902   4.376  0.0570 -0.4606  0.5937
 6300SOL    HW229580   3.137   2.033   4.464  0.6066  0.6472 -0.7670
 6301SOL     OW29581   2.028   8.294   4.380 -0.1745  0.2937 -0.0474
 6301SOL    HW129582   1.968   8.221   4.348  0.6125 -1.0745  1.5251
 6301SOL    HW229583   2.124   8.268   4.365  0.0972  1.2516 -0.0147
 6302SOL     OW29584   2.765   1.867   2.913  0.4377  0.3206  0.5951
 6302SOL    HW129585   2.788   1.937   2.981  1.7275  1.9831 -1.4930
 6302SOL    HW229586   2.777   1.904   2.821 -0.8176 -2.0376 -0.5692
 6303SOL     OW29587   4.505   9.268   4.383 -0.7343  0.2836  0.2449
 6303SOL    HW129588   4.409   9.294   4.367 -0.6645 -1.1433 -2.7695
 6303SOL    HW229589   4.565   9.341   4.352 -0.8076  0.7076  1.0915
 6304SOL     OW29590   2.888   6.014   2.846  0.1824 -0.7159 -0.3126
 6304SOL    HW129591   2.893   5.926   2.798  1.3077 -1.6629  1.4721
 6304SOL    HW229592   2.797   6.053   2.834 -0.4219 -2.2436 -0.9350
 6305SOL     OW29593   8.026   9.615   2.622 -0.0201  0.6899 -0.3486
 6305SOL    HW129594   8.108   9.604   2.678 -0.4781  0.3834  0.2731
 6305SOL    HW229595   8.025   9.707   2.582  0.9407  0.4725 -0.8831
 6306SOL     OW29596   5.291   7.781   2.574  0.2760 -0.3881 -0.5909
 6306SOL    HW129597   5.366   7.808   2.634 -0.5915 -0.5520  0.5804
 6306SOL    HW229598   5.219   7.737   2.628 -0.5285 -0.5120 -1.7474
 6307SOL     OW29599   8.222   9.254   1.353  0.1010 -0.4344 -1.0739
 6307SOL    HW129600   8.305   9.200   1.371 -0.2825 -1.0618 -1.1525
 6307SOL    HW229601   8.190   9.295   1.438  1.3458  1.0691 -1.3080
 6308SOL     OW29602   4.168   1.603   1.098 -0.3139  0.8196  0.3294
 6308SOL    HW129603   4.238   1.547   1.053 -0.7902  0.9981 -0.6318
 6308SOL    HW229604   4.078   1.579   1.062 -0.8171  0.2405  1.9222
 6309SOL     OW29605   0.582   4.769   2.934 -0.4369  0.0437 -0.1052
 6309SOL    HW129606   0.547   4.801   3.022  0.3486 -1.1375  0.6557
 6309SOL    HW229607   0.511   4.776   2.864 -1.1456  0.7322  0.6831
 6310SOL     OW29608   8.196   2.318   3.870  0.6828  0.1564 -0.2251
 6310SOL    HW129609   8.243   2.378   3.805 -0.6105  2.8113  1.1845
 6310SOL    HW229610   8.256   2.299   3.947  1.1473 -0.4850 -0.7400
 6311SOL     OW29611   1.726   1.616   1.468  0.9009  0.3331  0.4645
 6311SOL    HW129612   1.813   1.586   1.506  1.6381  0.7036 -0.9313
 6311SOL    HW229613   1.730   1.616   1.368 -0.4750  0.9984  0.3903
 6312SOL     OW29614   5.275   9.176   2.053 -0.3915  0.3906  0.0901
 6312SOL    HW129615   5.318   9.097   2.007 -0.3001  1.4136 -1.6187
 6312SOL    HW229616   5.214   9.143   2.125 -0.6378 -1.2730 -0.8427
 6313SOL     OW29617   4.337   6.599   1.889  0.3392  0.0718  0.0346
 6313SOL    HW129618   4.329   6.661   1.967 -1.8973  0.5895 -0.5625
 6313SOL    HW229619   4.290   6.513   1.910  1.2897 -0.4765 -0.0709
 6314SOL     OW29620   0.677   6.022   2.605  0.3210  0.0128 -0.1836
 6314SOL    HW129621   0.657   6.112   2.643  0.0746 -0.7200  1.4696
 6314SOL    HW229622   0.771   5.996   2.626 -0.4974 -1.3505  1.9440
 6315SOL     OW29623   3.389   0.835   0.423  0.3473  0.2651 -0.1651
 6315SOL    HW129624   3.487   0.830   0.406  0.7779  1.9177  1.6491
 6315SOL    HW229625   3.344   0.883   0.348  0.9145 -0.4802 -0.9908
 6316SOL     OW29626   9.124   6.945   0.520  0.2316  0.7582 -0.2149
 6316SOL    HW129627   9.101   6.855   0.557 -1.2255  1.7638  1.3862
 6316SOL    HW229628   9.042   7.002   0.516  1.1076  1.9813 -1.3606
 6317SOL     OW29629   8.244   5.778   2.272  0.7909 -0.1746  0.1475
 6317SOL    HW129630   8.181   5.851   2.298  0.3820 -1.1206  1.9255
 6317SOL    HW229631   8.242   5.765   2.173 -2.0664 -0.3870  0.1948
 6318SOL     OW29632   7.225   9.668   1.275  0.5756  0.5854  0.0427
 6318SOL    HW129633   7.193   9.755   1.311 -0.1416 -0.3699  1.7850
 6318SOL    HW229634   7.323   9.675   1.253  0.6149  1.7085  0.5435
 6319SOL     OW29635   0.690   7.588   4.586 -0.7155  0.0550  0.0974
 6319SOL    HW129636   0.783   7.623   4.570 -1.1751  0.5728 -1.5410
 6319SOL    HW229637   0.687   7.541   4.674  0.5764  1.9050  1.1808
 6320SOL     OW29638   0.259   8.278   2.481 -0.2284  0.1168 -0.3272
 6320SOL    HW129639   0.170   8.323   2.490 -0.9559 -1.0893 -1.2706
 6320SOL    HW229640   0.245   8.182   2.455  1.3859  0.2607 -1.7734
 6321SOL     OW29641   8.112   1.891   0.131  1.0693  0.5935  0.0659
 6321SOL    HW129642   8.148   1.842   0.210 -0.3813 -2.9515 -1.3563
 6321SOL    HW229643   8.015   1.911   0.145  1.3070  1.8025  0.0267
 6322SOL     OW29644   3.928   0.164   2.751  0.0625 -0.5068 -0.5352
 6322SOL    HW129645   3.971   0.079   2.720  1.7965  0.1796 -0.0465
 6322SOL    HW229646   3.978   0.201   2.828 -1.0002  0.6945 -0.4050
 6323SOL     OW29647   0.862   4.574   3.486 -0.4497  0.3656 -0.5109
 6323SOL    HW129648   0.800   4.504   3.523 -0.7382 -0.0818 -1.8107
 6323SOL    HW229649   0.952   4.533   3.471 -0.5756  0.3101 -1.1248
 6324SOL     OW29650   8.416   8.210   3.079 -0.7510  0.3954 -0.0935
 6324SOL    HW129651   8.348   8.269   3.124 -0.9038 -0.0534  0.2665
 6324SOL    HW229652   8.386   8.115   3.084  1.1335 -0.1340  2.3874
 6325SOL     OW29653   8.205   2.796   4.198  0.2300  0.5725  0.2238
 6325SOL    HW129654   8.130   2.802   4.264 -0.0772 -0.7771  0.0283
 6325SOL    HW229655   8.248   2.706   4.205  0.6344  0.6653 -0.9253
 6326SOL     OW29656   4.423   2.388   2.345  0.3866  0.1378 -0.4267
 6326SOL    HW129657   4.411   2.432   2.256  0.9944 -1.9090 -1.5602
 6326SOL    HW229658   4.367   2.306   2.350  0.9466 -0.1926  0.7930
 6327SOL     OW29659   9.818   7.400   4.531 -0.1839 -0.3455 -0.3134
 6327SOL    HW129660   9.887   7.397   4.458  0.0492 -1.1926 -0.0595
 6327SOL    HW229661   9.833   7.324   4.594 -1.5747 -0.7606 -0.4618
 6328SOL     OW29662   2.961   7.771   2.989  0.0936  0.7937 -0.0681
 6328SOL    HW129663   2.992   7.738   2.900 -0.4021  0.4131 -0.1022
 6328SOL    HW229664   2.997   7.863   3.005  0.3428  0.7857 -0.5788
 6329SOL     OW29665   4.729   6.667   3.445  0.6316 -0.0541 -0.2493
 6329SOL    HW129666   4.701   6.752   3.401  1.3119 -0.0977 -0.7773
 6329SOL    HW229667   4.774   6.608   3.378 -0.3698 -1.0847 -0.0287
 6330SOL     OW29668   3.283   0.543   3.815 -0.1503 -0.0188 -0.6698
 6330SOL    HW129669   3.346   0.542   3.893  1.2861  0.3372 -1.8217
 6330SOL    HW229670   3.267   0.449   3.785  0.0874 -0.0869 -0.5847
 6331SOL     OW29671   2.332   0.251   2.584  0.1850 -0.4340 -0.2940
 6331SOL    HW129672   2.248   0.256   2.638 -0.1264  1.5867 -0.9114
 6331SOL    HW229673   2.369   0.343   2.572  0.7927 -0.9666 -2.6781
 6332SOL     OW29674   0.394   0.013   4.238 -0.3012  0.6235  0.2359
 6332SOL    HW129675   0.482   0.020   4.191 -0.7186  0.7125 -0.5309
 6332SOL    HW229676   0.355  -0.078   4.221 -0.7041  0.8476 -0.0288
 6333SOL     OW29677   0.927   4.908   1.379 -0.0174 -0.3519  0.7666
 6333SOL    HW129678   0.851   4.856   1.417 -0.6587  0.0898  0.1037
 6333SOL    HW229679   0.892   4.991   1.335  0.7209 -0.7271 -0.5735
 6334SOL     OW29680   4.751   8.091   2.084  0.3724 -0.0720 -0.2874
 6334SOL    HW129681   4.814   8.162   2.116  0.3551 -0.3567  0.3845
 6334SOL    HW229682   4.675   8.082   2.149  0.4837 -0.8440 -0.2584
 6335SOL     OW29683   6.981   0.416   3.829 -0.3827  0.1498 -0.3059
 6335SOL    HW129684   6.979   0.488   3.898 -0.4212  0.0650 -0.2187
 6335SOL    HW229685   6.925   0.339   3.859  0.5757 -0.3922  0.1365
 6336SOL     OW29686   1.069   5.201   1.480 -0.9470 -0.2158  0.4541
 6336SOL    HW129687   1.088   5.108   1.512 -0.3472 -0.4210 -0.4625
 6336SOL    HW229688   1.007   5.246   1.544 -0.6193 -0.9746  1.3273
 6337SOL     OW29689   3.894   8.108   1.839  0.1424  0.1436 -0.1924
 6337SOL    HW129690   3.849   8.142   1.756  0.9833  2.2739  0.1836
 6337SOL    HW229691   3.877   8.010   1.849  0.9540 -0.3760 -3.4746
 6338SOL     OW29692   1.415   6.933   3.279 -0.1859  0.4623  0.3008
 6338SOL    HW129693   1.453   6.892   3.362 -0.5694  2.3554  1.4515
 6338SOL    HW229694   1.485   6.933   3.207 -0.2095 -2.2174  0.2474
 6339SOL     OW29695   2.843   1.573   1.963 -0.0099 -0.2885  0.6105
 6339SOL    HW129696   2.802   1.509   1.898 -0.3224 -0.8522  1.3573
 6339SOL    HW229697   2.793   1.660   1.961  1.9093  0.8409 -2.1956
 6340SOL     OW29698   4.492   3.323   3.861 -0.0231 -0.1435 -0.6952
 6340SOL    HW129699   4.499   3.398   3.796 -0.0595 -0.6346 -1.2665
 6340SOL    HW229700   4.445   3.355   3.944 -0.3937  0.3549 -1.0985
 6341SOL     OW29701   0.581   9.415   1.692  0.0842  0.2849 -0.8774
 6341SOL    HW129702   0.561   9.321   1.721 -1.1627  0.6345 -0.5744
 6341SOL    HW229703   0.600   9.417   1.594  0.9760 -0.4062 -0.7293
 6342SOL     OW29704   2.961   5.417   2.301 -0.3510 -0.0212 -0.1631
 6342SOL    HW129705   3.011   5.378   2.223 -0.4042  1.6187 -1.0317
 6342SOL    HW229706   2.930   5.509   2.278 -0.9456  0.2249  1.5711
 6343SOL     OW29707   2.516   4.748   3.867 -0.1935  0.4287  0.0360
 6343SOL    HW129708   2.429   4.698   3.855 -0.5580  0.7886  1.1283
 6343SOL    HW229709   2.497   4.844   3.883  0.4347  0.5723 -0.0729
 6344SOL     OW29710   4.033   0.206   1.618  0.5594 -0.6049  0.5979
 6344SOL    HW129711   3.987   0.118   1.605 -0.1019 -0.3710  1.3217
 6344SOL    HW229712   4.128   0.200   1.587  0.4365 -1.4937  0.4020
 6345SOL     OW29713   9.256   2.260   2.164 -0.2639 -0.0169 -0.0257
 6345SOL    HW129714   9.280   2.294   2.255 -0.2998 -1.7957  0.6662
 6345SOL    HW229715   9.329   2.282   2.100  0.1012  0.5994  0.5907
 6346SOL     OW29716   9.600   2.155   4.369 -0.1974 -0.0274 -0.2133
 6346SOL    HW129717   9.532   2.181   4.437 -0.3524 -0.7652 -0.0803
 6346SOL    HW229718   9.556   2.103   4.295 -0.2512  1.7972 -1.5162
 6347SOL     OW29719   7.697   2.670   0.397 -0.2196  0.3124  0.6438
 6347SOL    HW129720   7.611   2.622   0.379 -1.2115  2.1269  0.4673
 6347SOL    HW229721   7.764   2.648   0.326 -0.2006 -1.8552  1.2955
 6348SOL     OW29722   0.982   3.551   0.513  0.0136 -0.4091 -0.4190
 6348SOL    HW129723   1.020   3.552   0.420  0.8380  0.9286 -0.0881
 6348SOL    HW229724   1.002   3.463   0.556 -0.1026 -0.9224 -1.3961
 6349SOL     OW29725   9.306   8.129   1.752 -0.2921  0.0175  0.1232
 6349SOL    HW129726   9.394   8.174   1.737  0.0565 -0.1128  1.6389
 6349SOL    HW229727   9.238   8.164   1.687  0.5459  1.0534 -0.2097
 6350SOL     OW29728   4.311   0.001   4.491  0.8942 -0.0371  0.0781
 6350SOL    HW129729   4.410   0.010   4.507  0.5536  0.3465  2.1826
 6350SOL    HW229730   4.294  -0.080   4.435  2.3621 -0.4473  0.1872
 6351SOL     OW29731   6.373   6.430   2.967  0.0419 -0.7564  0.2020
 6351SOL    HW129732   6.373   6.333   2.993 -1.9766 -0.7755  0.2225
 6351SOL    HW229733   6.281   6.456   2.935  0.2248  1.4739  1.4153
 6352SOL     OW29734   1.308   3.181   1.662  0.3662  0.2684 -0.4923
 6352SOL    HW129735   1.316   3.086   1.691 -1.9530 -0.3017 -1.5776
 6352SOL    HW229736   1.228   3.223   1.706  1.9471  2.0403  0.7689
 6353SOL     OW29737   1.144   2.359   1.305  0.1149  0.0247 -0.0886
 6353SOL    HW129738   1.180   2.271   1.274 -0.1495 -0.0853 -0.0853
 6353SOL    HW229739   1.218   2.426   1.309  0.3008 -0.1759 -0.1722
 6354SOL     OW29740   5.376   0.295   2.866  0.0068 -0.5248 -0.2640
 6354SOL    HW129741   5.416   0.205   2.849  0.1864 -0.2962 -1.0813
 6354SOL    HW229742   5.320   0.321   2.787 -0.7358 -0.2973  0.3375
 6355SOL     OW29743   5.780   0.609   3.996 -0.1632 -0.9441 -0.1663
 6355SOL    HW129744   5.825   0.698   3.984  0.5303 -1.4243 -1.1683
 6355SOL    HW229745   5.756   0.572   3.906 -0.7646 -1.6128  0.2723
 6356SOL     OW29746   7.939   6.716   2.460 -0.2114 -0.2849  0.4903
 6356SOL    HW129747   7.973   6.684   2.372  0.3483  0.3775  0.4661
 6356SOL    HW229748   7.938   6.640   2.525 -0.2783 -0.6888  0.0205
 6357SOL     OW29749   4.479   6.608   1.468  0.1283  0.1821  0.4918
 6357SOL    HW129750   4.427   6.642   1.547 -0.1616  1.4812 -0.2492
 6357SOL    HW229751   4.567   6.656   1.464  1.0072 -1.3154  1.1746
 6358SOL     OW29752   5.446   7.103   1.954  0.0269 -0.2532 -0.1065
 6358SOL    HW129753   5.543   7.124   1.940 -0.4160  0.9702 -1.4613
 6358SOL    HW229754   5.405   7.077   1.867 -1.0472  0.0010  0.3152
 6359SOL     OW29755   1.231   6.600   4.115 -0.4716  0.8486 -0.2300
 6359SOL    HW129756   1.234   6.689   4.069 -0.0790  1.6274  1.2470
 6359SOL    HW229757   1.307   6.544   4.085 -1.3792  0.5380 -2.0593
 6360SOL     OW29758   9.107   5.938   1.457  0.0087  0.1078 -0.3194
 6360SOL    HW129759   9.141   5.990   1.535  1.3676 -0.6989 -0.3579
 6360SOL    HW229760   9.061   5.999   1.393  0.3509  1.0363  0.3183
 6361SOL     OW29761   1.433   5.565   2.825 -0.2278  0.0559 -0.5012
 6361SOL    HW129762   1.526   5.598   2.805 -0.0561  0.6250  1.1735
 6361SOL    HW229763   1.418   5.567   2.923 -2.1589  0.2882 -0.7939
 6362SOL     OW29764   2.227   2.678   2.282 -0.4452  0.3723  0.3942
 6362SOL    HW129765   2.143   2.669   2.337  0.9578 -0.9500  2.3956
 6362SOL    HW229766   2.306   2.685   2.343  1.0723 -0.0685 -1.4726
 6363SOL     OW29767   2.582   8.245   4.697 -0.0049  0.4122 -0.3391
 6363SOL    HW129768   2.634   8.283   4.620  0.1618  0.2126 -0.3285
 6363SOL    HW229769   2.619   8.155   4.720  0.9097  1.0838  0.9249
 6364SOL     OW29770   1.823   3.509   0.097  0.0603  0.3012 -0.1619
 6364SOL    HW129771   1.787   3.594   0.136  2.6774  1.9317 -1.1847
 6364SOL    HW229772   1.790   3.499   0.003 -0.8777 -0.2475  0.2141
 6365SOL     OW29773   2.466   3.850   4.742 -0.0836 -0.0165 -0.6511
 6365SOL    HW129774   2.441   3.897   4.657 -0.3192 -0.0253 -0.5855
 6365SOL    HW229775   2.402   3.875   4.814 -0.3982 -0.6706 -0.6937
 6366SOL     OW29776   3.356   0.561   0.393  0.1436  0.1206 -0.7255
 6366SOL    HW129777   3.268   0.567   0.440  0.8494 -2.5166  1.0548
 6366SOL    HW229778   3.394   0.652   0.382 -1.4419  1.0529  1.1775
 6367SOL     OW29779   1.602   4.946   4.054  0.3004 -0.2138 -0.2001
 6367SOL    HW129780   1.505   4.926   4.070  0.9653 -3.5980  0.0512
 6367SOL    HW229781   1.612   5.005   3.974 -1.8947 -1.0371 -1.1083
 6368SOL     OW29782   1.033   2.706   1.808  0.3970 -0.5057  0.0819
 6368SOL    HW129783   1.106   2.691   1.741 -1.2436  1.5816 -2.2782
 6368SOL    HW229784   1.073   2.727   1.897  2.6954  1.1598 -1.2967
 6369SOL     OW29785   4.044   9.314   2.929  0.2088  0.3817  0.0894
 6369SOL    HW129786   3.980   9.297   3.004  2.0237 -0.0974  1.5467
 6369SOL    HW229787   4.056   9.230   2.876 -0.4635  0.5125 -0.2825
 6370SOL     OW29788   9.190   8.645   2.503  0.2125 -0.1263 -0.3492
 6370SOL    HW129789   9.174   8.605   2.593 -1.4522 -0.2308 -0.6789
 6370SOL    HW229790   9.189   8.745   2.510 -1.7824 -0.1128 -0.5429
 6371SOL     OW29791   2.388   4.338   4.195 -0.5877 -0.1449  0.3017
 6371SOL    HW129792   2.354   4.296   4.280  2.0741 -1.3022  0.8793
 6371SOL    HW229793   2.439   4.421   4.218 -0.6627  0.0456 -0.2371
 6372SOL     OW29794   2.180   3.971   3.802  0.7311  0.5358 -0.2393
 6372SOL    HW129795   2.125   4.054   3.797 -1.0795 -0.4519  2.0650
 6372SOL    HW229796   2.207   3.955   3.898  0.5297 -1.8449 -0.5453
 6373SOL     OW29797   2.425   6.414   1.197 -0.6256 -0.4229 -0.1269
 6373SOL    HW129798   2.435   6.423   1.296 -1.1706  1.0357 -0.1968
 6373SOL    HW229799   2.391   6.322   1.175 -0.0739 -0.9047  1.0008
 6374SOL     OW29800   4.195   4.176   0.681 -0.4611 -0.3730 -0.0956
 6374SOL    HW129801   4.268   4.237   0.653 -1.8648  1.7331  0.7301
 6374SOL    HW229802   4.130   4.164   0.606  0.1391 -1.4165 -0.4735
 6375SOL     OW29803   4.246   7.004   2.995  0.4994  0.0172  0.7004
 6375SOL    HW129804   4.300   6.969   2.919  0.3346  1.3468 -0.0450
 6375SOL    HW229805   4.301   7.065   3.051 -0.5386  2.3265 -0.7476
 6376SOL     OW29806   0.947   1.355   2.532  0.0214  0.7112  0.2237
 6376SOL    HW129807   0.922   1.264   2.499  1.4710  0.1612  0.5923
 6376SOL    HW229808   0.870   1.395   2.582 -0.7252 -0.1927 -0.1895
 6377SOL     OW29809   7.493   9.895   1.825 -0.5404 -0.3026 -0.6322
 6377SOL    HW129810   7.533   9.980   1.859  0.4687 -1.1089  0.2277
 6377SOL    HW229811   7.553   9.818   1.848  0.7541 -0.7911 -5.2592
 6378SOL     OW29812   8.924   5.353   1.039 -0.1979  0.0241  0.0687
 6378SOL    HW129813   9.000   5.405   1.001 -0.1662 -0.1893 -0.1656
 6378SOL    HW229814   8.852   5.345   0.971 -0.0383 -0.5735 -0.0382
 6379SOL     OW29815   2.261   9.054   0.282 -0.7810  0.2395  0.3331
 6379SOL    HW129816   2.297   8.987   0.346 -1.5104 -0.8001 -0.3318
 6379SOL    HW229817   2.166   9.031   0.259 -0.9654  1.3703 -0.0746
 6380SOL     OW29818   9.932   0.244   2.945  0.1126  0.6494 -0.3212
 6380SOL    HW129819   9.862   0.257   2.876 -1.7504 -0.7207  1.2603
 6380SOL    HW229820   9.890   0.212   3.030  2.6472 -0.2019  0.6640
 6381SOL     OW29821   2.318   7.041   4.567  0.3833 -0.1208  0.2390
 6381SOL    HW129822   2.371   7.124   4.581  1.3725 -1.0831  2.6458
 6381SOL    HW229823   2.375   6.961   4.588 -1.3447 -1.2855  0.6514
 6382SOL     OW29824   1.923   5.603   4.225 -0.1772 -0.1480 -0.1441
 6382SOL    HW129825   1.905   5.529   4.160  0.0433  0.9464 -1.4896
 6382SOL    HW229826   1.981   5.570   4.299 -0.0417 -1.3054 -0.7607
 6383SOL     OW29827   2.462   0.978   0.540  0.0891  0.1573 -0.1023
 6383SOL    HW129828   2.378   0.924   0.534 -0.4687  0.7616  2.0133
 6383SOL    HW229829   2.457   1.039   0.618  2.6295  0.0090  0.2142
 6384SOL     OW29830   4.949   0.415   1.588  0.4253 -0.7080 -0.2701
 6384SOL    HW129831   4.872   0.470   1.621 -0.4305 -0.2003 -2.9797
 6384SOL    HW229832   4.951   0.417   1.488  1.9989 -3.4196 -0.3507
 6385SOL     OW29833   0.466   9.580   4.567 -0.7014  0.1300 -0.4865
 6385SOL    HW129834   0.515   9.565   4.481 -0.1254  2.7017 -0.6590
 6385SOL    HW229835   0.530   9.571   4.643 -0.2610  1.9557 -0.6155
 6386SOL     OW29836   1.956   2.156   3.498  0.1184  0.2615  0.8875
 6386SOL    HW129837   1.884   2.185   3.435  0.7694  0.1888  0.0997
 6386SOL    HW229838   1.973   2.058   3.485  0.8792  0.4366  0.5310
 6387SOL     OW29839   3.866   8.943   2.700  0.2195 -0.1871  0.0128
 6387SOL    HW129840   3.788   9.006   2.697  0.3948  0.0023 -1.0484
 6387SOL    HW229841   3.833   8.849   2.709 -0.1852 -0.1940 -1.4365
 6388SOL     OW29842   4.400   2.863   0.132 -0.0004 -0.2665 -0.5231
 6388SOL    HW129843   4.356   2.943   0.093  1.0747 -0.9839 -3.3938
 6388SOL    HW229844   4.335   2.787   0.136 -0.5008  0.2094  0.4046
 6389SOL     OW29845   3.367   9.955   0.246  0.1585 -0.1996  0.6483
 6389SOL    HW129846   3.329   9.997   0.328 -0.6390 -1.0558  0.7249
 6389SOL    HW229847   3.399   9.863   0.267 -0.6690 -0.6775 -0.1394
 6390SOL     OW29848   2.575   2.902   0.738 -0.0163 -0.3541 -1.5018
 6390SOL    HW129849   2.579   2.980   0.801 -0.8730 -1.4159 -0.0961
 6390SOL    HW229850   2.658   2.847   0.749 -1.2784 -1.9277  0.5880
 6391SOL     OW29851   2.095   6.810   0.914 -0.1922 -0.1919  0.4561
 6391SOL    HW129852   2.026   6.877   0.884 -1.2955 -0.6405  1.9332
 6391SOL    HW229853   2.124   6.832   1.007  1.8059  0.0832 -0.2153
 6392SOL     OW29854   9.396   8.528   4.718  0.0358 -0.0501  0.1494
 6392SOL    HW129855   9.424   8.436   4.745 -0.7258 -0.4299 -0.3302
 6392SOL    HW229856   9.382   8.585   4.800 -1.8990 -1.0804  0.5595
 6393SOL     OW29857   9.699   6.801   1.226  0.9645 -0.6227 -0.5118
 6393SOL    HW129858   9.650   6.763   1.304 -0.1059  0.9671 -0.3896
 6393SOL    HW229859   9.732   6.727   1.168 -1.9545 -1.7305 -0.8277
 6394SOL     OW29860   9.553   6.453   1.290  0.2163 -0.3963 -0.2543
 6394SOL    HW129861   9.514   6.361   1.294  1.0811 -0.6706  2.6942
 6394SOL    HW229862   9.552   6.494   1.381  0.2527  2.3707 -1.4568
 6395SOL     OW29863   6.688   9.944   3.498 -0.4395  0.3334  0.3607
 6395SOL    HW129864   6.621   9.925   3.426  0.1492 -0.2642 -0.0254
 6395SOL    HW229865   6.777   9.906   3.473 -0.2840 -0.0854  1.5063
 6396SOL     OW29866   3.036   6.699   1.775  0.6043 -0.0170  0.3308
 6396SOL    HW129867   3.074   6.790   1.794  0.8424 -0.0997  0.2477
 6396SOL    HW229868   2.951   6.709   1.722  1.4381  0.0929 -0.9899
 6397SOL     OW29869   5.856   0.111   1.960  0.1916  0.3843 -0.3124
 6397SOL    HW129870   5.867   0.022   1.916  1.1191  1.7861 -3.0686
 6397SOL    HW229871   5.828   0.098   2.055 -0.1884 -2.8144 -0.7949
 6398SOL     OW29872   8.885   3.729   3.804 -0.7456  0.0868 -0.1195
 6398SOL    HW129873   8.920   3.735   3.898 -2.4041  1.0772  0.4768
 6398SOL    HW229874   8.918   3.808   3.752  0.4966 -0.6724 -0.4852
 6399SOL     OW29875   0.918   7.154   3.926 -0.2942  0.2598  0.5415
 6399SOL    HW129876   0.862   7.184   3.850 -1.3698  0.2660  1.3294
 6399SOL    HW229877   0.994   7.218   3.939  0.0906  0.0714 -0.7306
 6400SOL     OW29878   5.695   4.273   0.137 -0.0772  0.4974 -0.0478
 6400SOL    HW129879   5.737   4.364   0.143  0.3649  0.3539 -0.9384
 6400SOL    HW229880   5.597   4.281   0.154 -0.0846  1.1816 -0.3832
 6401SOL     OW29881   0.575   6.762   1.105 -0.8040 -0.0604 -0.3000
 6401SOL    HW129882   0.637   6.724   1.173 -0.8091  0.6333  0.1021
 6401SOL    HW229883   0.502   6.813   1.151  0.3256  2.1204 -0.8721
 6402SOL     OW29884   8.344   9.853   4.537  0.0461  0.2107  0.0828
 6402SOL    HW129885   8.406   9.802   4.478  0.0035  0.2844 -0.0257
 6402SOL    HW229886   8.295   9.922   4.483 -0.2739  0.0213  0.1318
 6403SOL     OW29887   0.140   0.280   4.065 -0.7497 -0.0677 -0.4180
 6403SOL    HW129888   0.152   0.181   4.055 -0.3952 -0.0134 -0.5198
 6403SOL    HW229889   0.106   0.318   3.979  2.1299  0.3716 -1.4188
 6404SOL     OW29890   8.511   7.376   1.192 -0.1553  0.1441 -0.3506
 6404SOL    HW129891   8.422   7.391   1.235 -0.7117 -1.9670 -0.6724
 6404SOL    HW229892   8.573   7.333   1.257  0.1972  0.3745 -0.5358
 6405SOL     OW29893   0.544   7.281   3.726  0.4749 -0.7784 -0.2538
 6405SOL    HW129894   0.453   7.258   3.691  0.1199 -2.4723  1.6751
 6405SOL    HW229895   0.589   7.198   3.759  0.8649  0.6809  3.0519
 6406SOL     OW29896   2.174   6.464   0.837 -0.9819  0.4367 -0.1226
 6406SOL    HW129897   2.210   6.540   0.783  0.8172 -0.3854 -0.1434
 6406SOL    HW229898   2.143   6.392   0.776  2.5066 -1.1562 -0.1598
 6407SOL     OW29899   9.895   4.573   2.812  0.3122  0.5595  0.1013
 6407SOL    HW129900   9.904   4.500   2.744 -1.3381 -0.0526  0.5191
 6407SOL    HW229901   9.855   4.654   2.769  0.6469  0.6821  0.0154
 6408SOL     OW29902   3.776   9.525   4.338 -0.4165 -0.4521  0.1475
 6408SOL    HW129903   3.851   9.591   4.346 -0.6680  0.1061 -1.7814
 6408SOL    HW229904   3.795   9.446   4.396  1.0368  0.2664  0.6787
 6409SOL     OW29905   3.631   3.445   1.969 -0.4690  0.2881  1.0419
 6409SOL    HW129906   3.705   3.392   2.010  0.1355  0.3799  0.0826
 6409SOL    HW229907   3.551   3.387   1.957  0.6194 -0.7720 -1.2190
 6410SOL     OW29908   3.300   4.552   2.545 -0.9843 -0.1670  0.0092
 6410SOL    HW129909   3.220   4.498   2.573 -1.3234 -0.2310 -1.0826
 6410SOL    HW229910   3.281   4.649   2.560 -1.1816 -0.1998 -0.0241
 6411SOL     OW29911   1.152   8.396   3.567 -0.0270  0.2232  0.0574
 6411SOL    HW129912   1.105   8.352   3.643 -0.3159  0.1939 -0.1375
 6411SOL    HW229913   1.187   8.326   3.505 -0.7029  0.2722 -0.3829
 6412SOL     OW29914   0.918   6.881   3.867  0.3166  0.3645  0.6543
 6412SOL    HW129915   0.918   6.830   3.953  1.1676  0.1945  0.5541
 6412SOL    HW229916   0.934   6.978   3.886 -1.1164  0.5874  0.8272
 6413SOL     OW29917   0.850   2.943   1.244 -0.4551 -0.4465 -0.9060
 6413SOL    HW129918   0.802   2.856   1.235  1.3946 -1.8651  2.1385
 6413SOL    HW229919   0.947   2.930   1.222  0.7829 -0.3138  3.8720
 6414SOL     OW29920   1.287   1.006   4.307 -0.1938  0.4318  0.3039
 6414SOL    HW129921   1.363   0.941   4.318 -0.6852 -0.1465  0.2540
 6414SOL    HW229922   1.297   1.079   4.375  1.5378  1.4603 -1.0114
 6415SOL     OW29923   9.188   3.669   2.908 -0.0624 -0.0793  0.7259
 6415SOL    HW129924   9.261   3.689   2.973  0.0196  0.3671  0.4982
 6415SOL    HW229925   9.169   3.571   2.908  0.2598 -0.1406  1.0798
 6416SOL     OW29926   8.635   2.648   1.070 -0.4819  0.0999 -0.1294
 6416SOL    HW129927   8.577   2.681   1.145  0.3928  2.9595 -0.6320
 6416SOL    HW229928   8.577   2.611   0.998 -1.5544  0.6633  0.4185
 6417SOL     OW29929   2.502   2.408   3.980 -0.2816  0.2465 -0.1141
 6417SOL    HW129930   2.567   2.356   4.035 -1.1330 -1.1264 -0.3699
 6417SOL    HW229931   2.409   2.382   4.005 -0.6984 -0.9658 -2.6624
 6418SOL     OW29932   0.632   0.135   2.111 -0.6931 -0.1918 -0.5573
 6418SOL    HW129933   0.546   0.159   2.067 -1.0978  2.4367  1.5711
 6418SOL    HW229934   0.706   0.189   2.071  0.0210 -2.3699 -2.3103
 6419SOL     OW29935   2.701   9.616   2.949  0.0103 -0.0739 -0.0875
 6419SOL    HW129936   2.710   9.558   3.030 -0.6410  0.0965  0.1093
 6419SOL    HW229937   2.751   9.701   2.964  1.2850 -0.7411 -0.5296
 6420SOL     OW29938   8.057   4.047   3.613 -0.0295  0.3152 -0.3848
 6420SOL    HW129939   8.053   3.999   3.525  0.5470 -0.3775 -0.0382
 6420SOL    HW229940   8.067   4.145   3.597  0.6960  0.1329 -1.0887
 6421SOL     OW29941   9.295   2.990   0.424  0.8582 -0.3629  0.3838
 6421SOL    HW129942   9.305   2.892   0.413  0.7415 -0.4908  1.4272
 6421SOL    HW229943   9.236   3.010   0.502 -0.9290  0.5121 -1.1482
 6422SOL     OW29944   2.406   1.506   1.930  0.4359 -0.4227  0.0340
 6422SOL    HW129945   2.364   1.437   1.990 -1.0391  0.5715  0.1502
 6422SOL    HW229946   2.449   1.577   1.986 -0.8322  0.4385 -0.0641
 6423SOL     OW29947   1.883   3.978   3.161 -0.8296 -0.3768  0.0441
 6423SOL    HW129948   1.812   3.908   3.159 -1.9021  0.7170 -1.6694
 6423SOL    HW229949   1.886   4.025   3.073  1.1823  0.4417  0.5238
 6424SOL     OW29950   9.571   7.113   1.788 -0.0209 -0.3712  0.0226
 6424SOL    HW129951   9.600   7.019   1.769 -0.8991 -0.2016 -2.2442
 6424SOL    HW229952   9.550   7.160   1.703  1.1379  2.1519  1.0851
 6425SOL     OW29953   9.427   1.523   1.754  0.1774 -1.1363 -0.8755
 6425SOL    HW129954   9.523   1.548   1.771 -0.4867  0.2717  0.9567
 6425SOL    HW229955   9.414   1.427   1.776  1.1082 -1.2737 -0.8747
 6426SOL     OW29956   0.351   2.433   3.742 -0.5469 -0.1365 -0.0987
 6426SOL    HW129957   0.403   2.507   3.785 -0.7776 -0.0181 -0.0227
 6426SOL    HW229958   0.413   2.360   3.714 -0.3889 -0.1982  0.4038
 6427SOL     OW29959   9.510   8.534   0.897  0.1125 -0.2328  0.0788
 6427SOL    HW129960   9.483   8.461   0.835  2.2432  0.5710 -1.8375
 6427SOL    HW229961   9.610   8.538   0.902 -0.0075  1.8218  1.0359
 6428SOL     OW29962   6.099   1.023   2.403 -0.4827 -0.0816 -0.7609
 6428SOL    HW129963   6.185   1.057   2.443 -0.0905 -1.5333 -0.3225
 6428SOL    HW229964   6.027   1.025   2.473 -0.7563  0.9056 -1.0603
 6429SOL     OW29965   8.928   4.266   0.771 -0.5181  0.2978 -0.2081
 6429SOL    HW129966   8.912   4.177   0.728 -1.8621  0.5252 -0.2121
 6429SOL    HW229967   8.958   4.253   0.865 -0.0672 -0.1709 -0.4165
 6430SOL     OW29968   3.626   4.245   2.835  0.6338 -0.0627  0.1625
 6430SOL    HW129969   3.627   4.261   2.934  2.1464  0.5035  0.0703
 6430SOL    HW229970   3.653   4.329   2.788  0.0385 -0.3670 -0.7378
 6431SOL     OW29971   2.800   8.040   1.331  0.0405  0.3269  0.1780
 6431SOL    HW129972   2.747   7.963   1.296  0.7062 -0.5575  1.0519
 6431SOL    HW229973   2.892   8.009   1.354  0.1717  1.2787  0.9903
 6432SOL     OW29974   8.613   3.738   3.068  0.2430 -0.1300 -0.4074
 6432SOL    HW129975   8.682   3.763   3.001 -0.7362  1.7089 -0.7780
 6432SOL    HW229976   8.655   3.731   3.158  1.4922 -2.2247 -1.1164
 6433SOL     OW29977   9.580   0.660   1.196 -0.4496 -0.6136 -0.1601
 6433SOL    HW129978   9.505   0.720   1.170 -1.3060 -1.5780  0.0768
 6433SOL    HW229979   9.595   0.592   1.124 -0.8863 -1.4393  0.5101
 6434SOL     OW29980   9.138   3.899   0.729  0.4463  0.5497  0.1255
 6434SOL    HW129981   9.150   3.813   0.679  1.7875  0.1040  1.1551
 6434SOL    HW229982   9.140   3.976   0.665  0.8022 -0.0859 -0.6394
 6435SOL     OW29983   1.788   4.789   0.062 -0.0440 -0.5014  0.2933
 6435SOL    HW129984   1.886   4.786   0.041 -0.4439 -0.4334 -1.6491
 6435SOL    HW229985   1.736   4.763  -0.019 -1.7248  1.6523  0.6433
 6436SOL     OW29986   0.330   9.128   0.164 -0.4147 -0.0792  0.2316
 6436SOL    HW129987   0.256   9.149   0.100 -1.1758  0.4658  1.2759
 6436SOL    HW229988   0.329   9.195   0.239  1.4728  0.2602 -0.0210
 6437SOL     OW29989   3.698   7.787   4.059  0.0131  0.4854  0.4190
 6437SOL    HW129990   3.611   7.738   4.051 -0.2013  0.8778  0.3508
 6437SOL    HW229991   3.759   7.760   3.984  0.4513 -0.7967  1.2230
 6438SOL     OW29992   3.100   7.565   4.465  0.2238  0.5449  0.1554
 6438SOL    HW129993   3.151   7.639   4.421  2.0517  0.1722  1.6058
 6438SOL    HW229994   3.099   7.578   4.564  0.3717 -1.2516  0.4154
 6439SOL     OW29995   0.369   2.945   2.251  0.7006 -0.0219 -0.6781
 6439SOL    HW129996   0.303   2.965   2.323  0.1220 -0.4803 -1.0762
 6439SOL    HW229997   0.451   2.905   2.292  0.3189 -0.4141 -0.2880
 6440SOL     OW29998   8.174   8.648   3.937 -0.0932  0.3889 -0.5722
 6440SOL    HW129999   8.204   8.686   4.025 -0.1755 -1.3578  0.2154
 6440SOL    HW230000   8.215   8.702   3.863  2.3824  0.0954  0.5087
 6441SOL     OW30001   3.754   6.575   2.439  0.1313 -0.1543  0.2412
 6441SOL    HW130002   3.806   6.655   2.468 -2.1385  1.6535 -0.4584
 6441SOL    HW230003   3.796   6.535   2.358  1.6292 -0.0621  0.9528
 6442SOL     OW30004   0.351   5.222   3.890 -0.4650  0.4408 -0.2004
 6442SOL    HW130005   0.381   5.232   3.985  0.2042  1.4958 -0.5100
 6442SOL    HW230006   0.389   5.138   3.851  1.3144  1.2661 -0.2889
 6443SOL     OW30007   1.958   1.280   3.952  0.6802 -0.0441  0.8482
 6443SOL    HW130008   1.953   1.241   3.860 -0.7812 -1.6536  1.5771
 6443SOL    HW230009   1.868   1.314   3.979  0.9204 -0.2492  1.9563
 6444SOL     OW30010   8.673   9.279   4.661  0.0810 -0.6683  0.2501
 6444SOL    HW130011   8.715   9.245   4.745  1.4305 -0.1056 -0.1753
 6444SOL    HW230012   8.694   9.216   4.586  2.5323  1.0319 -0.5252
 6445SOL     OW30013   9.273   1.190   0.807  0.4502 -0.1307  0.3622
 6445SOL    HW130014   9.187   1.236   0.829  0.1887 -0.0396 -0.7896
 6445SOL    HW230015   9.254   1.103   0.762  0.9492  0.3246 -0.7600
 6446SOL     OW30016   3.313   5.719   2.840  0.1390  0.1927  0.1966
 6446SOL    HW130017   3.398   5.717   2.787 -0.7817  0.6872 -1.3168
 6446SOL    HW230018   3.246   5.658   2.798 -0.2134 -0.3058  1.4705
 6447SOL     OW30019   2.052   3.649   3.546  0.1699  0.0878 -0.2827
 6447SOL    HW130020   1.967   3.610   3.582  0.4061  0.4018  0.6484
 6447SOL    HW230021   2.037   3.683   3.453 -1.0404  1.1701  0.2854
 6448SOL     OW30022   2.083   5.964   4.511  0.1834  0.5771 -0.1509
 6448SOL    HW130023   2.118   6.057   4.527  0.1815  0.2298  2.0345
 6448SOL    HW230024   2.028   5.935   4.590  1.5063 -1.8919 -0.0864
 6449SOL     OW30025   0.553   0.738   1.398 -0.0873 -0.0572  0.0085
 6449SOL    HW130026   0.517   0.818   1.445  0.5477 -0.3024  0.9373
 6449SOL    HW230027   0.634   0.763   1.346  0.7791 -0.3012  1.2093
 6450SOL     OW30028   0.425   1.364   3.853 -0.4829  0.3682 -0.1427
 6450SOL    HW130029   0.423   1.463   3.870 -1.6581  0.3865 -0.3644
 6450SOL    HW230030   0.430   1.315   3.941  1.4108  0.6483 -0.0831
 6451SOL     OW30031   5.750   8.811   1.257 -0.1623 -0.1314  0.1029
 6451SOL    HW130032   5.820   8.878   1.284  0.9141 -1.0833 -0.2599
 6451SOL    HW230033   5.661   8.856   1.252  0.4941  1.2139  0.1518
 6452SOL     OW30034   4.803   9.942   1.015  0.6229 -0.0357 -0.1742
 6452SOL    HW130035   4.862   9.920   0.938  0.2676  1.4997 -0.9029
 6452SOL    HW230036   4.803   9.866   1.080  1.1457 -1.2184 -1.5404
 6453SOL     OW30037   7.907   7.193   2.030  0.4172 -1.3420  0.4727
 6453SOL    HW130038   7.855   7.253   2.092 -1.8608 -1.6576 -1.0628
 6453SOL    HW230039   7.937   7.112   2.080  0.0525 -0.7997  1.5918
 6454SOL     OW30040   9.431   8.142   0.410  0.0264 -0.3751  0.0519
 6454SOL    HW130041   9.506   8.207   0.398  0.9276 -1.6345 -1.3036
 6454SOL    HW230042   9.433   8.107   0.504  1.3778 -0.6765 -0.0678
 6455SOL     OW30043   8.858   1.606   4.022  0.4675  0.2737  0.4996
 6455SOL    HW130044   8.942   1.609   4.076 -0.2651  0.1197  1.6785
 6455SOL    HW230045   8.780   1.599   4.084 -0.2984 -1.8819 -0.6411
 6456SOL     OW30046   2.195   7.423   1.061  0.1407  0.5803 -0.1253
 6456SOL    HW130047   2.267   7.483   1.098  0.9230  0.2531 -1.1029
 6456SOL    HW230048   2.148   7.470   0.986 -1.5418  1.2979  1.3341
 6457SOL     OW30049   9.091   9.597   3.293 -0.2454 -0.0409 -0.0543
 6457SOL    HW130050   9.041   9.516   3.324 -0.5936  0.5023  0.8181
 6457SOL    HW230051   9.030   9.676   3.290  0.3138  0.4035  0.0378
 6458SOL     OW30052   2.847   6.720   3.346 -0.0320 -0.1740 -0.5347
 6458SOL    HW130053   2.891   6.740   3.433 -0.5651  0.3985 -0.3950
 6458SOL    HW230054   2.857   6.623   3.325 -1.4985 -0.7026  1.0763
 6459SOL     OW30055   2.629   1.553   0.244  0.0537 -0.6197  0.0523
 6459SOL    HW130056   2.625   1.502   0.330 -0.5803  0.8875  0.9316
 6459SOL    HW230057   2.724   1.560   0.214  0.2756 -1.1750  0.6112
 6460SOL     OW30058   0.378   2.874   4.485  0.2558  0.4471  0.7211
 6460SOL    HW130059   0.436   2.903   4.561 -0.6589 -0.4410  1.7881
 6460SOL    HW230060   0.308   2.810   4.519  0.9511 -1.3869 -1.1883
 6461SOL     OW30061   2.798   4.257   1.405  0.5671  0.0361 -0.1976
 6461SOL    HW130062   2.882   4.284   1.359  0.3367  2.4091  0.7303
 6461SOL    HW230063   2.722   4.260   1.340  1.1937 -2.4033 -1.1156
 6462SOL     OW30064   1.337   1.825   4.707  0.4044  0.4543 -0.1264
 6462SOL    HW130065   1.337   1.753   4.638  1.9461  0.6025 -0.2982
 6462SOL    HW230066   1.294   1.792   4.791 -0.7153 -0.0013 -0.8747
 6463SOL     OW30067   9.048   3.444   3.991 -0.5357  0.4151  0.5375
 6463SOL    HW130068   9.061   3.347   4.009 -1.1487 -0.1753 -1.9266
 6463SOL    HW230069   9.125   3.478   3.936 -0.5651  1.1946  0.9684
 6464SOL     OW30070   3.032   2.003   3.988 -0.1629 -0.0959  0.1246
 6464SOL    HW130071   2.948   2.037   3.946 -0.5536 -0.8302  0.3010
 6464SOL    HW230072   3.090   2.080   4.014 -0.5109  0.3972 -0.5528
 6465SOL     OW30073   8.607   2.174   2.256  0.3730  0.8407 -0.2129
 6465SOL    HW130074   8.664   2.249   2.291  1.7021 -0.4071  0.3386
 6465SOL    HW230075   8.598   2.183   2.157 -1.2098  2.8991  0.0964
 6466SOL     OW30076   7.542   0.004   4.183  0.4606  0.4477  0.0559
 6466SOL    HW130077   7.537   0.104   4.188  0.7400  0.5000 -0.5995
 6466SOL    HW230078   7.482  -0.029   4.110  0.2395  0.1202  0.3825
 6467SOL     OW30079   9.733   1.340   1.023 -0.1912 -0.1507  0.2362
 6467SOL    HW130080   9.634   1.357   1.023 -0.2022 -0.2070 -0.3161
 6467SOL    HW230081   9.756   1.281   0.946  0.5206  1.2540 -0.6480
 6468SOL     OW30082   3.939   4.967   0.993  0.2217  0.1364  0.4335
 6468SOL    HW130083   4.037   4.955   1.005  0.0822  0.3050  1.8560
 6468SOL    HW230084   3.898   4.880   0.966  0.8556  0.2300 -0.8367
 6469SOL     OW30085   2.576   4.570   1.069  0.0839  0.0036  0.0129
 6469SOL    HW130086   2.567   4.667   1.045 -0.3363 -0.0524 -0.0715
 6469SOL    HW230087   2.497   4.520   1.033  1.9926 -0.9781 -3.0205
 6470SOL     OW30088   9.202   2.147   0.421 -0.2377 -0.0658  0.2504
 6470SOL    HW130089   9.157   2.236   0.430 -0.6864 -0.0605 -1.7299
 6470SOL    HW230090   9.269   2.150   0.347  1.1513 -0.8443  1.4436
 6471SOL     OW30091   1.639   1.492   3.133  0.1960 -0.1974 -0.1923
 6471SOL    HW130092   1.639   1.453   3.225 -0.1995 -0.6283 -0.3722
 6471SOL    HW230093   1.652   1.418   3.066 -0.0922  0.0444 -0.5140
 6472SOL     OW30094   8.677   5.115   4.658 -0.3045 -0.6261  0.9977
 6472SOL    HW130095   8.636   5.166   4.734  0.0443 -1.9382  2.0798
 6472SOL    HW230096   8.774   5.140   4.649 -0.4053 -0.2922  0.8183
 6473SOL     OW30097   4.119   7.412   2.567  0.7181  0.0900 -0.4758
 6473SOL    HW130098   4.039   7.443   2.516  1.1466  0.7090 -0.7691
 6473SOL    HW230099   4.202   7.432   2.516  1.1401  0.5628  0.3750
 6474SOL     OW30100   1.536   5.592   1.005 -0.0640 -0.1637  0.3183
 6474SOL    HW130101   1.494   5.579   0.914  0.6091 -1.4343  0.1759
 6474SOL    HW230102   1.523   5.687   1.034 -0.5946  0.1729 -0.9548
 6475SOL     OW30103   8.959   4.777   1.506 -0.0241 -0.0685 -0.6534
 6475SOL    HW130104   8.895   4.809   1.575  1.2984  0.7818  0.2203
 6475SOL    HW230105   8.915   4.779   1.416 -1.6591 -0.9023  0.1046
 6476SOL     OW30106   2.803   2.553   0.490 -0.4963 -0.0089  0.4787
 6476SOL    HW130107   2.853   2.637   0.466 -2.6620  1.5283  1.2219
 6476SOL    HW230108   2.869   2.481   0.514  1.3569  2.1997  2.2746
 6477SOL     OW30109   2.942   1.072   2.171 -0.4271 -0.2905  0.2982
 6477SOL    HW130110   2.962   1.123   2.254  0.5985  1.5326 -1.0230
 6477SOL    HW230111   2.934   1.136   2.094 -0.4199 -2.0120 -1.1665
 6478SOL     OW30112   2.228   5.014   1.423 -0.2206 -0.8030 -0.0007
 6478SOL    HW130113   2.289   4.963   1.363  0.2958  0.1189 -0.2720
 6478SOL    HW230114   2.136   5.015   1.384  0.6465  1.9573 -2.1458
 6479SOL     OW30115   1.697   0.277   2.359  0.0192  0.1847  0.0677
 6479SOL    HW130116   1.608   0.289   2.314 -0.3124  1.4034  1.0298
 6479SOL    HW230117   1.761   0.236   2.294 -0.9912  0.1350 -0.9235
 6480SOL     OW30118   0.641   5.494   3.347  0.9036  0.0023  0.0617
 6480SOL    HW130119   0.665   5.430   3.274  0.7312 -1.4052  1.2131
 6480SOL    HW230120   0.695   5.472   3.429 -1.1579 -0.4415  1.3380
 6481SOL     OW30121   3.451   9.098   1.619  0.7720 -0.0577 -0.2359
 6481SOL    HW130122   3.465   9.192   1.590  2.3247  0.2623  1.3917
 6481SOL    HW230123   3.445   9.038   1.539  2.1925  1.1154 -1.2500
 6482SOL     OW30124   0.787   6.380   3.577 -0.8582  0.0007  0.3543
 6482SOL    HW130125   0.744   6.304   3.626  0.5806  0.1571  1.9008
 6482SOL    HW230126   0.757   6.466   3.616 -0.1300  0.1372  0.6301
 6483SOL     OW30127   1.043   6.631   2.091  0.0797  0.1030 -0.1123
 6483SOL    HW130128   0.982   6.612   2.015  0.6021 -3.2623  0.2307
 6483SOL    HW230129   1.138   6.614   2.063  0.2534 -1.4333  1.3468
 6484SOL     OW30130   2.470   4.130   3.554 -0.0455  0.0623  0.0720
 6484SOL    HW130131   2.388   4.175   3.589  0.6080  1.7631 -0.4935
 6484SOL    HW230132   2.455   4.106   3.458  0.5814  1.6419 -0.4432
 6485SOL     OW30133   8.369   2.721   1.325 -0.2569 -0.5768  0.2133
 6485SOL    HW130134   8.350   2.624   1.312 -0.9301 -0.7148  2.0827
 6485SOL    HW230135   8.291   2.765   1.368 -0.0211  0.8481 -0.7790
 6486SOL     OW30136   3.419   1.254   3.172  0.1173 -0.3074 -0.0117
 6486SOL    HW130137   3.431   1.248   3.073 -1.9284 -1.3626 -0.2138
 6486SOL    HW230138   3.378   1.342   3.195  0.9056  0.0811 -0.0383
 6487SOL     OW30139   0.126   6.016   2.666  0.0817 -0.4057 -0.0923
 6487SOL    HW130140   0.090   6.081   2.599 -1.3125 -0.0923  0.9207
 6487SOL    HW230141   0.158   5.934   2.619  0.6292  0.4680 -1.2728
 6488SOL     OW30142   9.578   1.820   0.758  0.4875 -0.7455 -0.4589
 6488SOL    HW130143   9.591   1.894   0.824  2.4825 -0.5680 -1.0146
 6488SOL    HW230144   9.666   1.797   0.716 -0.2719 -2.7818 -1.0010
 6489SOL     OW30145   2.475   4.836   4.215  0.0420  0.5908 -0.0722
 6489SOL    HW130146   2.451   4.827   4.312  0.6408  0.5149  0.0734
 6489SOL    HW230147   2.502   4.931   4.197 -1.6356  1.0006 -0.5334
 6490SOL     OW30148   2.266   4.212   3.961  0.3870 -0.1020 -0.5653
 6490SOL    HW130149   2.278   4.260   4.048 -0.4550 -0.9911  0.0465
 6490SOL    HW230150   2.268   4.114   3.976 -1.1566 -0.2669 -1.3530
 6491SOL     OW30151   1.104   4.592   2.958  0.2020  0.0223  0.5854
 6491SOL    HW130152   1.093   4.531   2.880  0.5113  0.0249  0.5403
 6491SOL    HW230153   1.026   4.581   3.020 -0.9708  1.3026 -0.6123
 6492SOL     OW30154   1.804   8.260   3.962 -0.3117  0.0471 -0.4114
 6492SOL    HW130155   1.869   8.191   3.995  2.2799  2.2971 -0.6031
 6492SOL    HW230156   1.719   8.254   4.014  1.4497 -0.4649  2.4957
 6493SOL     OW30157   9.246   8.555   0.991  0.6426  0.5286  0.3690
 6493SOL    HW130158   9.221   8.463   0.960 -0.8744  1.0719 -0.0731
 6493SOL    HW230159   9.346   8.564   0.990  0.8508 -1.3230  1.0548
 6494SOL     OW30160   7.905   1.986   3.340 -0.6325 -0.0309 -0.2935
 6494SOL    HW130161   7.938   2.016   3.430 -0.6655 -0.6970 -0.0581
 6494SOL    HW230162   7.945   1.897   3.317 -3.4210 -1.6106  0.6815
 6495SOL     OW30163   6.192   8.397   1.587  0.0922 -0.1033  0.9713
 6495SOL    HW130164   6.208   8.299   1.592  0.4975 -0.2023 -1.5948
 6495SOL    HW230165   6.186   8.425   1.491 -1.5953  2.1314  1.6898
 6496SOL     OW30166   0.529   8.372   0.401 -0.2794 -1.0720 -0.5407
 6496SOL    HW130167   0.553   8.373   0.498  2.6583  1.7244 -1.2256
 6496SOL    HW230168   0.438   8.413   0.389 -0.8676 -1.8758  1.0673
 6497SOL     OW30169   6.893   7.172   1.822 -0.5075  0.4412 -0.1124
 6497SOL    HW130170   6.954   7.214   1.755 -0.8766  0.7475 -0.2563
 6497SOL    HW230171   6.914   7.074   1.829 -0.7841  0.3071 -1.0249
 6498SOL     OW30172   4.537   2.264   1.476 -0.2990  0.2555  0.5055
 6498SOL    HW130173   4.439   2.280   1.475 -0.4428 -0.6494 -0.5124
 6498SOL    HW230174   4.560   2.188   1.416  1.0305  0.4581  0.7209
 6499SOL     OW30175   8.202   3.190   4.533  0.2945 -0.0168 -0.2730
 6499SOL    HW130176   8.297   3.186   4.501  0.9127  1.0150  1.3603
 6499SOL    HW230177   8.201   3.196   4.633 -1.4211  2.1813 -0.3817
 6500SOL     OW30178   9.882   7.376   2.767 -0.0390  0.2939  0.0214
 6500SOL    HW130179   9.907   7.431   2.687  1.0671 -0.0142  0.1558
 6500SOL    HW230180   9.790   7.339   2.754 -0.2921  1.1307 -0.6297
 6501SOL     OW30181   2.733   5.097   2.180  0.3431  0.1938 -0.9267
 6501SOL    HW130182   2.804   5.063   2.241  1.1910 -2.4137 -3.2750
 6501SOL    HW230183   2.774   5.157   2.112 -0.0813  0.4469 -0.9618
 6502SOL     OW30184   1.293   9.619   0.661 -0.2134 -0.1111 -0.0765
 6502SOL    HW130185   1.253   9.702   0.700 -1.0177 -0.5901  0.1113
 6502SOL    HW230186   1.254   9.539   0.705  0.8005 -0.5909 -0.0279
 6503SOL     OW30187   1.772   0.163   1.288 -0.5189 -0.2318 -0.0034
 6503SOL    HW130188   1.853   0.112   1.318 -0.0322  1.2441  1.2857
 6503SOL    HW230189   1.801   0.241   1.232 -1.0525  0.1765  0.2838
 6504SOL     OW30190   0.801   6.718   4.126  0.4014 -0.0005  0.1463
 6504SOL    HW130191   0.808   6.654   4.202 -1.1515 -0.7340 -0.3074
 6504SOL    HW230192   0.777   6.668   4.043 -0.3145  1.1117 -0.3233
 6505SOL     OW30193   0.066   7.659   0.719  0.3893 -0.2922 -0.1544
 6505SOL    HW130194   0.009   7.614   0.787 -1.2132 -1.1805 -2.0383
 6505SOL    HW230195   0.024   7.747   0.694 -0.1710 -0.9207 -1.4974
 6506SOL     OW30196   6.938   7.245   2.602 -0.2131  0.6577  0.0432
 6506SOL    HW130197   6.865   7.265   2.536  0.2173 -1.3955 -1.1079
 6506SOL    HW230198   7.026   7.241   2.554  0.2759  0.3152  0.9558
 6507SOL     OW30199   2.586   2.485   2.603  0.3745  0.3672  0.1664
 6507SOL    HW130200   2.538   2.397   2.606  0.1813  0.4195 -1.3393
 6507SOL    HW230201   2.651   2.490   2.679 -0.0103 -0.8369  0.5857
 6508SOL     OW30202   4.162   2.281   3.475  0.0950  0.0103 -0.3217
 6508SOL    HW130203   4.229   2.330   3.531  0.8957  0.3831 -1.6003
 6508SOL    HW230204   4.208   2.209   3.424 -0.7992 -0.9541  0.2191
 6509SOL     OW30205   0.823   8.713   2.717  0.6114  0.6665  0.4967
 6509SOL    HW130206   0.791   8.798   2.675 -1.1919  0.2950  1.0711
 6509SOL    HW230207   0.768   8.694   2.798  1.7929 -0.4359  1.0488
 6510SOL     OW30208   0.317   2.295   4.015 -0.3609  0.0999 -0.2222
 6510SOL    HW130209   0.329   2.230   3.940 -1.3369  0.8175 -1.0208
 6510SOL    HW230210   0.235   2.270   4.067 -0.8232  0.7682 -0.6227
 6511SOL     OW30211   2.183   5.329   4.106  0.2459  0.0903  0.3252
 6511SOL    HW130212   2.162   5.334   4.204 -1.3126  1.6264 -0.0668
 6511SOL    HW230213   2.104   5.358   4.053  0.5530 -2.1768 -1.4732
 6512SOL     OW30214   3.560   7.010   4.104  0.4977  0.1310  0.4885
 6512SOL    HW130215   3.527   6.916   4.091  1.1237 -0.1732  1.0738
 6512SOL    HW230216   3.647   7.008   4.154  0.0564  1.0703  1.2967
 6513SOL     OW30217   7.808   0.618   2.691  0.4697  0.1991  0.2129
 6513SOL    HW130218   7.806   0.573   2.601 -2.0103 -0.9174  0.7720
 6513SOL    HW230219   7.759   0.705   2.686  2.6573  1.4534 -0.1285
 6514SOL     OW30220   9.425   6.991   2.733 -0.5785 -0.2186 -0.1951
 6514SOL    HW130221   9.445   7.079   2.775 -1.2247 -0.4013  0.5243
 6514SOL    HW230222   9.336   6.995   2.687 -1.1478 -0.8036  0.8102
 6515SOL     OW30223   7.163   9.939   4.401  0.1752 -0.0052  0.0850
 6515SOL    HW130224   7.129  10.005   4.334 -0.5148 -1.5881 -1.1578
 6515SOL    HW230225   7.102   9.860   4.405  1.7945 -1.2757  0.4083
 6516SOL     OW30226   3.082   6.249   1.859  0.3385  0.2615 -0.7907
 6516SOL    HW130227   3.010   6.276   1.922  1.3224  0.8169  0.1051
 6516SOL    HW230228   3.061   6.285   1.768  0.7066  2.5313 -0.0156
 6517SOL     OW30229   4.615   7.830   2.090  0.2330  0.2078  0.0951
 6517SOL    HW130230   4.649   7.861   2.179 -0.8210  0.1844  0.5062
 6517SOL    HW230231   4.601   7.731   2.093 -1.6012  0.4644  0.5090
 6518SOL     OW30232   9.332   8.515   3.142  0.2157  0.3007  0.0794
 6518SOL    HW130233   9.343   8.426   3.185 -0.7830  0.4831  0.7288
 6518SOL    HW230234   9.235   8.529   3.118  0.5233  0.7949 -0.9262
 6519SOL     OW30235   9.762   1.409   3.617  0.0909 -0.2234  0.4257
 6519SOL    HW130236   9.706   1.397   3.535  0.9141 -2.9530  0.2180
 6519SOL    HW230237   9.812   1.496   3.611 -0.8204  0.1905 -1.3737
 6520SOL     OW30238   8.783   4.036   2.700  0.3145  0.8044  0.0133
 6520SOL    HW130239   8.771   3.955   2.758  1.5964  1.3373  1.0420
 6520SOL    HW230240   8.789   4.007   2.604 -2.3227 -0.0416  0.0620
 6521SOL     OW30241   1.595   2.921   1.550 -0.2827  0.2952  0.2202
 6521SOL    HW130242   1.639   2.960   1.630  1.9000  1.5653 -1.5174
 6521SOL    HW230243   1.580   2.993   1.482  0.3996 -1.2042 -1.5581
 6522SOL     OW30244   9.689   0.231   0.945 -0.2772  0.2982 -0.5328
 6522SOL    HW130245   9.693   0.132   0.946 -3.4317  0.1137  1.4397
 6522SOL    HW230246   9.651   0.262   0.858 -0.2020 -0.2812 -0.7722
 6523SOL     OW30247   5.549   0.519   1.974 -0.4017 -0.2340  0.2428
 6523SOL    HW130248   5.610   0.518   1.895  1.5606 -1.8611  1.7345
 6523SOL    HW230249   5.460   0.557   1.947  1.4911  3.0175 -1.7546
 6524SOL     OW30250   0.981   9.096   0.470  0.8261  0.4344  0.0715
 6524SOL    HW130251   0.883   9.083   0.455  1.2372 -0.9290 -1.6326
 6524SOL    HW230252   1.005   9.193   0.458 -0.0593  0.5144 -1.1273
 6525SOL     OW30253   1.209   1.368   3.421  0.3166 -0.3620  0.0839
 6525SOL    HW130254   1.133   1.304   3.426 -0.9810  1.3167  2.4306
 6525SOL    HW230255   1.204   1.419   3.335 -0.8426 -0.6924 -0.0468
 6526SOL     OW30256   4.365   2.621   0.916 -0.1933 -0.1270 -1.1430
 6526SOL    HW130257   4.359   2.689   0.988  3.7481  0.0988 -0.9259
 6526SOL    HW230258   4.302   2.645   0.842 -2.9804  0.5929  1.3605
 6527SOL     OW30259   8.834   7.460   3.908  1.0192 -0.1388  0.2566
 6527SOL    HW130260   8.860   7.545   3.954 -0.4902  0.1481  0.6048
 6527SOL    HW230261   8.764   7.479   3.839  0.2711 -1.1636  0.7135
 6528SOL     OW30262   9.192   9.642   0.060  0.5240 -0.4812 -0.4898
 6528SOL    HW130263   9.245   9.682  -0.015 -0.9904  1.5589 -0.5260
 6528SOL    HW230264   9.247   9.643   0.143  1.3476 -0.4908 -1.0257
 6529SOL     OW30265   0.785   0.164   2.404 -0.4010 -0.0298 -0.0724
 6529SOL    HW130266   0.707   0.156   2.342  0.1438 -0.4787 -0.7079
 6529SOL    HW230267   0.836   0.248   2.384 -0.3275 -0.0848 -0.1183
 6530SOL     OW30268   2.128   9.459   0.081 -0.1919  0.1413 -0.1434
 6530SOL    HW130269   2.054   9.493   0.138 -1.0071 -0.1104 -1.0329
 6530SOL    HW230270   2.214   9.503   0.108 -1.0864  2.4084 -0.7934
 6531SOL     OW30271   4.926   0.962   3.789 -0.1469 -0.6249 -0.3101
 6531SOL    HW130272   5.002   0.897   3.791  0.3456 -0.0315  1.0827
 6531SOL    HW230273   4.947   1.036   3.725  1.6840  0.9662  2.0403
 6532SOL     OW30274   3.657   0.341   1.923 -0.2274 -0.3433 -0.4859
 6532SOL    HW130275   3.666   0.309   1.829  1.3678  1.7387 -1.0704
 6532SOL    HW230276   3.743   0.383   1.953 -1.2104  0.4149  1.3719
 6533SOL     OW30277   0.493   0.090   2.965  0.7844  0.2809  0.7983
 6533SOL    HW130278   0.466   0.129   2.877 -0.5336  1.7785  1.8230
 6533SOL    HW230279   0.437   0.131   3.037 -0.6488 -3.5346  1.9716
 6534SOL     OW30280   8.784   3.490   1.270 -0.1972 -0.1567 -0.2609
 6534SOL    HW130281   8.790   3.546   1.353  0.0266 -0.9633  0.2697
 6534SOL    HW230282   8.788   3.393   1.295  1.4308 -0.3787 -1.3430
 6535SOL     OW30283   0.212   9.780   2.389  0.5003  0.0979  0.2857
 6535SOL    HW130284   0.276   9.750   2.319 -0.7618 -1.1300 -0.3713
 6535SOL    HW230285   0.248   9.860   2.436  1.1700  1.2007 -2.0417
 6536SOL     OW30286   8.851   6.078   3.244 -0.6103 -0.3502 -0.1880
 6536SOL    HW130287   8.945   6.107   3.260 -0.1498 -1.9347  0.0057
 6536SOL    HW230288   8.845   5.978   3.246 -1.7906 -0.3903 -2.8704
 6537SOL     OW30289   8.675   6.102   4.450  0.1534  0.5961 -0.2809
 6537SOL    HW130290   8.678   6.018   4.395  0.7045  1.1954 -1.1841
 6537SOL    HW230291   8.607   6.164   4.413 -0.3889  0.4734  0.5040
 6538SOL     OW30292   0.363   8.573   1.595 -0.0692 -0.5372  0.1647
 6538SOL    HW130293   0.444   8.631   1.592 -1.2797  1.1015 -0.9004
 6538SOL    HW230294   0.392   8.478   1.611  1.9128  0.3141  1.9224
 6539SOL     OW30295   3.330   9.584   1.420  0.0741  0.1435 -0.2095
 6539SOL    HW130296   3.254   9.536   1.376 -1.0981 -1.2104  3.1220
 6539SOL    HW230297   3.296   9.667   1.463  0.3283 -0.7131  1.6985
 6540SOL     OW30298   7.172   9.825   4.064  0.6107  0.0781 -0.1743
 6540SOL    HW130299   7.254   9.784   4.106  0.3608 -0.2069  0.0429
 6540SOL    HW230300   7.199   9.903   4.008  1.0654 -0.1994 -0.3499
 6541SOL     OW30301   8.713   4.903   2.766  0.1191 -0.2721 -0.3770
 6541SOL    HW130302   8.679   4.952   2.845 -1.0528 -0.8233 -0.5330
 6541SOL    HW230303   8.702   4.959   2.684  0.3069 -0.1489 -0.3197
 6542SOL     OW30304   0.726   8.718   2.412 -0.0996 -0.0011 -0.3084
 6542SOL    HW130305   0.825   8.730   2.417  0.0638 -1.4965  0.2890
 6542SOL    HW230306   0.702   8.624   2.438 -1.8614  0.9648  1.6929
 6543SOL     OW30307   4.750   3.778   0.250 -0.5837 -0.0999 -0.2996
 6543SOL    HW130308   4.670   3.836   0.258 -1.0216 -0.7363 -0.0392
 6543SOL    HW230309   4.739   3.697   0.309  1.3845  1.0952  1.8095
 6544SOL     OW30310   7.712   5.864   2.465  0.4800 -0.2416  0.0223
 6544SOL    HW130311   7.650   5.933   2.429  0.7281  0.1417  0.3282
 6544SOL    HW230312   7.703   5.859   2.565  0.0169 -1.0850 -0.0508
 6545SOL     OW30313   8.903   1.668   0.801 -0.6726 -0.0045  0.5070
 6545SOL    HW130314   8.857   1.676   0.889 -1.5645 -0.3042  0.0764
 6545SOL    HW230315   8.942   1.756   0.776  0.6113 -0.2104  1.7524
 6546SOL     OW30316   7.269   9.696   2.405  0.0307 -0.2010  0.2922
 6546SOL    HW130317   7.316   9.739   2.327 -2.0556  0.6409 -0.5267
 6546SOL    HW230318   7.198   9.634   2.371  0.9227 -1.9484  1.5186
 6547SOL     OW30319   1.475   2.719   4.684 -0.2697 -0.0651  0.1969
 6547SOL    HW130320   1.411   2.643   4.683  0.5844 -0.8295  1.7896
 6547SOL    HW230321   1.436   2.796   4.734 -0.5999  0.0696 -0.2663
 6548SOL     OW30322   0.661   8.080   3.272 -0.4186  0.0192 -0.5624
 6548SOL    HW130323   0.749   8.034   3.272 -0.7222 -0.5692 -0.3599
 6548SOL    HW230324   0.660   8.151   3.343 -0.2618 -0.2717 -0.2683
 6549SOL     OW30325   8.532   0.818   0.301  0.2743  0.5446  0.0272
 6549SOL    HW130326   8.452   0.769   0.269  0.1756  1.4377 -1.1466
 6549SOL    HW230327   8.504   0.891   0.364  0.1916  0.6471 -0.1279
 6550SOL     OW30328   8.937   4.295   3.283  0.7151  0.1318 -0.0349
 6550SOL    HW130329   8.894   4.384   3.291  0.8394  0.3619 -1.7112
 6550SOL    HW230330   8.895   4.244   3.208  1.0765 -0.9615  0.4969
 6551SOL     OW30331   5.481   2.548   0.731 -0.2629  0.3094  0.3696
 6551SOL    HW130332   5.523   2.505   0.651  0.1292  0.4367  0.5089
 6551SOL    HW230333   5.530   2.631   0.754 -1.1130  0.9190  0.0161
 6552SOL     OW30334   1.537   8.991   4.005 -0.1346  0.1297  0.6250
 6552SOL    HW130335   1.560   9.006   4.101  2.4594 -0.4077  0.1343
 6552SOL    HW230336   1.581   8.907   3.973 -1.5925 -0.0939 -0.8255
 6553SOL     OW30337   0.725   3.426   4.316 -0.1713  0.4842 -0.5197
 6553SOL    HW130338   0.673   3.394   4.237  0.5248 -0.1241 -0.7390
 6553SOL    HW230339   0.693   3.517   4.342 -0.8695  0.4036 -1.0807
 6554SOL     OW30340   6.970   7.471   1.652  0.0068 -0.8747  0.1991
 6554SOL    HW130341   6.919   7.533   1.712 -0.1826 -1.2903  0.4775
 6554SOL    HW230342   6.959   7.499   1.557 -0.6698 -0.9055  0.2664
 6555SOL     OW30343   6.589   8.237   2.475 -0.2103  0.1607  0.1308
 6555SOL    HW130344   6.680   8.228   2.435 -0.5500  0.2578 -0.6647
 6555SOL    HW230345   6.574   8.163   2.540  0.4636  0.1817  0.3209
 6556SOL     OW30346   8.659   5.155   3.424 -0.4399  0.5834 -0.1558
 6556SOL    HW130347   8.581   5.122   3.477  0.3769  2.5777  2.4138
 6556SOL    HW230348   8.682   5.088   3.353 -2.0814 -1.8045  1.4731
 6557SOL     OW30349   2.130   9.191   4.224  0.3075  0.4425 -0.3042
 6557SOL    HW130350   2.207   9.230   4.174 -0.2403  1.3723 -0.4544
 6557SOL    HW230351   2.046   9.237   4.196 -0.3282 -0.6963 -0.2833
 6558SOL     OW30352   2.342   5.532   3.450  0.1464 -0.3488 -0.4232
 6558SOL    HW130353   2.401   5.555   3.372  2.0796 -0.0696  1.0941
 6558SOL    HW230354   2.290   5.613   3.477  1.0801  0.1405 -0.0718
 6559SOL     OW30355   9.279   9.793   3.223 -0.6410  0.2784  0.0564
 6559SOL    HW130356   9.223   9.714   3.248 -1.8097  0.9583 -0.3610
 6559SOL    HW230357   9.366   9.789   3.272 -0.5762 -1.3973 -0.1758
 6560SOL     OW30358   2.957   1.279   0.489 -0.1854 -0.0598 -0.0572
 6560SOL    HW130359   2.909   1.224   0.421 -0.9226  0.7014 -0.1628
 6560SOL    HW230360   3.024   1.222   0.537  0.3677 -0.5870 -1.4370
 6561SOL     OW30361   1.183   1.876   3.981  0.2820  0.5655 -0.1512
 6561SOL    HW130362   1.122   1.918   3.914  0.9350 -1.4531 -2.0748
 6561SOL    HW230363   1.135   1.802   4.028  0.2896  1.0325  0.6174
 6562SOL     OW30364   1.596   2.273   1.419  0.0060  0.0456 -0.0015
 6562SOL    HW130365   1.632   2.323   1.499 -0.0331  1.1985 -0.6913
 6562SOL    HW230366   1.661   2.280   1.343 -0.2001 -0.6069 -0.2406
 6563SOL     OW30367   1.061   6.461   0.737 -0.0042 -0.5327  0.0287
 6563SOL    HW130368   1.141   6.456   0.797 -0.1192 -2.5468  0.0635
 6563SOL    HW230369   0.979   6.476   0.792  0.1720 -0.0547  0.1569
 6564SOL     OW30370   2.466   4.897   2.720  0.0699  0.3547 -0.7849
 6564SOL    HW130371   2.505   4.950   2.796  0.7280 -2.5286  0.9978
 6564SOL    HW230372   2.518   4.914   2.637  1.0225  1.5638  0.0397
 6565SOL     OW30373   8.359   5.586   0.960 -0.0272 -0.2035 -0.6293
 6565SOL    HW130374   8.354   5.588   0.860 -0.4423 -0.1049 -0.6103
 6565SOL    HW230375   8.395   5.673   0.994  0.6031 -0.4299 -0.7168
 6566SOL     OW30376   9.968   8.804   3.829 -0.0948 -0.0908 -0.3364
 6566SOL    HW130377  10.013   8.735   3.772  1.3631 -0.4527  1.2035
 6566SOL    HW230378   9.893   8.762   3.881 -0.0226 -0.2430 -0.3578
 6567SOL     OW30379   7.370   9.566   0.917  0.0572 -0.0273  0.2785
 6567SOL    HW130380   7.325   9.490   0.871 -0.4040  0.4489 -0.0687
 6567SOL    HW230381   7.382   9.641   0.852  1.8861 -0.3684  0.2078
 6568SOL     OW30382   3.020   8.692   2.166  0.0224  0.0917  0.3519
 6568SOL    HW130383   2.927   8.717   2.141 -0.3357 -0.6779  0.8852
 6568SOL    HW230384   3.047   8.741   2.249 -1.0760 -2.0567  2.0276
 6569SOL     OW30385   3.901   4.290   4.372  0.7233  0.5835  0.0568
 6569SOL    HW130386   3.898   4.389   4.364 -0.8673  0.6582  1.2866
 6569SOL    HW230387   3.843   4.261   4.448  1.3082 -1.2764 -0.1805
 6570SOL     OW30388   3.226   5.594   1.153 -0.0477 -0.3943 -0.4571
 6570SOL    HW130389   3.196   5.503   1.180 -0.8192 -0.4638 -1.5081
 6570SOL    HW230390   3.166   5.663   1.192  0.2801 -0.3494 -0.0198
 6571SOL     OW30391   3.049   0.853   2.754 -0.3212  0.5361  0.2884
 6571SOL    HW130392   3.037   0.900   2.841 -1.3198 -1.4621  1.2813
 6571SOL    HW230393   2.966   0.860   2.699  0.2133  1.5674 -0.4066
 6572SOL     OW30394   7.533   0.856   1.985  0.2369  0.4291 -0.1227
 6572SOL    HW130395   7.529   0.787   1.912 -2.2621 -0.2978  0.6352
 6572SOL    HW230396   7.558   0.812   2.071 -0.6404  0.5817  0.2180
 6573SOL     OW30397   8.852   4.714   2.451 -0.6140 -0.3472 -0.1285
 6573SOL    HW130398   8.898   4.800   2.429 -0.6395 -0.8716 -2.2623
 6573SOL    HW230399   8.912   4.659   2.509  0.4981 -0.0387 -0.9720
 6574SOL     OW30400   4.028   9.097   1.955 -0.4332 -0.2618 -0.5420
 6574SOL    HW130401   4.057   9.056   1.868 -0.2344  0.1550 -0.6711
 6574SOL    HW230402   3.957   9.040   1.996 -0.4028 -0.5546 -0.8904
 6575SOL     OW30403   3.959   1.021   2.465  0.1038 -0.3725 -0.0176
 6575SOL    HW130404   4.036   0.982   2.514  0.5316 -0.6445 -0.9059
 6575SOL    HW230405   3.942   1.114   2.498  1.5956  0.1490 -0.6811
 6576SOL     OW30406   9.100   0.190   1.415 -0.0368 -0.0059 -0.2626
 6576SOL    HW130407   9.035   0.258   1.383  0.7611 -0.1180 -2.1683
 6576SOL    HW230408   9.066   0.098   1.395 -0.6835 -0.1681  1.4781
 6577SOL     OW30409   9.727   2.430   1.485  0.3503 -0.5628 -0.5205
 6577SOL    HW130410   9.703   2.447   1.389  2.3009  0.9417 -0.7663
 6577SOL    HW230411   9.643   2.429   1.540 -0.8083 -1.5539 -2.2361
 6578SOL     OW30412   0.945   6.967   1.632  0.2555  0.0898 -0.5709
 6578SOL    HW130413   0.966   6.964   1.730 -0.5360  1.7813 -0.3248
 6578SOL    HW230414   1.012   7.024   1.585  0.9877 -1.2141 -1.1188
 6579SOL     OW30415   1.101   7.399   4.244 -0.2637  0.6869 -0.4118
 6579SOL    HW130416   1.153   7.479   4.273  0.8552 -0.3145  0.3619
 6579SOL    HW230417   1.013   7.397   4.292 -0.7302  1.9839 -1.1827
 6580SOL     OW30418   3.077   2.835   3.610  0.2516 -0.0263 -0.1642
 6580SOL    HW130419   3.046   2.927   3.584 -0.1831 -0.1294 -0.0147
 6580SOL    HW230420   3.150   2.842   3.678  0.1141  0.2045 -0.0407
 6581SOL     OW30421   9.921   4.665   1.106 -0.3677  0.3237 -0.1564
 6581SOL    HW130422   9.885   4.723   1.179  0.2905 -0.5669  0.8968
 6581SOL    HW230423  10.016   4.642   1.126 -0.1908  0.0435 -1.2856
 6582SOL     OW30424   7.162   8.776   2.577 -0.3375 -0.9685 -0.3012
 6582SOL    HW130425   7.179   8.867   2.615 -0.6716 -1.0892  0.1366
 6582SOL    HW230426   7.248   8.726   2.570 -0.2850 -0.9641  0.3341
 6583SOL     OW30427   2.127   8.034   0.020 -0.1809  0.0082  0.4377
 6583SOL    HW130428   2.120   7.979  -0.064 -0.9127 -0.7327  0.9646
 6583SOL    HW230429   2.090   8.125   0.003  0.6459  0.2102 -0.3307
 6584SOL     OW30430   8.689   0.003   2.988 -0.2570  0.1364  0.0233
 6584SOL    HW130431   8.733  -0.033   3.070 -1.4387 -0.8894  0.2238
 6584SOL    HW230432   8.758   0.020   2.917  0.4936 -1.0642  0.4652
 6585SOL     OW30433   7.864   8.824   1.989 -0.0425  0.3291  0.6762
 6585SOL    HW130434   7.888   8.891   2.059 -1.1248  1.4608 -0.0262
 6585SOL    HW230435   7.789   8.859   1.933  0.0644 -1.0400 -0.3513
 6586SOL     OW30436   4.485   4.466   1.379  0.5818  0.0896  0.2522
 6586SOL    HW130437   4.455   4.482   1.285  0.2801  2.5183  0.7343
 6586SOL    HW230438   4.449   4.378   1.411 -1.0424  0.2000 -1.2061
 6587SOL     OW30439   2.427   0.795   4.686  0.2861  0.8270 -0.0308
 6587SOL    HW130440   2.363   0.737   4.737  2.0454 -1.2665 -0.1591
 6587SOL    HW230441   2.375   0.857   4.627 -1.6463 -1.6231 -1.0116
 6588SOL     OW30442   9.474   4.846   2.010  0.4009 -0.4289 -0.3718
 6588SOL    HW130443   9.421   4.782   1.955  1.3716 -1.2093 -0.4042
 6588SOL    HW230444   9.572   4.828   1.998  0.6534  0.3604  0.4525
 6589SOL     OW30445   5.238   6.604   2.925 -0.4502  0.1683 -0.2344
 6589SOL    HW130446   5.233   6.533   2.854 -2.2258  0.5790 -0.5395
 6589SOL    HW230447   5.333   6.630   2.939  0.0788 -1.1499 -1.2473
 6590SOL     OW30448   3.959   4.691   1.023  0.7418  0.0291 -0.1664
 6590SOL    HW130449   4.007   4.618   0.974 -1.2005 -0.6364 -1.1121
 6590SOL    HW230450   3.984   4.689   1.120  3.4278  0.3711 -0.8095
 6591SOL     OW30451   9.784   1.884   2.260 -0.0429  0.6785 -0.8152
 6591SOL    HW130452   9.846   1.963   2.253  0.6313  0.1478 -0.8980
 6591SOL    HW230453   9.769   1.845   2.170 -2.2493  2.1194 -1.1033
 6592SOL     OW30454   2.280   9.546   4.463  0.7100  0.2025 -0.2785
 6592SOL    HW130455   2.272   9.588   4.372  0.4431 -0.3070 -0.4920
 6592SOL    HW230456   2.189   9.534   4.502  0.8265  0.4198  0.0578
 6593SOL     OW30457   4.798   2.318   1.975  0.4141  0.0177 -0.1523
 6593SOL    HW130458   4.815   2.277   1.885 -0.1496  0.9841 -0.7102
 6593SOL    HW230459   4.869   2.289   2.038  1.7389  0.6125 -1.3419
 6594SOL     OW30460   0.697   0.375   4.332 -0.0715  0.7771  0.4307
 6594SOL    HW130461   0.623   0.368   4.265 -0.0938 -0.5436  0.5761
 6594SOL    HW230462   0.664   0.421   4.414 -0.8733 -0.2350  0.6811
 6595SOL     OW30463   4.299   0.218   3.413 -0.0535 -0.1033 -0.0632
 6595SOL    HW130464   4.276   0.121   3.421  0.2293 -0.2951 -1.4588
 6595SOL    HW230465   4.356   0.245   3.491  1.1235 -1.4235 -0.4483
 6596SOL     OW30466   9.788   9.716   1.431 -0.1269  0.2919  0.6792
 6596SOL    HW130467   9.741   9.722   1.520  2.0153  0.9067  1.7952
 6596SOL    HW230468   9.860   9.647   1.436 -1.0021 -0.7790 -1.0895
 6597SOL     OW30469   0.563   7.120   1.457 -0.3906 -0.2398 -0.2634
 6597SOL    HW130470   0.523   7.202   1.497  0.8169 -0.0280  0.5119
 6597SOL    HW230471   0.645   7.144   1.406 -0.1390 -0.9417 -0.1978
 6598SOL     OW30472   3.345   9.953   4.732  0.3459 -0.3318  0.0153
 6598SOL    HW130473   3.253   9.934   4.698  0.5717 -0.6082 -0.4401
 6598SOL    HW230474   3.346   9.942   4.831 -0.4438  1.0110  0.1858
 6599SOL     OW30475   9.941   8.133   2.952 -0.0396  0.7028 -0.1757
 6599SOL    HW130476   9.893   8.214   2.918 -3.5686 -0.5866  1.4596
 6599SOL    HW230477   9.880   8.054   2.948  1.9676 -1.0458  1.9840
 6600SOL     OW30478   1.862   9.823   1.242 -0.2350  0.3176  0.3262
 6600SOL    HW130479   1.816   9.797   1.327  1.2935 -1.7339  0.5979
 6600SOL    HW230480   1.854   9.748   1.176  0.0034  1.2144 -0.7236
 6601SOL     OW30481   4.682   7.358   2.394 -0.2389  0.2636  0.1910
 6601SOL    HW130482   4.604   7.295   2.393 -0.0685 -0.0125  2.1991
 6601SOL    HW230483   4.764   7.308   2.420  0.4698  0.7265 -1.1289
 6602SOL     OW30484   2.363   9.392   0.983  0.6230 -0.7655  0.0710
 6602SOL    HW130485   2.304   9.312   0.989  0.2855 -0.6358 -1.2860
 6602SOL    HW230486   2.432   9.377   0.912 -0.6310  0.8954 -1.5427
 6603SOL     OW30487   0.327   1.794   0.396  0.2898 -0.3361 -0.2194
 6603SOL    HW130488   0.249   1.752   0.351 -1.2601  1.0622  1.0912
 6603SOL    HW230489   0.326   1.771   0.494 -0.3203  2.2830  0.4296
 6604SOL     OW30490   9.929   7.787   3.119  0.8078 -0.1839 -0.6761
 6604SOL    HW130491  10.022   7.824   3.123  0.8774 -0.4629  0.4240
 6604SOL    HW230492   9.906   7.745   3.207 -0.0604 -0.8379 -1.2057
 6605SOL     OW30493   3.709   2.560   4.057  0.1160  0.0654  0.2923
 6605SOL    HW130494   3.792   2.533   4.009 -0.7869 -2.1700 -0.0418
 6605SOL    HW230495   3.674   2.483   4.110 -2.7339  0.4169 -0.9833
 6606SOL     OW30496   1.936   1.076   2.182  0.0412  0.2406  0.0012
 6606SOL    HW130497   1.837   1.073   2.193 -0.0079  0.4259 -0.3786
 6606SOL    HW230498   1.969   1.169   2.199  0.3077 -0.1088  1.4129
 6607SOL     OW30499   5.518   8.899   2.476  0.6809 -0.2011 -0.1104
 6607SOL    HW130500   5.495   8.820   2.534 -0.6862  0.0651 -0.2635
 6607SOL    HW230501   5.595   8.875   2.416  0.4472 -1.3392  0.0298
 6608SOL     OW30502   3.299   9.372   1.079 -0.1181  0.4218  0.2643
 6608SOL    HW130503   3.397   9.390   1.076  0.0690 -0.1315  2.1129
 6608SOL    HW230504   3.257   9.397   0.992  1.4033  2.1952  0.0085
 6609SOL     OW30505   2.999   0.465   1.662  0.2274  0.4114  0.3722
 6609SOL    HW130506   2.963   0.379   1.624 -0.4925  0.4238  1.0119
 6609SOL    HW230507   3.064   0.505   1.598  1.0808 -0.9602  0.3600
 6610SOL     OW30508   6.005   7.380   2.550  0.1296 -0.6314  0.2226
 6610SOL    HW130509   5.955   7.435   2.618 -0.1545 -0.0632 -0.4384
 6610SOL    HW230510   5.989   7.418   2.459 -0.1713 -1.9009 -0.2595
 6611SOL     OW30511   9.550   2.099   3.545  0.2696 -0.0958  0.2999
 6611SOL    HW130512   9.622   2.051   3.495 -0.5849 -0.0884 -0.9548
 6611SOL    HW230513   9.476   2.036   3.568 -0.0696  0.2396  0.1476
 6612SOL     OW30514   0.506   4.123   0.480 -0.1441 -0.4990 -0.1520
 6612SOL    HW130515   0.590   4.114   0.426  0.0226  2.0032 -0.3457
 6612SOL    HW230516   0.429   4.086   0.429  0.1815  0.9568 -1.7249
 6613SOL     OW30517   4.616   2.988   0.364  0.3948  0.9835 -0.0459
 6613SOL    HW130518   4.624   2.925   0.441  0.4720 -0.6562 -1.3533
 6613SOL    HW230519   4.528   2.975   0.319  0.2818  2.0402 -0.1378
 6614SOL     OW30520   4.245   3.002   2.962 -0.2134  0.3769 -0.5392
 6614SOL    HW130521   4.227   2.905   2.977 -1.4372  0.1732 -3.0278
 6614SOL    HW230522   4.181   3.056   3.016 -0.5159 -0.2255 -0.2893
 6615SOL     OW30523   7.635   2.486   0.094 -0.1206 -0.9143  0.4394
 6615SOL    HW130524   7.593   2.545   0.025  1.4611 -0.9912 -0.6269
 6615SOL    HW230525   7.586   2.495   0.180 -2.0853 -0.7422 -0.6664
 6616SOL     OW30526   1.726   7.054   1.645  0.2976 -0.3991  0.0421
 6616SOL    HW130527   1.823   7.053   1.621 -0.3793  1.4209 -3.0296
 6616SOL    HW230528   1.680   6.980   1.596  0.0248 -0.9495  1.1149
 6617SOL     OW30529   1.335   8.693   2.547 -0.6403  0.4357  0.1497
 6617SOL    HW130530   1.325   8.753   2.468  0.2280 -0.3601 -0.5792
 6617SOL    HW230531   1.247   8.680   2.591 -1.3625 -0.1289 -1.4424
 6618SOL     OW30532   2.533   4.156   2.542 -0.1981  0.1113  0.2258
 6618SOL    HW130533   2.479   4.076   2.516 -0.5001  0.5843 -0.6200
 6618SOL    HW230534   2.622   4.127   2.577 -0.5247 -0.6180  0.4505
 6619SOL     OW30535   9.331   8.129   2.931 -0.4019  0.5017 -0.4295
 6619SOL    HW130536   9.297   8.042   2.896 -0.5067 -0.0056  0.9164
 6619SOL    HW230537   9.264   8.201   2.912 -2.3110 -0.4950  2.2258
 6620SOL     OW30538   8.935   1.937   2.302 -0.4951 -0.1164  0.2031
 6620SOL    HW130539   8.856   1.987   2.336 -1.3118 -1.6674  0.6347
 6620SOL    HW230540   8.973   1.881   2.375  1.1459  0.7799  0.0525
 6621SOL     OW30541   1.831   8.401   0.015  0.0954 -0.3190 -0.5246
 6621SOL    HW130542   1.768   8.449  -0.046  0.1181 -0.3268 -0.5531
 6621SOL    HW230543   1.910   8.368  -0.037  1.0937  1.4255 -0.1199
 6622SOL     OW30544   9.025   9.120   4.332 -0.3481  0.0168 -0.0037
 6622SOL    HW130545   8.942   9.139   4.278 -1.2176 -1.0333  0.9617
 6622SOL    HW230546   9.001   9.115   4.429  0.9854  0.4508  0.3558
 6623SOL     OW30547   5.480   9.556   1.808  0.1706 -0.4510  0.0639
 6623SOL    HW130548   5.464   9.458   1.819  0.9738 -0.4877  0.9452
 6623SOL    HW230549   5.534   9.571   1.725  0.9827 -0.8546  0.5098
 6624SOL     OW30550   2.663   1.932   4.393 -0.1046 -0.7682 -0.5142
 6624SOL    HW130551   2.647   1.841   4.430 -0.7535 -0.4240  0.0767
 6624SOL    HW230552   2.707   1.989   4.462  0.7633 -0.7791 -1.0558
 6625SOL     OW30553   7.172   9.335   4.529  0.5378 -0.7371  0.2637
 6625SOL    HW130554   7.139   9.429   4.517  0.5457 -0.7432  0.1904
 6625SOL    HW230555   7.202   9.322   4.623  1.6864 -0.2955 -0.0343
 6626SOL     OW30556   0.546   2.377   1.136 -0.5880  0.1882  0.2031
 6626SOL    HW130557   0.580   2.433   1.212 -0.0939  2.0160 -1.3435
 6626SOL    HW230558   0.595   2.400   1.052 -1.5131 -1.4176 -0.8094
 6627SOL     OW30559   9.541   4.735   3.954  0.0316 -0.6399 -0.1058
 6627SOL    HW130560   9.475   4.703   3.886 -1.0990  2.3276 -0.4792
 6627SOL    HW230561   9.629   4.752   3.910 -0.1047 -0.7578 -0.4230
 6628SOL     OW30562   9.169   1.009   4.506 -0.1545 -0.2626  0.6844
 6628SOL    HW130563   9.106   1.002   4.584 -0.3422 -0.1952  0.5413
 6628SOL    HW230564   9.263   0.995   4.537 -0.0658  1.3542  1.2015
 6629SOL     OW30565   0.125   6.783   0.020  0.1326 -0.0986 -0.5169
 6629SOL    HW130566   0.141   6.756  -0.075 -0.5528  0.8127 -0.9043
 6629SOL    HW230567   0.173   6.720   0.081 -1.6075 -2.3048 -1.3624
 6630SOL     OW30568   8.502   5.624   2.486  0.5089 -0.0748  0.3194
 6630SOL    HW130569   8.559   5.631   2.568  1.1158  0.7652 -0.1724
 6630SOL    HW230570   8.449   5.709   2.476  0.9480  0.1042 -0.5330
 6631SOL     OW30571   1.267   0.156   3.431  0.1749  0.2187  0.2464
 6631SOL    HW130572   1.323   0.234   3.457  1.6138 -1.1272  1.2838
 6631SOL    HW230573   1.318   0.097   3.369 -0.4076 -0.5623  0.4988
 6632SOL     OW30574   9.253   6.504   3.057 -0.3426 -0.3403 -0.5411
 6632SOL    HW130575   9.175   6.488   3.118  0.1611  0.5292  0.3415
 6632SOL    HW230576   9.301   6.418   3.041 -1.0935 -0.7634 -0.5554
 6633SOL     OW30577   5.249   7.522   1.375  0.2705  0.6559 -0.1318
 6633SOL    HW130578   5.216   7.430   1.355 -1.4540  1.3407 -0.5226
 6633SOL    HW230579   5.330   7.516   1.433  1.0599 -1.1385 -1.3601
 6634SOL     OW30580   5.383   0.679   2.344  0.1957  0.2048 -0.3500
 6634SOL    HW130581   5.460   0.740   2.325  1.4175 -1.4024 -0.5718
 6634SOL    HW230582   5.390   0.643   2.436 -0.5319  0.3894 -0.2179
 6635SOL     OW30583   7.720   0.282   3.309 -0.2661  0.0831 -0.0048
 6635SOL    HW130584   7.652   0.213   3.332  0.4669 -1.3125 -1.9220
 6635SOL    HW230585   7.800   0.238   3.268  1.2188  1.8283  0.9409
 6636SOL     OW30586   8.904   7.261   3.752 -0.2143 -0.3798 -0.0588
 6636SOL    HW130587   8.958   7.190   3.798 -0.7329 -0.4003  0.5147
 6636SOL    HW230588   8.867   7.325   3.820  0.0004  0.2695 -0.5469
 6637SOL     OW30589   8.801   3.839   2.894 -0.1167  0.2347 -0.4246
 6637SOL    HW130590   8.868   3.831   2.968 -0.4938 -0.8385 -0.1825
 6637SOL    HW230591   8.792   3.750   2.848 -0.9890  0.5061 -0.7882
 6638SOL     OW30592   7.615   7.973   3.221  0.1388  0.2262 -0.0523
 6638SOL    HW130593   7.596   8.065   3.254  0.1076 -0.3979  1.6921
 6638SOL    HW230594   7.532   7.918   3.226  0.1752  0.0587 -1.0196
 6639SOL     OW30595   8.242   5.751   2.004 -0.0407  0.5122  0.0209
 6639SOL    HW130596   8.160   5.718   1.958  0.2917  0.8159 -0.8119
 6639SOL    HW230597   8.297   5.803   1.939 -1.1949  3.8493  1.6192
 6640SOL     OW30598   9.709   4.812   0.964  0.0050  0.5193 -0.4197
 6640SOL    HW130599   9.623   4.761   0.961 -0.6359  1.3139  2.7031
 6640SOL    HW230600   9.777   4.759   1.014  0.7664  0.7504 -1.1929
 6641SOL     OW30601   3.010   2.921   1.421 -0.2366  0.2632 -0.9066
 6641SOL    HW130602   2.974   2.874   1.502 -1.1342  0.6764 -1.0617
 6641SOL    HW230603   3.107   2.901   1.412 -0.4808 -1.1185 -0.6531
 6642SOL     OW30604   0.608   5.741   1.865 -0.0138  0.4323 -1.1453
 6642SOL    HW130605   0.577   5.771   1.775 -0.4574  2.5199 -0.3357
 6642SOL    HW230606   0.618   5.821   1.925  1.0473 -0.8418  0.4162
 6643SOL     OW30607   0.132   9.047   0.438 -0.0785 -0.0024 -0.4166
 6643SOL    HW130608   0.178   9.133   0.416 -0.1165 -0.0373 -0.6281
 6643SOL    HW230609   0.185   8.970   0.402 -0.0697 -0.0659 -0.2691
 6644SOL     OW30610   2.959   7.346   2.506  0.1461 -0.1398 -0.0723
 6644SOL    HW130611   3.002   7.301   2.585  2.4771  0.6573 -0.8351
 6644SOL    HW230612   2.982   7.296   2.422  1.9482  1.8480 -0.8131
 6645SOL     OW30613   2.076   0.050   1.857  0.2396 -0.7085 -0.1004
 6645SOL    HW130614   2.023   0.022   1.937 -0.8821  3.4422  0.7436
 6645SOL    HW230615   2.167   0.080   1.887 -1.0598  3.3135  0.0765
 6646SOL     OW30616   1.643   8.494   0.283  0.1016  0.3203  0.0421
 6646SOL    HW130617   1.687   8.456   0.365 -0.3685 -0.1167  0.0957
 6646SOL    HW230618   1.708   8.494   0.207 -0.1457 -1.4025 -0.1844
 6647SOL     OW30619   5.091   2.240   2.017  0.1005  0.4881  0.2702
 6647SOL    HW130620   5.083   2.216   2.113  1.6255  0.2785  0.3480
 6647SOL    HW230621   5.145   2.171   1.969 -0.5790  0.6290 -0.7318
 6648SOL     OW30622   8.833   2.432   0.994 -0.2832 -0.3084 -0.4145
 6648SOL    HW130623   8.921   2.399   1.028 -0.1499 -0.0683 -0.5214
 6648SOL    HW230624   8.820   2.527   1.022  1.3956  1.0580 -3.8412
 6649SOL     OW30625   6.034   0.062   1.022  0.1237 -0.3937  0.3223
 6649SOL    HW130626   6.009  -0.031   0.995  2.1686 -0.4834 -1.3491
 6649SOL    HW230627   5.951   0.114   1.042 -1.4487 -0.9725 -4.0886
 6650SOL     OW30628   1.514   3.857   4.360  0.6432 -0.7767  0.2536
 6650SOL    HW130629   1.434   3.889   4.410  1.0035 -0.0882  0.3950
 6650SOL    HW230630   1.492   3.846   4.264  1.2171  2.4718 -0.3053
 6651SOL     OW30631   1.411   6.313   0.687 -0.0227  0.1713  0.0049
 6651SOL    HW130632   1.456   6.402   0.677  0.1167 -0.0827 -1.8216
 6651SOL    HW230633   1.335   6.321   0.751  1.4527  1.0412  1.6936
 6652SOL     OW30634   7.429   7.597   1.447 -0.0180 -0.5467  0.5149
 6652SOL    HW130635   7.502   7.607   1.379 -1.1895  1.3289 -0.5442
 6652SOL    HW230636   7.388   7.506   1.440  0.8700 -0.8883 -0.2751
 6653SOL     OW30637   2.996   2.458   2.969  0.3659  0.2701 -0.2788
 6653SOL    HW130638   3.078   2.500   3.008  0.0458 -0.0517  0.7675
 6653SOL    HW230639   2.986   2.365   3.005 -1.7920  1.1498  1.5773
 6654SOL     OW30640   2.426   3.047   2.118 -0.5197 -0.0469 -0.2732
 6654SOL    HW130641   2.367   2.967   2.116 -1.3543  0.5374  0.4781
 6654SOL    HW230642   2.502   3.032   2.181 -0.9722 -0.0476  0.2753
 6655SOL     OW30643   3.097   5.954   1.851  0.0119 -0.0326  0.0857
 6655SOL    HW130644   3.029   5.888   1.819 -0.3858  1.2105 -1.7035
 6655SOL    HW230645   3.064   6.047   1.833  0.2746  0.7074  3.1486
 6656SOL     OW30646   1.320   6.640   4.548 -0.2966  0.1753  0.3484
 6656SOL    HW130647   1.268   6.722   4.572  0.7686  0.8609  0.3102
 6656SOL    HW230648   1.394   6.628   4.613 -1.0234 -1.2972  0.9238
 6657SOL     OW30649   4.652   0.682   3.030  0.0854  0.0682  0.3443
 6657SOL    HW130650   4.603   0.596   3.019  0.4917  0.1895 -2.7637
 6657SOL    HW230651   4.590   0.752   3.066 -1.2196 -0.5775 -0.6339
 6658SOL     OW30652   8.940   4.149   1.368  0.4177 -0.2444  0.2324
 6658SOL    HW130653   8.863   4.086   1.376  0.2940 -0.2094 -0.6007
 6658SOL    HW230654   8.944   4.208   1.449 -0.7225  0.0772  0.0678
 6659SOL     OW30655   9.302   2.550   1.272 -0.6270 -0.2951  0.2070
 6659SOL    HW130656   9.313   2.485   1.198  0.7332 -0.0556  0.1939
 6659SOL    HW230657   9.275   2.639   1.235  1.2209  0.1459 -0.1271
 6660SOL     OW30658   1.969   1.339   2.195 -0.4256  0.2965 -0.3796
 6660SOL    HW130659   1.974   1.421   2.251  0.3973 -0.3668  0.5452
 6660SOL    HW230660   1.996   1.360   2.101 -0.1202  1.0554 -0.1206
 6661SOL     OW30661   4.221   9.767   0.532  0.0528 -0.2794 -0.0919
 6661SOL    HW130662   4.229   9.722   0.621  1.7951 -0.2690 -0.2369
 6661SOL    HW230663   4.299   9.743   0.474 -0.6679  0.3312 -1.3496
 6662SOL     OW30664   1.408   4.405   2.988 -0.2137  0.2561  0.0295
 6662SOL    HW130665   1.378   4.500   2.984 -0.4480  0.1938  0.2746
 6662SOL    HW230666   1.353   4.350   2.925 -0.0038  0.3000 -0.1961
 6663SOL     OW30667   8.521   4.589   1.905 -0.9954 -0.1820  0.1541
 6663SOL    HW130668   8.478   4.584   1.995  1.9021 -1.5428  1.5114
 6663SOL    HW230669   8.590   4.661   1.905  0.3234 -1.4366 -0.3930
 6664SOL     OW30670   3.081   9.972   3.120  0.0851 -0.3217 -0.7512
 6664SOL    HW130671   3.141  10.033   3.173 -2.0705 -0.0184  1.4414
 6664SOL    HW230672   3.074  10.006   3.026  1.4229  1.0025 -0.4001
 6665SOL     OW30673   2.185   7.378   0.281  0.1613  0.1108 -0.7375
 6665SOL    HW130674   2.121   7.330   0.341  0.5876  0.6861  0.2103
 6665SOL    HW230675   2.250   7.429   0.338 -0.4984  2.0818 -1.7109
 6666SOL     OW30676   1.365   2.841   4.269 -0.5072 -0.0382 -0.5821
 6666SOL    HW130677   1.266   2.827   4.276 -0.4630 -1.7527 -2.6224
 6666SOL    HW230678   1.411   2.752   4.269  0.7806  0.5933 -2.4887
 6667SOL     OW30679   2.160   6.220   4.537 -0.6829 -0.3052  0.0961
 6667SOL    HW130680   2.110   6.265   4.462  0.5022 -0.7205 -0.9574
 6667SOL    HW230681   2.258   6.219   4.516 -0.3614 -0.6036  1.5700
 6668SOL     OW30682   2.232   5.366   1.263 -0.5225  0.3352 -0.3706
 6668SOL    HW130683   2.220   5.408   1.353 -0.4107  0.6762 -0.5122
 6668SOL    HW230684   2.143   5.357   1.218 -0.7878 -1.3987  0.4600
 6669SOL     OW30685   2.089   6.894   1.193  0.5335 -0.2129 -0.6243
 6669SOL    HW130686   2.089   6.975   1.135  1.3855 -0.6191 -1.2082
 6669SOL    HW230687   2.158   6.904   1.264  1.1810 -0.7531 -1.1714
 6670SOL     OW30688   4.755   1.759   1.111  0.1256 -0.4470  0.2973
 6670SOL    HW130689   4.686   1.824   1.144  0.6401  0.2442  0.0138
 6670SOL    HW230690   4.795   1.711   1.189  3.2090  3.0352  1.0309
 6671SOL     OW30691   8.403   6.560   3.796 -0.1907  0.2713 -0.3848
 6671SOL    HW130692   8.338   6.601   3.732  0.0334 -0.4489 -1.0807
 6671SOL    HW230693   8.461   6.495   3.748 -0.3926 -0.7006  0.6414
 6672SOL     OW30694   0.078   5.707   4.290  0.1698  0.6592 -0.0030
 6672SOL    HW130695   0.127   5.697   4.204  0.0995 -0.3398  0.0729
 6672SOL    HW230696   0.093   5.800   4.326  0.9696  0.7674 -0.6050
 6673SOL     OW30697   6.119   7.306   3.111  0.5761 -0.0541 -0.1193
 6673SOL    HW130698   6.218   7.308   3.096  0.8090 -0.1752  1.2725
 6673SOL    HW230699   6.077   7.240   3.048  1.3988 -0.0929 -0.6346
 6674SOL     OW30700   4.886   9.248   4.441  0.3160 -0.3003  0.4355
 6674SOL    HW130701   4.875   9.301   4.357  1.9067 -0.6753 -0.0183
 6674SOL    HW230702   4.878   9.150   4.419  3.2183 -0.5491  0.2541
 6675SOL     OW30703   1.900   9.381   4.347  0.1344 -0.0696 -0.3223
 6675SOL    HW130704   1.909   9.286   4.376  3.6440 -0.3331 -2.0321
 6675SOL    HW230705   1.955   9.439   4.408  1.2149  0.3340 -1.6531
 6676SOL     OW30706   5.032   9.359   3.975 -0.1240 -0.2181  0.3945
 6676SOL    HW130707   5.000   9.272   4.013  1.1776 -0.7789  0.2132
 6676SOL    HW230708   5.126   9.376   4.003 -0.1551  0.8306 -0.0942
 6677SOL     OW30709   0.330   1.082   1.775 -0.1317  0.0581 -0.1295
 6677SOL    HW130710   0.313   1.013   1.705 -1.7437  1.1251 -0.8191
 6677SOL    HW230711   0.350   1.170   1.732  1.4078  0.1460  0.7413
 6678SOL     OW30712   2.506   0.824   3.963 -0.0403 -0.4515 -0.4608
 6678SOL    HW130713   2.446   0.904   3.956  0.6549  0.0963 -0.2758
 6678SOL    HW230714   2.485   0.760   3.890  0.5735  0.7092 -1.6804
 6679SOL     OW30715   0.047   5.820   2.463  0.0646  0.3459 -0.4452
 6679SOL    HW130716  -0.028   5.886   2.463 -0.1402  0.1247  1.5589
 6679SOL    HW230717   0.015   5.732   2.500  1.0841 -0.0169 -0.4036
 6680SOL     OW30718   2.208   4.482   0.006  0.1054  0.0840 -0.1049
 6680SOL    HW130719   2.125   4.537  -0.005 -2.7290 -3.9957 -0.3219
 6680SOL    HW230720   2.257   4.479  -0.081 -1.3514 -0.2274 -0.9320
 6681SOL     OW30721   5.666   8.281   2.562  0.3495  0.1441  0.1287
 6681SOL    HW130722   5.749   8.336   2.561  0.6638 -0.3346  0.2428
 6681SOL    HW230723   5.613   8.299   2.478  0.3376  0.7977  0.2776
 6682SOL     OW30724   7.712   0.439   4.232 -0.2879  0.3194 -0.4371
 6682SOL    HW130725   7.804   0.412   4.258 -0.4029 -0.5936 -0.9260
 6682SOL    HW230726   7.711   0.468   4.136 -0.2392  1.7330 -0.0240
 6683SOL     OW30727   4.708   3.477   2.274  0.3801 -0.3218 -0.4722
 6683SOL    HW130728   4.798   3.465   2.234  1.5057  0.8217  1.6533
 6683SOL    HW230729   4.697   3.414   2.351  0.3238  1.2870  0.8456
 6684SOL     OW30730   8.204   0.218   3.158 -0.1613  0.3182 -0.3128
 6684SOL    HW130731   8.197   0.220   3.258  0.9791  1.7659 -0.2553
 6684SOL    HW230732   8.148   0.291   3.119  1.5981  1.5640 -0.5826
 6685SOL     OW30733   9.879   7.257   3.549 -0.0705  0.7035  0.8345
 6685SOL    HW130734   9.933   7.280   3.468 -0.2276 -1.4845  0.0890
 6685SOL    HW230735   9.880   7.158   3.564 -3.2778  0.6691  1.2206
 6686SOL     OW30736   9.339   9.972   1.533 -0.1979  0.2862  0.5770
 6686SOL    HW130737   9.377   9.899   1.478 -0.5321 -0.5536  1.4436
 6686SOL    HW230738   9.312  10.048   1.474  1.1766  0.1739 -0.2089
 6687SOL     OW30739   4.263   1.713   0.127 -0.2707 -0.3856 -0.1448
 6687SOL    HW130740   4.164   1.718   0.124 -0.1578  3.5735  0.5049
 6687SOL    HW230741   4.294   1.691   0.220 -0.4832 -0.1542 -0.0220
 6688SOL     OW30742   8.852   5.480   4.630 -0.0960 -0.0591  1.0144
 6688SOL    HW130743   8.865   5.405   4.566 -0.4309  0.0833  0.7774
 6688SOL    HW230744   8.879   5.451   4.722 -0.4371 -0.5429  0.9639
 6689SOL     OW30745   0.089   1.465   2.352  0.2578  0.2701 -0.5429
 6689SOL    HW130746  -0.010   1.459   2.337  0.0680  0.4594  0.5725
 6689SOL    HW230747   0.123   1.378   2.389  0.4582  0.2944 -0.6680
 6690SOL     OW30748   0.399   6.235   0.732 -0.0194  0.1054 -0.3249
 6690SOL    HW130749   0.435   6.313   0.680  0.7812  0.8300  1.2798
 6690SOL    HW230750   0.472   6.169   0.750 -0.1676  0.1137  0.3226
 6691SOL     OW30751   9.817   4.526   2.238  0.1392  0.2485  0.3715
 6691SOL    HW130752   9.740   4.589   2.226  1.1065  1.2982 -0.4906
 6691SOL    HW230753   9.884   4.567   2.299 -0.1468 -0.8197  1.4124
 6692SOL     OW30754   1.795   1.439   0.365  0.3105 -0.2958 -0.3992
 6692SOL    HW130755   1.702   1.433   0.400 -0.0776  0.3121 -1.3099
 6692SOL    HW230756   1.801   1.512   0.297  1.9549  1.1156  1.1996
 6693SOL     OW30757   0.216   5.392   0.910  0.2792 -0.0538  0.3895
 6693SOL    HW130758   0.250   5.302   0.940  0.7358 -0.2198 -0.6210
 6693SOL    HW230759   0.250   5.412   0.818  0.5048  1.3433  0.7677
 6694SOL     OW30760   1.267   6.706   1.879  0.1805 -0.6157  0.3100
 6694SOL    HW130761   1.282   6.782   1.942  0.6259 -1.1822  0.9025
 6694SOL    HW230762   1.223   6.739   1.796  1.2312  0.4409  0.1696
 6695SOL     OW30763   9.213   8.319   2.759  0.3111  0.0185 -0.4715
 6695SOL    HW130764   9.241   8.286   2.668 -0.3503 -0.5732 -0.4610
 6695SOL    HW230765   9.211   8.419   2.759 -1.0731 -0.0011 -1.5215
 6696SOL     OW30766   5.799   9.515   2.400 -0.2997 -0.3924  0.1717
 6696SOL    HW130767   5.769   9.435   2.349 -0.1144 -0.2678 -0.1334
 6696SOL    HW230768   5.832   9.486   2.490  0.1225 -0.7030 -0.0810
 6697SOL     OW30769   9.006   2.376   2.257  0.2656 -0.0871  0.0093
 6697SOL    HW130770   8.968   2.324   2.334  1.3281 -1.0072 -0.0714
 6697SOL    HW230771   9.058   2.314   2.198  0.2560  0.7968 -0.9250
 6698SOL     OW30772   9.574   7.174   1.515 -0.6434  0.0868 -0.4088
 6698SOL    HW130773   9.656   7.231   1.519 -0.3143 -0.4908  1.6684
 6698SOL    HW230774   9.589   7.099   1.450  0.7813 -0.4539  0.5183
 6699SOL     OW30775   2.730   6.551   1.414 -0.0098 -0.5840  0.0678
 6699SOL    HW130776   2.796   6.485   1.378 -1.3149 -1.1723 -1.3041
 6699SOL    HW230777   2.653   6.501   1.455  0.6515  0.0921  2.1764
 6700SOL     OW30778   4.237   2.553   2.529 -0.3729  0.1984  0.2943
 6700SOL    HW130779   4.181   2.587   2.454  0.1033  0.8280  0.2206
 6700SOL    HW230780   4.275   2.464   2.504 -0.9598 -0.0172  0.1608
 6701SOL     OW30781   7.132   8.456   3.112 -0.2444  0.2516 -0.1438
 6701SOL    HW130782   7.207   8.448   3.045 -0.5959 -0.0045 -0.5150
 6701SOL    HW230783   7.063   8.518   3.076  0.4282  1.5698  0.8091
 6702SOL     OW30784   9.629   0.715   0.397  0.1564 -0.7522 -0.1052
 6702SOL    HW130785   9.551   0.738   0.457  0.6621 -0.5236  0.4719
 6702SOL    HW230786   9.640   0.786   0.328  1.1553  0.3094  1.1219
 6703SOL     OW30787   3.348   0.978   3.654 -0.2802  0.1249 -0.1842
 6703SOL    HW130788   3.293   1.030   3.589 -0.3392  1.7204  1.1375
 6703SOL    HW230789   3.430   1.029   3.677 -0.6654 -0.0594  1.6410
 6704SOL     OW30790   2.032   1.066   1.836  0.1199 -0.4355 -0.2156
 6704SOL    HW130791   2.081   0.979   1.839  0.5550 -0.2062 -0.5777
 6704SOL    HW230792   1.934   1.049   1.829  0.1487 -0.8994  0.3733
 6705SOL     OW30793   5.453   0.125   1.134 -0.1237 -0.1150  0.4065
 6705SOL    HW130794   5.531   0.111   1.194  1.6895  0.4435 -1.7574
 6705SOL    HW230795   5.445   0.223   1.112 -1.6000 -0.1329  0.8150
 6706SOL     OW30796   1.244   5.240   1.893 -0.2710  0.3759 -0.4416
 6706SOL    HW130797   1.233   5.334   1.861 -1.2778 -0.1022 -1.5034
 6706SOL    HW230798   1.155   5.202   1.916  0.1231 -0.3678 -0.1311
 6707SOL     OW30799   4.005   5.757   1.643 -0.0695 -0.0739  0.3689
 6707SOL    HW130800   4.090   5.705   1.651 -1.2221 -1.9980  0.4171
 6707SOL    HW230801   4.018   5.835   1.582  2.1140  0.4929  1.5250
 6708SOL     OW30802   9.620   0.160   3.097  0.3069 -0.0216 -0.0146
 6708SOL    HW130803   9.673   0.200   3.172  0.1406 -0.7512  0.4942
 6708SOL    HW230804   9.526   0.142   3.129  0.3832 -0.8190 -0.2387
 6709SOL     OW30805   3.549   8.609   3.011 -0.0789 -0.0706 -0.2849
 6709SOL    HW130806   3.454   8.603   2.983  0.2574  0.5075 -1.6064
 6709SOL    HW230807   3.605   8.637   2.932  1.5648 -3.0189 -0.2175
 6710SOL     OW30808   4.222   9.939   1.833  0.1208 -0.0085 -0.1461
 6710SOL    HW130809   4.263   9.905   1.918  0.6485 -3.3606 -1.6297
 6710SOL    HW230810   4.282  10.007   1.791  0.6580  0.4287  1.3343
 6711SOL     OW30811   0.603   1.962   2.340  0.1555  0.0578 -0.4213
 6711SOL    HW130812   0.654   1.877   2.324 -0.6968 -0.5376  0.0054
 6711SOL    HW230813   0.632   2.030   2.273  3.3106  0.5524  1.3096
 6712SOL     OW30814   1.715   1.552   3.491  0.0013 -0.0823  0.3195
 6712SOL    HW130815   1.628   1.556   3.539  1.2237 -0.6246  2.6759
 6712SOL    HW230816   1.720   1.627   3.425 -2.1125  0.1290  0.3611
 6713SOL     OW30817   4.219   8.779   1.089  0.1751 -0.3941  0.0191
 6713SOL    HW130818   4.192   8.779   0.993  0.0728  1.5328  0.0262
 6713SOL    HW230819   4.315   8.752   1.097 -0.0192 -1.2685 -0.5443
 6714SOL     OW30820   0.426   2.284   3.074  0.0396  0.1586 -0.0842
 6714SOL    HW130821   0.485   2.365   3.075 -0.0597  0.2329 -0.3981
 6714SOL    HW230822   0.368   2.285   3.156  0.9774 -0.2889  0.5999
 6715SOL     OW30823   8.985   6.778   2.135  0.7253 -0.2780 -0.4820
 6715SOL    HW130824   8.973   6.837   2.215 -0.1434  1.0980 -1.6092
 6715SOL    HW230825   9.011   6.686   2.165 -0.8489 -0.1237  1.4336
 6716SOL     OW30826   5.591   0.800   3.487  0.3003 -0.1412 -0.5340
 6716SOL    HW130827   5.493   0.801   3.507  0.0725 -0.4804 -1.5717
 6716SOL    HW230828   5.607   0.846   3.400  1.1730  0.7030  0.0670
 6717SOL     OW30829   9.215   4.072   4.103 -0.7377 -0.1780 -0.1797
 6717SOL    HW130830   9.165   4.055   4.018  1.2400  1.7083 -1.7726
 6717SOL    HW230831   9.250   3.985   4.138  0.8804 -0.6864 -2.8901
 6718SOL     OW30832   8.441   4.165   2.129  0.6407 -0.1672  0.9645
 6718SOL    HW130833   8.445   4.066   2.120 -0.9156 -0.1303 -0.4032
 6718SOL    HW230834   8.526   4.199   2.170  1.2564 -2.0299  1.2596
 6719SOL     OW30835   1.006   0.939   0.682  0.0020 -0.0696  0.5474
 6719SOL    HW130836   1.069   0.970   0.611 -1.9222  1.0858 -0.7250
 6719SOL    HW230837   0.934   1.008   0.694 -3.0406 -2.8682 -0.6027
 6720SOL     OW30838   8.656   0.169   2.191  0.8173 -0.1334 -0.4927
 6720SOL    HW130839   8.661   0.165   2.291  0.4755  1.1898 -0.4226
 6720SOL    HW230840   8.643   0.076   2.155  4.5285 -1.1220  0.4634
 6721SOL     OW30841   2.827   0.701   1.730 -0.6678  0.2788 -0.2711
 6721SOL    HW130842   2.829   0.609   1.692 -0.8387  0.7360 -1.4035
 6721SOL    HW230843   2.917   0.744   1.719 -0.8945  0.6393 -0.7224
 6722SOL     OW30844   9.000   3.486   1.647 -0.1549  0.4638  0.1522
 6722SOL    HW130845   9.092   3.517   1.672 -0.0292  0.2932 -0.0907
 6722SOL    HW230846   9.006   3.393   1.609 -0.3844  0.5800 -0.1658
 6723SOL     OW30847   8.500   5.914   3.852  0.2197  0.2924  0.4878
 6723SOL    HW130848   8.406   5.901   3.820  0.2407  0.8076  0.2129
 6723SOL    HW230849   8.534   5.828   3.889 -0.4670  0.1783  0.8734
 6724SOL     OW30850   4.038   7.362   2.889 -0.1513 -0.0668  0.7668
 6724SOL    HW130851   4.091   7.324   2.813  0.6707  0.6022  0.9886
 6724SOL    HW230852   4.097   7.423   2.942 -0.2456 -1.7824  2.9008
 6725SOL     OW30853   4.408   2.278   2.001 -0.5657  0.8849  0.2503
 6725SOL    HW130854   4.472   2.346   1.966 -1.6852  1.7291 -0.2152
 6725SOL    HW230855   4.350   2.245   1.926 -1.6503  1.2253  0.9189
 6726SOL     OW30856   1.059   0.254   3.669 -0.0841 -0.2586 -0.1051
 6726SOL    HW130857   1.076   0.300   3.756 -0.7992 -0.0055 -0.1030
 6726SOL    HW230858   1.111   0.168   3.667  1.6244  0.7623 -0.3119
 6727SOL     OW30859   9.154   9.165   3.863  0.0181  0.1825  0.5613
 6727SOL    HW130860   9.157   9.150   3.764  0.9201  0.3384  0.5560
 6727SOL    HW230861   9.194   9.087   3.910 -1.1321 -0.2418  0.8514
 6728SOL     OW30862   0.866   2.534   3.834  0.0269  0.0449 -0.2727
 6728SOL    HW130863   0.929   2.609   3.817 -0.5017  0.4711 -0.3630
 6728SOL    HW230864   0.915   2.447   3.828  0.3244  0.2953 -1.6680
 6729SOL     OW30865   2.240   9.708   3.367  0.5609 -0.3450  0.2057
 6729SOL    HW130866   2.226   9.776   3.294 -0.9136  0.1652  0.9566
 6729SOL    HW230867   2.297   9.748   3.439  0.6537 -0.3028  0.1093
 6730SOL     OW30868   9.718   9.263   0.192  0.1980  0.0935  0.1487
 6730SOL    HW130869   9.649   9.200   0.158  1.7076 -0.3368 -2.2597
 6730SOL    HW230870   9.785   9.212   0.246 -0.3680  0.1948  0.9454
 6731SOL     OW30871   3.344   1.707   1.187  0.3530 -0.7760  0.7466
 6731SOL    HW130872   3.297   1.629   1.228 -0.3928 -1.3727 -1.1775
 6731SOL    HW230873   3.418   1.674   1.128 -0.7789 -0.1225 -1.0935
 6732SOL     OW30874   1.428   2.573   4.268 -0.0463 -0.1362  0.3245
 6732SOL    HW130875   1.440   2.589   4.170  1.2712 -1.1631  0.3066
 6732SOL    HW230876   1.462   2.482   4.292 -0.7220 -0.0505  1.6695
 6733SOL     OW30877   1.049   3.176   1.760  0.2036 -0.1927  0.3730
 6733SOL    HW130878   0.996   3.251   1.720 -0.2479  0.9867  3.1063
 6733SOL    HW230879   1.002   3.089   1.743 -1.1119  0.5308  0.2542
 6734SOL     OW30880   0.671   9.600   0.242  0.3198  0.2006  0.0636
 6734SOL    HW130881   0.629   9.684   0.209 -0.8837 -0.4495 -0.0742
 6734SOL    HW230882   0.743   9.622   0.308  1.5642  1.4283 -1.6420
 6735SOL     OW30883   0.813   7.053   2.805 -0.1895  0.3010  0.7459
 6735SOL    HW130884   0.781   6.988   2.736 -0.2575  2.1194 -0.9959
 6735SOL    HW230885   0.883   7.113   2.765  2.5473 -1.0210  3.3505
 6736SOL     OW30886   0.771   1.927   0.319  0.0397  0.9134  0.5764
 6736SOL    HW130887   0.776   1.905   0.416 -1.8050  1.4285  0.7988
 6736SOL    HW230888   0.752   2.024   0.307 -2.2477  0.3976 -0.2444
 6737SOL     OW30889   1.943   6.476   3.952 -0.2606 -0.0050  0.1306
 6737SOL    HW130890   1.963   6.499   4.047 -1.0243  1.5732 -0.0758
 6737SOL    HW230891   1.950   6.377   3.939 -3.5954 -0.6379  2.6395
 6738SOL     OW30892   1.688   2.305   0.125  0.4368  0.2953  0.9766
 6738SOL    HW130893   1.763   2.366   0.099  0.7644 -0.1247  0.9245
 6738SOL    HW230894   1.612   2.359   0.161  0.8997  0.7001  1.3601
 6739SOL     OW30895   9.310   9.760   0.711 -0.4007 -0.1648 -0.1380
 6739SOL    HW130896   9.391   9.815   0.693 -0.5493  0.3658  0.8253
 6739SOL    HW230897   9.337   9.669   0.742 -0.1696  0.2665  0.9527
 6740SOL     OW30898   9.375   2.544   3.819 -0.4363  0.5699  0.1548
 6740SOL    HW130899   9.433   2.467   3.792  0.5774  0.8210  1.5300
 6740SOL    HW230900   9.281   2.512   3.834  0.0419 -0.4796  1.0284
 6741SOL     OW30901   2.947   4.264   3.411  0.3190 -0.7314 -0.0322
 6741SOL    HW130902   2.943   4.353   3.456 -0.1114 -0.9696  0.4140
 6741SOL    HW230903   2.854   4.228   3.401  0.5454 -1.4648  0.4693
 6742SOL     OW30904   1.736   3.439   1.648  0.6880 -0.7288  0.2742
 6742SOL    HW130905   1.759   3.374   1.721 -0.7049 -0.9739  0.5227
 6742SOL    HW230906   1.722   3.530   1.688  0.7934 -0.6748  0.1879
 6743SOL     OW30907   1.595   3.685   1.803 -0.5325 -0.0370  0.0210
 6743SOL    HW130908   1.557   3.684   1.711 -1.3770 -1.6854  0.3613
 6743SOL    HW230909   1.521   3.701   1.869  0.1713  1.8744  0.3847
 6744SOL     OW30910   0.376   4.667   3.082  0.2481 -0.0547 -0.2039
 6744SOL    HW130911   0.316   4.601   3.039  0.5605 -0.0595 -0.6333
 6744SOL    HW230912   0.436   4.620   3.148  0.0847 -0.1129 -0.0968
 6745SOL     OW30913   0.162   9.365   3.672  0.5026  0.3689  0.3436
 6745SOL    HW130914   0.117   9.288   3.627  0.0678  0.0614  1.2809
 6745SOL    HW230915   0.260   9.364   3.652  0.0815  1.1610 -1.8990
 6746SOL     OW30916   8.036   9.911   3.490 -0.2022  0.0046 -0.1838
 6746SOL    HW130917   7.971   9.881   3.420  0.6279  0.7361 -1.2959
 6746SOL    HW230918   8.040  10.011   3.491 -1.0116  0.0273  1.6799
 6747SOL     OW30919   2.442   1.935   2.224  0.3206 -0.3726  0.0576
 6747SOL    HW130920   2.539   1.955   2.212  0.4130 -0.1559  1.1615
 6747SOL    HW230921   2.419   1.933   2.321 -0.7394 -0.6313 -0.1837
 6748SOL     OW30922   7.726   3.210   3.845  0.0568 -0.0286  0.5826
 6748SOL    HW130923   7.821   3.200   3.814 -0.3204  0.7038 -0.8499
 6748SOL    HW230924   7.706   3.306   3.864 -0.0246 -0.3403  2.1693
 6749SOL     OW30925   5.539   1.953   1.363 -0.6385  0.4426 -0.3791
 6749SOL    HW130926   5.463   1.970   1.300  0.5971  1.2064 -1.7023
 6749SOL    HW230927   5.594   1.876   1.329 -0.8189 -0.1133  0.5724
 6750SOL     OW30928   0.777   7.026   0.101 -0.0445 -0.3100  0.4633
 6750SOL    HW130929   0.691   6.981   0.075 -0.2581  1.2809 -1.8190
 6750SOL    HW230930   0.796   7.010   0.197 -3.2855 -0.1469  1.1945
 6751SOL     OW30931   8.963   4.514   2.598 -0.3993  1.1731  0.1170
 6751SOL    HW130932   8.925   4.571   2.671 -1.8242  0.7934 -0.3288
 6751SOL    HW230933   8.943   4.418   2.616 -2.6198  1.2166 -1.8164
 6752SOL     OW30934   9.321   5.591   4.354  0.0212  0.0089  0.0925
 6752SOL    HW130935   9.282   5.500   4.366 -1.2079  0.5819  0.5268
 6752SOL    HW230936   9.375   5.593   4.270 -0.7736 -0.8278 -0.4432
 6753SOL     OW30937   3.297   2.525   4.028 -0.1276  0.2840 -0.0557
 6753SOL    HW130938   3.324   2.557   4.119 -0.7098 -2.8116  1.2614
 6753SOL    HW230939   3.372   2.474   3.987  0.5973  2.7481 -1.9141
 6754SOL     OW30940   1.397   5.231   3.091  0.2254  0.5314 -0.1173
 6754SOL    HW130941   1.407   5.286   3.174 -0.6184  1.1971 -0.4536
 6754SOL    HW230942   1.320   5.265   3.038 -1.2505 -1.8927  0.3956
 6755SOL     OW30943   4.224   9.797   3.659 -0.3527  0.8874  0.0150
 6755SOL    HW130944   4.224   9.707   3.704 -0.7458  0.7785 -0.1999
 6755SOL    HW230945   4.281   9.860   3.712 -2.2477  1.2515  1.6715
 6756SOL     OW30946   1.379   6.297   0.261  0.3560 -0.2969 -0.0491
 6756SOL    HW130947   1.297   6.289   0.204 -0.5597 -0.2132  1.2524
 6756SOL    HW230948   1.390   6.391   0.291 -0.2357 -0.7114  1.4944
 6757SOL     OW30949   7.326   0.816   3.428 -0.6607  0.0831  0.2060
 6757SOL    HW130950   7.393   0.840   3.499 -0.9913 -0.8744  0.8460
 6757SOL    HW230951   7.362   0.742   3.372 -0.3687  0.8921 -0.6918
 6758SOL     OW30952   4.305   8.336   2.588 -0.6701  0.6440 -0.1375
 6758SOL    HW130953   4.221   8.388   2.603 -0.7202  0.2431  0.9716
 6758SOL    HW230954   4.327   8.282   2.669 -0.4436 -0.8267 -1.1581
 6759SOL     OW30955   3.538   1.289   1.793  0.4420  0.4537  0.1643
 6759SOL    HW130956   3.577   1.345   1.866 -0.1149 -1.2352  1.8131
 6759SOL    HW230957   3.581   1.198   1.794  1.3345  0.8011 -2.4472
 6760SOL     OW30958   9.808   8.840   2.642  0.2815  0.4864 -0.1324
 6760SOL    HW130959   9.739   8.904   2.606 -0.0421 -0.0912 -0.5499
 6760SOL    HW230960   9.805   8.841   2.742  0.4769  1.3345 -0.1282
 6761SOL     OW30961   7.141   9.669   0.031 -0.3042 -0.2107  0.8687
 6761SOL    HW130962   7.103   9.628  -0.052 -1.1603 -0.6920  1.4867
 6761SOL    HW230963   7.240   9.678   0.022 -0.2828 -1.1361  0.1674
 6762SOL     OW30964   8.860   7.316   0.725  0.4413  0.0007 -0.1918
 6762SOL    HW130965   8.900   7.375   0.795 -0.0411  0.6146 -0.4345
 6762SOL    HW230966   8.821   7.372   0.652  2.0407 -0.6256 -1.5805
 6763SOL     OW30967   2.946   6.908   4.387 -0.1047 -0.1750 -0.3941
 6763SOL    HW130968   2.987   6.852   4.315 -0.9118 -1.3857  0.0667
 6763SOL    HW230969   2.858   6.868   4.414 -0.6026  1.2132  0.0881
 6764SOL     OW30970   0.150   4.220   4.113 -0.6812 -0.7257 -0.2926
 6764SOL    HW130971   0.105   4.209   4.201  0.6400 -1.1000  0.3458
 6764SOL    HW230972   0.218   4.294   4.119  0.0294 -1.3297 -0.7399
 6765SOL     OW30973   0.386   2.624   0.242  0.1764 -0.1457  0.0292
 6765SOL    HW130974   0.384   2.704   0.182  0.6453 -0.7945 -0.8630
 6765SOL    HW230975   0.294   2.606   0.276 -0.3489 -0.5883 -1.5903
 6766SOL     OW30976   8.701   1.366   1.803 -0.3779 -0.3119 -0.4190
 6766SOL    HW130977   8.661   1.275   1.812  0.3873 -0.5076  1.3039
 6766SOL    HW230978   8.636   1.428   1.759 -3.0449 -0.3091  3.3240
 6767SOL     OW30979   9.246   4.289   0.903  0.2405 -0.2621  0.5107
 6767SOL    HW130980   9.327   4.246   0.865  0.0908 -1.2860  1.3368
 6767SOL    HW230981   9.172   4.222   0.909 -1.2708  1.0708 -1.9294
 6768SOL     OW30982   0.393   2.251   1.849  0.1632  0.1980  0.0720
 6768SOL    HW130983   0.450   2.190   1.794 -0.0053  1.4264 -1.4894
 6768SOL    HW230984   0.321   2.289   1.792 -0.1490  1.3164  1.2001
 6769SOL     OW30985   0.987   7.374   2.482  0.3068  0.1344  0.7847
 6769SOL    HW130986   1.083   7.385   2.454 -0.0719 -1.8975 -1.4634
 6769SOL    HW230987   0.940   7.462   2.472  1.5965  0.8200  0.5629
 6770SOL     OW30988   8.610   1.126   0.778  0.2625 -0.0553 -0.4265
 6770SOL    HW130989   8.623   1.055   0.846 -0.1071  0.3303  0.0530
 6770SOL    HW230990   8.526   1.108   0.727 -0.2607  0.4739  0.2418
 6771SOL     OW30991   8.680   4.869   0.250 -0.1252 -0.4050 -0.2529
 6771SOL    HW130992   8.689   4.827   0.159  1.8692 -0.5063 -0.0182
 6771SOL    HW230993   8.705   4.803   0.320  1.6228  0.7117  0.1930
 6772SOL     OW30994   3.320   4.880   2.665  0.2629 -0.0230 -0.1727
 6772SOL    HW130995   3.401   4.829   2.693  0.3484 -0.5917 -1.3959
 6772SOL    HW230996   3.259   4.892   2.743 -0.4087 -3.2378 -0.1099
 6773SOL     OW30997   2.024   5.661   1.474 -0.3956  0.3221 -0.5608
 6773SOL    HW130998   1.955   5.601   1.432  1.4042 -0.9923 -1.7088
 6773SOL    HW230999   2.050   5.623   1.563 -0.6181  0.4176 -0.4549
 6774SOL     OW31000   2.779   5.358   2.744  0.5925 -0.2311  0.2904
 6774SOL    HW131001   2.864   5.387   2.788  1.4010 -0.5170 -1.0397
 6774SOL    HW231002   2.772   5.259   2.746  0.8452 -0.2730 -0.5774
 6775SOL     OW31003   8.652   9.661   1.973 -0.1784 -0.4179  0.5334
 6775SOL    HW131004   8.587   9.728   2.007  0.7596  0.2054  1.1056
 6775SOL    HW231005   8.603   9.579   1.943 -1.2819  0.3366  0.2554
 6776SOL     OW31006   3.212   2.093   2.147 -0.3116  0.4116  0.4727
 6776SOL    HW131007   3.219   2.027   2.072  1.8177  1.0217  0.0918
 6776SOL    HW231008   3.264   2.060   2.226  0.1994  1.2897  0.5152
 6777SOL     OW31009   3.379   7.424   2.226 -0.1384 -0.5385  0.3921
 6777SOL    HW131010   3.300   7.373   2.191 -0.6831  1.0011 -0.7115
 6777SOL    HW231011   3.349   7.486   2.299 -0.0561  0.4154 -0.3736
 6778SOL     OW31012   1.589   3.691   2.271  0.1824  0.3290 -0.2187
 6778SOL    HW131013   1.521   3.763   2.258 -0.3080  0.2695  1.9078
 6778SOL    HW231014   1.660   3.699   2.200 -0.6041  2.0379 -0.8332
 6779SOL     OW31015   2.252   1.853   2.042 -0.4126 -0.5907  0.4316
 6779SOL    HW131016   2.214   1.766   2.072  0.1640 -0.5941  1.1737
 6779SOL    HW231017   2.302   1.895   2.118 -1.2376  0.6889  0.2855
 6780SOL     OW31018   0.270   5.951   2.353 -0.8881  0.0049 -0.0651
 6780SOL    HW131019   0.200   5.881   2.373 -0.4396 -0.5584 -0.4559
 6780SOL    HW231020   0.354   5.929   2.402 -0.2242 -0.6250 -1.4603
 6781SOL     OW31021   8.601   4.472   0.202 -0.2225 -0.1239 -0.0886
 6781SOL    HW131022   8.560   4.387   0.170 -0.7054  0.0632  0.0426
 6781SOL    HW231023   8.696   4.477   0.169 -0.7743  0.1688 -1.6722
 6782SOL     OW31024   3.243   0.973   1.026 -0.2633 -0.7222 -0.4281
 6782SOL    HW131025   3.285   0.924   0.949 -3.1273 -1.7351 -1.4135
 6782SOL    HW231026   3.201   1.057   0.993 -0.5839 -0.6268  0.2229
 6783SOL     OW31027   9.220   8.637   0.722  0.2353 -0.2657 -0.6639
 6783SOL    HW131028   9.273   8.602   0.646  1.4330 -0.3730  0.2101
 6783SOL    HW231029   9.247   8.591   0.807 -1.3166 -0.4061 -0.2132
 6784SOL     OW31030   0.686   7.038   0.692 -0.0559  0.1368 -0.1250
 6784SOL    HW131031   0.661   7.012   0.599  0.0627 -1.2164  0.2152
 6784SOL    HW231032   0.646   7.128   0.713  0.5882  0.8258 -1.7443
 6785SOL     OW31033   2.622   8.690   1.055  0.1770  0.1002  0.2942
 6785SOL    HW131034   2.644   8.788   1.060  0.8100  0.0022 -0.4997
 6785SOL    HW231035   2.524   8.678   1.071  0.0269  0.8966  0.0220
 6786SOL     OW31036   9.175   0.031   2.667  0.0353 -0.0951  0.2474
 6786SOL    HW131037   9.168  -0.040   2.597 -2.4078 -2.0346  2.3694
 6786SOL    HW231038   9.268   0.032   2.704  0.7204 -0.5689 -1.4209
 6787SOL     OW31039   9.966   3.216   2.360  0.2535  0.7620 -0.2653
 6787SOL    HW131040   9.972   3.160   2.443  0.4708  1.8278  0.4473
 6787SOL    HW231041  10.059   3.234   2.326  0.1017 -1.8428 -2.2437
 6788SOL     OW31042   1.749   3.666   2.034 -0.6807 -0.0201 -0.0514
 6788SOL    HW131043   1.698   3.688   1.951 -0.3925  1.2533  0.0873
 6788SOL    HW231044   1.835   3.718   2.034  0.1549 -1.3794  0.1904
 6789SOL     OW31045   8.926   5.058   2.101  0.8773 -0.4270  0.3585
 6789SOL    HW131046   8.849   5.118   2.126  0.8766  0.4195 -1.5854
 6789SOL    HW231047   8.993   5.057   2.175  0.0798  0.6758  1.1035
 6790SOL     OW31048   1.530   0.762   3.712 -0.0410 -0.2056  0.0075
 6790SOL    HW131049   1.595   0.695   3.748  1.1900 -0.0688 -1.9225
 6790SOL    HW231050   1.497   0.819   3.787  0.2694 -1.7955  1.3846
 6791SOL     OW31051   0.287   7.547   0.895  0.4243 -0.4595  0.0798
 6791SOL    HW131052   0.191   7.577   0.893  0.0693 -1.4366  1.4294
 6791SOL    HW231053   0.328   7.572   0.983  1.2462 -0.5382 -0.2773
 6792SOL     OW31054   3.870   7.475   2.464  0.4282  0.0902  0.5516
 6792SOL    HW131055   3.926   7.482   2.381 -0.2424  1.3367  0.1918
 6792SOL    HW231056   3.774   7.475   2.439  0.2070  1.2657  1.3852
 6793SOL     OW31057   2.014   5.847   1.800  0.3246  0.2496 -0.1198
 6793SOL    HW131058   2.014   5.801   1.889  1.5856 -1.4639 -0.9582
 6793SOL    HW231059   1.954   5.798   1.737 -0.7421  1.5889 -0.1633
 6794SOL     OW31060   8.873   8.730   3.700  0.3427 -0.2779 -0.0899
 6794SOL    HW131061   8.960   8.711   3.655 -0.0293  0.1533 -1.0055
 6794SOL    HW231062   8.883   8.719   3.799  1.3366 -0.5925 -0.2247
 6795SOL     OW31063   3.607   1.676   2.683 -0.2554  0.0062  0.2550
 6795SOL    HW131064   3.692   1.657   2.635 -1.5698 -1.2358 -1.6307
 6795SOL    HW231065   3.574   1.767   2.657 -0.9283 -0.6363 -1.1685
 6796SOL     OW31066   4.078   7.313   3.604  0.1114  0.1375  0.2225
 6796SOL    HW131067   4.050   7.381   3.672  1.1437  1.0235 -0.2221
 6796SOL    HW231068   3.997   7.265   3.569 -0.8174  2.3660 -0.7510
 6797SOL     OW31069   0.794   6.646   1.241 -0.5633 -0.5780 -0.0600
 6797SOL    HW131070   0.740   6.569   1.275  0.2525 -1.4364 -0.7045
 6797SOL    HW231071   0.796   6.718   1.311 -0.8273 -1.3832  0.7854
 6798SOL     OW31072   0.030   5.018   1.731 -0.8457 -0.0134  0.3043
 6798SOL    HW131073   0.026   4.954   1.807 -3.6203 -0.4034 -0.1016
 6798SOL    HW231074   0.085   4.978   1.657 -0.7415 -0.9905  0.8942
 6799SOL     OW31075   7.652   8.917   0.441  0.5995  0.3491 -0.4157
 6799SOL    HW131076   7.625   8.975   0.518  1.1898 -1.9423  1.5698
 6799SOL    HW231077   7.575   8.909   0.377 -0.8816 -0.0756  1.3917
 6800SOL     OW31078   6.226   0.209   1.878  0.0287 -0.2668  0.8254
 6800SOL    HW131079   6.166   0.268   1.824 -0.6711 -2.1877 -0.5516
 6800SOL    HW231080   6.211   0.226   1.975 -1.7592  0.2332  0.4831
 6801SOL     OW31081   6.373   9.488   2.786 -0.2207  0.0782  0.4154
 6801SOL    HW131082   6.388   9.548   2.708 -0.4091  1.3349  1.3276
 6801SOL    HW231083   6.283   9.507   2.826  0.2650  0.1024  1.5072
 6802SOL     OW31084   9.671   3.288   1.147 -0.3268 -1.0863  0.0878
 6802SOL    HW131085   9.707   3.281   1.240  0.2752  0.2759 -0.0214
 6802SOL    HW231086   9.731   3.238   1.085  1.8490  1.7174 -0.1894
 6803SOL     OW31087   2.255   8.660   0.063  0.0387 -0.5838 -0.4741
 6803SOL    HW131088   2.224   8.755   0.060 -0.8764 -0.8497  0.3194
 6803SOL    HW231089   2.313   8.642  -0.016  1.1949  0.9593 -0.0223
 6804SOL     OW31090   2.321   4.761   2.918 -0.4342  0.5762  0.3719
 6804SOL    HW131091   2.359   4.831   2.858 -0.7258 -0.2743 -0.8133
 6804SOL    HW231092   2.359   4.773   3.010  0.3927  1.5791 -0.0806
 6805SOL     OW31093   1.465   2.626   4.006 -0.6157  0.1678 -0.5681
 6805SOL    HW131094   1.461   2.722   3.978 -1.1012  0.3595  0.1134
 6805SOL    HW231095   1.560   2.599   4.021 -0.4690  0.5039 -0.8940
 6806SOL     OW31096   0.353   9.207   1.432 -0.3242 -0.0157  0.1536
 6806SOL    HW131097   0.448   9.204   1.400 -0.8019 -0.0725 -1.3059
 6806SOL    HW231098   0.339   9.137   1.503  1.1610  1.1625  1.6495
 6807SOL     OW31099   3.194   2.595   3.090  0.3072 -0.2900  0.0170
 6807SOL    HW131100   3.231   2.640   3.008  1.4700  0.3256  0.8586
 6807SOL    HW231101   3.201   2.658   3.167  1.1416 -1.6064  1.0243
 6808SOL     OW31102   1.070   0.217   3.218 -0.4984 -0.1586  0.1142
 6808SOL    HW131103   1.125   0.186   3.296 -0.5733 -1.5351 -0.3545
 6808SOL    HW231104   1.055   0.316   3.224  1.7262  0.1726  0.4305
 6809SOL     OW31105   0.403   2.777   2.021  0.7839  0.0231 -0.0052
 6809SOL    HW131106   0.378   2.838   2.097  0.4412 -0.2330  0.0883
 6809SOL    HW231107   0.343   2.697   2.021  2.9331 -1.6300  1.4504
 6810SOL     OW31108   6.799   8.584   2.549 -0.1215 -0.1642 -0.0676
 6810SOL    HW131109   6.731   8.654   2.568 -0.5103 -0.5935  0.1137
 6810SOL    HW231110   6.848   8.607   2.465 -2.2341 -1.1823 -1.6132
 6811SOL     OW31111   2.666   0.245   1.598  0.0098  0.0299  0.5961
 6811SOL    HW131112   2.569   0.268   1.587  0.3487  1.4321  0.3843
 6811SOL    HW231113   2.685   0.226   1.694 -0.3641  0.2962  0.7246
 6812SOL     OW31114   8.276   5.230   4.425 -0.8079  0.3781 -0.1730
 6812SOL    HW131115   8.299   5.181   4.510 -0.6173  0.1707 -0.3452
 6812SOL    HW231116   8.304   5.176   4.346 -0.6398  0.7430 -0.3675
 6813SOL     OW31117   8.812   0.372   1.624  0.0676  0.3984 -0.0653
 6813SOL    HW131118   8.855   0.320   1.550  0.1158 -0.8524  0.8277
 6813SOL    HW231119   8.872   0.447   1.651 -0.4284  1.5206 -2.0153
 6814SOL     OW31120   7.686   4.687   4.163  0.5190 -0.1546  0.4943
 6814SOL    HW131121   7.683   4.713   4.259  0.7289  0.9705  0.1949
 6814SOL    HW231122   7.627   4.607   4.148  1.4872 -1.1259  1.7993
 6815SOL     OW31123   0.588   9.727   2.635  0.0747 -0.2343 -0.2586
 6815SOL    HW131124   0.496   9.759   2.617 -0.3962 -2.1553 -1.4559
 6815SOL    HW231125   0.637   9.717   2.549  0.5883 -1.5525  0.1702
 6816SOL     OW31126   8.595   0.997   2.017  0.2298  0.0726  0.3421
 6816SOL    HW131127   8.623   1.093   2.026 -1.1540  0.5493 -0.2922
 6816SOL    HW231128   8.674   0.938   2.032  0.9842  1.2929  1.2663
 6817SOL     OW31129   8.796   0.848   2.408 -0.4702  0.2459 -0.1597
 6817SOL    HW131130   8.864   0.860   2.336 -0.4005 -1.9713 -0.5006
 6817SOL    HW231131   8.709   0.818   2.368 -0.3212 -1.3935  0.6815
 6818SOL     OW31132   0.430   3.087   1.848 -0.6439  0.0343 -0.6537
 6818SOL    HW131133   0.438   2.994   1.811 -0.9172  0.9114 -2.9630
 6818SOL    HW231134   0.516   3.113   1.892 -0.2006 -0.9054 -0.9564
 6819SOL     OW31135   3.406   1.813   3.458  0.3094  0.2352 -0.3843
 6819SOL    HW131136   3.370   1.725   3.427  1.0588 -0.6250  1.1231
 6819SOL    HW231137   3.503   1.821   3.433  0.3196  0.5006 -0.2697
 6820SOL     OW31138   1.402   9.865   2.398 -0.3265  0.4633  0.0814
 6820SOL    HW131139   1.367   9.774   2.378  1.8147 -0.3515 -0.1251
 6820SOL    HW231140   1.326   9.930   2.402 -1.9346 -1.4016  0.7286
 6821SOL     OW31141   8.358   2.080   2.526 -0.0395  0.5807  0.4875
 6821SOL    HW131142   8.410   2.151   2.574 -1.1204  0.9667  1.1204
 6821SOL    HW231143   8.418   2.029   2.465  0.4433  3.1571 -1.2729
 6822SOL     OW31144   0.315   4.473   1.577 -0.4286  0.0947 -0.4390
 6822SOL    HW131145   0.266   4.439   1.658 -0.3775  0.8597 -0.0878
 6822SOL    HW231146   0.251   4.479   1.501 -1.3007  2.6741  0.4444
 6823SOL     OW31147   1.949   9.111   0.277 -0.5392 -0.3920 -0.3916
 6823SOL    HW131148   1.868   9.124   0.220 -0.7465  1.0013  0.2076
 6823SOL    HW231149   2.027   9.159   0.235  0.0255 -1.8777 -1.0612
 6824SOL     OW31150   3.639   0.455   4.328 -0.9778  0.2343  0.5062
 6824SOL    HW131151   3.548   0.479   4.295 -0.1607  0.5264 -1.6376
 6824SOL    HW231152   3.649   0.355   4.330 -0.4811  0.2267 -1.7712
 6825SOL     OW31153   8.380   2.469   3.741 -0.2223 -0.3515 -0.2523
 6825SOL    HW131154   8.326   2.551   3.722  0.5327  0.4704  1.0796
 6825SOL    HW231155   8.464   2.472   3.687  0.0026 -0.0222  0.1068
 6826SOL     OW31156   1.797   8.565   3.917 -0.1602  0.6283  0.2618
 6826SOL    HW131157   1.707   8.554   3.875 -0.6159  0.3091  1.3085
 6826SOL    HW231158   1.832   8.476   3.946 -1.3334  1.1564  3.5591
 6827SOL     OW31159   1.294   1.648   0.683  0.1005 -0.0059  0.3672
 6827SOL    HW131160   1.333   1.614   0.769 -1.7482  1.2147  1.7210
 6827SOL    HW231161   1.296   1.747   0.682 -3.2177  0.1172  0.6276
 6828SOL     OW31162   1.681   8.167   0.009 -0.5924  0.3074 -0.4544
 6828SOL    HW131163   1.749   8.238  -0.008 -1.6216  1.2848 -0.4919
 6828SOL    HW231164   1.661   8.163   0.107 -0.7303  0.2376 -0.4851
 6829SOL     OW31165   9.128   1.234   0.048  0.4610  0.0438 -0.0668
 6829SOL    HW131166   9.122   1.238   0.148  0.8537 -0.1292 -0.0363
 6829SOL    HW231167   9.076   1.155   0.016  1.5855 -0.7761  0.1139
 6830SOL     OW31168   8.552   2.746   3.226  0.3867 -0.0927  0.3192
 6830SOL    HW131169   8.607   2.759   3.309  1.4677  1.5449 -0.6348
 6830SOL    HW231170   8.505   2.831   3.204  1.1307 -0.1273 -1.4718
 6831SOL     OW31171   0.758   3.733   1.662 -0.4230  0.1869  0.2846
 6831SOL    HW131172   0.836   3.710   1.604 -1.3792  1.4913 -1.5865
 6831SOL    HW231173   0.692   3.658   1.661 -0.4080  0.1758 -0.2930
 6832SOL     OW31174   0.096   5.314   1.297 -0.4765  0.2255 -0.5921
 6832SOL    HW131175   0.041   5.370   1.359 -0.4778  0.0167 -0.4065
 6832SOL    HW231176   0.046   5.300   1.211 -0.4273  0.6083 -0.6861
 6833SOL     OW31177   4.322   6.700   3.395  0.1743 -0.0068 -0.9463
 6833SOL    HW131178   4.310   6.640   3.474  1.4354  0.5144 -0.3452
 6833SOL    HW231179   4.333   6.794   3.427 -0.2031  0.3230 -1.7942
 6834SOL     OW31180   9.012   7.190   3.494 -0.4569 -0.1141 -0.0092
 6834SOL    HW131181   8.983   7.215   3.586  2.3898 -1.5458  1.3446
 6834SOL    HW231182   9.055   7.100   3.495  0.0574  0.0388 -2.6557
 6835SOL     OW31183   2.903   1.594   0.178  0.2118  0.0474  0.1521
 6835SOL    HW131184   2.968   1.518   0.171 -1.2085 -1.2120  0.3436
 6835SOL    HW231185   2.934   1.670   0.121  2.1261 -0.3174  0.6670
 6836SOL     OW31186   1.913   6.788   2.045  0.4699  0.0466 -0.6490
 6836SOL    HW131187   1.951   6.874   2.080 -2.3530  1.9106 -2.0513
 6836SOL    HW231188   1.877   6.734   2.121 -0.7163  1.6084 -0.0875
 6837SOL     OW31189   5.325   3.393   2.413  0.3327  0.3921  0.5437
 6837SOL    HW131190   5.226   3.379   2.408  0.3982 -0.5775  1.7571
 6837SOL    HW231191   5.369   3.349   2.334 -0.1648  0.5372  0.1816
 6838SOL     OW31192   9.629   8.103   2.330 -0.2272 -0.0577  0.5608
 6838SOL    HW131193   9.538   8.069   2.355  0.3908 -2.1160  0.0903
 6838SOL    HW231194   9.677   8.131   2.413 -0.3665 -1.3418  1.0897
 6839SOL     OW31195   0.667   2.066   1.764 -0.6540 -0.5725  0.5710
 6839SOL    HW131196   0.708   2.076   1.673 -1.2327 -1.7560  0.1643
 6839SOL    HW231197   0.698   2.140   1.823 -0.0442  0.0507 -0.5103
 6840SOL     OW31198   3.637   0.082   0.177 -0.4286 -0.3154 -0.2125
 6840SOL    HW131199   3.538   0.068   0.189 -0.8207  1.0011 -1.7766
 6840SOL    HW231200   3.655   0.113   0.084  1.2925  1.0875  0.5746
 6841SOL     OW31201   9.396   4.521   4.412 -0.4733 -0.5636  0.7238
 6841SOL    HW131202   9.297   4.524   4.423 -0.6430 -3.0862  0.2607
 6841SOL    HW231203   9.435   4.465   4.486  0.7506  1.5603  1.7078
 6842SOL     OW31204   1.260   3.771   2.556  0.1994 -0.5422 -0.1241
 6842SOL    HW131205   1.334   3.703   2.546 -0.6194 -1.5145  0.2813
 6842SOL    HW231206   1.184   3.745   2.497 -0.4239 -0.4083  0.6173
 6843SOL     OW31207   4.100   6.708   2.413 -0.6389 -0.0244  0.2714
 6843SOL    HW131208   4.079   6.630   2.354  0.3424  0.5009 -0.7820
 6843SOL    HW231209   4.020   6.729   2.470 -0.3166 -2.9645  1.9336
 6844SOL     OW31210   2.463   7.958   1.693  0.0050 -0.4266 -0.4065
 6844SOL    HW131211   2.538   7.914   1.743 -0.2644 -1.8211 -1.2105
 6844SOL    HW231212   2.408   7.888   1.647 -2.1557  0.5388  0.6666
 6845SOL     OW31213   2.840   4.161   1.048 -0.3179  0.4465  0.5095
 6845SOL    HW131214   2.938   4.180   1.057  0.0050 -0.1227 -1.5425
 6845SOL    HW231215   2.809   4.107   1.127 -0.0269  4.4863  3.5038
 6846SOL     OW31216   8.429   4.564   3.917 -0.1059 -0.0662  0.0755
 6846SOL    HW131217   8.456   4.470   3.898  0.5931  0.0379  0.5552
 6846SOL    HW231218   8.484   4.601   3.991  1.7384  1.7448 -2.1144
 6847SOL     OW31219   1.422   3.755   1.025  0.4065 -0.0702  0.3353
 6847SOL    HW131220   1.512   3.734   1.064  0.6600 -1.3264 -0.8765
 6847SOL    HW231221   1.427   3.841   0.975  1.2300 -0.6612 -0.6214
 6848SOL     OW31222   1.332   8.824   2.992  0.7199  0.4844 -0.1259
 6848SOL    HW131223   1.320   8.914   2.951 -2.9250  0.3700  0.4505
 6848SOL    HW231224   1.244   8.793   3.029  2.2904 -2.5566  1.2370
 6849SOL     OW31225   9.459   6.726   0.679 -0.0465 -0.0357  0.0121
 6849SOL    HW131226   9.541   6.727   0.736  0.0609  0.5158 -0.1487
 6849SOL    HW231227   9.383   6.767   0.729  0.2072  1.0403 -0.4713
 6850SOL     OW31228   6.930   0.745   2.551  0.0393 -0.6704  0.3059
 6850SOL    HW131229   6.839   0.751   2.591 -0.0206 -0.2150  0.1092
 6850SOL    HW231230   6.997   0.788   2.612 -0.0922  0.2636 -0.1932
 6851SOL     OW31231   6.161   9.295   3.362 -0.1052  0.1487 -0.0603
 6851SOL    HW131232   6.177   9.265   3.268  1.7000  0.1455  0.2200
 6851SOL    HW231233   6.064   9.316   3.375 -0.4696 -0.4372 -1.7446
 6852SOL     OW31234   2.781   9.101   4.358 -1.1129 -0.0975 -0.5238
 6852SOL    HW131235   2.696   9.152   4.346 -2.0136 -1.0665  1.6071
 6852SOL    HW231236   2.859   9.164   4.349 -2.1771  1.5249  1.3637
 6853SOL     OW31237   0.107   0.154   0.021 -0.0232 -0.3178 -0.0799
 6853SOL    HW131238   0.138   0.088  -0.047  0.2246  2.3148 -2.6518
 6853SOL    HW231239   0.170   0.154   0.099  0.7610 -2.0975 -0.6949
 6854SOL     OW31240   4.168   0.874   3.741  0.4217  0.2537 -0.2245
 6854SOL    HW131241   4.078   0.917   3.753  1.4214  2.6973 -1.0662
 6854SOL    HW231242   4.182   0.853   3.645  0.8854  0.2113 -0.1463
 6855SOL     OW31243   9.083   6.627   0.353 -0.2875 -0.2412 -0.0103
 6855SOL    HW131244   9.135   6.589   0.430  0.7771  2.1022  0.4592
 6855SOL    HW231245   9.146   6.647   0.278 -0.6223  1.7089  0.2051
 6856SOL     OW31246   3.454   0.579   3.540 -0.4511  0.0830 -0.2342
 6856SOL    HW131247   3.479   0.671   3.572  0.4289 -0.5720  1.0068
 6856SOL    HW231248   3.387   0.539   3.603 -0.2210 -0.4439 -0.3242
 6857SOL     OW31249   5.226   7.914   2.357  0.0895  0.5056  0.6812
 6857SOL    HW131250   5.245   7.852   2.433 -0.7120  0.3250  0.7383
 6857SOL    HW231251   5.205   8.005   2.393  2.0425  1.0286  0.5641
 6858SOL     OW31252   9.979   7.347   1.991  0.3719 -0.1488 -0.5866
 6858SOL    HW131253   9.882   7.340   1.968  0.0554  0.8867  0.3756
 6858SOL    HW231254  10.027   7.394   1.917 -0.5496  2.7382  0.5655
 6859SOL     OW31255   0.161   3.618   0.820  0.1515  0.0305  0.3268
 6859SOL    HW131256   0.212   3.542   0.860 -1.2573  0.0968  2.3608
 6859SOL    HW231257   0.107   3.663   0.892 -1.3852  1.0485 -1.4191
 6860SOL     OW31258   9.975   5.329   3.151 -0.0404  0.3726  0.0011
 6860SOL    HW131259  10.030   5.294   3.227 -1.2411 -1.1062  0.2076
 6860SOL    HW231260  10.033   5.338   3.069  0.8636  0.3769  0.6323
 6861SOL     OW31261   1.127   9.752   0.462  0.2851 -0.4049  0.0168
 6861SOL    HW131262   1.190   9.675   0.465  0.2182 -0.4120  1.8868
 6861SOL    HW231263   1.035   9.719   0.437  0.4154 -0.8109  0.0805
 6862SOL     OW31264   4.369   7.833   4.439  0.3912 -0.1355 -0.4544
 6862SOL    HW131265   4.459   7.797   4.415  0.0622 -1.2417 -0.0294
 6862SOL    HW231266   4.299   7.789   4.382 -0.0239 -0.2650  0.1587
 6863SOL     OW31267   8.542   0.815   2.243 -0.2388  0.3479  0.4064
 6863SOL    HW131268   8.467   0.879   2.228 -0.5740  0.0195  0.7013
 6863SOL    HW231269   8.526   0.732   2.189  0.0924  0.4193  0.1909
 6864SOL     OW31270   8.560   6.103   3.351 -0.1563 -0.4262  0.4496
 6864SOL    HW131271   8.648   6.103   3.305 -0.8922  0.2511 -0.9533
 6864SOL    HW231272   8.520   6.194   3.350  0.3504 -0.1179  3.4828
 6865SOL     OW31273   7.870   4.048   3.808 -0.0006  0.4782 -0.8011
 6865SOL    HW131274   7.828   4.138   3.821  1.5480  1.1473 -0.2629
 6865SOL    HW231275   7.964   4.060   3.774  0.4884 -0.8981  0.0259
 6866SOL     OW31276   1.673   4.113   3.952 -0.0503  0.4103  0.2373
 6866SOL    HW131277   1.577   4.095   3.930 -0.1956 -1.2060  2.0698
 6866SOL    HW231278   1.680   4.147   4.046  1.4531 -3.1399  1.5004
 6867SOL     OW31279   9.798   8.666   4.006  0.1612  0.2650 -0.0666
 6867SOL    HW131280   9.791   8.719   4.090 -1.2284  0.8906 -0.5695
 6867SOL    HW231281   9.844   8.579   4.025 -1.0424 -0.0337  1.5438
 6868SOL     OW31282   4.297   1.725   2.556  0.2866 -0.0627  0.7273
 6868SOL    HW131283   4.258   1.651   2.502  0.7705 -0.8745  1.4652
 6868SOL    HW231284   4.333   1.688   2.642  0.8167  0.9792  0.9673
 6869SOL     OW31285   1.107   0.329   1.797 -0.1291 -0.0688  0.2141
 6869SOL    HW131286   1.190   0.368   1.836  1.1328 -1.5096 -0.9709
 6869SOL    HW231287   1.124   0.234   1.771 -1.5318  0.2327 -1.9350
 6870SOL     OW31288   0.135   5.997   0.416  0.3240 -0.2500  0.4887
 6870SOL    HW131289   0.174   6.041   0.336 -1.8671 -0.1404 -0.5551
 6870SOL    HW231290   0.128   6.064   0.491 -1.7497  0.8678 -0.6642
 6871SOL     OW31291   4.856   3.446   0.078  0.2290  0.6695  0.5017
 6871SOL    HW131292   4.838   3.543   0.061  1.2055  0.6457 -0.7304
 6871SOL    HW231293   4.777   3.392   0.048  0.6431  0.8917 -0.9943
 6872SOL     OW31294   9.242   6.365   0.767 -0.0320  0.1957 -0.1780
 6872SOL    HW131295   9.251   6.368   0.866 -0.5221 -1.9033 -0.0409
 6872SOL    HW231296   9.324   6.324   0.727 -0.6705 -0.8161 -0.4713
 6873SOL     OW31297   9.646   7.273   2.595 -0.7490 -0.1544  0.0202
 6873SOL    HW131298   9.567   7.246   2.540  1.1590 -2.1470 -1.8302
 6873SOL    HW231299   9.719   7.206   2.583  2.0029  2.7567 -0.0326
 6874SOL     OW31300   4.823   6.740   2.700  0.0296  0.0746 -0.6153
 6874SOL    HW131301   4.896   6.763   2.765 -1.0726 -1.1474  1.1116
 6874SOL    HW231302   4.755   6.682   2.746 -0.9915 -0.4761 -2.7714
 6875SOL     OW31303   8.678   2.095   0.720  0.2487 -0.5446  0.1220
 6875SOL    HW131304   8.735   2.177   0.715 -0.7139  0.2269  1.3531
 6875SOL    HW231305   8.605   2.100   0.652 -0.8087  0.4264  1.3075
 6876SOL     OW31306   6.476   8.993   2.692  0.2339 -0.3815 -0.2325
 6876SOL    HW131307   6.402   8.980   2.625  0.9343 -3.7794 -0.3998
 6876SOL    HW231308   6.436   9.002   2.783 -0.4631 -0.8389 -0.4861
 6877SOL     OW31309   2.772   4.089   1.631 -0.0128  0.3494 -0.5318
 6877SOL    HW131310   2.857   4.044   1.656 -0.9618 -0.4176  1.4366
 6877SOL    HW231311   2.782   4.132   1.541  1.6490 -1.7818 -1.4006
 6878SOL     OW31312   1.857   0.274   1.795 -0.1270 -0.3831 -0.1815
 6878SOL    HW131313   1.930   0.207   1.803  0.2016 -0.0130 -0.0708
 6878SOL    HW231314   1.864   0.320   1.707 -0.4989 -0.6665 -0.3581
 6879SOL     OW31315   1.855   9.315   1.880 -0.0021  0.7099 -0.2372
 6879SOL    HW131316   1.799   9.347   1.804 -0.8245 -0.0518  0.0384
 6879SOL    HW231317   1.949   9.300   1.848 -0.0244  1.6794 -0.7740
 6880SOL     OW31318   5.980   9.696   3.944 -0.1343  0.0478 -0.0037
 6880SOL    HW131319   5.919   9.621   3.972 -1.8790  1.7567  0.8838
 6880SOL    HW231320   5.931   9.783   3.952  1.8409  1.2822 -1.1173
 6881SOL     OW31321   8.516   4.038   1.700 -0.0722 -0.6514 -0.0253
 6881SOL    HW131322   8.500   4.114   1.764  1.5031 -1.3181  1.2067
 6881SOL    HW231323   8.430   4.013   1.655 -0.5996  1.8773 -0.4823
 6882SOL     OW31324   3.062   3.118   0.438  0.3100 -0.4348  0.3442
 6882SOL    HW131325   3.035   3.068   0.520 -0.3404  0.6823  0.8309
 6882SOL    HW231326   2.981   3.152   0.391  0.6722 -1.1559 -0.8336
 6883SOL     OW31327   1.061   8.394   4.021 -0.8661  0.5665  0.1931
 6883SOL    HW131328   1.115   8.377   3.939 -2.5236 -0.9598 -0.6016
 6883SOL    HW231329   1.077   8.488   4.052 -0.4012  1.2399 -2.0029
 6884SOL     OW31330   3.971   0.809   1.690  0.4441  0.0750 -0.0872
 6884SOL    HW131331   4.019   0.874   1.749 -0.6896  1.6980 -0.9076
 6884SOL    HW231332   3.957   0.849   1.600 -3.3045  0.0847  0.3929
 6885SOL     OW31333   8.666   5.464   0.582 -0.2619 -0.1687  0.0632
 6885SOL    HW131334   8.585   5.429   0.533  0.9201 -0.9434 -1.3812
 6885SOL    HW231335   8.715   5.527   0.522  0.3180  0.1300  0.8574
 6886SOL     OW31336   0.458   1.600   2.627  0.5201 -0.6956  0.2910
 6886SOL    HW131337   0.475   1.697   2.641 -0.4031 -0.2831 -1.3520
 6886SOL    HW231338   0.398   1.566   2.700 -2.6614  0.9721 -1.4583
 6887SOL     OW31339   4.005   6.665   4.232 -0.2654 -0.4833 -0.7460
 6887SOL    HW131340   4.079   6.702   4.288  0.1790 -2.4798  0.0417
 6887SOL    HW231341   3.955   6.739   4.189  0.2329  1.0314  1.2429
 6888SOL     OW31342   4.631   2.467   2.166  0.4378 -0.0573  0.0145
 6888SOL    HW131343   4.694   2.397   2.132  1.6403  0.8170  0.4371
 6888SOL    HW231344   4.576   2.428   2.240  2.1055 -0.1482  1.2284
 6889SOL     OW31345   4.233   9.455   3.177  0.2065 -0.2342 -0.2314
 6889SOL    HW131346   4.253   9.377   3.236 -3.4692  0.3224  1.8939
 6889SOL    HW231347   4.190   9.422   3.093  1.4116 -0.6821 -0.6936
 6890SOL     OW31348   2.805   4.393   2.667  0.1264 -0.1199 -0.4504
 6890SOL    HW131349   2.735   4.462   2.687  1.0205  0.9085 -0.7828
 6890SOL    HW231350   2.801   4.320   2.736 -1.2849 -0.0929 -0.4887
 6891SOL     OW31351   9.937   6.648   3.692 -0.2152 -0.8928  0.5053
 6891SOL    HW131352   9.859   6.599   3.652 -0.5485  1.3020 -1.6187
 6891SOL    HW231353  10.022   6.604   3.662 -0.5397 -0.8101 -0.5725
 6892SOL     OW31354   5.617   0.814   2.293  0.1704  0.1149 -0.8286
 6892SOL    HW131355   5.690   0.852   2.350 -0.6867 -0.4862  0.6865
 6892SOL    HW231356   5.655   0.741   2.236  0.7168 -0.3447  0.1111
 6893SOL     OW31357   0.171   9.333   3.099 -0.3026  0.7304  0.3922
 6893SOL    HW131358   0.209   9.264   3.037  0.2956 -0.1739  1.7353
 6893SOL    HW231359   0.073   9.342   3.082  0.0178  1.2444 -1.3719
 6894SOL     OW31360   8.878   7.890   2.855  0.3891 -0.4035 -0.0967
 6894SOL    HW131361   8.797   7.925   2.809  1.0921  0.4669 -0.6838
 6894SOL    HW231362   8.933   7.837   2.790  0.8717 -0.0256 -0.0011
 6895SOL     OW31363   5.260   9.256   2.886 -0.3654  0.1774 -0.2241
 6895SOL    HW131364   5.223   9.330   2.829 -1.6354 -1.2801 -1.3416
 6895SOL    HW231365   5.203   9.245   2.967  0.8855  1.6085  0.8860
 6896SOL     OW31366   1.694   9.407   1.667 -0.2811 -0.2423  0.4750
 6896SOL    HW131367   1.731   9.497   1.645  0.9999 -0.8890 -0.0460
 6896SOL    HW231368   1.744   9.337   1.617 -2.8883 -1.0743 -1.0427
 6897SOL     OW31369   0.947   3.872   3.382 -0.0240 -0.4131 -0.5805
 6897SOL    HW131370   0.952   3.776   3.356  0.6644  0.4411 -3.8874
 6897SOL    HW231371   1.033   3.899   3.426 -0.9875 -1.7511  2.2502
 6898SOL     OW31372   8.883   2.593   3.365 -0.0115 -0.0178  0.3185
 6898SOL    HW131373   8.862   2.687   3.391  1.4240 -0.4320  3.1733
 6898SOL    HW231374   8.893   2.587   3.265 -1.8014  2.4764 -0.0351
 6899SOL     OW31375   2.520   2.243   0.140  0.0528 -0.2023  0.2965
 6899SOL    HW131376   2.529   2.193   0.226 -0.4080 -0.2147  0.3370
 6899SOL    HW231377   2.552   2.337   0.153  0.1334 -0.2482  0.4371
 6900SOL     OW31378   1.049   7.806   4.385  0.4146  0.0671 -0.6087
 6900SOL    HW131379   0.979   7.804   4.314 -1.6240  0.9694  1.2897
 6900SOL    HW231380   1.010   7.772   4.471  2.0348  1.4212  0.7037
 6901SOL     OW31381   4.483   3.490   1.893  0.1315 -0.0478 -0.3521
 6901SOL    HW131382   4.525   3.399   1.885 -2.7908 -1.6138  1.4097
 6901SOL    HW231383   4.438   3.513   1.807 -0.6307 -1.0639 -0.2355
 6902SOL     OW31384   1.953   6.121   2.469  0.6025 -0.0293  0.2690
 6902SOL    HW131385   1.971   6.116   2.371 -0.5237 -1.2335  0.1091
 6902SOL    HW231386   2.039   6.117   2.519  1.1578  0.1981 -0.6635
 6903SOL     OW31387   1.547   9.309   2.570  0.1765  0.2634  0.3484
 6903SOL    HW131388   1.487   9.322   2.648 -0.5613  0.8731 -0.3067
 6903SOL    HW231389   1.539   9.388   2.509  0.5627 -0.3148 -0.4592
 6904SOL     OW31390   4.592   9.284   3.177 -0.0898 -0.5387 -0.1152
 6904SOL    HW131391   4.667   9.218   3.187 -0.2104 -0.5648  0.6170
 6904SOL    HW231392   4.510   9.249   3.223 -0.1684  0.1011  0.2440
 6905SOL     OW31393   9.387   8.039   0.678  0.1747 -0.3050 -0.2374
 6905SOL    HW131394   9.449   7.977   0.631 -0.2914 -2.9461  2.4362
 6905SOL    HW231395   9.294   8.004   0.671  0.1157 -0.8341  2.6625
 6906SOL     OW31396   7.099   0.301   2.352  0.3585 -0.0419  0.4443
 6906SOL    HW131397   7.099   0.372   2.423 -1.4200 -0.3425  0.7632
 6906SOL    HW231398   7.079   0.343   2.264  1.5801  0.1853  0.2717
 6907SOL     OW31399   2.991   6.709   3.580 -0.3211  0.3514  0.0520
 6907SOL    HW131400   2.995   6.655   3.664  0.7504 -0.0406 -0.2336
 6907SOL    HW231401   2.967   6.803   3.602 -3.6760 -0.5097  0.4176
 6908SOL     OW31402   2.169   0.404   3.076  0.2480  0.0405 -0.3477
 6908SOL    HW131403   2.154   0.477   3.009 -1.3975  1.3211  1.3568
 6908SOL    HW231404   2.085   0.351   3.086  1.0060 -1.2004 -0.5169
 6909SOL     OW31405   5.593   0.251   2.097 -0.2522 -0.4214 -0.0510
 6909SOL    HW131406   5.523   0.187   2.064  0.9251 -1.5901 -0.3577
 6909SOL    HW231407   5.570   0.344   2.068 -2.8275 -0.4556  1.7551
 6910SOL     OW31408   4.359   3.952   0.584  0.0350  0.0280 -0.1271
 6910SOL    HW131409   4.384   3.942   0.487 -0.5990 -0.3885 -0.2467
 6910SOL    HW231410   4.402   4.035   0.621  0.7896 -0.1501 -0.5972
 6911SOL     OW31411   9.435   1.220   3.929  0.3226 -0.3036 -0.2913
 6911SOL    HW131412   9.376   1.290   3.889  0.2978  0.8903  1.7611
 6911SOL    HW231413   9.531   1.245   3.914  0.3456  1.0928  1.8332
 6912SOL     OW31414   1.721   2.984   1.791 -0.3275 -0.0228  0.1146
 6912SOL    HW131415   1.735   3.083   1.798 -0.5708  0.1821 -2.0470
 6912SOL    HW231416   1.753   2.940   1.875  1.1096  1.7395  0.5134
 6913SOL     OW31417   0.427   9.604   0.931  0.0608 -0.0020 -0.0657
 6913SOL    HW131418   0.437   9.521   0.986 -0.8850  0.3100  0.5885
 6913SOL    HW231419   0.330   9.621   0.914  0.2704  0.7685 -0.5126
 6914SOL     OW31420   7.265   3.538   4.214  0.3520 -0.5662 -0.1279
 6914SOL    HW131421   7.228   3.496   4.296  0.9212 -1.9162 -0.5486
 6914SOL    HW231422   7.365   3.539   4.218  0.3488  0.8876 -0.0616
 6915SOL     OW31423   3.793   3.977   3.085  0.3963  0.0384  0.2856
 6915SOL    HW131424   3.848   3.894   3.095  0.7023  0.2244  0.1416
 6915SOL    HW231425   3.829   4.048   3.145 -0.6450 -0.3245  1.3901
 6916SOL     OW31426   4.954   8.824   3.648 -0.2246 -0.4134 -0.1655
 6916SOL    HW131427   4.885   8.776   3.595  0.4425 -0.1346 -1.3268
 6916SOL    HW231428   4.924   8.918   3.666  0.2025 -0.0243 -1.4124
 6917SOL     OW31429   3.737   1.402   3.916 -0.0948 -0.2465 -0.1503
 6917SOL    HW131430   3.666   1.465   3.886 -0.8190 -1.9309 -2.1583
 6917SOL    HW231431   3.698   1.334   3.978  0.0483 -0.3423 -0.1646
 6918SOL     OW31432   1.958   5.395   2.041  0.0858 -0.0311  0.0062
 6918SOL    HW131433   1.901   5.325   1.997 -1.6176 -0.4191  2.7117
 6918SOL    HW231434   2.042   5.353   2.074 -1.0283 -0.8954  1.8168
 6919SOL     OW31435   7.788   8.565   3.444 -0.0014 -0.5399  0.4570
 6919SOL    HW131436   7.769   8.480   3.395 -0.6264  0.1101 -0.4349
 6919SOL    HW231437   7.760   8.643   3.388 -0.8721  0.2088  1.9300
 6920SOL     OW31438   1.136   2.211   2.925  0.5893  0.3524  0.3219
 6920SOL    HW131439   1.143   2.123   2.971 -0.6969  0.5250  0.8744
 6920SOL    HW231440   1.109   2.281   2.991 -3.1873  0.2553 -0.9962
 6921SOL     OW31441   8.941   4.540   3.718  0.1834  0.4058 -0.5216
 6921SOL    HW131442   8.993   4.517   3.636  0.6342 -3.3053  0.6992
 6921SOL    HW231443   9.001   4.588   3.783  0.2157  2.0562 -1.7423
 6922SOL     OW31444   1.729   3.927   0.927 -0.1812  0.8035  0.6878
 6922SOL    HW131445   1.806   3.934   0.863  1.9801  0.4668  3.1823
 6922SOL    HW231446   1.644   3.948   0.879  1.3642  0.4407 -2.3214
 6923SOL     OW31447   3.845   3.559   1.501  0.5620  0.5122  0.1472
 6923SOL    HW131448   3.854   3.610   1.415 -1.4301 -0.1577 -0.4937
 6923SOL    HW231449   3.750   3.564   1.533  0.6079 -1.7218  0.7240
 6924SOL     OW31450   4.336   0.532   0.413  0.0094  0.0957 -0.7991
 6924SOL    HW131451   4.315   0.434   0.412 -0.0697  0.1161 -1.5534
 6924SOL    HW231452   4.287   0.576   0.488 -2.8939  0.1951 -2.6591
 6925SOL     OW31453   9.899   8.857   2.924 -0.0818 -0.1435 -0.2763
 6925SOL    HW131454   9.944   8.805   2.851 -2.0455  1.4977 -2.7679
 6925SOL    HW231455   9.968   8.909   2.975  1.2528 -0.7055 -1.4627
 6926SOL     OW31456   4.895   3.946   0.760 -0.0271  0.5681 -0.0113
 6926SOL    HW131457   4.955   3.870   0.785  0.3240  0.6837 -0.5028
 6926SOL    HW231458   4.880   3.945   0.661  0.1446  1.2615 -0.0435
 6927SOL     OW31459   1.287   3.092   0.474 -0.1191  0.1752  0.0186
 6927SOL    HW131460   1.244   3.139   0.551 -0.8448  1.8156 -1.3482
 6927SOL    HW231461   1.385   3.085   0.490 -0.1455  1.2713  0.7168
 6928SOL     OW31462   5.639   0.407   4.107  0.2030  0.0505 -0.1546
 6928SOL    HW131463   5.694   0.484   4.074 -1.4952  0.7919 -1.3229
 6928SOL    HW231464   5.591   0.434   4.190  0.6706 -0.1933  0.1926
 6929SOL     OW31465   0.067   2.778   3.946  0.2163  0.4973  0.0943
 6929SOL    HW131466  -0.028   2.760   3.973  0.4755 -0.5957  0.2945
 6929SOL    HW231467   0.105   2.697   3.901  1.2345  0.7281  0.5182
 6930SOL     OW31468   5.948   7.997   2.453 -0.0259 -0.1456 -0.2658
 6930SOL    HW131469   5.965   8.081   2.403  1.2769 -0.6506 -0.7090
 6930SOL    HW231470   5.967   8.011   2.551  1.5745 -0.2810 -0.5365
 6931SOL     OW31471   0.872   3.396   1.651  0.0739  0.5279  0.4902
 6931SOL    HW131472   0.833   3.375   1.741 -2.0702  1.1278 -0.2631
 6931SOL    HW231473   0.925   3.480   1.656  0.2770  0.3532  1.2831
 6932SOL     OW31474   0.770   1.225   0.139  0.0702 -0.2413  0.0315
 6932SOL    HW131475   0.688   1.201   0.088  0.0230 -0.8193  0.3694
 6932SOL    HW231476   0.777   1.166   0.220  0.4687  0.2476  0.3545
 6933SOL     OW31477   8.323   9.076   2.174  0.5497 -0.4433  0.1125
 6933SOL    HW131478   8.292   8.982   2.185  1.5047 -0.6754  0.8645
 6933SOL    HW231479   8.391   9.081   2.101 -0.2116 -0.1677 -0.5869
 6934SOL     OW31480   9.399   4.626   3.739  0.1851 -0.1899 -0.6879
 6934SOL    HW131481   9.381   4.679   3.657 -0.8295 -0.3697 -0.5905
 6934SOL    HW231482   9.466   4.554   3.719 -1.0719 -1.1099 -1.7201
 6935SOL     OW31483   4.550   8.074   2.651  0.2358  0.0823  0.5314
 6935SOL    HW131484   4.547   7.982   2.688 -1.1509 -0.5709 -1.1234
 6935SOL    HW231485   4.499   8.136   2.712 -4.4119 -1.4828 -1.4922
 6936SOL     OW31486   7.956   9.383   0.291  0.2248 -0.2311 -0.0310
 6936SOL    HW131487   7.945   9.482   0.284 -0.6141 -0.4301 -1.8512
 6936SOL    HW231488   7.924   9.352   0.381  0.1241  1.1056  0.3979
 6937SOL     OW31489   0.836   3.151   3.349  0.2171  0.6154  0.0527
 6937SOL    HW131490   0.742   3.155   3.381  0.3087  3.3925  0.1005
 6937SOL    HW231491   0.837   3.133   3.251 -0.2564 -1.8258  0.4704
 6938SOL     OW31492   8.857   4.478   0.079  0.0595  0.5424  0.4616
 6938SOL    HW131493   8.898   4.400   0.032 -0.1303 -1.0419  2.8317
 6938SOL    HW231494   8.930   4.532   0.121  0.0067  0.0405  1.2051
 6939SOL     OW31495   3.860   6.211   1.089 -0.5092 -0.4988 -0.0701
 6939SOL    HW131496   3.836   6.292   1.036 -1.0312 -0.6266 -0.0315
 6939SOL    HW231497   3.815   6.131   1.050 -1.0846 -0.5582  0.7024
 6940SOL     OW31498   3.380   9.869   2.862 -0.5252 -0.4613  0.4795
 6940SOL    HW131499   3.379   9.787   2.918  0.0765  0.2671  1.5619
 6940SOL    HW231500   3.435   9.853   2.780  2.3140 -0.0935  2.2717
 6941SOL     OW31501   5.393   0.401   1.134  0.1615  0.1575  0.2062
 6941SOL    HW131502   5.423   0.426   1.227  0.4520  0.3671  0.0576
 6941SOL    HW231503   5.456   0.441   1.068  0.6576 -1.0328 -0.0394
 6942SOL     OW31504   6.450   9.244   3.222 -0.3463 -0.1299  0.0743
 6942SOL    HW131505   6.469   9.235   3.124 -1.4840 -0.6767 -0.1051
 6942SOL    HW231506   6.353   9.223   3.239 -0.1174 -0.1799  1.3323
 6943SOL     OW31507   8.242   6.234   1.022  0.4714 -0.1354  0.9179
 6943SOL    HW131508   8.314   6.290   0.979  3.3504 -3.0743  1.7311
 6943SOL    HW231509   8.183   6.197   0.951  0.9288  0.7322  0.0634
 6944SOL     OW31510   8.124   4.312   3.830  0.3002 -0.5171  0.0776
 6944SOL    HW131511   8.151   4.394   3.881 -2.2400  1.5077 -1.6637
 6944SOL    HW231512   8.138   4.328   3.732 -1.0339 -1.8428 -0.3439
 6945SOL     OW31513   2.078   8.008   1.444 -0.2637 -0.0747 -0.4045
 6945SOL    HW131514   2.027   8.079   1.395 -0.0486 -1.2320 -2.3413
 6945SOL    HW231515   2.017   7.934   1.469 -0.8458  1.4621  3.0998
 6946SOL     OW31516   8.273   8.000   2.134 -0.3842 -0.2517  0.4563
 6946SOL    HW131517   8.354   8.050   2.102 -1.6293  0.6007 -1.5027
 6946SOL    HW231518   8.191   8.050   2.107 -1.5658 -1.0609  2.5012
 6947SOL     OW31519   9.001   7.285   1.670 -0.1317 -0.4734  0.4841
 6947SOL    HW131520   9.070   7.212   1.662  0.3894  0.0906 -0.3082
 6947SOL    HW231521   9.029   7.363   1.614 -0.5892  0.4193  1.4786
 6948SOL     OW31522   9.704   5.441   3.833 -0.0962  0.1813  0.1761
 6948SOL    HW131523   9.628   5.379   3.853  0.3270 -0.4945 -0.2956
 6948SOL    HW231524   9.696   5.474   3.739 -0.0139  0.4090  0.2478
 6949SOL     OW31525   5.062   6.827   2.221  0.3558 -0.6501  0.5892
 6949SOL    HW131526   4.973   6.781   2.229 -0.6338  0.9502 -0.7499
 6949SOL    HW231527   5.054   6.919   2.260  1.2863 -0.3318  0.0285
 6950SOL     OW31528   1.409   1.636   4.480  0.0355 -0.1097 -0.1274
 6950SOL    HW131529   1.507   1.617   4.485  0.1460 -0.1801 -2.1542
 6950SOL    HW231530   1.386   1.667   4.388 -1.7967  0.1937  0.4233
 6951SOL     OW31531   3.685   6.946   2.569  0.6402  0.4042 -0.1030
 6951SOL    HW131532   3.690   7.018   2.499 -3.1204  1.5771  0.7316
 6951SOL    HW231533   3.711   6.984   2.658  1.3836 -0.0236 -0.1317
 6952SOL     OW31534   1.088   2.159   0.122  0.0553  0.2612  0.2453
 6952SOL    HW131535   1.076   2.153   0.221 -1.5411 -0.8387 -0.0049
 6952SOL    HW231536   1.182   2.133   0.099 -0.0414 -1.1262  1.3161
 6953SOL     OW31537   0.460   7.606   3.333  0.2723 -0.5889 -0.8236
 6953SOL    HW131538   0.425   7.658   3.411  0.8712 -0.1582 -0.8369
 6953SOL    HW231539   0.559   7.622   3.324  0.5107 -1.9294 -0.6775
 6954SOL     OW31540   3.097   6.488   4.744  0.1105  0.6223  0.3574
 6954SOL    HW131541   3.098   6.585   4.722  2.9148  0.6644  0.4708
 6954SOL    HW231542   3.113   6.435   4.661  1.1031  0.3757  0.6993
 6955SOL     OW31543   8.977   4.345   1.526  0.4771 -0.0720 -0.1360
 6955SOL    HW131544   9.000   4.344   1.624  1.4140 -1.2097 -0.3551
 6955SOL    HW231545   8.911   4.418   1.508  1.0715  0.8125  1.1789
 6956SOL     OW31546   8.793   4.511   0.773  0.4054  0.6784 -0.1087
 6956SOL    HW131547   8.845   4.425   0.776 -0.6047  0.0963  1.6773
 6956SOL    HW231548   8.704   4.494   0.730  0.6828  1.1130 -0.8671
 6957SOL     OW31549   4.311   0.422   2.889  0.3225  0.2867 -0.1294
 6957SOL    HW131550   4.289   0.509   2.845  1.6601  0.3950 -0.5950
 6957SOL    HW231551   4.396   0.431   2.939  0.1423 -0.5891  0.3334
 6958SOL     OW31552   9.217   8.582   2.785  0.2481  0.0375  0.2669
 6958SOL    HW131553   9.316   8.571   2.797  0.0875 -1.2028  0.5194
 6958SOL    HW231554   9.172   8.579   2.874  0.2070  3.1864  0.3959
 6959SOL     OW31555   9.907   5.656   3.420  0.1713 -0.0193  0.4267
 6959SOL    HW131556   9.993   5.644   3.369  0.1380 -0.6268  0.5033
 6959SOL    HW231557   9.831   5.658   3.355  0.4530  3.3059  0.1169
 6960SOL     OW31558   8.676   7.716   3.796  0.5576  0.3125  0.4634
 6960SOL    HW131559   8.719   7.766   3.720 -0.5915 -1.0768 -1.1441
 6960SOL    HW231560   8.584   7.688   3.769 -0.0681  0.2508  2.5942
 6961SOL     OW31561   9.054   1.525   3.469 -0.6012 -0.2671 -0.5451
 6961SOL    HW131562   9.019   1.456   3.531 -1.1547  1.2105  0.8124
 6961SOL    HW231563   9.152   1.537   3.484 -0.4391 -0.9967 -1.0186
 6962SOL     OW31564   3.121   3.916   2.996  0.3451  0.0961 -0.1422
 6962SOL    HW131565   3.175   3.858   3.057 -1.6357 -0.8627  0.7460
 6962SOL    HW231566   3.150   3.902   2.902  2.2645  0.3100  0.3877
 6963SOL     OW31567   0.811   9.968   3.231  0.3805 -0.1954  0.4581
 6963SOL    HW131568   0.745   9.895   3.251  0.3931 -0.3521 -0.0636
 6963SOL    HW231569   0.873   9.979   3.308 -0.7793  0.5131  1.3031
 6964SOL     OW31570   0.989   4.521   3.753  0.0740  0.2413  0.5559
 6964SOL    HW131571   1.085   4.544   3.735  0.3918 -0.9677  0.6089
 6964SOL    HW231572   0.939   4.603   3.777  1.8167  0.4842  3.6770
 6965SOL     OW31573   2.340   8.683   3.438  0.1927  0.2721 -0.2044
 6965SOL    HW131574   2.436   8.686   3.412  0.0745 -0.4315 -0.7285
 6965SOL    HW231575   2.291   8.758   3.393  0.0812 -0.6628 -1.6778
 6966SOL     OW31576   7.803   1.515   1.016  0.0026 -0.0181  0.1123
 6966SOL    HW131577   7.767   1.542   1.105  1.7016  1.0809  0.4853
 6966SOL    HW231578   7.740   1.546   0.944 -1.2258 -0.6630  0.8869
 6967SOL     OW31579   3.940   9.820   4.755  0.2980  0.2519  0.3228
 6967SOL    HW131580   3.933   9.781   4.847  0.7877  1.2396  0.7770
 6967SOL    HW231581   3.986   9.754   4.695 -1.1640 -0.9270  0.4581
 6968SOL     OW31582   4.718   3.592   2.657  0.6051 -0.2241 -0.0901
 6968SOL    HW131583   4.717   3.675   2.714  3.0934 -0.3925  0.2666
 6968SOL    HW231584   4.634   3.587   2.604  0.5851  2.7696 -0.4325
 6969SOL     OW31585   3.312   4.968   3.948  0.3540  0.0477  0.5650
 6969SOL    HW131586   3.365   4.905   4.005  0.3002  1.7914  2.6230
 6969SOL    HW231587   3.216   4.938   3.945  0.8513 -1.4341 -0.6718
 6970SOL     OW31588   3.860   0.891   3.466  0.2625  0.4409  0.0794
 6970SOL    HW131589   3.789   0.958   3.444 -0.8728 -0.6670  0.3679
 6970SOL    HW231590   3.844   0.807   3.414  0.3144 -0.4649  1.5219
 6971SOL     OW31591   0.641   8.842   3.971  0.3685  0.6384 -0.0495
 6971SOL    HW131592   0.711   8.911   3.991  1.4789 -0.0110 -1.6129
 6971SOL    HW231593   0.600   8.860   3.882 -0.6891  0.3680  0.3687
 6972SOL     OW31594   2.101   9.280   3.212 -0.4552  0.6089  0.0370
 6972SOL    HW131595   2.142   9.285   3.303 -2.4686 -1.9676  1.1632
 6972SOL    HW231596   2.173   9.286   3.143  0.9988  3.5817  1.7199
 6973SOL     OW31597   9.061   6.420   3.254  0.1495  0.3747  0.0963
 6973SOL    HW131598   9.056   6.441   3.351 -0.0029 -0.6347  0.3098
 6973SOL    HW231599   8.977   6.448   3.209 -0.8947 -1.6061  0.7450
 6974SOL     OW31600   6.663   8.680   2.947 -0.1093  0.9840  0.3576
 6974SOL    HW131601   6.746   8.625   2.957 -1.3647 -0.9552  0.2570
 6974SOL    HW231602   6.661   8.721   2.856 -0.4646 -0.9914 -0.5403
 6975SOL     OW31603   0.836   1.766   3.792  0.5915  0.5301  0.2627
 6975SOL    HW131604   0.782   1.830   3.738 -0.5498 -0.2393  0.4775
 6975SOL    HW231605   0.921   1.745   3.743 -0.4213 -0.1521 -1.2496
 6976SOL     OW31606   1.717   6.879   0.055 -0.0012 -0.4461  1.1564
 6976SOL    HW131607   1.769   6.800   0.022 -1.0844 -0.9512  0.6360
 6976SOL    HW231608   1.735   6.891   0.153  1.6196 -0.1923  0.8469
 6977SOL     OW31609   9.815   3.197   0.944 -0.1033  0.3429 -0.0660
 6977SOL    HW131610   9.757   3.139   0.888  2.6029 -2.1812 -0.3959
 6977SOL    HW231611   9.833   3.283   0.896 -2.1563  0.4488 -0.6702
 6978SOL     OW31612   8.305   8.189   4.132  0.6761  0.2917 -0.9613
 6978SOL    HW131613   8.207   8.188   4.115  0.5628  1.3358 -0.3958
 6978SOL    HW231614   8.338   8.094   4.137 -0.5734 -0.0999  0.3839
 6979SOL     OW31615   0.164   3.099   2.017  0.3723 -0.0667  0.7924
 6979SOL    HW131616   0.169   3.024   2.083  0.5804 -0.6429  0.1364
 6979SOL    HW231617   0.164   3.061   1.924 -1.8777  0.6153  0.4759
 6980SOL     OW31618   3.033   1.736   3.979 -0.4420 -0.1580  0.1045
 6980SOL    HW131619   2.954   1.698   3.930  1.5363 -1.5435 -2.1442
 6980SOL    HW231620   3.030   1.836   3.973 -2.1444 -0.1698  0.2765
 6981SOL     OW31621   2.311   5.550   2.785 -0.6418  0.3042 -0.0085
 6981SOL    HW131622   2.370   5.489   2.732 -0.7827 -0.2970  0.5209
 6981SOL    HW231623   2.366   5.626   2.821 -0.0499 -0.6233  1.0647
 6982SOL     OW31624   9.470   4.225   0.780 -0.2426 -0.7857 -0.1359
 6982SOL    HW131625   9.534   4.159   0.742  2.7146  1.7592  0.2285
 6982SOL    HW231626   9.520   4.292   0.834 -3.2994  1.0535  0.5155
 6983SOL     OW31627   4.536   8.238   1.360 -0.4942 -0.4586  0.1405
 6983SOL    HW131628   4.608   8.169   1.367 -0.8288 -1.0073 -1.4231
 6983SOL    HW231629   4.541   8.301   1.437  1.1123 -1.0023  0.4851
 6984SOL     OW31630   1.879   6.215   0.891 -0.1243 -0.0588  0.2672
 6984SOL    HW131631   1.940   6.137   0.877  1.6543  1.6452 -2.0140
 6984SOL    HW231632   1.784   6.187   0.873  0.6547 -1.3628 -2.0544
 6985SOL     OW31633   1.003   1.924   1.690  0.1472 -0.3173  0.0915
 6985SOL    HW131634   1.048   2.008   1.659  3.5669 -1.6357  1.2427
 6985SOL    HW231635   0.920   1.948   1.740 -0.7581  2.1882 -2.4565
 6986SOL     OW31636   3.381   6.501   3.657  0.2242  1.0066  0.0280
 6986SOL    HW131637   3.460   6.550   3.622 -0.3626  1.8060 -0.1813
 6986SOL    HW231638   3.368   6.417   3.603  0.6221  1.1313 -0.2652
 6987SOL     OW31639   9.445   3.453   2.261 -0.1123 -0.2050 -0.3713
 6987SOL    HW131640   9.356   3.484   2.229  0.3043  0.1417 -1.2170
 6987SOL    HW231641   9.507   3.444   2.183  1.1235  1.3225  0.4106
 6988SOL     OW31642   2.581   7.943   3.354 -0.2417  0.5759 -0.0218
 6988SOL    HW131643   2.654   7.878   3.331 -0.0371  0.8218 -0.0692
 6988SOL    HW231644   2.503   7.893   3.391  0.2136  0.3708  0.6807
 6989SOL     OW31645   9.713   2.347   1.029 -0.3103  0.2370  0.1882
 6989SOL    HW131646   9.786   2.374   0.966  0.5480 -0.2152  0.9721
 6989SOL    HW231647   9.641   2.299   0.978  0.3772 -0.1382 -0.4438
 6990SOL     OW31648   3.192   5.489   3.407  0.1416  0.0580 -0.1460
 6990SOL    HW131649   3.198   5.557   3.481 -1.3972  0.6507 -0.5427
 6990SOL    HW231650   3.229   5.528   3.323  0.6809 -0.1544 -0.0112
 6991SOL     OW31651   2.723   7.442   3.914 -0.5083  0.1556  0.0841
 6991SOL    HW131652   2.672   7.395   3.986 -0.4695 -0.3351 -0.2131
 6991SOL    HW231653   2.771   7.520   3.954 -2.4471  1.3642  0.1674
 6992SOL     OW31654   1.925   4.183   3.789  0.1576  0.3402  0.0090
 6992SOL    HW131655   1.913   4.262   3.729  1.1737  1.0752  0.7580
 6992SOL    HW231656   1.853   4.182   3.858 -1.0990 -0.5867 -1.2857
 6993SOL     OW31657   9.360   5.378   0.805 -0.7817 -0.0576 -0.1279
 6993SOL    HW131658   9.318   5.375   0.715  0.3738  0.9021 -0.7243
 6993SOL    HW231659   9.433   5.310   0.810 -0.9617 -0.2307  0.1454
 6994SOL     OW31660   1.645   6.413   3.042  0.1601  0.4601  0.0884
 6994SOL    HW131661   1.556   6.424   3.087 -0.7671 -0.6067 -1.4365
 6994SOL    HW231662   1.654   6.320   3.007  1.9157  0.5437  0.2783
 6995SOL     OW31663   3.184   4.568   3.011  0.2084 -0.6462 -0.3093
 6995SOL    HW131664   3.100   4.582   3.062 -0.1497  0.6559 -1.2338
 6995SOL    HW231665   3.261   4.559   3.075 -0.2495  0.8266  0.4753
 6996SOL     OW31666   4.571   8.041   0.111  0.5338  0.3691  0.1115
 6996SOL    HW131667   4.644   8.108   0.123  1.0388 -0.1307 -0.1454
 6996SOL    HW231668   4.518   8.035   0.196 -0.1723  1.8591 -0.2198
 6997SOL     OW31669   6.128   8.464   1.332  0.6855  0.1430  0.4079
 6997SOL    HW131670   6.096   8.396   1.267  1.2154 -0.8284  1.1423
 6997SOL    HW231671   6.053   8.525   1.357 -0.4329 -1.6231  1.5178
 6998SOL     OW31672   8.568   3.312   2.511  0.0069 -0.1981 -0.2699
 6998SOL    HW131673   8.602   3.223   2.480  1.1055  0.5034 -1.0944
 6998SOL    HW231674   8.640   3.380   2.503 -1.0359  0.9246 -0.2941
 6999SOL     OW31675   3.344   1.213   2.595 -0.0481  0.2434  0.0020
 6999SOL    HW131676   3.316   1.265   2.514 -0.2027  3.2445  1.9042
 6999SOL    HW231677   3.282   1.231   2.670  1.9856  0.1220  1.7702
 7000SOL     OW31678   1.170   8.596   0.971 -0.0787 -0.2426  0.5189
 7000SOL    HW131679   1.080   8.573   1.008 -0.2165  1.6691  1.4336
 7000SOL    HW231680   1.223   8.645   1.040  1.1638 -0.1613 -0.4755
 7001SOL     OW31681   1.189   7.575   1.594 -0.5161 -0.4471 -0.0020
 7001SOL    HW131682   1.139   7.545   1.675 -1.8850  1.3923 -0.1326
 7001SOL    HW231683   1.130   7.633   1.538  1.9809  2.4033  0.1887
 7002SOL     OW31684   9.554   3.729   1.827 -0.2961  0.5822 -0.1659
 7002SOL    HW131685   9.592   3.746   1.917 -1.9853 -1.1795  0.9053
 7002SOL    HW231686   9.610   3.660   1.779 -0.2989  0.3641  0.1456
 7003SOL     OW31687   8.887   1.722   1.089  0.5099 -0.2480 -0.2131
 7003SOL    HW131688   8.841   1.702   1.175  2.3743  0.9266  1.0971
 7003SOL    HW231689   8.971   1.669   1.082  0.6681  0.0940 -1.0540
 7004SOL     OW31690   8.900   3.715   0.151 -0.3567 -0.4107  1.2600
 7004SOL    HW131691   8.899   3.620   0.181  0.3163 -0.9131 -0.2606
 7004SOL    HW231692   8.994   3.744   0.134 -0.6619  0.1262  0.4686
 7005SOL     OW31693   2.058   5.549   1.710 -0.0452 -0.7334  0.2663
 7005SOL    HW131694   2.042   5.454   1.685 -0.7449 -0.7249  0.6719
 7005SOL    HW231695   2.036   5.562   1.807 -0.5960 -0.0105  0.0513
 7006SOL     OW31696   1.496   3.097   0.679 -0.4165 -0.2114 -0.3742
 7006SOL    HW131697   1.428   3.151   0.727 -0.3607 -1.5560  1.2712
 7006SOL    HW231698   1.559   3.055   0.745 -1.0551 -3.0734 -1.4835
 7007SOL     OW31699   8.509   5.077   1.391  0.0145  0.0700 -0.2169
 7007SOL    HW131700   8.587   5.138   1.406  0.4113 -0.6618  0.7710
 7007SOL    HW231701   8.500   5.015   1.469 -0.4167 -1.0964 -1.1773
 7008SOL     OW31702   3.637   2.186   0.190 -0.0421 -0.8473 -0.7512
 7008SOL    HW131703   3.728   2.177   0.151  0.5001  1.6462 -0.1279
 7008SOL    HW231704   3.632   2.267   0.247 -2.5142 -1.2222 -0.3388
 7009SOL     OW31705   0.582   0.599   0.178  0.0043  0.1930 -0.3108
 7009SOL    HW131706   0.614   0.514   0.220 -0.8304  0.2391  0.4389
 7009SOL    HW231707   0.661   0.656   0.155  0.5992 -0.9807 -1.2683
 7010SOL     OW31708   2.016   6.738   1.406  0.5298  0.4890  0.1936
 7010SOL    HW131709   2.043   6.738   1.310 -0.1261 -1.3733 -0.0101
 7010SOL    HW231710   1.955   6.815   1.423 -2.3377 -1.2359 -1.7902
 7011SOL     OW31711   2.910   0.230   1.476 -0.2386 -0.6435 -0.3813
 7011SOL    HW131712   2.814   0.245   1.500  0.0989  0.6804  0.2070
 7011SOL    HW231713   2.933   0.287   1.396  0.0452 -1.0034 -0.5570
 7012SOL     OW31714   1.950   5.111   3.684 -0.2535  0.1593  0.0577
 7012SOL    HW131715   2.024   5.045   3.676  0.7700  1.2321  0.6246
 7012SOL    HW231716   1.945   5.166   3.600 -1.4257 -0.9417 -0.6208
 7013SOL     OW31717   5.942   9.240   1.794  0.0466 -0.3343  0.5927
 7013SOL    HW131718   5.899   9.274   1.877  2.3894 -2.9825  2.9931
 7013SOL    HW231719   6.026   9.291   1.776  2.0001 -2.7502  2.5394
 7014SOL     OW31720   3.123   8.292   3.641  0.6522  0.2629 -0.3067
 7014SOL    HW131721   3.167   8.323   3.725  2.3282 -0.4906 -0.8858
 7014SOL    HW231722   3.156   8.201   3.617 -2.1503 -0.8580 -0.1332
 7015SOL     OW31723   2.481   0.446   2.360  0.2096  0.3884  0.1153
 7015SOL    HW131724   2.444   0.510   2.428  1.5549 -0.8096  2.0173
 7015SOL    HW231725   2.531   0.497   2.290 -1.8583  1.7079 -0.4442
 7016SOL     OW31726   8.520   2.925   1.323 -0.3620  0.2023 -0.0865
 7016SOL    HW131727   8.467   2.840   1.326  2.1993 -1.4668 -0.2219
 7016SOL    HW231728   8.465   2.998   1.283 -2.1709 -1.7450 -1.2365
 7017SOL     OW31729   2.353   8.922   4.109  0.3294 -0.3242 -0.2285
 7017SOL    HW131730   2.413   9.001   4.108  1.4227 -1.1276 -2.4583
 7017SOL    HW231731   2.329   8.898   4.015 -2.2983 -0.9245  0.5516
 7018SOL     OW31732   9.721   0.550   1.585 -0.0012 -0.0247  0.2046
 7018SOL    HW131733   9.791   0.622   1.591 -0.5258  0.6985 -2.0193
 7018SOL    HW231734   9.633   0.586   1.616  0.1890 -0.3532  1.1350
 7019SOL     OW31735   7.836   8.327   2.036 -0.0468  0.3399  1.0589
 7019SOL    HW131736   7.846   8.414   1.989 -0.2233  0.2307  0.8155
 7019SOL    HW231737   7.746   8.322   2.079 -0.2284  0.0840  0.6600
 7020SOL     OW31738   0.160   9.744   1.803  0.3758  0.0520 -0.1695
 7020SOL    HW131739   0.253   9.708   1.814 -0.0567 -0.8948  0.4545
 7020SOL    HW231740   0.120   9.709   1.719  0.3030 -0.1729 -0.0426
 7021SOL     OW31741   8.004   1.489   3.444  0.3746  0.2273  0.3856
 7021SOL    HW131742   8.008   1.515   3.540 -0.1240  2.5075 -0.1891
 7021SOL    HW231743   7.909   1.486   3.414  0.6722  3.0277 -0.9397
 7022SOL     OW31744   1.681   8.787   4.565 -0.0412 -0.0501 -0.0841
 7022SOL    HW131745   1.769   8.831   4.580 -0.2378 -0.4233  2.3905
 7022SOL    HW231746   1.607   8.849   4.591 -0.3932 -0.8685  0.9225
 7023SOL     OW31747   3.638   4.896   1.615  0.1144 -0.0539 -0.1128
 7023SOL    HW131748   3.707   4.967   1.602  1.1866 -1.1097 -0.3536
 7023SOL    HW231749   3.562   4.932   1.669  0.1035  1.5977 -1.1815
 7024SOL     OW31750   1.232   0.771   4.190 -0.0264  0.1445  0.7152
 7024SOL    HW131751   1.205   0.832   4.264  0.4624  0.5631  0.5506
 7024SOL    HW231752   1.150   0.734   4.146 -0.3161 -0.8081  2.0292
 7025SOL     OW31753   3.145   0.413   4.133  0.4313  0.1769  0.0160
 7025SOL    HW131754   3.133   0.396   4.035 -0.3651 -0.7027  0.2571
 7025SOL    HW231755   3.057   0.437   4.174  0.6289 -0.1502  0.6437
 7026SOL     OW31756   2.520   5.019   3.915  0.2458  0.0108  0.1080
 7026SOL    HW131757   2.588   5.037   3.843  0.5678  0.1855  0.4518
 7026SOL    HW231758   2.445   5.084   3.908  0.0468 -0.2620 -0.3542
 7027SOL     OW31759   9.885   3.234   1.347 -0.6689 -0.2267  0.2810
 7027SOL    HW131760   9.919   3.307   1.407  0.9260  0.1842 -1.0897
 7027SOL    HW231761   9.940   3.231   1.264 -1.6593 -2.0478 -0.3317
 7028SOL     OW31762   6.891   0.113   2.730  0.4351  0.0101  0.4669
 7028SOL    HW131763   6.918   0.207   2.748 -0.7547  1.0852 -3.0864
 7028SOL    HW231764   6.927   0.083   2.642 -2.6690 -1.4216 -0.3906
 7029SOL     OW31765   2.264   8.105   4.166 -0.6181 -0.3481 -0.0049
 7029SOL    HW131766   2.288   8.098   4.263 -0.6612  0.6567  0.0789
 7029SOL    HW231767   2.329   8.165   4.119  0.8696 -2.7256 -1.1177
 7030SOL     OW31768   2.551   3.367   2.817  0.0657  0.1672  0.2398
 7030SOL    HW131769   2.615   3.364   2.741  1.0499  0.1656  1.0526
 7030SOL    HW231770   2.587   3.426   2.889  0.0308 -1.2832  1.4786
 7031SOL     OW31771   3.429   3.432   3.113  0.2716  0.5027 -0.2912
 7031SOL    HW131772   3.520   3.396   3.131 -0.2653 -0.8093 -0.1497
 7031SOL    HW231773   3.361   3.380   3.164 -0.7021  0.5013 -1.5515
 7032SOL     OW31774   8.812   9.560   2.382 -1.1423 -0.0087 -0.0284
 7032SOL    HW131775   8.832   9.590   2.289  0.1694  0.1372  0.2840
 7032SOL    HW231776   8.853   9.624   2.447 -0.4919 -1.0912  0.6408
 7033SOL     OW31777   1.841   9.841   3.513  0.0515 -0.1676 -0.1325
 7033SOL    HW131778   1.857   9.762   3.454 -0.6907 -0.6718  0.3323
 7033SOL    HW231779   1.894   9.919   3.479  1.9750 -1.2622  0.2720
 7034SOL     OW31780   3.565   2.981   1.506  0.2585  0.1574  0.3239
 7034SOL    HW131781   3.614   2.912   1.451 -0.4794  0.7810 -1.1577
 7034SOL    HW231782   3.594   3.072   1.477 -0.5577  0.4986  0.5818
 7035SOL     OW31783   9.623   4.345   1.369 -0.2884 -0.2308  0.3573
 7035SOL    HW131784   9.529   4.344   1.401 -0.3467  2.2411  0.3722
 7035SOL    HW231785   9.684   4.356   1.448  0.0501 -2.1926  0.3866
 7036SOL     OW31786   8.036   0.279   2.611  0.4687 -0.5743 -0.3150
 7036SOL    HW131787   8.060   0.376   2.620  1.9014 -1.1955  3.1838
 7036SOL    HW231788   8.116   0.227   2.582 -0.1619 -0.8330 -1.6458
 7037SOL     OW31789   2.702   5.533   3.784  0.0972  0.0987  0.4927
 7037SOL    HW131790   2.696   5.471   3.862  0.6958  0.8736  1.1665
 7037SOL    HW231791   2.613   5.538   3.738 -0.5192  0.3505  1.6840
 7038SOL     OW31792   9.379   2.773   1.502 -0.0379  0.2568  0.0267
 7038SOL    HW131793   9.283   2.759   1.475 -0.3441  0.4154  1.0187
 7038SOL    HW231794   9.399   2.715   1.582  0.6213  0.4173 -0.0267
 7039SOL     OW31795   3.433   3.532   0.698  0.0614  0.5735  0.2378
 7039SOL    HW131796   3.449   3.586   0.615  0.5324  0.1202  0.0315
 7039SOL    HW231797   3.355   3.471   0.683  0.9756 -0.4696 -0.3492
 7040SOL     OW31798   4.750   2.434   0.827 -0.3153  0.0915 -0.3350
 7040SOL    HW131799   4.755   2.438   0.927 -1.2917 -1.9364 -0.1846
 7040SOL    HW231800   4.746   2.527   0.790 -0.1725  0.8512  1.5196
 7041SOL     OW31801   9.099   6.176   3.174  0.1227 -0.3555  0.2442
 7041SOL    HW131802   9.091   6.271   3.204  0.5392 -0.3389  0.3107
 7041SOL    HW231803   9.188   6.139   3.202 -0.5999 -1.2085  1.4516
 7042SOL     OW31804   8.799   1.624   3.460 -0.2108 -0.0134 -0.6670
 7042SOL    HW131805   8.899   1.615   3.461 -0.0948  1.1855 -0.4186
 7042SOL    HW231806   8.759   1.573   3.536  0.2161 -0.3806 -0.6865
 7043SOL     OW31807   0.685   4.181   0.055 -0.0841  0.0206  0.1889
 7043SOL    HW131808   0.587   4.201   0.050 -0.0371 -0.0372 -0.9540
 7043SOL    HW231809   0.732   4.258   0.098 -0.3841  0.8415 -0.9451
 7044SOL     OW31810   8.462   7.062   2.573 -0.1730 -0.1032  0.3798
 7044SOL    HW131811   8.381   7.057   2.630 -0.1334  0.4113  0.4862
 7044SOL    HW231812   8.515   7.143   2.597 -0.6769  0.6713 -1.0756
 7045SOL     OW31813   9.166   8.524   1.328 -0.5956 -0.3144  0.3633
 7045SOL    HW131814   9.211   8.522   1.239 -0.2635 -0.0036  0.5232
 7045SOL    HW231815   9.234   8.508   1.400 -0.8179 -0.3130  0.5732
 7046SOL     OW31816   8.911   9.501   4.678  0.0261  0.3836  0.1018
 7046SOL    HW131817   8.926   9.520   4.775  0.2314 -0.4686  0.2415
 7046SOL    HW231818   8.956   9.571   4.623  2.2397 -0.6063  0.5801
 7047SOL     OW31819   8.967   6.977   2.380  0.1122  0.0387  0.5374
 7047SOL    HW131820   8.879   6.990   2.334  0.7126 -0.1694 -0.7090
 7047SOL    HW231821   8.988   7.057   2.435 -0.0011  0.9027 -0.6472
 7048SOL     OW31822   9.854   4.253   0.576  0.6473 -0.2198 -0.2349
 7048SOL    HW131823   9.857   4.344   0.619 -0.9636  0.0741 -0.7281
 7048SOL    HW231824   9.764   4.213   0.588  1.4006 -1.8590  0.1365
 7049SOL     OW31825   3.995   1.785   2.625 -0.5103 -0.1346 -0.0800
 7049SOL    HW131826   4.035   1.794   2.534 -2.6461  0.4861 -0.9942
 7049SOL    HW231827   3.982   1.876   2.664 -0.8893 -0.3381  0.2678
 7050SOL     OW31828   0.633   8.146   1.150 -0.4693 -0.1703 -0.2639
 7050SOL    HW131829   0.550   8.108   1.193  0.8259 -1.6697  0.9771
 7050SOL    HW231830   0.714   8.105   1.193  0.9203  1.3119 -1.4404
 7051SOL     OW31831   9.569   3.483   2.010  0.0839  0.3459  0.2010
 7051SOL    HW131832   9.538   3.572   1.974 -0.3143 -0.1708 -0.7446
 7051SOL    HW231833   9.662   3.466   1.980 -0.3255 -0.1872 -0.7847
 7052SOL     OW31834   4.227   5.762   2.223 -0.1226 -0.0063  0.2796
 7052SOL    HW131835   4.274   5.802   2.302 -1.6312  3.0680 -0.3394
 7052SOL    HW231836   4.154   5.702   2.255  0.8593 -0.7598  1.1930
 7053SOL     OW31837   8.565   2.801   0.696 -0.0331 -0.5051 -0.5669
 7053SOL    HW131838   8.591   2.710   0.663  0.4972 -0.5682  0.0060
 7053SOL    HW231839   8.644   2.845   0.739 -1.1393 -1.1685  2.2771
 7054SOL     OW31840   3.000   2.805   4.478  0.2813 -0.3331  0.3270
 7054SOL    HW131841   3.053   2.721   4.481 -0.7478 -1.0507 -1.1000
 7054SOL    HW231842   2.998   2.840   4.384 -3.3446 -1.3748 -0.0613
 7055SOL     OW31843   8.697   2.995   0.109  0.1267 -0.6561 -0.5668
 7055SOL    HW131844   8.639   3.076   0.096  0.6016 -0.3298 -0.6907
 7055SOL    HW231845   8.790   3.025   0.133  0.5154 -1.1436 -1.4452
 7056SOL     OW31846   2.451   8.478   4.455  0.1056  0.0608 -0.4033
 7056SOL    HW131847   2.394   8.560   4.451 -0.3775 -0.1595  1.5911
 7056SOL    HW231848   2.521   8.483   4.384 -1.2233  1.2045 -1.6827
 7057SOL     OW31849   9.032   9.081   1.289 -0.0701 -0.6275 -0.3559
 7057SOL    HW131850   9.072   9.163   1.330  0.5525 -1.2006  0.1848
 7057SOL    HW231851   9.054   9.001   1.345 -0.1639 -1.2548 -1.1957
 7058SOL     OW31852   2.056   4.635   1.948 -0.0475 -0.3591 -0.2233
 7058SOL    HW131853   2.129   4.671   1.891  0.0451 -0.1868  0.0045
 7058SOL    HW231854   1.970   4.635   1.896  0.0158 -0.1069 -0.3255
 7059SOL     OW31855   3.294   2.351   1.269  0.2568 -0.7663  0.5261
 7059SOL    HW131856   3.294   2.270   1.327  0.3171 -1.0606  0.1173
 7059SOL    HW231857   3.378   2.402   1.283  0.3869 -0.9751  0.5101
 7060SOL     OW31858   2.469   3.817   3.801  0.1696 -0.1757  0.2574
 7060SOL    HW131859   2.551   3.799   3.747 -0.1744  0.7551 -0.6008
 7060SOL    HW231860   2.388   3.798   3.746 -0.1891  0.0765  0.6887
 7061SOL     OW31861   1.479   6.584   0.663 -0.5058 -0.0993  0.0509
 7061SOL    HW131862   1.410   6.655   0.679 -1.0135 -0.6433  0.2842
 7061SOL    HW231863   1.569   6.619   0.691 -1.0316 -0.2012  1.9043
 7062SOL     OW31864   0.403   3.472   3.053 -0.9714 -0.0490 -0.3016
 7062SOL    HW131865   0.374   3.506   2.963  2.0441  0.4933 -1.1064
 7062SOL    HW231866   0.387   3.543   3.122  0.5011  1.1133 -1.1212
 7063SOL     OW31867   2.336   6.814   0.468  0.0077  0.2019  0.0733
 7063SOL    HW131868   2.284   6.745   0.519  0.2761  1.4191  2.0537
 7063SOL    HW231869   2.279   6.895   0.455  0.8376  0.9164  0.8182
 7064SOL     OW31870   0.359   7.941   2.947  0.1801  0.5638 -0.2785
 7064SOL    HW131871   0.379   7.855   2.899  2.6605  0.8208  0.2342
 7064SOL    HW231872   0.444   7.981   2.981 -1.0035  2.9747 -0.0403
 7065SOL     OW31873   9.323   0.570   3.826 -0.1260 -0.0919  0.8006
 7065SOL    HW131874   9.300   0.594   3.920 -0.9141 -1.5631  1.0046
 7065SOL    HW231875   9.255   0.609   3.764 -0.5447 -0.5008  0.9957
 7066SOL     OW31876   3.451   7.687   0.158  0.2772 -0.5467 -0.0700
 7066SOL    HW131877   3.523   7.660   0.223  0.0024 -0.7416  0.1544
 7066SOL    HW231878   3.420   7.606   0.107  1.4344 -0.1747 -1.4088
 7067SOL     OW31879   4.797   0.318   3.028 -0.1882  0.2730  0.1339
 7067SOL    HW131880   4.785   0.268   2.942 -2.7456  1.2022 -0.1126
 7067SOL    HW231881   4.854   0.398   3.012  0.6087 -0.3903 -0.3552
 7068SOL     OW31882   0.028   6.163   0.862 -0.3618  0.3991 -0.5195
 7068SOL    HW131883  -0.026   6.244   0.843 -2.6443 -0.6920  1.0976
 7068SOL    HW231884  -0.033   6.085   0.876  1.6971 -1.1687 -0.0315
 7069SOL     OW31885   6.735   0.268   3.908  0.2534  0.0270  0.3248
 7069SOL    HW131886   6.686   0.302   3.828 -1.2184 -0.4164  1.0370
 7069SOL    HW231887   6.685   0.193   3.949  0.7894  0.5253  1.9230
 7070SOL     OW31888   0.838   9.122   1.100 -0.1318  0.2812  0.1637
 7070SOL    HW131889   0.781   9.181   1.158 -0.3633 -0.0346  0.2640
 7070SOL    HW231890   0.793   9.033   1.090  0.7869 -0.2898  1.0060
 7071SOL     OW31891   3.582   7.080   1.227  0.0958 -0.2834 -0.1749
 7071SOL    HW131892   3.653   7.011   1.215  0.6400 -0.1647  2.1148
 7071SOL    HW231893   3.517   7.049   1.296 -1.2411  0.2796 -1.1613
 7072SOL     OW31894   4.352   8.879   4.536 -0.2224 -0.2336 -0.3250
 7072SOL    HW131895   4.340   8.780   4.544 -0.5656 -0.1905 -0.3035
 7072SOL    HW231896   4.321   8.923   4.621  1.2147 -0.2129  0.2083
 7073SOL     OW31897   3.077   9.920   3.500  0.2837  0.9190  0.1173
 7073SOL    HW131898   3.077   9.952   3.595 -0.4008  0.1879  0.3670
 7073SOL    HW231899   3.012   9.974   3.447 -1.2231 -0.3578  0.6461
 7074SOL     OW31900   3.171   5.959   3.397  0.1283  0.1574 -0.0118
 7074SOL    HW131901   3.264   5.953   3.360 -0.2309  0.0522 -0.9087
 7074SOL    HW231902   3.163   5.897   3.475  0.5490 -0.5261 -0.5011
 7075SOL     OW31903   0.761   7.680   1.502  0.1905 -0.0301  0.3432
 7075SOL    HW131904   0.717   7.731   1.428 -1.2875 -2.0878 -0.2561
 7075SOL    HW231905   0.715   7.699   1.588 -2.3105 -2.4818 -0.3386
 7076SOL     OW31906   7.034   0.588   2.900 -0.2840 -0.2938  0.1107
 7076SOL    HW131907   7.111   0.584   2.964 -0.3107  0.8813  0.2248
 7076SOL    HW231908   6.948   0.582   2.952 -0.3306  1.7041  0.3088
 7077SOL     OW31909   2.150   5.671   4.736  0.3700  0.3320 -0.2271
 7077SOL    HW131910   2.107   5.581   4.742 -0.9821  1.1403  3.4577
 7077SOL    HW231911   2.079   5.741   4.726  1.3881  1.0740 -2.7751
 7078SOL     OW31912   9.750   4.825   2.840 -0.0689  0.0596  0.9844
 7078SOL    HW131913   9.777   4.838   2.935 -0.5986  0.4789  1.0843
 7078SOL    HW231914   9.658   4.863   2.826  0.0035 -0.0032  0.3087
 7079SOL     OW31915   0.389   8.014   3.897 -0.2661 -0.6883  0.2941
 7079SOL    HW131916   0.459   8.044   3.833 -1.1644 -1.2004 -0.9483
 7079SOL    HW231917   0.350   7.926   3.866 -1.8019 -0.1653  0.6696
 7080SOL     OW31918   0.223   9.314   0.358  0.2061 -0.0402 -0.0402
 7080SOL    HW131919   0.292   9.347   0.423 -0.3355  2.3416 -0.6065
 7080SOL    HW231920   0.212   9.382   0.285 -2.5539 -0.5277 -0.0965
 7081SOL     OW31921   4.925   6.559   2.207  0.7733  0.1317 -0.0925
 7081SOL    HW131922   4.983   6.563   2.126  0.8119  1.8780  0.0022
 7081SOL    HW231923   4.829   6.559   2.179  0.7792 -1.3664 -0.1922
 7082SOL     OW31924   1.885   2.490   0.180 -0.5418  0.0122  0.6730
 7082SOL    HW131925   1.961   2.438   0.218  0.0377  0.0935 -0.3511
 7082SOL    HW231926   1.837   2.539   0.254 -0.9278 -1.7398  1.6036
 7083SOL     OW31927   0.364   6.640   2.384 -0.2110 -0.1559  0.4585
 7083SOL    HW131928   0.455   6.627   2.421 -0.7976 -1.0573  1.6321
 7083SOL    HW231929   0.330   6.553   2.347 -0.9949 -0.0769  0.9780
 7084SOL     OW31930   8.761   7.246   1.581  0.4269 -0.2971 -0.0578
 7084SOL    HW131931   8.858   7.242   1.606  0.6170  0.4012 -0.6561
 7084SOL    HW231932   8.705   7.241   1.663  0.9390 -1.6518  0.2336
 7085SOL     OW31933   8.504   7.457   4.285  0.5931  0.0507  0.2165
 7085SOL    HW131934   8.596   7.475   4.319  0.8045 -0.4258 -0.1049
 7085SOL    HW231935   8.508   7.436   4.188  0.1854 -0.3618  0.2905
 7086SOL     OW31936   4.584   2.917   1.398  0.0960  0.0529 -0.0834
 7086SOL    HW131937   4.644   2.863   1.457 -0.8654 -0.7025  0.2274
 7086SOL    HW231938   4.601   2.894   1.302  0.4376 -0.0238 -0.0030
 7087SOL     OW31939   0.172   0.800   2.898  0.1659  0.2274 -0.3802
 7087SOL    HW131940   0.133   0.782   2.988  1.0369 -1.1585 -0.2638
 7087SOL    HW231941   0.102   0.837   2.838 -0.8914 -0.6403  0.3066
 7088SOL     OW31942   1.173   8.058   4.385 -0.2154 -0.3400 -0.2568
 7088SOL    HW131943   1.135   7.966   4.391  0.3932 -0.7747 -2.4136
 7088SOL    HW231944   1.149   8.099   4.297  1.8526  0.4657 -0.5006
 7089SOL     OW31945   2.413   2.910   2.895  0.0099 -0.1148  0.1330
 7089SOL    HW131946   2.423   2.933   2.992 -0.3757  1.6003 -0.2151
 7089SOL    HW231947   2.316   2.899   2.873  0.1554 -1.4582  0.1459
 7090SOL     OW31948   2.656   4.435   1.571 -0.2235  0.2503  0.6034
 7090SOL    HW131949   2.596   4.367   1.613  0.6578 -0.1023  1.2979
 7090SOL    HW231950   2.727   4.389   1.518 -0.8478  0.6773 -0.6199
 7091SOL     OW31951   1.694   5.324   4.400  0.3769  0.0420 -0.4128
 7091SOL    HW131952   1.707   5.418   4.430  1.1701 -0.1335 -0.2053
 7091SOL    HW231953   1.639   5.275   4.467  1.6046 -0.1709  0.4466
 7092SOL     OW31954   9.360   6.003   2.270 -0.0503  0.5941  0.0445
 7092SOL    HW131955   9.295   6.000   2.194 -0.9888  2.4942  0.7162
 7092SOL    HW231956   9.341   6.084   2.325  1.1206 -0.3470  1.8585
 7093SOL     OW31957   2.934   2.806   0.062  0.6703  0.5625  0.2195
 7093SOL    HW131958   3.031   2.819   0.080  0.8232 -0.1935 -0.0677
 7093SOL    HW231959   2.881   2.834   0.142  1.2005 -0.3046  0.8747
 7094SOL     OW31960   4.380   8.701   2.923  0.7528 -0.0888 -0.5957
 7094SOL    HW131961   4.332   8.644   2.990 -1.7376  0.4202 -1.8997
 7094SOL    HW231962   4.315   8.760   2.876  3.1538  3.1271 -0.0304
 7095SOL     OW31963   7.483   8.848   1.437  0.4550 -0.1090 -0.1092
 7095SOL    HW131964   7.466   8.945   1.456  1.1269 -0.0103  0.0051
 7095SOL    HW231965   7.514   8.803   1.521  1.5733 -0.0987 -0.5049
 7096SOL     OW31966   5.066   6.628   1.653 -0.0823  0.2983 -0.2158
 7096SOL    HW131967   5.003   6.589   1.586  2.1056 -2.6267 -0.7062
 7096SOL    HW231968   5.066   6.572   1.736  0.6859  1.1820  0.4008
 7097SOL     OW31969   7.628   9.590   2.595 -0.8693 -0.2276 -0.2048
 7097SOL    HW131970   7.541   9.542   2.586 -0.2844 -1.3218 -0.0985
 7097SOL    HW231971   7.701   9.534   2.556  0.1356 -0.4048  1.8589
 7098SOL     OW31972   2.803   2.330   0.836  0.0163 -0.5813 -0.5835
 7098SOL    HW131973   2.841   2.302   0.924 -3.8009  1.2460  1.7943
 7098SOL    HW231974   2.867   2.391   0.789  1.8274 -1.0875  1.1795
 7099SOL     OW31975   3.460   5.653   1.472 -0.3276 -0.2386  0.0643
 7099SOL    HW131976   3.522   5.586   1.431 -0.5379  0.8136 -2.0068
 7099SOL    HW231977   3.498   5.683   1.560  2.1135  0.4186 -1.1727
 7100SOL     OW31978   9.515   9.903   3.719  0.0677  0.2116  0.0906
 7100SOL    HW131979   9.608   9.868   3.731  0.1412 -0.1975 -1.5632
 7100SOL    HW231980   9.519  10.000   3.695  0.0117  0.5071  1.2664
 7101SOL     OW31981   2.241   6.591   3.250 -0.0679  0.7648  0.3030
 7101SOL    HW131982   2.317   6.616   3.190  0.8734  1.0433  1.5920
 7101SOL    HW231983   2.158   6.636   3.218 -0.3063 -1.6276 -2.6781
 7102SOL     OW31984   3.982   1.793   0.710 -0.4706  0.1570 -0.1267
 7102SOL    HW131985   4.007   1.789   0.807 -1.4725  0.4644  0.1537
 7102SOL    HW231986   3.981   1.888   0.680 -0.4223  0.0798 -0.3740
 7103SOL     OW31987   8.815   3.478   3.269 -0.0672  0.5950 -0.6289
 7103SOL    HW131988   8.790   3.391   3.312  1.5258  0.5133  0.1462
 7103SOL    HW231989   8.817   3.467   3.170 -2.6464  0.4911 -0.7172
 7104SOL     OW31990   8.123   0.744   4.021 -0.3009  0.0384 -0.1270
 7104SOL    HW131991   8.038   0.787   4.051  0.7365  0.0200  2.9569
 7104SOL    HW231992   8.136   0.657   4.069  1.3322 -0.0883 -0.7494
 7105SOL     OW31993   5.596   0.858   1.870  0.4636  0.3851 -0.5759
 7105SOL    HW131994   5.544   0.911   1.937  0.6491  0.6597 -0.6509
 7105SOL    HW231995   5.547   0.858   1.783  0.9668  1.2822 -0.8615
 7106SOL     OW31996   8.396   1.811   3.988  0.2454  0.1090 -0.2426
 7106SOL    HW131997   8.424   1.862   4.069  0.0742 -1.4075  0.7745
 7106SOL    HW231998   8.467   1.746   3.963 -1.4499 -2.3628  1.1753
 7107SOL     OW31999   5.251   6.394   2.725 -0.2391 -0.2955  0.1123
 7107SOL    HW132000   5.271   6.298   2.744  1.1000  0.3514  2.1531
 7107SOL    HW232001   5.159   6.401   2.686 -0.0917 -2.4559 -0.7253
 7108SOL     OW32002   8.365   1.090   1.494 -0.1974  0.2254  0.1518
 7108SOL    HW132003   8.351   1.047   1.405  1.5023 -0.5121  0.2355
 7108SOL    HW232004   8.328   1.031   1.566 -0.6606  0.3612  0.0323
 7109SOL     OW32005   1.741   9.189   0.612 -0.1553 -0.4774  0.2234
 7109SOL    HW132006   1.766   9.228   0.701 -0.4322 -0.6223  0.3650
 7109SOL    HW232007   1.819   9.198   0.549  0.0113 -0.2951  0.4518
 7110SOL     OW32008   7.956   2.469   4.681 -0.6977 -0.1167  0.4854
 7110SOL    HW132009   8.015   2.442   4.757 -0.6179 -0.8511  0.1651
 7110SOL    HW232010   7.931   2.389   4.627  0.3253  0.5523 -1.0398
 7111SOL     OW32011   3.947   7.807   2.236 -0.7084  0.1704  0.3732
 7111SOL    HW132012   3.851   7.835   2.241 -0.9675 -0.8160  1.2659
 7111SOL    HW232013   3.971   7.757   2.320 -0.2636 -2.1981 -1.1164
 7112SOL     OW32014   6.000   0.313   3.600 -0.1080 -0.4502  0.0511
 7112SOL    HW132015   6.035   0.394   3.554 -1.0898 -0.7695 -1.2783
 7112SOL    HW232016   6.077   0.258   3.633  0.5938 -0.0374 -0.8783
 7113SOL     OW32017   1.350   7.493   2.586 -0.1363 -0.3084  0.0446
 7113SOL    HW132018   1.313   7.479   2.494  1.4930 -1.2683 -0.4875
 7113SOL    HW232019   1.337   7.409   2.639  3.4797 -1.5796 -0.9576
 7114SOL     OW32020   2.965   9.294   4.566  0.2013  0.8209 -0.1794
 7114SOL    HW132021   2.899   9.220   4.581  0.6837  0.4058 -0.0710
 7114SOL    HW232022   2.936   9.350   4.489 -0.0638  0.3938 -0.3912
 7115SOL     OW32023   2.093   6.030   0.314  0.1542 -0.3023  0.4869
 7115SOL    HW132024   2.149   5.950   0.337 -0.1342 -0.1427  1.7692
 7115SOL    HW232025   2.094   6.044   0.215 -1.1982 -2.9147  0.0722
 7116SOL     OW32026   3.239   0.594   1.932  0.0932  0.2999 -0.0408
 7116SOL    HW132027   3.237   0.681   1.981 -0.1109 -0.0207  0.5275
 7116SOL    HW232028   3.325   0.586   1.881  0.6187  0.3247  0.8348
 7117SOL     OW32029   0.169   8.257   3.394 -0.2089 -0.8077  0.0832
 7117SOL    HW132030   0.147   8.212   3.307 -0.1870 -2.4521  0.9152
 7117SOL    HW232031   0.115   8.217   3.468  1.0528 -0.6349  1.1195
 7118SOL     OW32032   3.431   3.093   2.567 -0.5930 -0.0298 -0.1282
 7118SOL    HW132033   3.447   3.128   2.474  1.0354  1.9080  0.8631
 7118SOL    HW232034   3.385   3.164   2.621 -0.4525 -0.7343  0.9045
 7119SOL     OW32035   0.518   7.691   3.685  0.1312  0.3135  0.0329
 7119SOL    HW132036   0.419   7.690   3.695  0.1834 -0.1486  0.5350
 7119SOL    HW232037   0.559   7.738   3.764  0.2922  0.8473 -0.3634
 7120SOL     OW32038   2.608   4.844   3.296  0.4462  0.2520  0.1957
 7120SOL    HW132039   2.694   4.826   3.345 -0.8897  0.7747  2.8511
 7120SOL    HW232040   2.593   4.943   3.292  0.1813  0.1776 -0.6277
 7121SOL     OW32041   7.039   7.440   3.109 -0.6753  0.0087  0.6506
 7121SOL    HW132042   6.961   7.502   3.101 -0.9914 -0.4026  0.4777
 7121SOL    HW232043   7.025   7.377   3.185  0.8034  1.7558  2.3998
 7122SOL     OW32044   3.363   9.850   0.577 -0.0041  0.4330 -0.0901
 7122SOL    HW132045   3.278   9.878   0.533 -0.3030 -0.2862  0.0226
 7122SOL    HW232046   3.420   9.799   0.512 -1.0202 -1.7693  0.6986
 7123SOL     OW32047   9.767   7.409   0.490 -0.1270  0.0137  0.3910
 7123SOL    HW132048   9.814   7.348   0.427  1.2519  1.0081  0.4406
 7123SOL    HW232049   9.668   7.392   0.486  0.1290 -1.2874 -0.5577
 7124SOL     OW32050   3.456   8.272   0.512  0.1166 -0.4394 -0.0557
 7124SOL    HW132051   3.503   8.268   0.600  1.4267  0.0736 -0.7174
 7124SOL    HW232052   3.434   8.368   0.491  2.6141 -0.1784 -1.7119
 7125SOL     OW32053   0.615   1.684   1.003 -0.2793 -0.4281  0.2755
 7125SOL    HW132054   0.534   1.696   1.061  0.4342 -1.3439  1.4915
 7125SOL    HW232055   0.697   1.689   1.060  0.4742 -0.4565 -0.8066
 7126SOL     OW32056   6.969   9.982   1.037  0.0280 -0.4160 -0.4163
 7126SOL    HW132057   7.039   9.943   0.978  0.1952  0.2103 -0.6322
 7126SOL    HW232058   6.927   9.909   1.091  2.9404 -0.4519  1.9591
 7127SOL     OW32059   9.440   1.862   0.540 -0.1325 -0.8635  0.9306
 7127SOL    HW132060   9.482   1.853   0.630 -1.5558  1.4806  1.8937
 7127SOL    HW232061   9.439   1.958   0.513  0.3478 -1.5376 -1.6526
 7128SOL     OW32062   8.023   5.074   0.479 -0.4969  0.3682 -0.2017
 7128SOL    HW132063   7.928   5.094   0.505 -0.5922  0.5729 -0.7073
 7128SOL    HW232064   8.024   5.020   0.395 -0.1574  0.5007 -0.2827
 7129SOL     OW32065   6.885   9.067   2.358  0.1761 -0.2110  0.5189
 7129SOL    HW132066   6.981   9.047   2.379  0.4234  0.5930  0.1707
 7129SOL    HW232067   6.868   9.165   2.369 -0.8826 -0.5137  1.6639
 7130SOL     OW32068   1.182   0.001   2.321 -0.1633  0.1664  0.0982
 7130SOL    HW132069   1.098  -0.012   2.373 -0.6946 -1.5828 -1.1366
 7130SOL    HW232070   1.168   0.073   2.253 -0.1072  1.0607  1.0278
 7131SOL     OW32071   8.502   1.368   0.850 -0.1508 -0.1119 -0.3833
 7131SOL    HW132072   8.551   1.282   0.835  2.1615  1.0151  0.3950
 7131SOL    HW232073   8.533   1.409   0.936 -1.1945  1.5211 -0.7600
 7132SOL     OW32074   9.025   4.282   2.161  0.0421 -0.0324 -0.2698
 7132SOL    HW132075   9.099   4.246   2.104 -2.0411 -2.1704 -1.7303
 7132SOL    HW232076   8.985   4.363   2.118 -0.9292 -1.1119 -1.4320
 7133SOL     OW32077   9.586   9.053   0.007  0.1382 -0.0779 -0.1609
 7133SOL    HW132078   9.602   9.008  -0.081 -0.6635  1.7553 -1.2848
 7133SOL    HW232079   9.503   9.108   0.001  0.1015  0.0973  1.7479
 7134SOL     OW32080   9.570   9.799   0.900  0.5708 -0.1570 -0.3952
 7134SOL    HW132081   9.540   9.806   0.995 -0.3060  0.5310 -0.7221
 7134SOL    HW232082   9.595   9.704   0.881  1.1665 -0.2263  0.6355
 7135SOL     OW32083   8.626   1.232   0.270  0.6127  0.1887  0.2528
 7135SOL    HW132084   8.591   1.312   0.220  3.0666  1.9660  1.2734
 7135SOL    HW232085   8.664   1.262   0.357 -1.1018 -2.5326  1.9863
 7136SOL     OW32086   3.794   7.924   3.026  0.0011  0.6379  0.3569
 7136SOL    HW132087   3.825   7.985   3.099 -0.9006 -0.2390  1.4881
 7136SOL    HW232088   3.742   7.848   3.066  0.8211 -0.6930 -1.0533
 7137SOL     OW32089   4.911   1.075   0.998 -0.0063  0.7322  0.0806
 7137SOL    HW132090   4.841   1.060   1.067  0.5191 -1.4878  0.1764
 7137SOL    HW232091   4.975   0.998   0.998  0.4474  1.0536 -2.3503
 7138SOL     OW32092   4.592   1.313   4.044  0.0153 -0.0804 -0.1300
 7138SOL    HW132093   4.603   1.358   4.133  2.4449 -0.9480  0.0454
 7138SOL    HW232094   4.679   1.315   3.995 -1.1354 -0.2310 -2.2080
 7139SOL     OW32095   9.288   0.360   0.992  0.2752  0.2686 -0.0520
 7139SOL    HW132096   9.195   0.377   1.025 -0.2246 -0.6063 -0.9837
 7139SOL    HW232097   9.304   0.413   0.908 -0.4492 -1.8915 -1.5973
 7140SOL     OW32098   4.090   8.743   2.511 -0.6218 -0.0868 -0.0792
 7140SOL    HW132099   4.015   8.802   2.481 -0.3479 -0.6499 -1.9060
 7140SOL    HW232100   4.093   8.743   2.611 -3.4609 -0.5363  0.0627
 7141SOL     OW32101   5.483   7.899   1.925  0.3952 -0.1963 -0.6518
 7141SOL    HW132102   5.428   7.846   1.860 -2.2328  1.8973 -0.2542
 7141SOL    HW232103   5.555   7.947   1.876  0.1794 -0.8381 -1.6144
 7142SOL     OW32104   1.796   1.118   3.220 -0.2394  0.2623  0.4084
 7142SOL    HW132105   1.713   1.160   3.184 -0.8054 -0.7122  0.5824
 7142SOL    HW232106   1.827   1.169   3.301 -0.5283  0.7655  0.2050
 7143SOL     OW32107   6.746   0.049   3.211 -0.0695 -0.5466 -0.3805
 7143SOL    HW132108   6.808   0.122   3.240 -0.1611  0.2072 -2.0314
 7143SOL    HW232109   6.661   0.054   3.264 -0.0163  0.4526 -0.3834
 7144SOL     OW32110   6.858   6.812   2.580  0.0330  0.8202  0.1166
 7144SOL    HW132111   6.774   6.769   2.613  1.3105 -1.7656  0.0610
 7144SOL    HW232112   6.852   6.825   2.481 -0.6316  1.4295  0.2300
 7145SOL     OW32113   9.912   9.412   1.383 -0.5793  0.4700  0.2372
 7145SOL    HW132114   9.822   9.373   1.364 -0.5255 -0.0420  1.0003
 7145SOL    HW232115   9.958   9.357   1.453  0.2726  0.8082 -0.0498
 7146SOL     OW32116   9.436   4.428   3.442 -0.6406  0.4422  0.0251
 7146SOL    HW132117   9.360   4.492   3.455 -0.5858  0.3013  1.0343
 7146SOL    HW232118   9.419   4.373   3.360 -1.3299  0.8316 -0.0991
 7147SOL     OW32119   8.308   1.116   3.588  0.2223  0.3539 -0.1620
 7147SOL    HW132120   8.273   1.132   3.496  0.2891 -1.0004 -0.4250
 7147SOL    HW232121   8.329   1.019   3.600  3.1034  0.9934  0.2606
 7148SOL     OW32122   0.026   3.740   3.122  0.0166 -0.2459  0.3970
 7148SOL    HW132123   0.116   3.704   3.148 -0.1755 -0.0365  1.3753
 7148SOL    HW232124  -0.003   3.699   3.036  0.7421 -0.8457  0.4361
 7149SOL     OW32125   1.830   6.530   3.490  0.4173  0.5724 -0.0221
 7149SOL    HW132126   1.753   6.466   3.487  0.5201  0.4133  0.6957
 7149SOL    HW232127   1.825   6.592   3.411 -0.6395  0.7842  0.2002
 7150SOL     OW32128   5.768   8.440   1.962 -0.2603  0.2043 -0.6459
 7150SOL    HW132129   5.683   8.493   1.956 -0.3075  0.1551 -0.4319
 7150SOL    HW232130   5.823   8.473   2.039  0.1149  0.5236 -1.0505
 7151SOL     OW32131   3.821   1.988   2.378 -0.0853  0.1565 -0.0056
 7151SOL    HW132132   3.742   1.930   2.394 -0.1754  0.4045  0.4538
 7151SOL    HW232133   3.791   2.073   2.334 -0.0668  0.2226  0.1089
 7152SOL     OW32134   3.832   5.394   1.157 -0.4634 -0.7840 -0.4233
 7152SOL    HW132135   3.898   5.441   1.216 -1.1195 -0.6457  0.2048
 7152SOL    HW232136   3.858   5.298   1.148 -1.5750 -1.3354  1.8945
 7153SOL     OW32137   8.100   0.760   3.318 -0.2386 -0.2079  0.1646
 7153SOL    HW132138   8.024   0.792   3.262  0.8619  0.0547 -1.2176
 7153SOL    HW232139   8.081   0.668   3.351 -0.7015 -0.5561 -1.0405
 7154SOL     OW32140   0.787   3.409   4.565  0.1674  0.4098 -0.1830
 7154SOL    HW132141   0.770   3.316   4.595  1.3579 -0.0065 -0.7680
 7154SOL    HW232142   0.770   3.417   4.467 -2.2148  1.3932  0.2894
 7155SOL     OW32143   6.899   9.425   4.242 -0.2142 -0.3379 -0.5402
 7155SOL    HW132144   6.893   9.435   4.142 -0.1119 -0.5594 -0.5696
 7155SOL    HW232145   6.956   9.499   4.279 -1.1170  0.3660 -0.5207
 7156SOL     OW32146   1.570   5.334   1.087 -0.9335 -0.2774 -0.0291
 7156SOL    HW132147   1.600   5.316   1.181 -2.6480 -1.2285  0.3617
 7156SOL    HW232148   1.553   5.432   1.076 -1.6143 -0.2715  0.9493
 7157SOL     OW32149   0.060   3.297   3.158 -0.2859  0.1867  0.2119
 7157SOL    HW132150   0.010   3.211   3.164 -0.6901  0.5599  2.8457
 7157SOL    HW232151   0.036   3.355   3.236  1.9151  1.6464 -0.1473
 7158SOL     OW32152   3.187   8.858   4.068 -0.0480  0.5784  0.0479
 7158SOL    HW132153   3.154   8.857   4.162  0.4339 -0.7656  0.2144
 7158SOL    HW232154   3.159   8.943   4.024 -2.3616  0.1711  0.6589
 7159SOL     OW32155   5.615   8.672   2.612  0.4157  0.2554 -0.1475
 7159SOL    HW132156   5.711   8.646   2.605  0.7923  1.5632  0.1343
 7159SOL    HW232157   5.605   8.745   2.680 -0.8153 -0.0651  0.0327
 7160SOL     OW32158   7.351   0.421   3.563 -0.6887  0.1260  0.0079
 7160SOL    HW132159   7.331   0.423   3.662 -1.7185 -1.0363 -0.1636
 7160SOL    HW232160   7.430   0.479   3.544  0.0119 -0.2584  1.6316
 7161SOL     OW32161   1.273   3.702   0.769 -0.5681 -0.2305 -0.2763
 7161SOL    HW132162   1.198   3.745   0.718 -0.0618 -1.2954 -1.9525
 7161SOL    HW232163   1.238   3.666   0.855 -1.7043  0.4933 -0.4284
 7162SOL     OW32164   1.786   5.718   2.837  0.1740  0.4573 -0.0811
 7162SOL    HW132165   1.709   5.754   2.890  0.8562  0.6475  0.7959
 7162SOL    HW232166   1.769   5.732   2.740 -1.3071 -0.3024  0.0461
 7163SOL     OW32167   2.826   8.408   1.973  0.4262 -0.2271 -0.2778
 7163SOL    HW132168   2.822   8.455   1.885 -0.0600  0.6619  0.2072
 7163SOL    HW232169   2.911   8.433   2.020 -0.0113  0.4996  0.1486
 7164SOL     OW32170   1.012   9.198   3.302 -0.3390  0.1794  0.5705
 7164SOL    HW132171   1.019   9.121   3.239  2.7430  0.6877  0.2372
 7164SOL    HW232172   0.984   9.165   3.392  1.6673 -1.4461  0.6159
 7165SOL     OW32173   7.430   8.739   2.594  1.0625 -0.6745 -0.5029
 7165SOL    HW132174   7.481   8.773   2.673  1.7150 -2.3107 -0.2020
 7165SOL    HW232175   7.494   8.708   2.523  0.4819  0.1601 -1.4062
 7166SOL     OW32176   2.763   0.816   2.421 -0.2261 -0.2493  0.4054
 7166SOL    HW132177   2.730   0.906   2.393  0.4496  0.3971  1.6593
 7166SOL    HW232178   2.700   0.776   2.487 -1.1553 -1.2279 -1.0463
 7167SOL     OW32179   1.907   5.810   3.472  0.5869 -0.3214  0.3908
 7167SOL    HW132180   1.903   5.892   3.416  3.5799 -0.1433  0.3836
 7167SOL    HW232181   1.907   5.729   3.413  1.8057 -0.1874  0.1898
 7168SOL     OW32182   4.632   1.153   0.516 -0.3980 -0.0961  0.1609
 7168SOL    HW132183   4.670   1.235   0.559  0.4692 -0.7057  0.5864
 7168SOL    HW232184   4.581   1.100   0.584 -0.5316 -0.1627  0.0089
 7169SOL     OW32185   3.392   8.845   4.539 -0.0489 -0.3683  0.0988
 7169SOL    HW132186   3.483   8.804   4.552  0.1907 -0.9522 -2.9815
 7169SOL    HW232187   3.382   8.923   4.600  2.4725 -0.4303  0.6447
 7170SOL     OW32188   5.332   4.718   0.532  0.1037  0.0783 -0.0954
 7170SOL    HW132189   5.380   4.789   0.583  0.0730  0.1354 -0.1478
 7170SOL    HW232190   5.398   4.661   0.484  0.3654 -1.7402  2.2887
 7171SOL     OW32191   6.778   9.634   1.467  0.6672  0.5766 -0.0895
 7171SOL    HW132192   6.752   9.674   1.555  1.5862  2.4303 -0.6392
 7171SOL    HW232193   6.712   9.661   1.397 -0.6742 -1.7921  0.2238
 7172SOL     OW32194   2.734   0.952   4.087  0.7232 -0.0727  0.5770
 7172SOL    HW132195   2.685   0.902   4.016  0.6082  0.8732 -0.0182
 7172SOL    HW232196   2.677   0.958   4.169  0.8314 -1.1093  0.7369
 7173SOL     OW32197   4.746   9.036   3.257  0.3033 -0.7844 -0.6220
 7173SOL    HW132198   4.674   8.967   3.246  0.3169 -0.8714 -0.1933
 7173SOL    HW232199   4.825   9.012   3.200  0.2772 -1.0795 -0.5347
 7174SOL     OW32200   7.022   9.467   0.754 -0.0810  0.1443 -0.4386
 7174SOL    HW132201   7.052   9.522   0.676 -0.9842 -0.0830 -0.9526
 7174SOL    HW232202   6.955   9.519   0.807  0.0973  0.0659 -0.1315
 7175SOL     OW32203   1.921   2.417   2.553 -0.1074 -0.0432  0.2611
 7175SOL    HW132204   1.971   2.391   2.636  0.0357  0.3476  0.2986
 7175SOL    HW232205   1.948   2.356   2.478 -1.0149 -1.0718  0.7552
 7176SOL     OW32206   7.870   9.278   2.100 -0.1711 -0.0262 -0.1553
 7176SOL    HW132207   7.955   9.252   2.147 -0.3827 -1.5148 -0.5549
 7176SOL    HW232208   7.808   9.200   2.099 -0.7397  0.4233 -1.6391
 7177SOL     OW32209   3.206   1.460   1.258 -0.0456  0.3056  0.1908
 7177SOL    HW132210   3.124   1.478   1.204  0.6761  0.7642 -0.7696
 7177SOL    HW232211   3.182   1.455   1.355 -1.3707 -0.6109 -0.1726
 7178SOL     OW32212   7.346   0.066   1.320 -0.2293 -0.3151  0.2618
 7178SOL    HW132213   7.424   0.025   1.370  0.4685  1.7052  0.8821
 7178SOL    HW232214   7.366   0.066   1.222  0.7520  0.5715  0.4511
 7179SOL     OW32215   8.292   4.500   2.554  0.2068  0.2488 -0.4544
 7179SOL    HW132216   8.344   4.420   2.526 -0.6966  0.4496 -2.7560
 7179SOL    HW232217   8.335   4.583   2.517 -1.2588  0.4754 -1.7012
 7180SOL     OW32218   3.377   0.029   2.447  0.4966 -0.6054 -0.1501
 7180SOL    HW132219   3.462   0.079   2.466  0.4717 -0.7093  0.2429
 7180SOL    HW232220   3.372   0.008   2.350 -0.4618  1.9698 -0.6996
 7181SOL     OW32221   9.136   8.030   0.108  0.2521  0.1252  0.1945
 7181SOL    HW132222   9.235   8.019   0.121  0.6979 -0.8851 -3.4724
 7181SOL    HW232223   9.117   8.122   0.073 -0.0166  0.0215  0.0646
 7182SOL     OW32224   3.298   0.956   2.742  0.6615 -0.5224 -0.2236
 7182SOL    HW132225   3.219   0.898   2.762 -1.0680  1.6284 -0.6269
 7182SOL    HW232226   3.329   0.940   2.648  0.5442 -1.1776 -0.1504
 7183SOL     OW32227   3.300   4.877   1.299 -0.5865  0.3776  0.1892
 7183SOL    HW132228   3.216   4.823   1.305  0.2977 -0.9655  0.7857
 7183SOL    HW232229   3.299   4.947   1.370 -2.0226  1.5982 -0.9805
 7184SOL     OW32230   9.443   3.526   0.119  0.0068 -0.7263  0.4695
 7184SOL    HW132231   9.386   3.581   0.059  0.8305  0.9771  1.2148
 7184SOL    HW232232   9.483   3.450   0.068 -0.8501 -0.4304 -0.6484
 7185SOL     OW32233   0.309   0.238   3.131 -0.5433 -0.0716  0.1131
 7185SOL    HW132234   0.282   0.243   3.035  1.4835  0.9398 -0.4207
 7185SOL    HW232235   0.255   0.167   3.177 -2.5117  0.3917 -1.4221
 7186SOL     OW32236   1.007   6.661   2.375 -0.4062  0.0677  0.1936
 7186SOL    HW132237   1.090   6.615   2.407 -0.7823  1.0389  2.7405
 7186SOL    HW232238   0.998   6.650   2.276  1.7911 -1.5835  0.1427
 7187SOL     OW32239   7.122   8.635   1.044 -0.3186  0.1858 -0.1603
 7187SOL    HW132240   7.207   8.685   1.027 -0.3296  1.0143  2.0484
 7187SOL    HW232241   7.143   8.543   1.077 -0.2907 -0.1735 -1.1716
 7188SOL     OW32242   2.555   9.093   0.213  0.0988 -0.0477  0.0620
 7188SOL    HW132243   2.592   9.179   0.178  0.1667 -0.6439 -1.4036
 7188SOL    HW232244   2.455   9.093   0.203  0.2943 -1.0932 -2.2547
 7189SOL     OW32245   2.891   3.677   1.714 -0.2804  0.3667 -0.0648
 7189SOL    HW132246   2.796   3.658   1.689 -0.4054  0.3763  0.4133
 7189SOL    HW232247   2.901   3.773   1.736 -0.2540  0.2723  0.3281
 7190SOL     OW32248   2.124   3.142   0.913 -0.1420  0.7041 -0.5973
 7190SOL    HW132249   2.185   3.169   0.838  0.5479 -1.3646 -0.8055
 7190SOL    HW232250   2.165   3.169   1.000  0.0203  1.2862 -0.8515
 7191SOL     OW32251   4.107   9.115   2.257  0.4933 -0.6605  0.1619
 7191SOL    HW132252   4.150   9.037   2.303  1.2387 -0.8445 -0.8278
 7191SOL    HW232253   4.131   9.114   2.160 -0.2093  0.3130 -0.0306
 7192SOL     OW32254   2.721   6.239   0.425  0.3653  0.2985 -0.1011
 7192SOL    HW132255   2.648   6.304   0.404  1.6553  1.5677 -0.7356
 7192SOL    HW232256   2.739   6.241   0.524 -0.2065  0.2372  0.0078
 7193SOL     OW32257   1.039   9.710   0.901 -0.0350 -0.1314 -0.1746
 7193SOL    HW132258   1.138   9.705   0.910  0.1805 -1.4493 -2.6938
 7193SOL    HW232259   0.996   9.655   0.973  1.0647  0.2380  0.7690
 7194SOL     OW32260   4.618   0.842   2.338  0.0997  0.0325 -0.0145
 7194SOL    HW132261   4.605   0.807   2.245 -1.0512  1.7443 -0.5186
 7194SOL    HW232262   4.715   0.853   2.357  0.3175  0.1063 -1.1818
 7195SOL     OW32263   5.052   1.394   2.237  0.3995 -0.3764  0.4246
 7195SOL    HW132264   5.028   1.411   2.142  1.8016 -2.8929 -0.4284
 7195SOL    HW232265   5.051   1.480   2.288 -0.7785  0.9291 -1.7574
 7196SOL     OW32266   0.613   7.834   4.229  0.3075  0.0954 -0.7387
 7196SOL    HW132267   0.639   7.915   4.282  1.7876 -0.5472 -0.4571
 7196SOL    HW232268   0.570   7.767   4.289  0.1548  0.1916 -0.7416
 7197SOL     OW32269   5.872   9.295   3.437 -0.2005  0.6432 -0.4860
 7197SOL    HW132270   5.906   9.207   3.471 -1.9988 -0.5120 -1.6086
 7197SOL    HW232271   5.772   9.297   3.445 -0.0704  3.2756  1.1051
 7198SOL     OW32272   8.707   3.739   1.989 -0.2423 -0.5076  0.0187
 7198SOL    HW132273   8.769   3.787   1.926  0.7889 -0.7255  0.8514
 7198SOL    HW232274   8.761   3.678   2.047 -1.1046  0.1915  1.5670
 7199SOL     OW32275   0.735   1.425   0.715 -0.3512  0.5753  0.7408
 7199SOL    HW132276   0.759   1.432   0.812 -1.4213  1.0906  0.9763
 7199SOL    HW232277   0.814   1.451   0.659 -0.0196  1.1735  1.4788
 7200SOL     OW32278   7.867   0.321   0.768  0.3305 -0.1692  0.2728
 7200SOL    HW132279   7.768   0.325   0.754  0.0876 -1.4204  1.4908
 7200SOL    HW232280   7.902   0.234   0.732  0.9992  0.3118 -0.2453
 7201SOL     OW32281   3.197   7.905   1.147  0.2820 -0.0541  0.1896
 7201SOL    HW132282   3.141   7.918   1.229 -1.0352  1.4715 -0.9243
 7201SOL    HW232283   3.288   7.944   1.162 -0.4080  1.4775  0.4343
 7202SOL     OW32284   3.660   8.517   1.908 -0.4739  0.1042 -0.1956
 7202SOL    HW132285   3.582   8.546   1.964 -0.5376  0.1897 -0.3292
 7202SOL    HW232286   3.732   8.482   1.968 -0.7852 -0.3783 -0.0996
 7203SOL     OW32287   9.832   1.527   0.808  0.1481  0.5018  0.0167
 7203SOL    HW132288   9.782   1.442   0.798  0.8072  0.1469 -0.3078
 7203SOL    HW232289   9.799   1.593   0.740 -0.9490  0.7930  0.8318
 7204SOL     OW32290   8.942   3.945   1.133 -0.2445  0.1528 -0.0678
 7204SOL    HW132291   8.995   3.953   1.218 -1.5839  0.9041  0.7245
 7204SOL    HW232292   8.903   3.853   1.128 -1.3376  0.5502  0.8669
 7205SOL     OW32293   1.048   1.403   1.251  1.0036  0.8893 -0.5831
 7205SOL    HW132294   1.079   1.391   1.157 -0.6061  2.4269 -1.3291
 7205SOL    HW232295   0.948   1.411   1.253  0.9354 -0.1049  1.3632
 7206SOL     OW32296   1.282   0.953   2.875 -0.0374 -0.2007 -0.1314
 7206SOL    HW132297   1.354   0.902   2.829 -0.8993 -0.5831 -1.0661
 7206SOL    HW232298   1.192   0.918   2.848 -0.6361  1.4438 -0.3809
 7207SOL     OW32299   9.120   8.799   1.064  0.8171 -0.1204  0.2435
 7207SOL    HW132300   9.159   8.711   1.035  0.5261 -0.6287  1.3617
 7207SOL    HW232301   9.191   8.856   1.105  0.6722 -0.4941  1.0178
 7208SOL     OW32302   2.038   8.559   2.519 -0.1533  0.1777  0.3776
 7208SOL    HW132303   2.128   8.548   2.560  1.0460 -0.7894 -2.4183
 7208SOL    HW232304   2.045   8.613   2.435 -2.0310 -0.6664 -0.3551
 7209SOL     OW32305   2.493   2.820   0.491  0.0740 -0.1193 -0.3642
 7209SOL    HW132306   2.468   2.728   0.521 -2.9674  0.7579  0.0502
 7209SOL    HW232307   2.529   2.872   0.569 -1.3177  0.0253  0.2027
 7210SOL     OW32308   0.556   8.440   0.113 -0.5783  0.3603 -0.9755
 7210SOL    HW132309   0.558   8.414   0.210  0.9274  1.1683 -0.7781
 7210SOL    HW232310   0.589   8.364   0.058  1.3176  0.8845 -0.6071
 7211SOL     OW32311   8.938   8.232   2.026  0.3806 -0.3048 -0.3638
 7211SOL    HW132312   8.953   8.134   2.018  1.2542 -0.1820 -0.2909
 7211SOL    HW232313   9.026   8.279   2.037 -0.0764  0.4222  0.2827
 7212SOL     OW32314   6.794   1.051   2.488 -0.5834 -0.3415  0.0562
 7212SOL    HW132315   6.841   0.984   2.430 -0.7598 -0.6885  0.3121
 7212SOL    HW232316   6.771   1.009   2.575 -2.6356 -0.6172 -0.5879
 7213SOL     OW32317   2.397   5.595   4.595  0.0927 -0.0560 -0.0545
 7213SOL    HW132318   2.398   5.498   4.620 -0.3659  0.2524  1.1969
 7213SOL    HW232319   2.332   5.644   4.654  2.1767  1.4661  1.0372
 7214SOL     OW32320   9.447   2.303   4.559 -0.0277  0.1670 -0.3908
 7214SOL    HW132321   9.523   2.368   4.554  1.2997 -1.3038 -0.1322
 7214SOL    HW232322   9.475   2.226   4.617 -1.6624 -0.4872 -0.4685
 7215SOL     OW32323   8.803   5.925   2.945 -0.4990 -0.2763 -0.6459
 7215SOL    HW132324   8.850   5.897   3.028 -1.3091  1.0790  0.2849
 7215SOL    HW232325   8.823   5.860   2.871  2.2567 -0.0923 -0.0872
 7216SOL     OW32326   7.887   9.496   4.522  0.2742 -0.0871 -0.3911
 7216SOL    HW132327   7.982   9.527   4.515  0.2444 -0.1890 -1.2389
 7216SOL    HW232328   7.879   9.431   4.597  0.6306  0.8532  0.4790
 7217SOL     OW32329   0.873   1.004   1.856  0.6755  0.5704 -0.0573
 7217SOL    HW132330   0.838   0.911   1.850 -0.1797  0.8010  1.2015
 7217SOL    HW232331   0.813   1.065   1.804  0.3179  0.6675  0.4705
 7218SOL     OW32332   4.644   7.530   1.403 -0.0617  0.0801  0.3005
 7218SOL    HW132333   4.625   7.611   1.348 -0.8504  0.9599  1.8318
 7218SOL    HW232334   4.731   7.541   1.450 -2.0117  1.9252  3.7443
 7219SOL     OW32335   4.723   1.839   3.108 -0.0563 -0.0919 -0.3355
 7219SOL    HW132336   4.745   1.752   3.151 -0.8940  0.3982  1.1129
 7219SOL    HW232337   4.639   1.829   3.053 -0.9980  0.1492  1.0307
 7220SOL     OW32338   8.510   1.079   4.402  0.0227  0.0872  0.4034
 7220SOL    HW132339   8.500   1.152   4.470  0.5381  1.2970 -0.8047
 7220SOL    HW232340   8.444   1.092   4.329  2.0328  1.0117 -1.2830
 7221SOL     OW32341   3.055   9.185   1.476 -0.1144  0.3096  0.6511
 7221SOL    HW132342   3.014   9.275   1.459 -0.4229  0.4267  1.9479
 7221SOL    HW232343   3.126   9.168   1.408 -1.9945  0.2938 -1.3482
 7222SOL     OW32344   6.378   8.292   1.861 -0.2237 -0.0572  0.0490
 7222SOL    HW132345   6.371   8.192   1.868 -0.3323 -0.0823 -0.3872
 7222SOL    HW232346   6.301   8.334   1.906 -0.0873 -0.1668  0.3867
 7223SOL     OW32347   2.068   1.391   0.059 -0.5646  0.2760 -0.5556
 7223SOL    HW132348   1.978   1.352   0.040 -0.5341  0.6737 -1.5561
 7223SOL    HW232349   2.101   1.439  -0.022  0.9386 -0.6151 -0.4911
 7224SOL     OW32350   4.844   7.374   3.083 -0.6240  0.5945  0.0240
 7224SOL    HW132351   4.912   7.398   3.014  0.7981 -0.6328  0.9657
 7224SOL    HW232352   4.831   7.451   3.146  0.6857  0.4738  0.4549
 7225SOL     OW32353   0.092   4.172   0.494  0.1437 -0.2999  0.0208
 7225SOL    HW132354   0.008   4.210   0.532  0.8990 -0.0767  1.4808
 7225SOL    HW232355   0.167   4.237   0.508  0.8236 -1.0437 -0.1554
 7226SOL     OW32356   2.001   6.579   2.603 -0.0928 -0.2048 -0.1626
 7226SOL    HW132357   2.061   6.537   2.671 -0.4175 -1.8413 -0.8703
 7226SOL    HW232358   1.916   6.607   2.647  0.4865  0.5613  0.4959
 7227SOL     OW32359   4.578   6.756   1.836  0.4627  0.1628  0.2760
 7227SOL    HW132360   4.529   6.670   1.850  1.8134 -0.4037  1.5538
 7227SOL    HW232361   4.605   6.795   1.924  1.2013  1.1176 -0.3568
 7228SOL     OW32362   0.417   6.232   4.363 -0.6868 -0.2969  0.2978
 7228SOL    HW132363   0.383   6.296   4.432 -1.3944  0.6828 -0.9418
 7228SOL    HW232364   0.506   6.263   4.329 -1.5189  0.5891 -1.0602
 7229SOL     OW32365   7.778   1.173   2.235 -0.2656  0.5155 -0.0573
 7229SOL    HW132366   7.700   1.170   2.297  0.0890  1.0041  0.4114
 7229SOL    HW232367   7.795   1.081   2.199 -0.2812  0.1682  0.8055
 7230SOL     OW32368   2.665   9.182   3.001  0.3725  0.2351 -0.0565
 7230SOL    HW132369   2.736   9.206   2.935 -0.0829  1.4978 -0.0897
 7230SOL    HW232370   2.577   9.218   2.970 -0.2045 -0.9301  0.2142
 7231SOL     OW32371   1.021   1.487   3.849  0.2753  0.2448  0.1658
 7231SOL    HW132372   1.082   1.451   3.779 -0.5448 -0.7409 -0.0609
 7231SOL    HW232373   0.955   1.549   3.807 -0.2388 -0.3737  0.0521
 7232SOL     OW32374   9.299   6.381   2.191 -0.1066 -0.4468 -0.0032
 7232SOL    HW132375   9.269   6.458   2.246 -0.4343 -0.4145 -0.2227
 7232SOL    HW232376   9.358   6.413   2.117 -2.4155 -0.0428 -1.7462
 7233SOL     OW32377   3.514   8.011   4.409  0.3547 -0.2654 -0.3149
 7233SOL    HW132378   3.495   7.996   4.506  1.7821  1.4339  0.2587
 7233SOL    HW232379   3.429   8.031   4.361 -0.0259  1.8234  1.1676
 7234SOL     OW32380   4.245   7.307   3.372 -1.1095 -0.2542  0.0138
 7234SOL    HW132381   4.262   7.396   3.329 -0.1874 -1.1052 -1.4263
 7234SOL    HW232382   4.180   7.318   3.447  0.1477  1.8948  0.8420
 7235SOL     OW32383   1.360   1.673   1.857 -0.0991  0.4272  0.3498
 7235SOL    HW132384   1.432   1.606   1.875 -0.8327 -0.2172  0.9636
 7235SOL    HW232385   1.271   1.631   1.877 -0.6792  1.0095 -0.9872
 7236SOL     OW32386   8.809   2.313   3.474  0.4553  0.3520 -0.3826
 7236SOL    HW132387   8.863   2.372   3.414  0.3746  1.2670  0.4305
 7236SOL    HW232388   8.870   2.257   3.530  0.5550  0.6046 -0.2373
 7237SOL     OW32389   8.731   7.535   2.626  0.0078  0.7231 -0.6169
 7237SOL    HW132390   8.643   7.567   2.659  1.5859  2.2438  2.3528
 7237SOL    HW232391   8.774   7.606   2.570  0.6669  1.2426  0.5273
 7238SOL     OW32392   9.319   1.239   0.527  0.6336 -0.0382 -0.5755
 7238SOL    HW132393   9.271   1.324   0.549  1.9815  0.6855 -0.3759
 7238SOL    HW232394   9.313   1.176   0.605 -0.3722 -0.1245 -0.7255
 7239SOL     OW32395   0.943   3.844   4.742 -0.5979 -0.7547 -0.1958
 7239SOL    HW132396   0.984   3.877   4.827 -0.1441 -1.6304 -0.0640
 7239SOL    HW232397   0.906   3.921   4.691  0.1980 -0.0764  0.2258
 7240SOL     OW32398   4.251   9.471   2.835  0.2735 -0.2435 -0.3251
 7240SOL    HW132399   4.231   9.380   2.870 -0.0568  0.2074  0.6843
 7240SOL    HW232400   4.165   9.518   2.811  0.4142 -0.0377 -0.4380
 7241SOL     OW32401   2.961   1.645   2.953 -0.2914  0.3214 -0.1701
 7241SOL    HW132402   2.897   1.715   2.985 -1.0138 -0.3093 -0.1962
 7241SOL    HW232403   2.960   1.568   3.017  0.6562  0.4230 -0.0261
 7242SOL     OW32404   1.351   1.068   3.447 -0.7334  0.0219  0.0624
 7242SOL    HW132405   1.341   1.129   3.525  1.3153  0.2537  0.1655
 7242SOL    HW232406   1.365   0.974   3.479  0.3858  0.1599 -0.0197
 7243SOL     OW32407   3.392   8.605   3.316 -0.0941  0.1587 -0.0909
 7243SOL    HW132408   3.371   8.578   3.222  0.0019 -2.1444  0.5166
 7243SOL    HW232409   3.312   8.590   3.374  0.7945 -1.4407  0.7711
 7244SOL     OW32410   8.324   3.379   2.594 -0.8187 -0.0165  1.0210
 7244SOL    HW132411   8.412   3.335   2.573 -0.0252  1.0549  2.0084
 7244SOL    HW232412   8.277   3.401   2.508  0.2333  0.0901  0.4534
 7245SOL     OW32413   3.202   1.881   1.952 -0.0682 -0.2041 -0.4537
 7245SOL    HW132414   3.140   1.839   2.018 -0.3997  2.3785  0.9647
 7245SOL    HW232415   3.171   1.859   1.859 -1.5189 -1.1914  0.2424
 7246SOL     OW32416   8.165   6.404   3.322 -0.1481 -0.1014  0.2931
 7246SOL    HW132417   8.230   6.458   3.268 -0.1142 -1.5027 -1.1059
 7246SOL    HW232418   8.215   6.346   3.386 -0.0769 -0.2119  0.1387
 7247SOL     OW32419   8.550   8.543   2.203 -0.3250 -0.2813  0.2490
 7247SOL    HW132420   8.639   8.499   2.193 -0.9316 -1.1415 -1.5249
 7247SOL    HW232421   8.514   8.525   2.295 -0.1602 -2.7937 -0.1281
 7248SOL     OW32422   1.015   2.115   1.904  0.0256 -0.4789 -0.0373
 7248SOL    HW132423   1.080   2.047   1.870 -0.8429 -0.2783 -2.1901
 7248SOL    HW232424   1.046   2.150   1.992  1.9753 -1.5787 -0.2600
 7249SOL     OW32425   9.208   5.762   0.065 -0.4308  0.2867 -0.3422
 7249SOL    HW132426   9.189   5.841   0.123  1.4262  0.7212 -0.3137
 7249SOL    HW232427   9.131   5.748   0.003  0.1214  3.4757 -1.8429
 7250SOL     OW32428   9.777   5.678   3.172 -0.0224 -0.3222  0.0885
 7250SOL    HW132429   9.829   5.722   3.099 -1.3044 -1.7672 -1.7326
 7250SOL    HW232430   9.681   5.707   3.167  0.0308  0.1988  1.7237
 7251SOL     OW32431   1.597   5.216   2.394 -0.2480 -0.6424  0.0068
 7251SOL    HW132432   1.696   5.203   2.383  0.0014  0.1698  1.2695
 7251SOL    HW232433   1.550   5.129   2.379  0.6964 -1.1371 -0.0996
 7252SOL     OW32434   9.697   9.582   4.055  0.1432  0.5657  0.4602
 7252SOL    HW132435   9.758   9.544   3.985  0.4838  1.8360  0.0585
 7252SOL    HW232436   9.685   9.680   4.039 -2.0076  0.3404  0.5320
 7253SOL     OW32437   3.777   0.521   1.134  0.7859 -0.4408  0.5424
 7253SOL    HW132438   3.802   0.572   1.216  1.8836 -0.4908  0.2483
 7253SOL    HW232439   3.821   0.563   1.054  0.6422 -1.0695  0.1301
 7254SOL     OW32440   2.786   2.767   1.090 -0.3827  0.2422  0.1862
 7254SOL    HW132441   2.698   2.733   1.056 -0.1044 -0.4964  0.1968
 7254SOL    HW232442   2.860   2.713   1.051  0.2043  2.1109 -1.3976
 7255SOL     OW32443   5.019   1.348   2.511  0.2268 -0.1246 -0.1395
 7255SOL    HW132444   5.095   1.407   2.536 -0.0459  0.7116 -1.1948
 7255SOL    HW232445   4.992   1.368   2.416 -0.8540 -0.8831 -0.0009
 7256SOL     OW32446   3.057   7.219   4.710 -0.0758 -0.0741  0.0546
 7256SOL    HW132447   3.115   7.146   4.675 -1.5460 -1.3161  0.1991
 7256SOL    HW232448   3.041   7.287   4.638  1.0222 -0.0496 -0.1705
 7257SOL     OW32449   1.090   7.216   1.990 -0.0874 -0.5210 -0.2494
 7257SOL    HW132450   0.994   7.209   2.019  0.0947  3.2197  1.6080
 7257SOL    HW232451   1.093   7.239   1.892 -1.1791  1.3491  0.1311
 7258SOL     OW32452   8.034   6.633   3.403 -0.3442  0.4423 -0.1726
 7258SOL    HW132453   8.070   6.708   3.347 -0.0459  1.4590  1.3676
 7258SOL    HW232454   8.089   6.551   3.388  0.6444  1.1181 -0.2597
 7259SOL     OW32455   1.696   6.719   2.567  0.1805  0.2165 -0.2098
 7259SOL    HW132456   1.690   6.630   2.612  0.7374 -0.1015 -0.7505
 7259SOL    HW232457   1.690   6.707   2.468 -2.7357  1.0642 -0.1873
 7260SOL     OW32458   0.122   9.228   3.990  0.3117  0.4864 -0.0940
 7260SOL    HW132459   0.147   9.142   4.034  1.7516  0.9266 -0.0151
 7260SOL    HW232460   0.076   9.209   3.903  1.0022 -0.3689 -0.2831
 7261SOL     OW32461   7.658   1.691   3.621  0.7607 -0.3455 -0.1107
 7261SOL    HW132462   7.693   1.601   3.595 -1.4944 -0.9280 -1.2526
 7261SOL    HW232463   7.618   1.735   3.540  0.1902  0.8872  0.8394
 7262SOL     OW32464   1.683   3.463   4.623  0.2163 -0.1829  0.0258
 7262SOL    HW132465   1.601   3.465   4.680  0.3754  2.1824  0.2229
 7262SOL    HW232466   1.658   3.463   4.527 -0.0299  2.9468  0.0618
 7263SOL     OW32467   3.892   7.408   0.579  0.1287 -0.0213 -0.1645
 7263SOL    HW132468   3.866   7.328   0.633  2.2580 -0.1905  0.6753
 7263SOL    HW232469   3.909   7.381   0.484 -2.9884  0.1610 -0.8136
 7264SOL     OW32470   5.449   9.401   3.058 -0.1416  0.4695 -0.3534
 7264SOL    HW132471   5.385   9.365   2.990 -0.3746  1.8309 -0.8730
 7264SOL    HW232472   5.538   9.356   3.048  0.4307  2.0194 -2.9117
 7265SOL     OW32473   4.493   0.783   1.256 -0.0066  0.3127 -0.0744
 7265SOL    HW132474   4.530   0.758   1.166  0.4043 -1.3336  0.5277
 7265SOL    HW232475   4.438   0.866   1.248  0.8514  0.7448 -1.6586
 7266SOL     OW32476   4.727   6.901   2.935  0.8182  0.3240  0.1619
 7266SOL    HW132477   4.701   6.806   2.956  1.7474 -0.0136 -0.1729
 7266SOL    HW232478   4.719   6.917   2.837 -1.6020  1.3091  0.4863
 7267SOL     OW32479   7.496   8.888   4.654  0.1889  0.0006 -0.4230
 7267SOL    HW132480   7.588   8.854   4.636  1.3397  1.5982  2.0762
 7267SOL    HW232481   7.458   8.838   4.732 -0.1342  0.9195  0.0098
 7268SOL     OW32482   0.589   9.287   1.966 -0.3690  0.2907  0.2323
 7268SOL    HW132483   0.522   9.243   2.025 -1.5607 -1.8520 -2.5733
 7268SOL    HW232484   0.549   9.367   1.922 -0.5202  0.0579 -0.0571
 7269SOL     OW32485   0.796   0.738   1.777  0.0114  0.3199  0.4226
 7269SOL    HW132486   0.869   0.692   1.826 -0.4249 -1.8841 -0.9231
 7269SOL    HW232487   0.715   0.679   1.773 -0.4842  1.0757 -1.5551
 7270SOL     OW32488   9.866   3.115   2.092 -0.1360  0.0459 -0.3817
 7270SOL    HW132489   9.851   3.126   2.191 -0.3447 -1.3475 -0.2602
 7270SOL    HW232490   9.931   3.184   2.061  0.0330  0.4098  0.7515
 7271SOL     OW32491   8.128   2.353   1.279 -0.1817 -0.4232  0.2511
 7271SOL    HW132492   8.208   2.390   1.327 -0.4105 -1.9287  1.8688
 7271SOL    HW232493   8.146   2.349   1.181  0.4739  2.3287  0.2233
 7272SOL     OW32494   7.351   0.294   0.045 -0.0302 -0.9002  0.1771
 7272SOL    HW132495   7.303   0.255  -0.033 -0.3978  0.5521 -0.3300
 7272SOL    HW232496   7.289   0.298   0.123 -0.2199 -0.6055  0.0104
 7273SOL     OW32497   7.385   8.735   1.032  0.1335  0.2458  0.1350
 7273SOL    HW132498   7.468   8.704   1.078 -2.0520  1.5502  5.2651
 7273SOL    HW232499   7.398   8.829   0.999  0.9244  0.1927  0.2990
 7274SOL     OW32500   9.777   8.700   2.367 -0.9874  0.1097  0.3137
 7274SOL    HW132501   9.734   8.610   2.356 -0.3311 -0.1837  0.0891
 7274SOL    HW232502   9.776   8.726   2.463 -1.0658 -0.2007  0.3983
 7275SOL     OW32503   3.004   3.702   3.399 -0.7561 -0.2685  0.3105
 7275SOL    HW132504   3.051   3.644   3.332 -1.7153 -1.0652  0.3107
 7275SOL    HW232505   3.015   3.662   3.490 -0.0751  0.4149  0.5264
 7276SOL     OW32506   3.298   3.373   0.235 -0.2325  0.1793  0.2233
 7276SOL    HW132507   3.280   3.418   0.147 -0.5354  0.5704  0.4836
 7276SOL    HW232508   3.262   3.280   0.233 -2.3045  0.9476  0.7355
 7277SOL     OW32509   8.595   1.471   1.082  0.0427 -0.4536 -0.4215
 7277SOL    HW132510   8.668   1.425   1.132 -0.9374 -0.7049  0.8027
 7277SOL    HW232511   8.593   1.567   1.106 -0.4509 -0.5810  0.0595
 7278SOL     OW32512   3.703   7.068   2.022 -0.3458 -0.0251 -0.1267
 7278SOL    HW132513   3.624   7.128   2.009 -0.0243  0.5293  0.4361
 7278SOL    HW232514   3.773   7.091   1.953 -1.0316 -1.1369 -1.2163
 7279SOL     OW32515   2.610   6.844   3.854  0.6324 -0.5017  0.0259
 7279SOL    HW132516   2.633   6.747   3.844  0.7715 -0.2734 -2.3122
 7279SOL    HW232517   2.511   6.854   3.864  0.8900 -1.0690  3.7008
 7280SOL     OW32518   4.231   3.092   0.948  0.2162 -0.3663 -0.0669
 7280SOL    HW132519   4.258   2.997   0.964  0.0768 -0.3650  0.1684
 7280SOL    HW232520   4.244   3.145   1.032  1.1164  0.0103 -0.4385
 7281SOL     OW32521   7.548   0.068   0.143 -0.2469 -0.3514 -0.2027
 7281SOL    HW132522   7.560  -0.013   0.086 -0.6506 -0.0993 -0.6400
 7281SOL    HW232523   7.483   0.131   0.100  1.3921  1.0171 -0.7443
 7282SOL     OW32524   1.982   4.650   3.552  0.1779 -0.4179 -0.8947
 7282SOL    HW132525   1.908   4.681   3.611 -0.2263 -1.0543 -1.0637
 7282SOL    HW232526   2.067   4.645   3.605 -0.1591 -0.8922 -0.3996
 7283SOL     OW32527   9.827   8.533   2.600  0.1023 -0.6403  0.0496
 7283SOL    HW132528   9.817   8.609   2.664 -2.4746 -0.0302 -1.0313
 7283SOL    HW232529   9.921   8.530   2.566  0.8357  0.5928  1.8927
 7284SOL     OW32530   0.494   6.839   3.364 -0.0384 -0.0228 -0.2344
 7284SOL    HW132531   0.493   6.883   3.274  1.2101  0.3143 -0.0936
 7284SOL    HW232532   0.585   6.800   3.381 -0.6619 -1.2546  0.3192
 7285SOL     OW32533   9.216   4.397   2.796  0.6185  0.2450  0.2689
 7285SOL    HW132534   9.296   4.364   2.746  0.7510  0.1529  0.5426
 7285SOL    HW232535   9.173   4.471   2.744 -0.5110 -1.3007 -1.0313
 7286SOL     OW32536   9.763   4.976   4.683  0.3928  0.1563  0.3627
 7286SOL    HW132537   9.704   4.895   4.691  0.6895 -0.1018 -0.0460
 7286SOL    HW232538   9.763   5.007   4.588  1.4341 -0.2377  0.2232
 7287SOL     OW32539   9.226   6.873   2.408 -0.0398  0.7459  0.0152
 7287SOL    HW132540   9.262   6.926   2.331  0.4020 -1.0043 -1.0211
 7287SOL    HW232541   9.150   6.922   2.450 -2.2411  0.4166 -3.3933
 7288SOL     OW32542   5.053   9.124   3.379 -0.1126 -0.7753 -0.5108
 7288SOL    HW132543   5.006   9.167   3.456 -0.4211 -1.5788 -0.2514
 7288SOL    HW232544   5.152   9.140   3.388 -0.2943  0.6468 -0.8974
 7289SOL     OW32545   4.273   7.311   3.786  0.3793 -0.3125 -0.2479
 7289SOL    HW132546   4.191   7.317   3.729  0.8357 -0.4385 -0.9390
 7289SOL    HW232547   4.279   7.391   3.845 -0.8376 -0.8533  0.6263
 7290SOL     OW32548   6.048   9.834   1.406 -0.5896  0.1243  0.4158
 7290SOL    HW132549   5.976   9.866   1.345  0.3045  0.4826 -0.4736
 7290SOL    HW232550   6.027   9.860   1.500 -1.0014  1.3095 -0.0000
 7291SOL     OW32551   1.126   7.083   1.467  0.1084  0.4594  0.1640
 7291SOL    HW132552   1.173   7.095   1.380 -1.4013  0.1975 -0.7030
 7291SOL    HW232553   1.194   7.065   1.539  1.4518  1.8270 -0.7242
 7292SOL     OW32554   2.698   5.868   3.315 -0.3376  0.0369  0.4071
 7292SOL    HW132555   2.740   5.951   3.278 -1.3149  0.3685  0.0257
 7292SOL    HW232556   2.763   5.793   3.311 -0.8431 -0.3379 -3.4302
 7293SOL     OW32557   0.464   9.664   1.289 -0.0076 -0.1913  0.0796
 7293SOL    HW132558   0.384   9.716   1.317  0.8592  1.0193  0.3514
 7293SOL    HW232559   0.503   9.706   1.207  0.8180 -0.2804  0.4264
 7294SOL     OW32560   0.445   5.539   1.645  0.1043  0.1905 -0.5177
 7294SOL    HW132561   0.527   5.502   1.602  0.7629 -1.3763  1.9797
 7294SOL    HW232562   0.436   5.501   1.737 -3.0247  0.9173 -0.4811
 7295SOL     OW32563   1.779   5.914   2.482 -0.2754  0.1456 -0.3657
 7295SOL    HW132564   1.843   5.974   2.530 -0.6634  0.0535  0.2758
 7295SOL    HW232565   1.749   5.957   2.397 -0.7923  0.9994  0.2415
 7296SOL     OW32566   7.633   0.235   1.081  0.6374  0.0298  0.8631
 7296SOL    HW132567   7.647   0.136   1.076 -1.1544 -0.1848 -0.4465
 7296SOL    HW232568   7.582   0.257   1.164 -0.8197 -0.3973  0.0989
 7297SOL     OW32569   8.774   5.005   3.227 -0.2228  0.2858  0.2939
 7297SOL    HW132570   8.841   4.986   3.155 -1.3575 -0.9909 -0.4476
 7297SOL    HW232571   8.785   4.939   3.301 -1.0332 -0.2677 -0.0838
 7298SOL     OW32572   3.770   3.310   2.536  0.2615  0.2769  0.5214
 7298SOL    HW132573   3.796   3.231   2.480  0.6489  0.1403  0.8980
 7298SOL    HW232574   3.850   3.367   2.554  0.1722  0.2280  1.0862
 7299SOL     OW32575   2.725   6.698   4.645  0.0795  0.1311  0.6767
 7299SOL    HW132576   2.751   6.605   4.670  2.9963  0.8525  0.4093
 7299SOL    HW232577   2.725   6.706   4.545  1.2022  0.7949  0.7295
 7300SOL     OW32578   3.358   1.949   1.610  0.3538 -0.1660 -0.3360
 7300SOL    HW132579   3.377   1.886   1.535  3.9297 -1.5013  1.5462
 7300SOL    HW232580   3.271   1.923   1.653 -0.0775 -1.4588 -1.9188
 7301SOL     OW32581   9.502   7.744   2.876  0.0373  0.0803  0.5075
 7301SOL    HW132582   9.551   7.822   2.837 -1.0860  0.4523 -0.1760
 7301SOL    HW232583   9.424   7.721   2.817 -0.8867 -0.2078  1.8250
 7302SOL     OW32584   5.201   1.131   2.265  0.0856  0.6840  0.1606
 7302SOL    HW132585   5.169   1.226   2.257 -0.8444  0.5197  1.7990
 7302SOL    HW232586   5.185   1.083   2.179  0.0690  1.8640 -0.5071
 7303SOL     OW32587   7.284   7.396   2.734  0.1004  0.4707  0.2087
 7303SOL    HW132588   7.377   7.431   2.745  1.2261 -1.9878 -1.0947
 7303SOL    HW232589   7.267   7.324   2.802 -0.0507 -0.5912 -0.9302
 7304SOL     OW32590   8.823   6.427   0.658  0.6457  0.0181 -0.4498
 7304SOL    HW132591   8.790   6.520   0.671  0.1512 -0.1953 -0.1617
 7304SOL    HW232592   8.807   6.399   0.563 -0.1860 -0.1518 -0.2640
 7305SOL     OW32593   7.368   9.876   3.168 -0.2808 -0.4629 -0.1948
 7305SOL    HW132594   7.407   9.939   3.101  0.6871  0.4507  1.1858
 7305SOL    HW232595   7.385   9.782   3.141 -0.9376 -0.1256 -1.8210
 7306SOL     OW32596   4.036   2.378   1.918 -0.2672 -0.0228  0.3788
 7306SOL    HW132597   4.064   2.312   1.987  2.2230  0.8203  0.2187
 7306SOL    HW232598   4.086   2.362   1.833 -0.1105  1.6602  0.1269
 7307SOL     OW32599   1.247   9.823   3.810  0.1165  0.1305 -0.1176
 7307SOL    HW132600   1.215   9.881   3.736 -1.4228  0.7695  1.0154
 7307SOL    HW232601   1.322   9.868   3.858 -1.0983  1.2342  0.7806
 7308SOL     OW32602   8.423   3.001   4.154  0.7942  0.5236 -0.1579
 7308SOL    HW132603   8.349   3.068   4.162  1.1563  0.9902 -0.6953
 7308SOL    HW232604   8.384   2.909   4.158  0.3484  0.7557  1.1039
 7309SOL     OW32605   3.028   8.929   3.417  0.7302  0.0412 -0.4239
 7309SOL    HW132606   2.949   8.891   3.465 -1.0388  1.9640 -1.7251
 7309SOL    HW232607   3.052   8.871   3.340  0.2037 -0.2466 -0.3702
 7310SOL     OW32608   0.564   4.117   1.157  0.3907  0.1840  0.0452
 7310SOL    HW132609   0.483   4.166   1.124 -1.9779 -4.4947 -1.4524
 7310SOL    HW232610   0.550   4.092   1.253  0.4813  0.1644  0.0530
 7311SOL     OW32611   8.068   1.103   4.618 -0.3609  0.8793  0.7396
 7311SOL    HW132612   8.136   1.039   4.654  0.9116  1.2134 -1.0480
 7311SOL    HW232613   8.064   1.183   4.677  1.3132  1.1690  0.4847
 7312SOL     OW32614   3.349   6.760   1.189 -0.2429  0.7344  0.1778
 7312SOL    HW132615   3.363   6.829   1.261 -0.6926 -0.2549  1.2341
 7312SOL    HW232616   3.289   6.688   1.223 -0.1860  0.0709 -1.0881
 7313SOL     OW32617   6.534   0.067   3.668 -0.3505  0.0417 -0.4411
 7313SOL    HW132618   6.597   0.041   3.595  0.1035 -0.8162  0.2468
 7313SOL    HW232619   6.444   0.026   3.651 -0.6974  1.1366 -1.3378
 7314SOL     OW32620   4.178   4.156   4.165  0.3108  0.4789  0.8325
 7314SOL    HW132621   4.097   4.118   4.121  0.8838 -1.1642  1.1217
 7314SOL    HW232622   4.253   4.159   4.099  0.1207  1.6706  0.6585
 7315SOL     OW32623   1.713   5.328   1.635 -0.5258 -0.3279  0.1857
 7315SOL    HW132624   1.808   5.303   1.653 -0.3968 -0.0067 -0.0582
 7315SOL    HW232625   1.686   5.402   1.696  0.3682  1.7917 -1.9491
 7316SOL     OW32626   8.195   0.583   2.055  0.2924  0.4977 -0.1046
 7316SOL    HW132627   8.222   0.590   1.960  1.6324 -1.7059  0.0784
 7316SOL    HW232628   8.271   0.547   2.109 -0.8012  0.6649  1.5945
 7317SOL     OW32629   0.388   9.476   0.514  0.2879 -0.6522 -0.7395
 7317SOL    HW132630   0.327   9.552   0.539 -0.0987 -1.7546  1.7990
 7317SOL    HW232631   0.463   9.471   0.580 -0.5697 -3.4527  0.0785
 7318SOL     OW32632   6.566   6.622   2.837 -0.1749  0.4615  0.3131
 7318SOL    HW132633   6.648   6.655   2.884 -1.2046  3.1484  0.2920
 7318SOL    HW232634   6.502   6.584   2.904 -0.5488  1.9451  0.8222
 7319SOL     OW32635   7.599   9.081   0.666  0.4140 -0.1327  0.0843
 7319SOL    HW132636   7.621   8.994   0.710 -0.1031  0.3886  1.4161
 7319SOL    HW232637   7.603   9.154   0.734 -0.0780  0.7427 -0.8172
 7320SOL     OW32638   4.935   0.422   1.300  0.3385  0.2260 -0.4968
 7320SOL    HW132639   5.028   0.387   1.308  0.1618 -0.7834 -2.5801
 7320SOL    HW232640   4.922   0.463   1.210 -2.3707 -3.1553 -1.7373
 7321SOL     OW32641   0.121   7.005   0.577 -0.0833 -1.2072  0.7819
 7321SOL    HW132642   0.047   7.009   0.511  0.3351  2.0862  0.4266
 7321SOL    HW232643   0.089   7.039   0.665  0.7538 -0.6083  0.8623
 7322SOL     OW32644   8.800   5.763   0.159  0.3501 -0.6827 -0.5646
 7322SOL    HW132645   8.742   5.682   0.147 -0.6360  0.2045 -1.8578
 7322SOL    HW232646   8.777   5.831   0.090  1.7004  0.4120  0.0468
 7323SOL     OW32647   1.302   4.517   1.415  0.0756 -0.5804  0.0113
 7323SOL    HW132648   1.368   4.502   1.489  0.9031 -0.7033 -0.7470
 7323SOL    HW232649   1.284   4.430   1.368  0.8384 -0.1901 -1.0105
 7324SOL     OW32650   8.675   9.100   4.446 -0.4676  0.0422  0.3068
 7324SOL    HW132651   8.696   9.114   4.349  0.2576  4.2698  0.9660
 7324SOL    HW232652   8.585   9.058   4.455 -0.5000 -0.5086 -2.2037
 7325SOL     OW32653   0.987   9.154   1.395  0.1870  0.1339 -0.1518
 7325SOL    HW132654   1.060   9.192   1.452 -1.2849  0.0640  1.8323
 7325SOL    HW232655   0.966   9.218   1.321 -1.3573  2.6471  2.3728
 7326SOL     OW32656   9.876   0.786   1.576 -0.0592  0.2392  0.7640
 7326SOL    HW132657   9.836   0.818   1.490 -1.3906  0.5537  1.4816
 7326SOL    HW232658   9.967   0.748   1.558 -0.0603  0.8594 -0.6840
 7327SOL     OW32659   0.914   1.518   2.125  0.6337 -0.4831  0.1448
 7327SOL    HW132660   0.901   1.419   2.131 -0.3947 -0.4395 -1.2896
 7327SOL    HW232661   0.924   1.555   2.218 -4.7861 -1.1605  1.1570
 7328SOL     OW32662   0.795   2.051   4.590 -0.5098 -0.1989 -0.1649
 7328SOL    HW132663   0.838   2.035   4.679  0.3624  0.4349 -0.4728
 7328SOL    HW232664   0.864   2.046   4.518 -1.1737 -0.4708 -0.7885
 7329SOL     OW32665   1.509   1.481   1.570  0.5607 -0.2266  0.0234
 7329SOL    HW132666   1.591   1.512   1.521  2.4755  1.8633  4.2276
 7329SOL    HW232667   1.433   1.471   1.506  2.7960  2.6344 -3.2723
 7330SOL     OW32668   9.895   6.926   0.388 -0.2380 -0.2638 -0.1429
 7330SOL    HW132669   9.880   6.917   0.289 -0.7462 -2.5164  0.1202
 7330SOL    HW232670   9.819   6.977   0.429 -1.3861 -1.6327 -0.5350
 7331SOL     OW32671   4.296   0.118   1.526  0.4851 -0.8179 -0.5880
 7331SOL    HW132672   4.336   0.071   1.605 -1.5365 -0.3030  0.7856
 7331SOL    HW232673   4.261   0.050   1.461  3.3850 -1.2764 -1.7717
 7332SOL     OW32674   2.712   0.114   3.499  0.2670  0.0263  0.1422
 7332SOL    HW132675   2.738   0.103   3.403 -1.2049 -0.1252 -0.2490
 7332SOL    HW232676   2.688   0.025   3.537  1.0765  0.0510  0.7297
 7333SOL     OW32677   0.934   6.110   1.588 -0.2166 -0.9474 -0.1670
 7333SOL    HW132678   0.918   6.086   1.684  0.5452  1.7732  0.6767
 7333SOL    HW232679   0.859   6.166   1.555  1.4991  1.6220  0.1383
 7334SOL     OW32680   2.905   0.273   3.613 -0.2854  0.1446 -0.2101
 7334SOL    HW132681   2.875   0.293   3.706 -0.7277  1.4511 -0.6178
 7334SOL    HW232682   2.837   0.216   3.568 -1.1673  1.3344 -0.4320
 7335SOL     OW32683   1.381   9.223   4.450 -0.0289 -0.3723 -0.6633
 7335SOL    HW132684   1.458   9.163   4.472 -0.8562 -1.4145 -0.5899
 7335SOL    HW232685   1.401   9.273   4.366  0.4142 -1.2059 -1.0648
 7336SOL     OW32686   8.103   7.863   3.274  0.5283 -0.0920  0.0091
 7336SOL    HW132687   8.108   7.796   3.200 -1.6811 -1.7002  1.2451
 7336SOL    HW232688   8.022   7.921   3.260 -0.3892 -0.9693  1.5965
 7337SOL     OW32689   1.561   3.249   4.196 -0.3156 -0.5547  0.7196
 7337SOL    HW132690   1.658   3.244   4.175 -0.3606 -1.1909  0.6355
 7337SOL    HW232691   1.508   3.229   4.113 -0.5355  1.4559  0.3581
 7338SOL     OW32692   8.905   7.631   2.242  0.4781  0.3274 -0.2413
 7338SOL    HW132693   8.853   7.564   2.189  0.3709  0.6861 -0.5965
 7338SOL    HW232694   8.998   7.637   2.207  0.4734  0.3981 -0.2410
 7339SOL     OW32695   8.436   8.676   2.859 -0.0452  0.2262  0.7689
 7339SOL    HW132696   8.494   8.740   2.809 -0.0857  0.0926  0.5509
 7339SOL    HW232697   8.493   8.621   2.920  0.1184 -0.2172  0.2212
 7340SOL     OW32698   4.818   5.274   0.804  0.3068  0.0594 -0.6808
 7340SOL    HW132699   4.719   5.275   0.819  0.1526  3.0002 -1.4587
 7340SOL    HW232700   4.864   5.319   0.881  1.1176 -1.8698 -0.0092
 7341SOL     OW32701   7.602   0.226   4.571  0.5064  0.1133 -0.1937
 7341SOL    HW132702   7.674   0.163   4.601 -0.5305 -0.3943  1.2825
 7341SOL    HW232703   7.612   0.313   4.620  0.7607  0.4302 -0.7987
 7342SOL     OW32704   9.818   3.639   1.391 -0.2131  0.6830  0.5539
 7342SOL    HW132705   9.752   3.698   1.437 -1.3402 -0.2924  0.2036
 7342SOL    HW232706   9.817   3.657   1.293 -0.5811  0.0612  0.4419
 7343SOL     OW32707   2.000   0.020   1.356 -0.2441  0.0589  0.4397
 7343SOL    HW132708   2.039  -0.011   1.443 -0.6049  0.1595  0.6398
 7343SOL    HW232709   1.977  -0.059   1.299 -0.1364 -0.0104  0.4936
 7344SOL     OW32710   1.592   0.166   1.727  0.0672  0.2865  0.2631
 7344SOL    HW132711   1.571   0.154   1.630  0.2994  0.9378  0.1303
 7344SOL    HW232712   1.683   0.207   1.736  0.8014 -1.4017  0.7949
 7345SOL     OW32713   8.808   5.369   2.376  0.3563  0.1746  0.2468
 7345SOL    HW132714   8.740   5.440   2.395 -0.3460 -0.5261  0.3606
 7345SOL    HW232715   8.865   5.355   2.457 -0.1587 -0.1036  0.5620
 7346SOL     OW32716   3.411   7.048   2.734 -0.5394 -0.0777 -0.2671
 7346SOL    HW132717   3.443   6.963   2.693  0.8333 -0.0258  0.6511
 7346SOL    HW232718   3.397   7.117   2.663 -0.7136 -0.7662 -0.9044
 7347SOL     OW32719   2.486   5.250   2.919  0.2145 -0.1583 -0.2839
 7347SOL    HW132720   2.553   5.218   2.986  1.4145  0.6250 -1.0887
 7347SOL    HW232721   2.413   5.299   2.965  0.2684 -0.8951  0.5944
 7348SOL     OW32722   4.991   0.125   2.356 -0.9011  0.0023 -0.5782
 7348SOL    HW132723   5.047   0.206   2.376 -0.5826 -0.6890  1.4569
 7348SOL    HW232724   4.895   0.150   2.361 -0.8053  0.2527  0.1193
 7349SOL     OW32725   0.662   7.011   1.714  0.1676  0.3423 -0.0374
 7349SOL    HW132726   0.603   6.999   1.634 -2.2016 -2.8039  2.0687
 7349SOL    HW232727   0.753   6.976   1.693 -0.0306  0.7578 -1.7396
 7350SOL     OW32728   0.601   2.685   3.301  0.0428 -0.4602 -0.1496
 7350SOL    HW132729   0.599   2.778   3.266  0.3162 -0.0740  0.8389
 7350SOL    HW232730   0.541   2.678   3.381 -2.6565 -1.9731 -2.2063
 7351SOL     OW32731   0.929   7.118   2.346 -0.7195 -0.4654 -0.0836
 7351SOL    HW132732   0.973   7.046   2.399  1.0125 -0.9841 -2.1626
 7351SOL    HW232733   0.936   7.205   2.396 -1.0343 -1.3497  1.5030
 7352SOL     OW32734   0.781   1.274   1.722  0.3598  0.5034  0.0165
 7352SOL    HW132735   0.864   1.326   1.700 -0.2803  0.3143 -2.9936
 7352SOL    HW232736   0.703   1.335   1.726  0.1975  0.2940  0.0827
 7353SOL     OW32737   7.512   0.089   0.416  0.3404  0.4437  0.0114
 7353SOL    HW132738   7.534   0.075   0.319 -1.2833  0.9926 -0.4439
 7353SOL    HW232739   7.573   0.159   0.454  1.3367 -0.1590 -0.4692
 7354SOL     OW32740   6.650   7.930   2.352 -0.4634  0.3143 -0.3491
 7354SOL    HW132741   6.683   7.957   2.442  0.2473  0.7863 -0.7476
 7354SOL    HW232742   6.703   7.977   2.281  0.9224 -2.2507 -1.0660
 7355SOL     OW32743   5.533   8.945   3.377  0.6522 -0.3860 -0.5989
 7355SOL    HW132744   5.436   8.923   3.370  0.1753  1.5019  0.0371
 7355SOL    HW232745   5.575   8.887   3.446 -1.2486  2.6726  3.2852
 7356SOL     OW32746   7.391   9.876   0.495  0.0937 -0.4748  0.3890
 7356SOL    HW132747   7.313   9.844   0.441  0.6632 -1.1104 -0.0704
 7356SOL    HW232748   7.422   9.963   0.458  1.8006 -1.9039 -1.6880
 7357SOL     OW32749   1.667   4.055   1.430 -0.0369  0.0490 -0.3953
 7357SOL    HW132750   1.588   4.030   1.486  0.3009 -1.9886 -0.7869
 7357SOL    HW232751   1.642   4.048   1.333  0.6220 -0.6680 -0.5211
 7358SOL     OW32752   3.111   2.900   0.271 -0.1148  0.2858 -0.4340
 7358SOL    HW132753   3.205   2.883   0.240  1.1280  2.0723  2.1799
 7358SOL    HW232754   3.111   2.976   0.335 -3.4818  0.7067 -0.8842
 7359SOL     OW32755   7.924   0.161   1.373  0.3899  0.4957 -0.1753
 7359SOL    HW132756   7.969   0.074   1.354  1.0750  0.3919  1.8129
 7359SOL    HW232757   7.933   0.221   1.294  1.0695 -0.7539 -1.0658
 7360SOL     OW32758   0.300   1.853   0.852 -0.0851  0.5073  0.4268
 7360SOL    HW132759   0.354   1.936   0.839  0.4054  0.1775  0.3477
 7360SOL    HW232760   0.334   1.781   0.791 -0.8583  0.4130  0.1045
 7361SOL     OW32761   1.052   5.452   2.170 -0.6232 -0.1876 -0.8344
 7361SOL    HW132762   1.091   5.526   2.225 -1.1228  0.2028 -1.0084
 7361SOL    HW232763   1.009   5.385   2.231  1.7662 -1.4926 -0.5034
 7362SOL     OW32764   4.526   0.015   2.998  0.2150  0.0026  0.3607
 7362SOL    HW132765   4.520   0.058   3.088 -0.4708 -0.1975  0.4096
 7362SOL    HW232766   4.582  -0.068   3.005  3.0410  1.8117 -0.0864
 7363SOL     OW32767   1.340   2.912   0.073  0.8098 -0.3608 -0.1195
 7363SOL    HW132768   1.323   2.973  -0.004  0.9550  0.1182  0.2304
 7363SOL    HW232769   1.376   2.964   0.150  0.8240 -0.8665  0.2183
 7364SOL     OW32770   7.429   2.601   4.232  0.3631 -0.6492  0.3978
 7364SOL    HW132771   7.500   2.672   4.235  0.2884 -0.5347 -0.4698
 7364SOL    HW232772   7.392   2.595   4.140 -0.0777 -1.3864  0.6207
 7365SOL     OW32773   1.988   6.436   1.041 -0.6641  0.6855 -0.6391
 7365SOL    HW132774   1.956   6.352   0.998  1.8731  0.0971 -1.4664
 7365SOL    HW232775   2.052   6.483   0.980 -0.2610  2.0308  0.7702
 7366SOL     OW32776   8.940   0.672   1.317  0.3349 -0.3394 -0.7780
 7366SOL    HW132777   8.864   0.687   1.380 -0.2703 -0.5319 -1.4411
 7366SOL    HW232778   8.934   0.738   1.242  1.0088 -0.1481 -0.6618
 7367SOL     OW32779   8.698   2.610   2.990 -0.1923  0.4263  0.4065
 7367SOL    HW132780   8.671   2.575   3.080  0.9206  0.5572  0.8048
 7367SOL    HW232781   8.617   2.628   2.936 -0.8503 -0.8301  0.9360
 7368SOL     OW32782   0.296   4.360   3.794  0.2355 -0.4113  0.2441
 7368SOL    HW132783   0.218   4.319   3.842 -0.3321 -2.8322 -2.5752
 7368SOL    HW232784   0.357   4.287   3.762  1.8562  1.2661 -0.5779
 7369SOL     OW32785   0.466   2.814   1.764  0.4245  0.3793  0.3665
 7369SOL    HW132786   0.450   2.801   1.861 -2.8204 -0.2977 -0.2001
 7369SOL    HW232787   0.549   2.765   1.737  0.5705 -0.6097  2.5052
 7370SOL     OW32788   2.477   6.674   0.801 -0.4981  0.1196  0.2972
 7370SOL    HW132789   2.388   6.690   0.757 -0.1348 -4.0684 -2.3020
 7370SOL    HW232790   2.463   6.658   0.899 -2.9216 -2.1276 -0.3389
 7371SOL     OW32791   0.791   4.789   0.563 -0.4495 -0.5098  0.1249
 7371SOL    HW132792   0.751   4.702   0.535 -1.0001 -0.7204  1.5322
 7371SOL    HW232793   0.806   4.847   0.482 -1.3743 -1.3620 -0.6593
 7372SOL     OW32794   2.751   3.353   2.357  0.1073  0.4194  0.5320
 7372SOL    HW132795   2.759   3.313   2.265  1.3087  1.1838  0.2853
 7372SOL    HW232796   2.679   3.422   2.357  0.7689  1.1191 -0.1043
 7373SOL     OW32797   2.802   7.170   1.839 -0.0751 -0.3411  0.1997
 7373SOL    HW132798   2.813   7.123   1.752 -3.3535 -0.4044 -0.2441
 7373SOL    HW232799   2.843   7.261   1.834  0.0052 -0.4563 -1.3045
 7374SOL     OW32800   9.877   7.108   2.589  0.9608 -0.8700 -0.6245
 7374SOL    HW132801   9.879   7.076   2.684 -2.4103  1.1141  0.2115
 7374SOL    HW232802   9.930   7.045   2.532  2.6073 -2.4098  2.4533
 7375SOL     OW32803   7.981   8.920   2.229  0.3090  0.0130 -0.0500
 7375SOL    HW132804   7.921   8.947   2.305  0.2847  0.4198 -0.2108
 7375SOL    HW232805   8.076   8.933   2.256  0.3228 -0.4999  0.1547
 7376SOL     OW32806   2.312   6.673   1.486  0.7165 -0.0653 -0.2627
 7376SOL    HW132807   2.374   6.743   1.451 -0.1898  0.3684 -1.0466
 7376SOL    HW232808   2.221   6.688   1.447 -0.2551  0.2374  2.0506
 7377SOL     OW32809   3.583   8.700   0.506  0.3003  0.0507  0.0433
 7377SOL    HW132810   3.554   8.795   0.493  0.6342 -0.1016 -1.9669
 7377SOL    HW232811   3.503   8.640   0.498  0.2033  0.1058  0.5984
 7378SOL     OW32812   8.685   9.176   3.057  0.7026 -0.4096 -0.1841
 7378SOL    HW132813   8.587   9.188   3.038  0.4342 -2.0930  0.1117
 7378SOL    HW232814   8.716   9.250   3.117  0.0007  1.0762 -1.5942
 7379SOL     OW32815   5.208   8.699   2.073 -0.6680 -0.1956  0.7366
 7379SOL    HW132816   5.177   8.781   2.122 -1.7856 -1.2986  1.9275
 7379SOL    HW232817   5.173   8.701   1.979 -1.2628  0.3616  0.9641
 7380SOL     OW32818   2.448   9.407   2.414 -0.8740 -0.3714  0.6285
 7380SOL    HW132819   2.411   9.320   2.380 -1.2302 -0.4695  1.2663
 7380SOL    HW232820   2.459   9.470   2.337  0.2526 -1.2895  0.0335
 7381SOL     OW32821   0.726   7.318   1.711 -0.4190  0.1503 -0.1816
 7381SOL    HW132822   0.632   7.343   1.685 -0.1471 -0.3517 -1.7131
 7381SOL    HW232823   0.732   7.219   1.723 -0.2069  0.2390  0.4495
 7382SOL     OW32824   9.560   3.956   4.088 -0.3241 -0.1995 -0.5432
 7382SOL    HW132825   9.508   3.955   4.002 -1.3153  0.3650  0.0329
 7382SOL    HW232826   9.499   3.931   4.163  0.7936 -1.7130 -0.1237
 7383SOL     OW32827   2.434   9.806   2.378  0.0033  0.2293  0.3506
 7383SOL    HW132828   2.426   9.880   2.445  1.1313  0.3521  0.3498
 7383SOL    HW232829   2.524   9.809   2.335  0.0313 -1.1232  0.3037
 7384SOL     OW32830   1.723   1.015   3.597  0.6826  0.5001 -0.2695
 7384SOL    HW132831   1.775   0.947   3.545 -1.4096 -0.7734 -0.7598
 7384SOL    HW232832   1.682   0.971   3.677  1.8709  1.9115  1.1720
 7385SOL     OW32833   0.024   2.077   4.733  0.2458 -0.4082 -0.2087
 7385SOL    HW132834   0.047   2.101   4.827 -0.0465  0.1810 -0.2854
 7385SOL    HW232835   0.103   2.090   4.674  0.4748 -0.9258 -0.0226
 7386SOL     OW32836   0.258   7.416   1.508  0.5128 -0.1665  0.1191
 7386SOL    HW132837   0.297   7.403   1.417 -1.0896  0.3871 -0.6600
 7386SOL    HW232838   0.177   7.358   1.518 -0.3640  1.1254  0.5322
 7387SOL     OW32839   0.350   8.492   4.160 -0.4472 -0.0403  0.0610
 7387SOL    HW132840   0.441   8.450   4.164  0.2666  1.2924 -1.5011
 7387SOL    HW232841   0.300   8.471   4.244  0.9275 -1.6126  0.5210
 7388SOL     OW32842   4.578   9.734   0.999 -0.2250 -0.1751 -0.1336
 7388SOL    HW132843   4.570   9.828   0.966  1.7056  0.0546 -0.0136
 7388SOL    HW232844   4.607   9.675   0.923  0.6268 -0.3000  0.2903
 7389SOL     OW32845   1.721   4.895   4.320 -0.9569  0.2145  0.1588
 7389SOL    HW132846   1.818   4.908   4.298 -0.6403 -0.9197  0.8734
 7389SOL    HW232847   1.667   4.910   4.237 -0.3574  2.8572  0.2206
 7390SOL     OW32848   8.830   8.188   2.934  0.0402 -0.2747  0.0535
 7390SOL    HW132849   8.841   8.212   3.030 -0.4279 -0.2991  0.1127
 7390SOL    HW232850   8.891   8.111   2.911 -0.5828 -0.9261  0.5744
 7391SOL     OW32851   4.659   8.789   2.375  0.1983 -0.0539 -0.1341
 7391SOL    HW132852   4.588   8.818   2.439  1.0120  1.0384  0.2907
 7391SOL    HW232853   4.659   8.689   2.368  0.2861 -0.2032  1.7953
 7392SOL     OW32854   0.875   0.156   3.812  0.6405  0.5866  0.7435
 7392SOL    HW132855   0.933   0.213   3.754 -0.0540 -1.1317 -1.7199
 7392SOL    HW232856   0.932   0.088   3.859  0.7488 -0.5745 -1.0345
 7393SOL     OW32857   9.176   0.150   3.801 -0.1981  0.1195  0.1885
 7393SOL    HW132858   9.179   0.103   3.712  2.7819  0.0341  0.2897
 7393SOL    HW232859   9.150   0.084   3.872 -1.5383 -0.0564 -0.4464
 7394SOL     OW32860   3.819   5.769   2.506 -0.6019  0.1330  0.4154
 7394SOL    HW132861   3.798   5.862   2.536 -1.1203 -0.5241  2.1006
 7394SOL    HW232862   3.919   5.758   2.502 -0.5333  0.9150 -0.3231
 7395SOL     OW32863   3.476   0.010   3.344  0.4372  0.0696 -0.1705
 7395SOL    HW132864   3.414  -0.061   3.375 -0.7323  0.9482 -0.4767
 7395SOL    HW232865   3.483   0.009   3.244 -0.5804  1.1872 -0.2687
 7396SOL     OW32866   8.220   4.490   0.758  0.1252 -0.2493 -0.6692
 7396SOL    HW132867   8.239   4.565   0.694  1.6037 -0.1636 -0.1619
 7396SOL    HW232868   8.305   4.465   0.806 -1.0529  0.0700  1.6742
 7397SOL     OW32869   4.046   8.746   4.222 -0.6989  0.0258  0.5953
 7397SOL    HW132870   3.985   8.666   4.223 -0.8266  0.1254  0.7005
 7397SOL    HW232871   4.025   8.805   4.300 -0.8508  0.3509  0.3072
 7398SOL     OW32872   2.181   9.998   3.677 -0.2684 -0.0268  0.1100
 7398SOL    HW132873   2.160   9.976   3.772  1.6210  2.7787  1.2223
 7398SOL    HW232874   2.214  10.092   3.670 -1.1032  0.1032 -3.4457
 7399SOL     OW32875   0.085   9.076   4.288 -0.1925 -0.4420 -0.7773
 7399SOL    HW132876   0.025   9.027   4.224 -0.4144  0.8263 -1.5670
 7399SOL    HW232877   0.029   9.126   4.355 -0.0108 -0.0752 -0.8953
 7400SOL     OW32878   0.608   7.799   2.099  0.2734  0.6948 -0.1976
 7400SOL    HW132879   0.596   7.748   2.185 -0.6636 -0.4953 -1.0109
 7400SOL    HW232880   0.705   7.820   2.086  0.3949  1.1175  1.2794
 7401SOL     OW32881   3.893   6.768   2.547 -0.5966  0.1602  0.1247
 7401SOL    HW132882   3.959   6.789   2.620  0.4253 -1.1868 -0.4003
 7401SOL    HW232883   3.820   6.837   2.548 -0.1682  0.6309  1.8918
 7402SOL     OW32884   8.328   9.472   3.441  0.1686  0.1685  0.4912
 7402SOL    HW132885   8.330   9.513   3.533  1.2451  0.0188  0.5374
 7402SOL    HW232886   8.409   9.416   3.428  0.3396  0.7167 -0.8070
 7403SOL     OW32887   8.674   3.058   1.499 -0.4023  0.1195 -0.6035
 7403SOL    HW132888   8.655   3.052   1.597  0.0163  0.4580 -0.4989
 7403SOL    HW232889   8.607   3.003   1.448  0.7486 -1.9077  0.0189
 7404SOL     OW32890   0.310   1.165   2.843  0.3106 -0.3670  0.1551
 7404SOL    HW132891   0.285   1.148   2.938 -0.5714  0.7388  0.1281
 7404SOL    HW232892   0.285   1.086   2.787 -1.9490  0.1756  0.3463
 7405SOL     OW32893   0.406   4.645   1.041  0.5272  0.6205 -0.1664
 7405SOL    HW132894   0.497   4.686   1.047  0.0521  1.5471  0.7835
 7405SOL    HW232895   0.406   4.575   0.970  2.0696  0.3824  0.0581
 7406SOL     OW32896   3.249   6.782   2.905  0.0018  0.1203  0.2879
 7406SOL    HW132897   3.289   6.761   2.994 -0.6847  1.7649  1.0130
 7406SOL    HW232898   3.316   6.765   2.833  1.2876  0.8224  1.3062
 7407SOL     OW32899   2.092   6.029   3.250  0.1114  0.4638 -0.2383
 7407SOL    HW132900   2.121   6.120   3.281  1.1489  0.3636 -0.9259
 7407SOL    HW232901   1.992   6.022   3.259  0.1969  1.0830  1.3698
 7408SOL     OW32902   1.519   4.648   4.757 -0.0067 -0.2959 -0.3785
 7408SOL    HW132903   1.483   4.741   4.742 -2.3827 -1.3073 -1.1987
 7408SOL    HW232904   1.531   4.633   4.855 -0.7906  0.4539 -0.1559
 7409SOL     OW32905   0.519   9.837   1.966  0.3784 -0.6311 -0.3656
 7409SOL    HW132906   0.475   9.843   2.055  1.1749 -2.2585  0.1524
 7409SOL    HW232907   0.618   9.842   1.977  0.4022  2.3195 -1.4593
 7410SOL     OW32908   7.360   7.778   1.179 -0.0649  0.2947  0.0217
 7410SOL    HW132909   7.364   7.708   1.107  1.3559  1.5622 -1.1648
 7410SOL    HW232910   7.323   7.863   1.140 -0.1121  0.7374  1.0186
 7411SOL     OW32911   2.878   8.938   2.994 -0.3165  0.8207  0.1578
 7411SOL    HW132912   2.784   8.910   3.014  0.1015 -1.2774 -0.7240
 7411SOL    HW232913   2.912   8.997   3.068 -0.6972 -2.2490  2.8772
 7412SOL     OW32914   1.724   9.440   3.826  0.1064 -0.3869 -0.1757
 7412SOL    HW132915   1.653   9.386   3.781 -1.5850 -1.7810  3.9181
 7412SOL    HW232916   1.682   9.519   3.872  1.3808 -0.4669  1.1565
 7413SOL     OW32917   6.331   8.689   3.420 -0.3820  0.8213 -0.3225
 7413SOL    HW132918   6.414   8.733   3.455 -1.3485  2.0900  0.4447
 7413SOL    HW232919   6.331   8.593   3.446  0.1146  1.1751  1.0545
 7414SOL     OW32920   8.435   5.495   3.827 -0.1565 -0.2402  0.0977
 7414SOL    HW132921   8.395   5.437   3.898  0.7559 -1.7849 -0.6287
 7414SOL    HW232922   8.412   5.459   3.737 -0.8043  1.3690 -0.3939
 7415SOL     OW32923   9.251   7.344   0.644 -0.3944  0.5987 -0.4595
 7415SOL    HW132924   9.174   7.386   0.596 -0.4400 -0.3998 -1.2747
 7415SOL    HW232925   9.219   7.266   0.698 -0.1034  0.7622 -0.0550
 7416SOL     OW32926   8.550   9.559   4.050 -0.1588 -0.3731  0.5155
 7416SOL    HW132927   8.469   9.501   4.043  0.4342 -1.3944  1.8027
 7416SOL    HW232928   8.522   9.655   4.057 -1.2586 -0.7257  0.9732
 7417SOL     OW32929   1.954   3.982   0.778 -0.1559  0.2936  0.4234
 7417SOL    HW132930   2.043   3.941   0.760 -0.4230 -0.2621  0.3431
 7417SOL    HW232931   1.950   4.074   0.738 -0.5360 -0.6879 -1.8634
 7418SOL     OW32932   8.491   3.911   2.107 -0.3607 -0.0221 -0.0898
 7418SOL    HW132933   8.539   3.872   2.028 -0.1840  0.7255 -0.3577
 7418SOL    HW232934   8.437   3.840   2.151 -1.5765 -0.1282 -1.7051
 7419SOL     OW32935   3.475   9.091   0.740 -0.3166 -0.6809  0.3752
 7419SOL    HW132936   3.430   9.082   0.828  1.2126 -2.3091  1.0214
 7419SOL    HW232937   3.438   9.024   0.676 -0.5926 -0.3044  0.1399
 7420SOL     OW32938   4.109   3.869   3.294  0.3288 -0.2909  0.2267
 7420SOL    HW132939   4.094   3.828   3.204 -0.0911 -0.0796  0.2050
 7420SOL    HW232940   4.036   3.934   3.315  0.3681 -0.4156  0.7645
 7421SOL     OW32941   1.257   4.848   2.253 -1.0137 -0.3225 -0.0565
 7421SOL    HW132942   1.202   4.765   2.260 -1.6424  0.1583  0.9301
 7421SOL    HW232943   1.210   4.923   2.301  0.0053  0.3525 -0.0963
 7422SOL     OW32944   2.464   2.002   1.314 -0.4709 -0.1460 -0.7430
 7422SOL    HW132945   2.489   2.060   1.392 -0.7490 -0.1722 -0.6335
 7422SOL    HW232946   2.503   2.040   1.230  0.7030 -0.6789 -0.4553
 7423SOL     OW32947   8.177   9.845   4.200 -0.2574  0.2538  0.3858
 7423SOL    HW132948   8.192   9.755   4.241  3.1394  0.9685  0.8805
 7423SOL    HW232949   8.129   9.834   4.113  0.3420 -2.0458  0.3077
 7424SOL     OW32950   9.886   1.565   0.471  0.1696  0.0969  0.1640
 7424SOL    HW132951   9.821   1.491   0.453  1.6160 -1.2977  0.5218
 7424SOL    HW232952   9.892   1.624   0.390  0.7028 -1.5280 -1.0102
 7425SOL     OW32953   2.970   1.004   0.106  0.0808 -0.3794 -0.4548
 7425SOL    HW132954   2.928   1.089   0.075  0.0149 -0.1628  0.2302
 7425SOL    HW232955   2.906   0.956   0.167  1.4691  0.7480  1.9206
 7426SOL     OW32956   1.190   1.963   3.490  0.0593 -0.3639 -0.2406
 7426SOL    HW132957   1.123   1.970   3.416  0.8373 -0.7856 -1.0049
 7426SOL    HW232958   1.247   2.045   3.492  0.6202 -0.7398 -0.6906
 7427SOL     OW32959   0.741   3.539   0.622 -0.1842  0.4492 -0.5086
 7427SOL    HW132960   0.836   3.538   0.592  0.0932  0.4708  0.3519
 7427SOL    HW232961   0.693   3.460   0.584  1.0342 -1.4225  1.7497
 7428SOL     OW32962   1.196   0.682   3.134 -0.4788 -0.4134  0.8908
 7428SOL    HW132963   1.228   0.639   3.050 -1.5329  0.6717 -0.0966
 7428SOL    HW232964   1.236   0.774   3.141 -1.5913  0.0867  0.7768
 7429SOL     OW32965   9.382   4.654   0.763 -0.4235  0.2053 -0.0807
 7429SOL    HW132966   9.356   4.734   0.709  0.4027  0.2180 -0.4674
 7429SOL    HW232967   9.301   4.616   0.807 -0.6264  2.0633  1.2154
 7430SOL     OW32968   2.178   4.931   1.701 -0.3081 -0.5810 -0.1169
 7430SOL    HW132969   2.211   4.837   1.710  1.8222  0.2688  1.1960
 7430SOL    HW232970   2.202   4.966   1.610  2.5851  0.0634  0.8610
 7431SOL     OW32971   4.394   3.853   4.743  0.4994  0.6441 -0.1583
 7431SOL    HW132972   4.298   3.866   4.719  0.2972  0.9873  0.8103
 7431SOL    HW232973   4.446   3.825   4.662  0.1603  3.4037 -1.4018
 7432SOL     OW32974   9.882   4.966   2.317  0.4379  0.0545 -0.3344
 7432SOL    HW132975   9.784   4.983   2.327  0.2786 -0.0513 -1.7032
 7432SOL    HW232976   9.905   4.878   2.359 -0.4155 -0.9058 -1.8647
 7433SOL     OW32977   0.121   1.793   4.733  0.1466 -0.3341  0.0497
 7433SOL    HW132978   0.218   1.817   4.722  0.0791 -0.1823 -0.2199
 7433SOL    HW232979   0.066   1.876   4.724 -0.0406 -0.4878 -0.2181
 7434SOL     OW32980   6.836   9.581   3.508  0.4025  0.4150  0.3552
 7434SOL    HW132981   6.898   9.514   3.548  1.3041  0.6726 -0.5881
 7434SOL    HW232982   6.885   9.667   3.495 -0.4476  0.9398  0.5604
 7435SOL     OW32983   0.665   9.004   2.335  0.4597 -0.2657  0.1197
 7435SOL    HW132984   0.711   8.918   2.356  0.0277 -0.8749 -1.3461
 7435SOL    HW232985   0.636   9.048   2.420 -0.1227 -2.0094  0.8575
 7436SOL     OW32986   3.821   1.387   1.128 -0.0864 -0.4593 -0.2721
 7436SOL    HW132987   3.788   1.478   1.155  0.9039 -0.3078  0.4722
 7436SOL    HW232988   3.795   1.369   1.033  0.3454  0.9130 -0.6656
 7437SOL     OW32989   3.697   4.008   4.325  0.2703  0.0914 -0.4520
 7437SOL    HW132990   3.748   3.929   4.359 -0.1335  0.6947  1.6170
 7437SOL    HW232991   3.750   4.055   4.255  1.0324 -1.3073 -0.8219
 7438SOL     OW32992   0.803   1.849   2.849  0.0791 -0.3209  0.1988
 7438SOL    HW132993   0.848   1.762   2.827  0.2180 -0.2284  0.1183
 7438SOL    HW232994   0.742   1.836   2.927  0.8134 -0.2639  0.7763
 7439SOL     OW32995   9.110   3.599   0.649  0.0050 -0.1792 -0.4287
 7439SOL    HW132996   9.182   3.533   0.668 -0.0916 -0.2534 -0.3216
 7439SOL    HW232997   9.024   3.567   0.687 -0.2469 -0.4656 -1.2299
 7440SOL     OW32998   0.807   4.934   4.262 -0.4377  0.7719 -0.1164
 7440SOL    HW132999   0.713   4.946   4.294 -0.5906  0.1529 -0.3319
 7440SOL    HW233000   0.815   4.848   4.211  0.5956  0.0482  1.2230
 7441SOL     OW33001   3.539   3.659   1.812 -0.0814 -0.3750 -0.2501
 7441SOL    HW133002   3.575   3.589   1.873  0.6871  1.3480  1.3335
 7441SOL    HW233003   3.548   3.749   1.855 -2.0935  0.5986 -1.7461
 7442SOL     OW33004   0.008   7.029   0.828 -0.1431 -0.1513 -0.8061
 7442SOL    HW133005   0.095   6.987   0.851 -0.2933 -0.0619 -0.0472
 7442SOL    HW233006  -0.036   7.062   0.912 -0.6612  0.2725 -1.2387
 7443SOL     OW33007   2.034   6.759   0.478  0.2646 -0.6323 -0.5302
 7443SOL    HW133008   1.968   6.693   0.514  1.5441 -0.9491  1.3446
 7443SOL    HW233009   2.012   6.850   0.511  1.7779 -1.0091  1.6565
 7444SOL     OW33010   6.073   8.955   1.939  0.5729 -0.0714  0.0932
 7444SOL    HW133011   6.075   8.970   1.840  0.6837  1.4214  0.3184
 7444SOL    HW233012   5.998   8.892   1.961 -0.1193  0.4066 -0.8355
 7445SOL     OW33013   2.896   6.711   0.194 -0.4675 -0.6139  0.3610
 7445SOL    HW133014   2.954   6.684   0.117 -0.5067 -0.5998  0.3266
 7445SOL    HW233015   2.872   6.807   0.185  0.1723 -0.4101  0.8052
 7446SOL     OW33016   1.669   0.000   0.499 -0.4136 -0.0782 -0.4868
 7446SOL    HW133017   1.644   0.029   0.592  0.3250 -1.3699  0.1231
 7446SOL    HW233018   1.669   0.080   0.439  0.3500  0.9925  0.8940
 7447SOL     OW33019   0.730   5.317   2.487 -0.2332  1.1829 -0.1270
 7447SOL    HW133020   0.799   5.304   2.558 -0.3693  0.8991 -0.0444
 7447SOL    HW233021   0.769   5.370   2.411  0.2778  0.4649 -0.3739
 7448SOL     OW33022   8.219   3.967   0.324  0.1533  0.1209  0.8935
 7448SOL    HW133023   8.298   3.935   0.271 -0.2924 -0.3786  0.5210
 7448SOL    HW233024   8.139   3.912   0.300 -0.6931  1.7187  0.0329
 7449SOL     OW33025   7.605   3.405   0.369 -0.2798  0.3965  0.0634
 7449SOL    HW133026   7.582   3.346   0.291  0.8761 -0.1077  0.0972
 7449SOL    HW233027   7.702   3.396   0.390 -0.6005  0.4670  1.6289
 7450SOL     OW33028   1.280   6.917   2.046  0.4794  0.8035 -0.4624
 7450SOL    HW133029   1.346   6.989   2.066  0.8595  0.3981 -0.2461
 7450SOL    HW233030   1.211   6.913   2.118  1.8703 -0.6822  0.8232
 7451SOL     OW33031   1.175   7.522   3.792  0.2866 -0.0957  0.2992
 7451SOL    HW133032   1.254   7.566   3.834  1.1069 -1.6166  0.3697
 7451SOL    HW233033   1.205   7.457   3.722 -0.8677 -0.9435  0.5673
 7452SOL     OW33034   6.141   8.159   1.976 -0.3316  0.2325 -0.2291
 7452SOL    HW133035   6.164   8.255   1.997 -0.6257  0.5920 -1.5059
 7452SOL    HW233036   6.056   8.156   1.924 -0.5708 -0.7672  0.2200
 7453SOL     OW33037   8.792   7.778   2.518 -0.1428  0.2622 -0.6918
 7453SOL    HW133038   8.786   7.877   2.521 -2.2445  0.1172  2.6537
 7453SOL    HW233039   8.745   7.743   2.437 -3.2364  1.7893  0.4062
 7454SOL     OW33040   8.640   3.565   0.091  0.0339 -0.4096 -0.1647
 7454SOL    HW133041   8.605   3.499   0.024  1.7880  0.3666 -1.8846
 7454SOL    HW233042   8.698   3.631   0.045  1.4931 -0.0002  2.1890
 7455SOL     OW33043   1.230   5.570   1.592  0.4675 -0.0322  0.6210
 7455SOL    HW133044   1.147   5.519   1.610 -0.8734  1.5678 -0.7993
 7455SOL    HW233045   1.308   5.507   1.584 -0.5286 -1.4969  2.3324
 7456SOL     OW33046   8.085   2.614   0.655  0.3231  0.3792  0.3337
 7456SOL    HW133047   8.006   2.571   0.611  1.2015  0.4501 -1.3828
 7456SOL    HW233048   8.153   2.543   0.677  1.1691  0.6827 -1.2107
 7457SOL     OW33049   5.100   8.013   2.866 -0.3455  0.1512  0.5566
 7457SOL    HW133050   5.125   7.928   2.912 -0.8901  0.8080  2.1177
 7457SOL    HW233051   5.178   8.075   2.866 -0.1686 -0.0689  0.0660
 7458SOL     OW33052   6.665   0.793   2.624 -0.0228 -0.1923 -0.2394
 7458SOL    HW133053   6.605   0.725   2.667 -0.4237 -0.0345 -0.5379
 7458SOL    HW233054   6.609   0.868   2.589  0.5075  0.7461  0.9184
 7459SOL     OW33055   9.160   6.054   0.149 -0.2841  0.2714  0.4864
 7459SOL    HW133056   9.092   6.003   0.202  0.2318 -0.2500  0.6522
 7459SOL    HW233057   9.206   6.119   0.209 -1.5541  1.5796  0.0869
 7460SOL     OW33058   9.912   9.638   4.237  0.1432  0.1574  0.1929
 7460SOL    HW133059   9.827   9.635   4.185  0.0104  0.0985  0.4093
 7460SOL    HW233060   9.930   9.733   4.266  1.9861  0.7809 -2.8235
 7461SOL     OW33061   7.527   6.063   2.377  0.7990  0.2571  0.5065
 7461SOL    HW133062   7.467   5.993   2.338  2.4948 -0.8051 -0.2383
 7461SOL    HW233063   7.539   6.137   2.311  0.3595  0.4460  0.6358
 7462SOL     OW33064   4.813   8.335   3.999  0.3605 -0.1328  0.6368
 7462SOL    HW133065   4.847   8.403   3.934 -1.4607 -1.1136 -1.3896
 7462SOL    HW233066   4.759   8.381   4.070  1.4287  0.8226  0.8446
 7463SOL     OW33067   2.232   9.049   1.497  0.4548 -0.0487  0.0883
 7463SOL    HW133068   2.203   8.990   1.572 -0.8217  0.3067 -0.1232
 7463SOL    HW233069   2.258   8.993   1.418 -0.8119 -0.3274 -0.1348
 7464SOL     OW33070   7.781   3.991   3.516 -0.2170  0.1974  0.0074
 7464SOL    HW133071   7.803   4.026   3.607  0.1412 -0.9083  0.3444
 7464SOL    HW233072   7.749   4.067   3.459 -2.0270  0.6211  1.5196
 7465SOL     OW33073   1.819   6.623   3.055  0.5670 -0.3670 -0.4624
 7465SOL    HW133074   1.762   6.541   3.062 -2.1414  1.4492 -0.5645
 7465SOL    HW233075   1.813   6.675   3.140 -1.9949  2.3729 -2.2238
 7466SOL     OW33076   8.199   8.324   1.892  0.2538  0.1442  0.7939
 7466SOL    HW133077   8.261   8.367   1.958  0.1269  0.9730  0.3797
 7466SOL    HW233078   8.140   8.394   1.852 -0.3131 -0.5011  0.4958
 7467SOL     OW33079   0.676   9.789   1.085 -0.2479  0.2249 -0.0604
 7467SOL    HW133080   0.630   9.826   1.004 -0.1421  1.1639  0.3031
 7467SOL    HW233081   0.747   9.725   1.056 -0.0975  0.6798 -0.7169
 7468SOL     OW33082   3.889   2.573   3.276 -0.0292  0.2918  0.4604
 7468SOL    HW133083   3.883   2.489   3.330  0.6121  0.9563  1.5668
 7468SOL    HW233084   3.982   2.585   3.241 -0.5958 -0.4743 -1.3529
 7469SOL     OW33085   4.829   7.669   3.780  0.2671  0.2943 -0.8482
 7469SOL    HW133086   4.729   7.665   3.778  0.2215  1.5569 -1.9889
 7469SOL    HW233087   4.861   7.673   3.874 -0.8844  2.2645 -0.5100
 7470SOL     OW33088   9.523   5.122   0.084  0.2335 -0.5161 -0.0741
 7470SOL    HW133089   9.470   5.183   0.143  1.1711 -0.0822  0.3455
 7470SOL    HW233090   9.579   5.062   0.141 -0.0448 -1.1770 -0.5030
 7471SOL     OW33091   8.759   0.808   0.171  0.0225  0.5190  0.0843
 7471SOL    HW133092   8.813   0.733   0.210 -1.9389 -1.0373 -0.0982
 7471SOL    HW233093   8.670   0.813   0.217 -1.5645 -0.0798 -2.7331
 7472SOL     OW33094   7.760   9.183   3.325  0.1419 -0.2968 -0.0342
 7472SOL    HW133095   7.801   9.234   3.249 -0.3594  1.0672  0.5840
 7472SOL    HW233096   7.826   9.177   3.400 -0.3319  0.7956  0.4783
 7473SOL     OW33097   1.683   8.448   2.469  0.1820 -0.4657  0.1490
 7473SOL    HW133098   1.695   8.535   2.421 -1.3713 -0.1085  0.3915
 7473SOL    HW233099   1.770   8.399   2.470  1.1531  1.2183  0.2804
 7474SOL     OW33100   1.562   6.214   4.471  0.6808  0.0994  0.2365
 7474SOL    HW133101   1.638   6.271   4.503 -0.0480  0.0422  2.1453
 7474SOL    HW233102   1.486   6.271   4.442  1.8387  0.1861 -2.7657
 7475SOL     OW33103   2.741   8.231   0.568 -0.0389  0.5089 -0.2481
 7475SOL    HW133104   2.829   8.208   0.609 -0.9197 -0.8085  0.9336
 7475SOL    HW233105   2.688   8.288   0.631 -0.5348  0.2622 -0.4347
 7476SOL     OW33106   8.079   5.908   3.109 -0.2154 -0.2496 -0.1575
 7476SOL    HW133107   8.019   5.987   3.120  1.0512  0.8125 -0.6513
 7476SOL    HW233108   8.162   5.922   3.163  0.0298 -1.2412 -0.2706
 7477SOL     OW33109   1.372   7.134   4.531  0.1423  0.4120 -0.5281
 7477SOL    HW133110   1.340   7.109   4.623 -0.3436  1.2997 -0.4597
 7477SOL    HW233111   1.410   7.226   4.532  0.8288  0.1392 -1.0595
 7478SOL     OW33112   2.157   1.554   0.249  0.0108 -0.2862  0.1727
 7478SOL    HW133113   2.128   1.565   0.344  1.0204  0.0822  0.4457
 7478SOL    HW233114   2.085   1.508   0.197 -0.6843 -0.1829  1.0362
 7479SOL     OW33115   9.728   7.838   2.727 -0.2211 -0.5501 -0.4994
 7479SOL    HW133116   9.727   7.888   2.814 -1.1812 -1.4355  0.0186
 7479SOL    HW233117   9.808   7.778   2.724 -1.0855 -1.7858  0.5286
 7480SOL     OW33118   7.681   8.720   2.170  0.2959 -0.0534  0.0925
 7480SOL    HW133119   7.644   8.653   2.106  1.0378  0.0618 -0.4666
 7480SOL    HW233120   7.749   8.777   2.123 -0.1511  0.9340  0.6263
 7481SOL     OW33121   6.324   0.984   3.308  0.7265 -0.1314  0.3363
 7481SOL    HW133122   6.403   1.035   3.274  0.2602  0.7680  0.5711
 7481SOL    HW233123   6.241   1.020   3.264  0.3380 -0.3593  0.8866
 7482SOL     OW33124   0.884   5.007   0.940 -0.0057 -0.1295 -0.0171
 7482SOL    HW133125   0.828   5.006   1.023  0.9271 -0.4402  0.6253
 7482SOL    HW233126   0.929   4.919   0.930  2.3022  0.9038  0.8447
 7483SOL     OW33127   0.919   4.695   0.975  0.2697  0.1963  0.0334
 7483SOL    HW133128   0.915   4.636   1.055 -0.2080  1.0458  0.6396
 7483SOL    HW233129   0.831   4.695   0.928 -0.0227  1.1562  0.5676
 7484SOL     OW33130   2.356   0.922   2.228 -0.2374 -0.5108  0.1837
 7484SOL    HW133131   2.272   0.884   2.190  0.0479 -0.7147 -0.2448
 7484SOL    HW233132   2.376   0.878   2.316  0.3028 -1.6416 -0.4981
 7485SOL     OW33133   8.528   3.912   0.537  0.0508  0.1970  0.0462
 7485SOL    HW133134   8.430   3.902   0.556  0.1129 -2.6918 -0.9062
 7485SOL    HW233135   8.579   3.843   0.589  1.5685  1.3765  0.1726
 7486SOL     OW33136   2.838   8.960   4.142 -0.3030 -0.0728  0.0702
 7486SOL    HW133137   2.812   9.018   4.219 -1.9478 -2.9364  1.7575
 7486SOL    HW233138   2.776   8.976   4.066 -1.2265 -0.1810  0.7972
 7487SOL     OW33139   8.454   5.163   2.073  0.3078 -0.0958 -0.0672
 7487SOL    HW133140   8.414   5.086   2.124  0.9601 -1.6496 -1.8385
 7487SOL    HW233141   8.545   5.183   2.109  1.5526 -2.4466 -1.8015
 7488SOL     OW33142   4.080   3.640   2.169 -0.1155 -0.1601 -0.3650
 7488SOL    HW133143   4.159   3.698   2.147 -0.2834  1.7864  3.5615
 7488SOL    HW233144   3.996   3.689   2.148 -0.2624 -0.2735 -0.0483
 7489SOL     OW33145   2.015   6.588   4.210  0.4667 -0.1227 -0.3640
 7489SOL    HW133146   1.952   6.611   4.285 -0.0687  0.3395 -0.9494
 7489SOL    HW233147   2.092   6.651   4.212 -0.4481  1.0425 -1.2918
 7490SOL     OW33148   0.059   0.303   3.776  0.5217  0.5595 -0.6757
 7490SOL    HW133149   0.057   0.398   3.807 -0.8319  0.4287 -0.3176
 7490SOL    HW233150   0.081   0.300   3.678  1.6106  1.1741 -0.4466
 7491SOL     OW33151   1.608   0.246   3.287  0.0926 -0.1670 -0.4284
 7491SOL    HW133152   1.603   0.151   3.318 -0.8150 -1.0921 -3.2381
 7491SOL    HW233153   1.558   0.256   3.201  1.6509  2.4708 -1.1039
 7492SOL     OW33154   9.068   4.070   0.946  0.2388  0.1967  0.2761
 7492SOL    HW133155   9.067   4.006   0.869  0.3904  0.0270  0.4129
 7492SOL    HW233156   9.018   4.029   1.023 -0.7631  0.7715 -0.0495
 7493SOL     OW33157   0.836   0.798   2.125  0.2120 -0.8001  0.7501
 7493SOL    HW133158   0.856   0.893   2.098 -0.3887 -1.0278 -0.5123
 7493SOL    HW233159   0.817   0.795   2.223  0.9525  0.2753  0.9377
 7494SOL     OW33160   1.772   7.506   1.211 -0.3229  0.3047  0.2414
 7494SOL    HW133161   1.673   7.515   1.200 -0.1621  0.5949 -1.0784
 7494SOL    HW233162   1.813   7.596   1.221 -0.2704  0.1386  1.5513
 7495SOL     OW33163   9.421   5.515   1.250  0.4765  0.5764  0.4279
 7495SOL    HW133164   9.342   5.454   1.239  0.6692  0.2983  0.5795
 7495SOL    HW233165   9.391   5.602   1.287  0.2681  0.4026  0.6674
 7496SOL     OW33166   4.129   2.978   1.724 -0.1242  0.3453  0.3561
 7496SOL    HW133167   4.103   3.072   1.742  0.7755  0.1222  2.9902
 7496SOL    HW233168   4.209   2.954   1.778 -1.7034 -2.6238  1.5314
 7497SOL     OW33169   9.144   9.348   0.927  0.2458 -0.0404 -0.0195
 7497SOL    HW133170   9.071   9.295   0.885  2.3750 -2.1445 -1.1504
 7497SOL    HW233171   9.164   9.428   0.871  0.4869 -0.8055 -1.0479
 7498SOL     OW33172   8.631   8.349   1.958  0.3814 -0.3566 -0.0518
 7498SOL    HW133173   8.725   8.320   1.941  0.1946 -2.2218  1.8682
 7498SOL    HW233174   8.631   8.430   2.016  0.8094 -0.6903  0.4236
 7499SOL     OW33175   2.749   4.047   2.636 -0.2738  0.2135  0.4579
 7499SOL    HW133176   2.801   4.090   2.709 -2.5467  0.5149  1.9552
 7499SOL    HW233177   2.749   3.948   2.648  1.6415  0.0368 -0.7382
 7500SOL     OW33178   9.126   0.554   2.555 -0.2827  0.4687  0.2173
 7500SOL    HW133179   9.225   0.567   2.565 -0.1024 -0.4268 -0.3445
 7500SOL    HW233180   9.092   0.500   2.632 -0.3347  0.8174  0.4350
 7501SOL     OW33181   9.574   9.515   0.898 -0.0074 -0.1257  0.2795
 7501SOL    HW133182   9.507   9.501   0.971  0.0789  0.3880  0.4554
 7501SOL    HW233183   9.527   9.518   0.810 -0.4503  2.2581  0.5709
 7502SOL     OW33184   0.203   7.013   4.011  0.1319 -0.3812 -0.1063
 7502SOL    HW133185   0.173   6.944   4.078  0.1644 -0.6111 -0.3277
 7502SOL    HW233186   0.124   7.046   3.959 -0.2960  1.6380  1.7459
 7503SOL     OW33187   8.759   9.431   3.886 -0.3231  0.2805  0.2489
 7503SOL    HW133188   8.820   9.369   3.936 -0.7036  0.9236  1.5130
 7503SOL    HW233189   8.705   9.485   3.951 -0.7679  1.1759 -0.8519
 7504SOL     OW33190   0.903   6.572   3.881  0.4021 -0.2995 -0.4159
 7504SOL    HW133191   0.975   6.628   3.840  0.2007  1.5548  1.6421
 7504SOL    HW233192   0.818   6.584   3.830  0.3855  1.2404 -0.0571
 7505SOL     OW33193   3.519   4.376   0.593  0.1158  0.3188  0.3775
 7505SOL    HW133194   3.500   4.462   0.545  2.2707  1.7418  1.9410
 7505SOL    HW233195   3.611   4.381   0.634 -0.4510 -2.0281  2.0128
 7506SOL     OW33196   1.358   3.449   1.278 -0.0476 -0.3072 -1.0234
 7506SOL    HW133197   1.390   3.401   1.196 -2.5068 -2.0945 -0.9743
 7506SOL    HW233198   1.405   3.414   1.358 -0.7776 -1.6154 -1.1620
 7507SOL     OW33199   4.997   0.126   2.889 -0.3538  1.0950 -0.1124
 7507SOL    HW133200   4.902   0.100   2.874 -0.1760  0.0197  0.6194
 7507SOL    HW233201   5.021   0.114   2.985  0.3243  2.0303 -0.1532
 7508SOL     OW33202   1.344   2.564   2.953 -0.0708  0.0395  0.4407
 7508SOL    HW133203   1.344   2.498   2.877 -0.9784  2.0900 -1.3790
 7508SOL    HW233204   1.256   2.562   2.999  0.6156 -1.4932  1.7339
 7509SOL     OW33205   5.685   9.667   1.604 -0.2154  0.5683 -0.0923
 7509SOL    HW133206   5.661   9.761   1.578  1.9543  1.1152 -0.1707
 7509SOL    HW233207   5.782   9.663   1.628 -0.1489 -1.7852 -0.6888
 7510SOL     OW33208   3.007   7.175   4.252  0.2666 -0.0048 -0.2068
 7510SOL    HW133209   2.950   7.210   4.178 -0.7970  0.7829  0.9736
 7510SOL    HW233210   2.988   7.078   4.265  0.2942 -0.0939 -0.8110
 7511SOL     OW33211   9.160   9.744   4.315  0.2837 -0.2287 -0.4740
 7511SOL    HW133212   9.122   9.682   4.246  0.5591 -1.3588  0.3826
 7511SOL    HW233213   9.242   9.788   4.279  0.6717 -1.1413 -0.7013
 7512SOL     OW33214   1.625   8.533   1.649  0.2234 -0.0680 -0.1960
 7512SOL    HW133215   1.528   8.535   1.623  0.4981 -1.1320 -1.3906
 7512SOL    HW233216   1.632   8.516   1.747 -0.8108 -2.1391 -0.4281
 7513SOL     OW33217   9.263   2.596   1.709  0.3894  0.2290 -0.2045
 7513SOL    HW133218   9.182   2.581   1.652 -0.2228  1.5601  0.2945
 7513SOL    HW233219   9.236   2.598   1.805  1.1351 -0.0751  0.0140
 7514SOL     OW33220   9.940   8.443   4.065  0.2663 -0.3099 -0.5747
 7514SOL    HW133221  10.038   8.422   4.068  0.7956  2.0968  0.2287
 7514SOL    HW233222   9.898   8.415   4.151  0.2485 -1.3097 -0.9037
 7515SOL     OW33223   5.922   7.776   2.296 -0.3394  0.2788 -0.1041
 7515SOL    HW133224   5.937   7.855   2.355 -0.7192  0.7830 -0.6849
 7515SOL    HW233225   5.965   7.792   2.207 -2.1094  0.6718 -0.9096
 7516SOL     OW33226   3.493   9.334   1.506 -0.2822  0.3090 -0.2928
 7516SOL    HW133227   3.567   9.363   1.567 -1.1253 -1.3863  1.6009
 7516SOL    HW233228   3.426   9.409   1.498 -0.7827  0.1298  1.9010
 7517SOL     OW33229   2.604   0.515   4.457 -0.3061 -0.3939  0.3015
 7517SOL    HW133230   2.593   0.555   4.367 -0.4719  0.2110  0.5927
 7517SOL    HW233231   2.655   0.578   4.516  0.3727 -1.0545  0.4411
 7518SOL     OW33232   9.053   6.073   2.195 -0.7507  0.0785 -0.7450
 7518SOL    HW133233   9.089   6.019   2.119  1.2694 -0.8995  0.8457
 7518SOL    HW233234   9.073   6.170   2.180  0.7235 -0.2396 -0.9038
 7519SOL     OW33235   4.819   1.120   1.606 -0.4109  0.0845  0.9373
 7519SOL    HW133236   4.765   1.093   1.526  0.1797 -0.9554  0.8721
 7519SOL    HW233237   4.847   1.216   1.597  0.3366 -0.2518 -0.5061
 7520SOL     OW33238   9.314   4.014   2.674  0.5719 -0.1065  0.1080
 7520SOL    HW133239   9.234   3.960   2.699  1.0545 -0.6222  0.5561
 7520SOL    HW233240   9.306   4.045   2.579 -0.7240  0.8692  0.5257
 7521SOL     OW33241   1.661   3.704   0.205 -0.5062 -0.5223  0.7019
 7521SOL    HW133242   1.611   3.779   0.163  0.7140 -0.5200 -0.7969
 7521SOL    HW233243   1.667   3.719   0.303  0.8215  1.9975  0.2681
 7522SOL     OW33244   9.799   0.888   3.366 -0.1760 -0.1958 -0.2296
 7522SOL    HW133245   9.714   0.941   3.366 -0.8129 -1.1453  2.3692
 7522SOL    HW233246   9.824   0.865   3.460  2.6978 -0.3726 -1.0014
 7523SOL     OW33247   3.991   9.602   4.555 -0.3739  0.6233 -0.0055
 7523SOL    HW133248   3.980   9.691   4.511 -1.3694  0.6879  0.3535
 7523SOL    HW233249   4.081   9.564   4.532 -0.1507  1.4834 -0.5802
 7524SOL     OW33250   7.894   5.071   2.691 -0.4553 -0.1938 -0.2239
 7524SOL    HW133251   7.803   5.104   2.715 -0.0569 -0.6144  1.9851
 7524SOL    HW233252   7.886   4.990   2.633 -1.4600  0.7690 -1.4538
 7525SOL     OW33253   5.383   8.926   1.972 -0.4267 -0.0338 -0.4242
 7525SOL    HW133254   5.424   8.869   1.901 -0.3769  0.2922 -0.6582
 7525SOL    HW233255   5.355   8.868   2.049  0.5432 -0.2541 -0.2257
 7526SOL     OW33256   7.961   9.981   1.695 -0.2757 -0.2966 -0.1795
 7526SOL    HW133257   8.052   9.941   1.705  0.4625  1.2284 -0.4936
 7526SOL    HW233258   7.970  10.081   1.687 -2.1326  0.1055  2.0638
 7527SOL     OW33259   7.680   7.995   1.313 -0.0629 -0.7257  0.1826
 7527SOL    HW133260   7.780   7.999   1.302 -0.3191  0.5664 -1.8425
 7527SOL    HW233261   7.636   8.027   1.230 -2.1942 -1.1219  1.1347
 7528SOL     OW33262   7.880   1.560   1.486  0.7161  0.1245 -0.1657
 7528SOL    HW133263   7.833   1.473   1.475  1.4520 -0.2107 -0.6992
 7528SOL    HW233264   7.885   1.584   1.584 -0.2942  0.0259 -0.0901
 7529SOL     OW33265   1.149   5.349   3.594 -0.1027 -0.2932 -0.5097
 7529SOL    HW133266   1.177   5.380   3.685  0.3371  0.5280 -0.9190
 7529SOL    HW233267   1.224   5.364   3.530 -0.4438 -0.7958 -1.0245
 7530SOL     OW33268   1.770   4.710   3.686  0.0269  0.5858 -0.3673
 7530SOL    HW133269   1.769   4.739   3.781  1.0074  0.9511 -0.4588
 7530SOL    HW233270   1.688   4.743   3.639 -0.8413 -0.2513  0.5344
 7531SOL     OW33271   2.686   0.153   2.888 -0.3262  0.0224 -0.1565
 7531SOL    HW133272   2.692   0.193   2.979  0.4085 -0.8461  0.1816
 7531SOL    HW233273   2.697   0.224   2.819  1.2689  0.3540  0.4373
 7532SOL     OW33274   0.894   9.434   3.260 -0.0921  0.0676  0.3101
 7532SOL    HW133275   0.807   9.407   3.303 -0.8029  0.3653 -0.9221
 7532SOL    HW233276   0.957   9.356   3.261 -0.0764  0.0855  1.9248
 7533SOL     OW33277   1.948   1.716   2.582 -0.1452  0.1377  1.0117
 7533SOL    HW133278   1.937   1.654   2.504 -2.6248  1.8646 -0.0550
 7533SOL    HW233279   2.045   1.739   2.593  0.3518 -1.0111 -0.8454
 7534SOL     OW33280   2.109   4.408   2.624 -0.1713  0.4761  0.3691
 7534SOL    HW133281   2.072   4.493   2.663  3.3834  1.5500  1.6172
 7534SOL    HW233282   2.038   4.337   2.627 -2.2092  2.4701  2.3726
 7535SOL     OW33283   2.191   7.132   1.393 -0.5177 -0.0757  0.2136
 7535SOL    HW133284   2.229   7.221   1.415 -0.9561  0.7035 -2.0506
 7535SOL    HW233285   2.265   7.066   1.378 -0.1399  0.4824 -0.3794
 7536SOL     OW33286   5.104   0.385   2.359  0.0290  0.0801  0.9356
 7536SOL    HW133287   5.171   0.443   2.314  1.3412 -2.5069 -0.5343
 7536SOL    HW233288   5.024   0.374   2.300 -0.4291  0.7197  1.4173
 7537SOL     OW33289   1.945   8.010   0.717  0.2935 -0.0978 -0.2629
 7537SOL    HW133290   2.030   7.972   0.753 -0.2181  0.0697  1.1598
 7537SOL    HW233291   1.896   8.057   0.791 -1.1069 -0.3363 -1.0279
 7538SOL     OW33292   9.564   0.188   3.687  0.5339 -1.0205  0.2475
 7538SOL    HW133293   9.637   0.214   3.751  0.1141  1.6837 -0.3091
 7538SOL    HW233294   9.488   0.252   3.696  0.4121 -0.6456 -2.8229
 7539SOL     OW33295   1.335   2.201   3.472 -0.0030 -0.3434 -0.1025
 7539SOL    HW133296   1.411   2.204   3.536 -0.0887 -1.4039  0.0541
 7539SOL    HW233297   1.369   2.183   3.380 -0.0133 -0.2548 -0.1239
 7540SOL     OW33298   2.835   2.614   2.483  0.3852 -0.2454 -0.1639
 7540SOL    HW133299   2.742   2.584   2.503  0.6670  0.0564  1.6953
 7540SOL    HW233300   2.880   2.548   2.423  0.0918 -2.1362  1.6568
 7541SOL     OW33301   5.685   7.897   2.349  0.6262  0.5940  0.2259
 7541SOL    HW133302   5.700   7.799   2.334 -1.3105  0.2861  0.1528
 7541SOL    HW233303   5.773   7.944   2.354  1.5318 -0.6470 -2.9540
 7542SOL     OW33304   0.059   0.506   2.929 -0.0381 -0.0708 -0.1225
 7542SOL    HW133305   0.046   0.407   2.925  2.6661 -0.4013 -1.6260
 7542SOL    HW233306   0.129   0.534   2.863 -1.1392  2.9272 -0.1100
 7543SOL     OW33307   5.096   7.579   2.189 -0.2802  0.2901 -0.6991
 7543SOL    HW133308   5.161   7.545   2.257 -1.3658  0.5151  0.4825
 7543SOL    HW233309   5.106   7.678   2.179 -0.9911  0.4518  0.1066
 7544SOL     OW33310   6.356   9.664   3.636 -0.2644 -0.0750  0.2368
 7544SOL    HW133311   6.289   9.611   3.688  0.7477  1.3530  3.0491
 7544SOL    HW233312   6.447   9.626   3.650  0.2837  1.5380  1.1787
 7545SOL     OW33313   2.442   3.512   1.997  0.0933  0.0011  0.2979
 7545SOL    HW133314   2.530   3.559   1.987  0.8857 -1.7484 -1.1056
 7545SOL    HW233315   2.393   3.552   2.074  1.8323  1.4338  0.7210
 7546SOL     OW33316   2.444   0.645   0.953 -0.3396  1.1400 -0.5506
 7546SOL    HW133317   2.386   0.585   1.008 -0.2393  0.6268 -1.0018
 7546SOL    HW233318   2.398   0.733   0.938 -0.6603  1.0225 -0.2387
 7547SOL     OW33319   2.704   8.567   1.491 -0.0762  0.0985  0.2523
 7547SOL    HW133320   2.716   8.476   1.452  1.0617  0.2791  0.1772
 7547SOL    HW233321   2.606   8.589   1.493 -0.4115 -1.3711  0.8541
 7548SOL     OW33322   7.941   6.155   1.567  0.3261 -0.7508 -0.1425
 7548SOL    HW133323   7.883   6.100   1.627 -1.1779 -0.3530 -1.1955
 7548SOL    HW233324   7.918   6.252   1.578  0.1892 -0.6580 -1.1953
 7549SOL     OW33325   0.367   5.482   2.487  0.6245  0.4231 -0.5087
 7549SOL    HW133326   0.334   5.435   2.405 -1.4210 -0.4140  0.7411
 7549SOL    HW233327   0.397   5.575   2.463  2.8182 -0.7991 -2.6548
 7550SOL     OW33328   4.107   2.328   4.128 -0.1627 -0.4457 -0.3107
 7550SOL    HW133329   4.048   2.395   4.085  0.8262  0.6342 -0.0137
 7550SOL    HW233330   4.127   2.356   4.222  2.2072  0.1106 -0.9401
 7551SOL     OW33331   9.887   8.295   3.800 -0.1376  0.4914 -0.1222
 7551SOL    HW133332   9.960   8.320   3.864 -0.2860  2.1618 -0.5780
 7551SOL    HW233333   9.834   8.377   3.776 -2.6587 -0.7912  0.8084
 7552SOL     OW33334   8.973   0.269   4.672  0.2439  0.4666 -0.5712
 7552SOL    HW133335   9.012   0.359   4.654  1.2443  0.1751  0.0739
 7552SOL    HW233336   8.915   0.273   4.753  2.0750  0.0682  0.8028
 7553SOL     OW33337   5.830   9.438   3.737  0.3632  0.1179  0.1777
 7553SOL    HW133338   5.805   9.495   3.815  1.1364  0.1135  0.4319
 7553SOL    HW233339   5.782   9.472   3.655  0.9134  1.2214  0.3023
 7554SOL     OW33340   9.570   3.548   3.729 -0.2145  0.2978  0.4141
 7554SOL    HW133341   9.514   3.541   3.811  0.1034  1.3147  0.7293
 7554SOL    HW233342   9.596   3.644   3.714  1.3769 -0.1480  0.2373
 7555SOL     OW33343   8.558   6.123   2.675 -0.0357  0.1028 -0.4254
 7555SOL    HW133344   8.502   6.203   2.653 -0.0573  0.1423 -0.2284
 7555SOL    HW233345   8.646   6.153   2.712  0.9123  0.0869 -2.5933
 7556SOL     OW33346   9.228   6.422   2.631  0.0995 -0.1086 -0.8131
 7556SOL    HW133347   9.131   6.440   2.611 -0.4550 -0.6304  1.2383
 7556SOL    HW233348   9.270   6.505   2.667 -0.4877 -0.7591  1.4666
 7557SOL     OW33349   3.583   7.574   2.894  0.0141  0.1290 -0.2680
 7557SOL    HW133350   3.502   7.525   2.928  1.0081 -0.5508  1.1318
 7557SOL    HW233351   3.663   7.514   2.900  0.9573  1.4181  0.0162
 7558SOL     OW33352   0.448   5.678   2.133 -0.0054  0.2231  0.1006
 7558SOL    HW133353   0.526   5.695   2.073  0.0101 -0.7048 -0.1436
 7558SOL    HW233354   0.369   5.731   2.100 -0.0476 -0.4123 -0.8575
 7559SOL     OW33355   6.384   7.211   1.985  0.7001  0.1461 -0.0069
 7559SOL    HW133356   6.341   7.124   2.008 -0.9664  0.4862 -1.7108
 7559SOL    HW233357   6.483   7.198   1.977  0.5398 -1.4301  0.4110
 7560SOL     OW33358   8.119   3.577   0.560 -0.0672 -0.4575  0.0093
 7560SOL    HW133359   8.126   3.658   0.501 -0.2096  0.5887  1.4231
 7560SOL    HW233360   8.185   3.584   0.635  2.3179 -3.2285 -1.6739
 7561SOL     OW33361   3.776   1.060   2.839  0.1909  0.0017  0.0169
 7561SOL    HW133362   3.801   1.122   2.914  0.6040 -1.3862  1.0495
 7561SOL    HW233363   3.678   1.043   2.841 -0.0361  1.1362 -0.6904
 7562SOL     OW33364   1.792   9.615   2.765 -0.3486  0.4483  0.1277
 7562SOL    HW133365   1.817   9.523   2.794  0.2308  0.1258 -1.3345
 7562SOL    HW233366   1.875   9.664   2.737 -0.8611  0.7836 -0.8369
 7563SOL     OW33367   2.975   3.381   4.748 -0.1646 -0.7947  0.2393
 7563SOL    HW133368   2.922   3.361   4.666 -1.8839 -0.3187  1.2175
 7563SOL    HW233369   2.992   3.296   4.799 -1.7858 -0.6971  0.9830
 7564SOL     OW33370   9.359   7.249   1.894 -0.2651  0.2220  0.5700
 7564SOL    HW133371   9.427   7.177   1.883 -1.4599 -0.6242 -1.6533
 7564SOL    HW233372   9.382   7.325   1.833 -0.6157  0.4678  0.7445
 7565SOL     OW33373   3.019   3.345   1.308  0.0175 -0.6962  0.3023
 7565SOL    HW133374   3.077   3.409   1.358  1.6464 -0.8378 -1.3575
 7565SOL    HW233375   2.927   3.384   1.297  0.2307  0.2022  1.5791
 7566SOL     OW33376   3.683   3.409   0.644  0.0111  0.1381  0.5477
 7566SOL    HW133377   3.692   3.442   0.550  0.7469  0.9965  0.9082
 7566SOL    HW233378   3.587   3.390   0.663  0.1232 -2.2272 -1.0880
 7567SOL     OW33379   8.037   2.871   0.265  0.4401 -0.2054 -0.0477
 7567SOL    HW133380   7.964   2.802   0.272  0.0674 -0.0909 -2.3411
 7567SOL    HW233381   8.033   2.931   0.345 -1.7031 -0.4846  0.1020
 7568SOL     OW33382   4.805   0.211   3.275  0.4982  0.5612 -0.0169
 7568SOL    HW133383   4.796   0.253   3.185 -0.1165 -0.0195 -0.2272
 7568SOL    HW233384   4.715   0.180   3.307  1.0103 -1.0399 -0.0815
 7569SOL     OW33385   4.057   1.213   0.956 -0.1845 -0.0157 -0.6145
 7569SOL    HW133386   4.058   1.206   1.056  0.9854 -0.0441 -0.6131
 7569SOL    HW233387   3.963   1.222   0.924 -0.5578  0.2082  0.5052
 7570SOL     OW33388   8.233   9.682   3.603 -0.2568  0.1248 -0.0130
 7570SOL    HW133389   8.218   9.755   3.536  0.6286 -0.9328 -1.4138
 7570SOL    HW233390   8.305   9.709   3.666  0.9007  0.0147 -1.2536
 7571SOL     OW33391   8.690   3.073   0.443  0.4961 -0.5673 -0.3092
 7571SOL    HW133392   8.671   3.128   0.525  2.1682 -0.5585  0.0802
 7571SOL    HW233393   8.604   3.033   0.411 -0.3060  0.0080  1.0213
 7572SOL     OW33394   8.909   4.693   2.794 -0.2119  0.1052 -0.1595
 7572SOL    HW133395   8.847   4.771   2.779  0.1875  0.2228 -1.2606
 7572SOL    HW233396   8.899   4.660   2.887 -0.4489  1.4336  0.2969
 7573SOL     OW33397   1.095   8.408   0.562  0.0559  0.3279  0.1470
 7573SOL    HW133398   1.135   8.331   0.613  0.0127 -1.0786 -1.8909
 7573SOL    HW233399   1.122   8.494   0.606  0.2750 -0.8181  2.3468
 7574SOL     OW33400   3.788   0.566   2.029  0.3897 -0.3818 -0.0934
 7574SOL    HW133401   3.742   0.506   2.094  1.3514  0.1722  1.1132
 7574SOL    HW233402   3.886   0.544   2.027  0.7018  0.9699  0.1546
 7575SOL     OW33403   8.553   6.009   2.415  0.9915  0.1426 -0.3575
 7575SOL    HW133404   8.639   6.015   2.365  2.2398 -3.2343  1.2567
 7575SOL    HW233405   8.566   6.042   2.508  0.3298  0.3507 -0.3374
 7576SOL     OW33406   3.486   0.203   4.010  0.0759 -0.4719 -0.1518
 7576SOL    HW133407   3.583   0.201   4.033  0.1590 -2.0739 -0.6159
 7576SOL    HW233408   3.474   0.244   3.920  0.3024 -0.2423 -0.0794
 7577SOL     OW33409   2.518   9.119   3.922 -0.5222 -0.9157  0.0475
 7577SOL    HW133410   2.563   9.199   3.881 -1.9015 -1.3816 -2.4706
 7577SOL    HW233411   2.579   9.040   3.915  0.7241 -0.1799  2.2704
 7578SOL     OW33412   2.894   7.504   0.016 -0.0153  0.1272 -0.1425
 7578SOL    HW133413   2.830   7.428   0.011 -0.3457  0.4453 -0.7790
 7578SOL    HW233414   2.878   7.556   0.100 -0.1665 -0.1650  0.0110
 7579SOL     OW33415   9.419   3.061   3.129 -0.1455 -0.0679 -0.0542
 7579SOL    HW133416   9.486   3.014   3.186 -0.9683 -1.1629  0.0396
 7579SOL    HW233417   9.328   3.051   3.169 -0.3985  1.2788 -0.2552
 7580SOL     OW33418   8.573   8.095   1.142  0.7151 -0.1156 -0.3373
 7580SOL    HW133419   8.551   8.005   1.179  0.8110 -0.2544 -0.6220
 7580SOL    HW233420   8.518   8.113   1.061  0.1725  0.3813  0.1337
 7581SOL     OW33421   2.277   3.291   1.128 -0.2700  0.5338  0.5285
 7581SOL    HW133422   2.329   3.349   1.065 -2.0930  0.4837 -1.0312
 7581SOL    HW233423   2.200   3.342   1.165  0.5627  0.4440  2.4726
 7582SOL     OW33424   1.701   3.702   1.098 -0.5562 -0.1611  0.0998
 7582SOL    HW133425   1.785   3.649   1.100  0.8953  2.0046 -0.9196
 7582SOL    HW233426   1.715   3.785   1.043 -3.3362  0.2701 -0.0510
 7583SOL     OW33427   1.891   7.270   3.097 -0.3406 -0.4213 -0.3394
 7583SOL    HW133428   1.839   7.185   3.097  0.5881 -0.9980  0.3619
 7583SOL    HW233429   1.918   7.293   3.003 -0.8069 -0.7628 -0.5590
 7584SOL     OW33430   2.951   4.280   0.099 -0.7118 -0.5385 -0.3575
 7584SOL    HW133431   3.007   4.277   0.181 -0.8140 -1.1338 -0.3077
 7584SOL    HW233432   3.006   4.309   0.021 -1.3174  3.1262  0.5000
 7585SOL     OW33433   0.125   8.607   3.733  0.6522  0.3934  0.5593
 7585SOL    HW133434   0.216   8.568   3.715  0.1050 -1.6350  1.9392
 7585SOL    HW233435   0.110   8.611   3.832 -0.6389  0.9967  0.3435
 7586SOL     OW33436   7.850   0.041   0.189 -0.6539  0.0819  0.1305
 7586SOL    HW133437   7.760   0.054   0.147 -1.3268 -2.8005  0.5700
 7586SOL    HW233438   7.840  -0.004   0.277  1.2097  0.0437  0.3479
 7587SOL     OW33439   9.951   4.059   4.004 -0.2390  0.1003 -0.1650
 7587SOL    HW133440  10.045   4.071   4.037 -0.4898 -0.2323  0.6964
 7587SOL    HW233441   9.891   4.123   4.052 -0.7184 -0.8490  0.5138
 7588SOL     OW33442   2.694   0.733   4.593  0.2056 -0.8175 -0.3766
 7588SOL    HW133443   2.610   0.757   4.641 -0.0787 -2.1690 -0.1749
 7588SOL    HW233444   2.728   0.813   4.542 -0.4404  0.1201  0.6453
 7589SOL     OW33445   9.724   3.906   1.410 -0.1383  0.1559  0.6135
 7589SOL    HW133446   9.656   3.964   1.454  0.6137  1.1880  0.4490
 7589SOL    HW233447   9.805   3.901   1.468 -0.5350 -1.4593  1.0344
 7590SOL     OW33448   9.672   4.359   0.911  0.2786  0.0776  0.6964
 7590SOL    HW133449   9.749   4.384   0.852 -0.2095  0.2740  0.1292
 7590SOL    HW233450   9.705   4.312   0.992  0.7895 -3.3485 -1.3675
 7591SOL     OW33451   5.661   0.149   1.320  0.1138 -0.2505 -0.5717
 7591SOL    HW133452   5.648   0.159   1.418  0.4553 -1.8059 -0.3482
 7591SOL    HW233453   5.717   0.068   1.302 -0.8984 -0.6470 -2.0985
 7592SOL     OW33454   0.114   8.385   0.800 -0.7864 -0.3178  0.3156
 7592SOL    HW133455   0.017   8.395   0.776 -0.7033 -1.3231 -0.4856
 7592SOL    HW233456   0.167   8.454   0.750 -1.0875  0.2656  0.7927
 7593SOL     OW33457   2.353   2.015   3.093  0.2427 -0.1865  0.2905
 7593SOL    HW133458   2.277   2.080   3.095  0.5202  0.1141  1.9116
 7593SOL    HW233459   2.382   1.995   3.187  1.9961 -0.5061 -0.3029
 7594SOL     OW33460   0.552   1.037   0.542  0.6504 -0.1106 -0.4614
 7594SOL    HW133461   0.622   0.968   0.526  1.3732  0.0352  1.8519
 7594SOL    HW233462   0.549   1.060   0.640 -1.2488  1.3477 -0.8201
 7595SOL     OW33463   3.883   0.594   3.999  0.7079  0.0525  0.3641
 7595SOL    HW133464   3.893   0.540   4.082  2.3329 -2.3379 -1.3333
 7595SOL    HW233465   3.806   0.559   3.946 -0.1695  1.4109  0.7275
 7596SOL     OW33466   1.744   0.095   3.762 -0.0626  0.3986  0.4413
 7596SOL    HW133467   1.817   0.027   3.770 -0.4463 -0.0151  0.4689
 7596SOL    HW233468   1.772   0.168   3.699  0.6705  0.6342  1.0460
 7597SOL     OW33469   0.758   7.385   1.205  0.0191 -0.1312 -0.6690
 7597SOL    HW133470   0.825   7.392   1.279  1.0255  1.2668 -1.6854
 7597SOL    HW233471   0.669   7.416   1.238 -0.1199 -1.8423  0.6431
 7598SOL     OW33472   8.420   1.875   3.428 -0.0817  0.0811 -0.6071
 7598SOL    HW133473   8.420   1.784   3.386  2.3176  0.6192 -1.8763
 7598SOL    HW233474   8.511   1.893   3.467 -1.2276  1.0125  1.7237
 7599SOL     OW33475   3.073   9.754   1.921  0.0428  0.4363 -0.0912
 7599SOL    HW133476   3.139   9.696   1.873 -0.4340  0.3264 -0.6176
 7599SOL    HW233477   3.118   9.799   1.998  0.8752  0.7737 -0.7624
 7600SOL     OW33478   1.696   7.010   0.311 -0.1104 -0.0200  0.5946
 7600SOL    HW133479   1.606   6.999   0.269  0.4065  0.0149 -0.5650
 7600SOL    HW233480   1.694   6.977   0.405 -0.6985 -2.3198 -0.2012
 7601SOL     OW33481   8.862   8.468   0.710 -0.0953  0.2002  0.0569
 7601SOL    HW133482   8.903   8.423   0.631 -1.3823 -0.5031 -0.2235
 7601SOL    HW233483   8.765   8.445   0.715 -0.3260  1.3450  1.0625
 7602SOL     OW33484   1.268   7.315   0.769 -0.7024 -0.2619 -0.1283
 7602SOL    HW133485   1.336   7.300   0.841 -1.0253  0.3272  0.2977
 7602SOL    HW233486   1.224   7.403   0.782 -2.9568 -1.4768  0.7585
 7603SOL     OW33487   8.580   9.377   4.328 -0.0512 -0.4742 -0.1774
 7603SOL    HW133488   8.573   9.397   4.230  0.5778  0.2015 -0.0823
 7603SOL    HW233489   8.515   9.434   4.378 -0.4735 -0.9225 -0.2152
 7604SOL     OW33490   2.833   3.951   4.515  0.0068 -0.2562  0.1662
 7604SOL    HW133491   2.758   4.009   4.546  0.4894 -0.0523  0.9845
 7604SOL    HW233492   2.811   3.855   4.532 -0.4381 -0.2597 -0.4123
 7605SOL     OW33493   7.932   5.582   1.887 -0.1665  0.1089 -0.1948
 7605SOL    HW133494   7.964   5.665   1.842  1.1247 -1.3712 -2.1036
 7605SOL    HW233495   7.860   5.605   1.953  0.3443  2.7411 -0.5046
 7606SOL     OW33496   8.523   3.497   3.833  0.0160 -0.0350  0.4651
 7606SOL    HW133497   8.518   3.457   3.741 -1.9904 -1.2172  1.0525
 7606SOL    HW233498   8.605   3.463   3.880  0.2207 -0.6683 -0.3395
 7607SOL     OW33499   3.214   6.010   2.543 -0.7968 -0.5136 -0.1317
 7607SOL    HW133500   3.297   5.960   2.519 -2.0899 -2.1846 -1.3000
 7607SOL    HW233501   3.237   6.104   2.569  1.2816 -0.4490 -2.0619
 7608SOL     OW33502   0.664   0.922   4.040  0.2294  0.4002 -0.5709
 7608SOL    HW133503   0.691   0.868   4.120  1.5498 -0.9803 -1.9099
 7608SOL    HW233504   0.646   0.860   3.963 -2.4889  1.5979 -0.9594
 7609SOL     OW33505   0.690   6.347   1.034  0.3602 -0.0917  0.5442
 7609SOL    HW133506   0.658   6.362   1.128  0.9628  0.8771  0.6115
 7609SOL    HW233507   0.684   6.250   1.011  0.9534 -0.4546  1.8693
 7610SOL     OW33508   0.498   2.062   3.490 -0.6933 -0.8021  0.0688
 7610SOL    HW133509   0.502   2.142   3.549  0.3825 -2.1802  1.9053
 7610SOL    HW233510   0.474   1.981   3.544 -0.6373 -1.9287 -1.5418
 7611SOL     OW33511   1.074   0.307   2.602 -0.5229 -0.0425  0.2371
 7611SOL    HW133512   1.125   0.356   2.672 -0.4885 -0.0992  0.2517
 7611SOL    HW233513   1.055   0.214   2.633  0.0289 -0.2620 -0.0842
 7612SOL     OW33514   2.864   8.302   3.618  0.0181 -0.0369  0.1706
 7612SOL    HW133515   2.821   8.363   3.685  1.3729  0.6106  0.4847
 7612SOL    HW233516   2.963   8.304   3.631  0.2273 -0.6311 -1.2487
 7613SOL     OW33517   1.388   5.852   2.724 -0.0669 -0.9363 -0.2918
 7613SOL    HW133518   1.404   5.791   2.802 -0.6168 -3.8372 -2.3414
 7613SOL    HW233519   1.435   5.817   2.644  1.6355  2.7671 -1.0091
 7614SOL     OW33520   5.048   8.381   2.650  0.1739  0.7161  0.3684
 7614SOL    HW133521   5.115   8.454   2.641  1.6141 -0.5956  0.3309
 7614SOL    HW233522   5.005   8.364   2.561  1.6488 -0.1743 -0.1979
 7615SOL     OW33523   6.465   6.736   2.032 -0.4665 -0.4103  0.3419
 7615SOL    HW133524   6.490   6.714   2.126  0.9268  0.8807  0.3042
 7615SOL    HW233525   6.405   6.666   1.995 -2.3479 -0.1113  2.7326
 7616SOL     OW33526   1.483   6.530   0.395  0.1417  0.2939  0.1992
 7616SOL    HW133527   1.482   6.620   0.351  1.7630  0.3022  0.1470
 7616SOL    HW233528   1.467   6.540   0.493  0.8413  0.7086  0.2792
 7617SOL     OW33529   7.743   9.802   3.013  0.6406  0.0502  0.0346
 7617SOL    HW133530   7.768   9.706   3.005 -2.0540 -0.5961 -1.2848
 7617SOL    HW233531   7.736   9.827   3.110 -0.6436 -1.6598  0.4021
 7618SOL     OW33532   9.427   1.253   1.872 -0.8198 -0.1540  0.2990
 7618SOL    HW133533   9.442   1.299   1.959 -0.4303 -0.1850  0.2517
 7618SOL    HW233534   9.476   1.165   1.872  0.1015  0.3450 -0.3618
 7619SOL     OW33535   1.683   2.789   1.241 -0.0704 -0.0102 -0.3628
 7619SOL    HW133536   1.667   2.878   1.200 -2.6729 -1.3187 -2.3019
 7619SOL    HW233537   1.606   2.765   1.301  1.2881 -0.3572  1.2947
 7620SOL     OW33538   9.645   7.642   0.676 -0.0329 -0.1473 -0.5270
 7620SOL    HW133539   9.691   7.573   0.621  0.5169  0.6362 -1.0587
 7620SOL    HW233540   9.589   7.597   0.746 -1.4659 -1.1872 -2.2889
 7621SOL     OW33541   3.207   8.661   0.241 -0.6062  0.7110  0.7457
 7621SOL    HW133542   3.304   8.682   0.228 -0.9889  1.4270 -1.1059
 7621SOL    HW233543   3.155   8.692   0.162 -2.0498 -1.7681  0.6639
 7622SOL     OW33544   1.442   8.166   4.430  0.1232 -0.6767  0.1302
 7622SOL    HW133545   1.458   8.212   4.517  1.0846  2.1081 -1.4797
 7622SOL    HW233546   1.347   8.179   4.402  0.4958  0.6908 -0.5160
 7623SOL     OW33547   1.282   3.795   4.692 -0.3408 -0.6305 -0.5861
 7623SOL    HW133548   1.266   3.711   4.640 -0.3643 -1.8041  1.2824
 7623SOL    HW233549   1.208   3.809   4.757  1.3511 -0.9857  1.4701
 7624SOL     OW33550   1.500   9.999   4.359 -0.1569  0.1232 -0.4607
 7624SOL    HW133551   1.402   9.977   4.354 -0.5427  1.5506  0.4312
 7624SOL    HW233552   1.520  10.039   4.448  1.1180  0.4670 -0.8968
 7625SOL     OW33553   3.993   2.794   0.954  0.1606  0.0144 -0.2091
 7625SOL    HW133554   4.019   2.887   0.981  2.6711 -0.7194  0.0109
 7625SOL    HW233555   4.057   2.760   0.886 -0.4446 -1.7450  0.0801
 7626SOL     OW33556   3.933   6.880   4.111 -0.0044  0.0523  0.2397
 7626SOL    HW133557   3.872   6.948   4.151 -0.6144 -0.3489 -0.0089
 7626SOL    HW233558   3.900   6.855   4.021  0.6204 -0.0472  0.0385
 7627SOL     OW33559   9.622   0.947   0.248 -0.3827 -0.1928  0.4583
 7627SOL    HW133560   9.675   0.930   0.165  0.0651 -0.8690  0.8756
 7627SOL    HW233561   9.631   1.042   0.275  1.9682 -0.6706  1.4521
 7628SOL     OW33562   5.829   9.434   2.700  0.2498  0.8664  0.2420
 7628SOL    HW133563   5.746   9.382   2.678  0.1933 -0.4532  3.2512
 7628SOL    HW233564   5.811   9.494   2.778  2.0706  0.6397  0.8691
 7629SOL     OW33565   7.288   7.597   3.091  0.0852  0.3618 -0.6658
 7629SOL    HW133566   7.202   7.548   3.085  0.8300 -0.8040 -2.4952
 7629SOL    HW233567   7.364   7.532   3.093  0.9213  1.3585  1.1289
 7630SOL     OW33568   3.691   0.211   1.675  0.0659  0.1703 -0.1793
 7630SOL    HW133569   3.725   0.192   1.583  0.1027  3.5429 -0.9494
 7630SOL    HW233570   3.731   0.147   1.740  3.8267  0.7422 -1.8317
 7631SOL     OW33571   3.179   6.592   1.254 -0.0220 -0.6135 -0.0492
 7631SOL    HW133572   3.146   6.574   1.347 -1.1092 -1.6509 -0.6275
 7631SOL    HW233573   3.102   6.619   1.196  0.8735  1.4861 -0.3163
 7632SOL     OW33574   3.943   4.073   2.059 -0.4465 -0.1104  0.1174
 7632SOL    HW133575   3.984   4.012   1.991 -1.0439  1.0583 -1.3111
 7632SOL    HW233576   4.014   4.107   2.121  0.5289  0.8254 -1.4968
 7633SOL     OW33577   7.535   7.129   2.875  0.5335 -0.3232  0.2147
 7633SOL    HW133578   7.514   7.095   2.784  2.8759  0.2154 -0.5750
 7633SOL    HW233579   7.620   7.182   2.872 -0.9855  2.3307  2.1363
 7634SOL     OW33580   3.006   0.267   2.898 -0.1079  0.0845  0.5434
 7634SOL    HW133581   3.094   0.310   2.919 -0.0344  0.0629  0.2882
 7634SOL    HW233582   3.014   0.168   2.912  0.1127  0.0011 -0.1388
 7635SOL     OW33583   7.784   5.243   1.529 -0.1922  0.0384 -0.1160
 7635SOL    HW133584   7.836   5.264   1.611  1.7285 -0.4867 -1.1722
 7635SOL    HW233585   7.759   5.328   1.482 -1.8816  0.3664  1.3463
 7636SOL     OW33586   8.491   9.157   1.270 -0.4744  0.3516  0.1179
 7636SOL    HW133587   8.589   9.139   1.284 -0.2116  1.3339 -0.4222
 7636SOL    HW233588   8.480   9.227   1.199 -1.5567  0.6346  0.5614
 7637SOL     OW33589   0.240   5.997   3.919 -0.4367 -0.1389 -0.1495
 7637SOL    HW133590   0.186   6.072   3.880 -0.4840  0.0678  0.3054
 7637SOL    HW233591   0.269   6.022   4.012  0.8436 -0.0427 -0.5617
 7638SOL     OW33592   3.317   3.050   0.157 -0.7045 -1.0139 -0.5489
 7638SOL    HW133593   3.240   3.059   0.095 -1.3722 -0.0587  0.3900
 7638SOL    HW233594   3.401   3.080   0.111 -1.6120  2.3539 -0.1833
 7639SOL     OW33595   6.893   9.784   0.741 -0.5081 -0.2037 -0.0251
 7639SOL    HW133596   6.816   9.747   0.794 -0.7103  0.5471  0.2205
 7639SOL    HW233597   6.889   9.749   0.648 -0.2523 -1.4028  0.4125
 7640SOL     OW33598   3.700   3.922   1.912  0.0878  0.2128  0.0618
 7640SOL    HW133599   3.777   3.975   1.948 -0.5796  0.0736  1.7269
 7640SOL    HW233600   3.631   3.985   1.875 -0.4812  0.5096  1.5927
 7641SOL     OW33601   7.535   4.154   3.791  0.2080  0.1583  0.4199
 7641SOL    HW133602   7.515   4.057   3.802 -0.1706  0.1137 -0.5413
 7641SOL    HW233603   7.585   4.188   3.870  0.3372 -0.8206  0.7592
 7642SOL     OW33604   8.950   1.160   2.181  0.4954  0.0535 -0.1681
 7642SOL    HW133605   9.031   1.197   2.136  0.2103 -0.5247 -1.1692
 7642SOL    HW233606   8.931   1.068   2.146 -0.1961 -0.0870  0.5554
 7643SOL     OW33607   7.105   6.396   3.019 -0.1161  0.0915 -0.4884
 7643SOL    HW133608   7.154   6.427   2.937 -0.3645 -0.2941 -0.7898
 7643SOL    HW233609   7.164   6.336   3.072  0.2810  0.8866 -0.0299
 7644SOL     OW33610   2.259   1.052   4.629  0.0782  0.6873  0.5106
 7644SOL    HW133611   2.273   1.019   4.536 -1.7942  0.6024  0.2367
 7644SOL    HW233612   2.323   1.127   4.648 -0.8540  2.0458 -1.5501
 7645SOL     OW33613   3.145   9.149   4.270 -0.0159  0.3597 -0.0468
 7645SOL    HW133614   3.187   9.110   4.188  1.4348 -0.3391  1.0004
 7645SOL    HW233615   3.102   9.075   4.323 -2.5062  1.0587 -1.0585
 7646SOL     OW33616   0.243   5.644   0.511 -0.4315  1.0480  0.1569
 7646SOL    HW133617   0.343   5.644   0.506 -0.4272  1.4917  0.1427
 7646SOL    HW233618   0.206   5.681   0.425 -0.7157 -2.2936 -1.2151
 7647SOL     OW33619   9.434   2.546   4.266 -0.1221  0.3491  0.5373
 7647SOL    HW133620   9.406   2.459   4.226 -0.0244 -0.2822  1.8169
 7647SOL    HW233621   9.371   2.570   4.341 -0.8712  1.9791 -0.5873
 7648SOL     OW33622   0.109   4.703   3.532 -0.2219  0.1850  0.2407
 7648SOL    HW133623   0.148   4.701   3.625 -1.4515 -0.6142  0.7605
 7648SOL    HW233624   0.061   4.790   3.518  0.1201  0.3826  0.2862
 7649SOL     OW33625   3.425   5.310   1.822  0.1041 -0.1258 -0.1056
 7649SOL    HW133626   3.462   5.331   1.912  1.9500  0.4605 -0.9741
 7649SOL    HW233627   3.340   5.361   1.807  1.0093  1.5549  0.4135
 7650SOL     OW33628   2.983   6.296   1.058 -0.7655  0.2103 -0.2395
 7650SOL    HW133629   2.893   6.334   1.079 -1.0031 -0.8708  0.7131
 7650SOL    HW233630   3.006   6.317   0.963 -2.0726  0.4008 -0.5274
 7651SOL     OW33631   8.205   6.684   1.198 -0.4307  0.4268 -0.1295
 7651SOL    HW133632   8.184   6.679   1.296 -0.4330  0.3214 -0.1358
 7651SOL    HW233633   8.139   6.627   1.148  0.2244 -0.3650 -0.1020
 7652SOL     OW33634   7.736   1.853   0.310  0.1035 -0.3315  0.0543
 7652SOL    HW133635   7.788   1.893   0.235 -0.8994 -0.3956 -0.6862
 7652SOL    HW233636   7.707   1.925   0.373  2.0958 -0.4319  1.1249
 7653SOL     OW33637   1.173   9.990   1.335  0.1247  0.3670 -0.4430
 7653SOL    HW133638   1.133   9.987   1.243  1.6893  0.5132 -1.1422
 7653SOL    HW233639   1.156   9.903   1.381 -0.1592  0.0747 -1.0882
 7654SOL     OW33640   8.042   6.000   1.908  0.0290 -0.1214  0.0100
 7654SOL    HW133641   8.089   6.087   1.895 -2.0503  1.2109  1.2159
 7654SOL    HW233642   8.041   5.977   2.006  0.8168 -1.6817 -0.3144
 7655SOL     OW33643   8.560   8.569   3.425 -0.2235  0.1376 -0.0637
 7655SOL    HW133644   8.512   8.506   3.364 -0.7272  0.3963  0.0586
 7655SOL    HW233645   8.652   8.535   3.443 -1.2446 -1.7912  1.8289
 7656SOL     OW33646   7.230   7.710   2.511 -0.1549  0.1622 -0.3479
 7656SOL    HW133647   7.311   7.658   2.485 -0.1493 -1.0037  1.8214
 7656SOL    HW233648   7.168   7.650   2.562 -0.8742  1.8878  0.8398
 7657SOL     OW33649   1.189   5.646   1.305  0.5274  0.2141  0.0777
 7657SOL    HW133650   1.180   5.664   1.403  0.6897 -0.6399  0.2555
 7657SOL    HW233651   1.235   5.558   1.292 -0.9953 -0.4778 -0.7312
 7658SOL     OW33652   4.178   6.317   1.625  1.0678  0.5531  0.5034
 7658SOL    HW133653   4.105   6.386   1.619 -0.9857 -1.5965 -0.1596
 7658SOL    HW233654   4.172   6.270   1.714 -0.4699 -1.8006 -0.7733
 7659SOL     OW33655   2.197   8.195   0.866  0.7694  0.2829 -0.5003
 7659SOL    HW133656   2.147   8.272   0.826  3.6719  2.5299  0.1019
 7659SOL    HW233657   2.245   8.146   0.793  2.8502  2.0018 -0.3248
 7660SOL     OW33658   2.820   7.329   1.561  0.4607  0.4490  0.2341
 7660SOL    HW133659   2.836   7.231   1.550 -0.4580  0.1368  1.4916
 7660SOL    HW233660   2.760   7.362   1.488 -0.8700 -0.3562  0.9522
 7661SOL     OW33661   8.397   6.676   0.984 -0.6625 -0.4214 -0.5314
 7661SOL    HW133662   8.312   6.688   1.036 -0.0748  0.0917  0.3104
 7661SOL    HW233663   8.423   6.764   0.944 -0.8716 -0.7193 -1.3271
 7662SOL     OW33664   1.491   2.223   3.714 -0.2451 -0.1283 -0.4891
 7662SOL    HW133665   1.436   2.297   3.752  0.6115  0.4649 -0.3980
 7662SOL    HW233666   1.511   2.156   3.785  0.6710  0.5703 -0.0817
 7663SOL     OW33667   1.050   4.620   0.148 -0.1424 -1.0506  0.5126
 7663SOL    HW133668   1.138   4.581   0.122  0.3197  0.0405  0.4232
 7663SOL    HW233669   1.064   4.690   0.218 -0.9442 -0.9119  0.5374
 7664SOL     OW33670   3.683   1.293   1.483  0.4382  0.4087 -0.3100
 7664SOL    HW133671   3.586   1.308   1.464  0.7687  0.2025 -2.2235
 7664SOL    HW233672   3.692   1.241   1.568 -1.2692 -2.5323 -1.8590
 7665SOL     OW33673   3.413   8.894   1.426  0.3026  0.3725 -0.1305
 7665SOL    HW133674   3.368   8.805   1.422  0.2702  0.3213  1.1226
 7665SOL    HW233675   3.477   8.902   1.350  1.2572 -1.2427  0.4804
 7666SOL     OW33676   8.752   7.756   3.074 -0.0832  0.1324  0.3574
 7666SOL    HW133677   8.666   7.707   3.058  0.7256 -1.5708  1.0294
 7666SOL    HW233678   8.784   7.797   2.989 -1.7177  1.0598  0.1720
 7667SOL     OW33679   2.485   9.562   0.340  0.0361 -0.1079 -0.7239
 7667SOL    HW133680   2.508   9.659   0.346  0.9456 -0.2954 -1.0942
 7667SOL    HW233681   2.561   9.507   0.374 -1.0313 -0.6641  0.8434
 7668SOL     OW33682   2.799   5.698   3.996  0.5912  0.5221  0.0460
 7668SOL    HW133683   2.782   5.635   3.921 -0.0030  0.8316 -0.0826
 7668SOL    HW233684   2.773   5.791   3.969 -0.3631  0.5114  0.8997
 7669SOL     OW33685   9.017   6.677   2.989  0.5053 -0.8063 -0.4130
 7669SOL    HW133686   9.075   6.743   2.940 -0.1463  0.5435  0.5884
 7669SOL    HW233687   9.075   6.604   3.026  1.5750  0.4524  0.4602
 7670SOL     OW33688   0.162   4.181   1.956 -0.7170  0.4001  0.1755
 7670SOL    HW133689   0.122   4.090   1.950 -1.3042  0.8135 -3.3840
 7670SOL    HW233690   0.092   4.245   1.989 -0.7541 -0.1536  1.1923
 7671SOL     OW33691   1.298   1.961   1.911  0.3590 -0.0087  0.3261
 7671SOL    HW133692   1.261   1.947   2.003  0.7954  1.1383  0.6840
 7671SOL    HW233693   1.321   1.873   1.871 -0.6553 -0.5833  0.9727
 7672SOL     OW33694   2.614   3.545   0.281 -0.1558  0.2714 -0.2659
 7672SOL    HW133695   2.581   3.588   0.365 -1.9691  0.4659 -1.0524
 7672SOL    HW233696   2.711   3.521   0.292 -0.6570 -0.7943  2.3053
 7673SOL     OW33697   8.401   2.730   2.069 -0.1555 -0.0580  0.3849
 7673SOL    HW133698   8.334   2.725   1.995 -1.6886  2.0677  1.5532
 7673SOL    HW233699   8.489   2.695   2.037 -1.7731 -2.8555 -1.2013
 7674SOL     OW33700   5.253   9.716   3.200 -0.7050  0.3025 -0.2514
 7674SOL    HW133701   5.317   9.774   3.149 -0.1265  0.0152  0.1439
 7674SOL    HW233702   5.239   9.631   3.150 -0.0204 -0.0429  0.1388
 7675SOL     OW33703   1.716   3.429   0.904  0.4135  0.3354 -0.1625
 7675SOL    HW133704   1.770   3.391   0.979 -0.5528  0.0504  0.3962
 7675SOL    HW233705   1.770   3.429   0.821  1.3788  0.3245  0.4594
 7676SOL     OW33706   3.060   5.521   4.605 -0.5332  0.4057  0.8159
 7676SOL    HW133707   3.034   5.616   4.623  0.1353  0.5450  1.0341
 7676SOL    HW233708   3.061   5.506   4.506 -0.5405  0.6505  0.7774
 7677SOL     OW33709   7.413   7.178   1.756  0.1647  0.0986  0.1593
 7677SOL    HW133710   7.482   7.196   1.686 -0.5152  0.2376 -0.4826
 7677SOL    HW233711   7.330   7.230   1.735 -2.1570 -4.2923 -2.1947
 7678SOL     OW33712   4.181   1.461   4.193  0.3938  0.4000 -0.2721
 7678SOL    HW133713   4.084   1.460   4.170  0.2986  1.7874  0.0479
 7678SOL    HW233714   4.233   1.418   4.119 -0.3810  0.4079 -0.8283
 7679SOL     OW33715   9.400   9.255   4.757  0.2123 -0.5628 -0.0117
 7679SOL    HW133716   9.305   9.233   4.780 -0.0146 -0.0512 -0.4454
 7679SOL    HW233717   9.403   9.343   4.711  0.8322 -0.8717 -0.5679
 7680SOL     OW33718   8.421   7.697   3.704  0.1891  0.5672 -0.1690
 7680SOL    HW133719   8.427   7.662   3.610 -0.2080 -0.6746  0.2550
 7680SOL    HW233720   8.328   7.681   3.739  0.7875 -0.4942  0.9995
 7681SOL     OW33721   2.964   3.496   1.912 -0.0695  0.3192  0.0484
 7681SOL    HW133722   2.957   3.407   1.869  0.1293  0.0448  0.5774
 7681SOL    HW233723   2.928   3.566   1.851  0.1438 -0.0756 -0.5266
 7682SOL     OW33724   9.596   8.618   3.295  0.3176 -0.8003 -0.2299
 7682SOL    HW133725   9.671   8.579   3.241 -0.8983 -1.8375 -1.1944
 7682SOL    HW233726   9.532   8.545   3.320  0.0192 -0.0454  1.2345
 7683SOL     OW33727   8.787   1.974   3.239  0.0759  0.8650 -0.1393
 7683SOL    HW133728   8.735   1.897   3.201 -0.2120  1.0513 -0.1245
 7683SOL    HW233729   8.724   2.045   3.270  0.3481  1.2457 -0.4440
 7684SOL     OW33730   2.539   5.026   1.504 -0.5163 -0.2635 -0.6792
 7684SOL    HW133731   2.530   5.024   1.604 -0.2153 -0.5160 -0.6567
 7684SOL    HW233732   2.558   4.934   1.470  3.3115  0.3735 -0.5647
 7685SOL     OW33733   0.344   7.884   4.423  0.1809  0.9493  0.0473
 7685SOL    HW133734   0.391   7.795   4.425  0.2916  1.0173  0.6471
 7685SOL    HW233735   0.257   7.876   4.472 -0.1627  0.9767 -0.5604
 7686SOL     OW33736   3.227   1.217   1.967 -0.2793 -0.7089  0.7705
 7686SOL    HW133737   3.269   1.148   1.908  0.5252  1.5964 -1.4545
 7686SOL    HW233738   3.293   1.249   2.034  1.1511  1.6816 -1.6420
 7687SOL     OW33739   7.823   9.019   3.987  0.3940 -0.2988  0.4669
 7687SOL    HW133740   7.786   8.930   4.015 -0.7780  0.5868  1.7731
 7687SOL    HW233741   7.813   9.029   3.888 -1.4033 -0.7649  0.5779
 7688SOL     OW33742   0.559   9.743   0.447  0.1692 -0.3710 -0.0077
 7688SOL    HW133743   0.521   9.834   0.432 -1.0462 -0.5142  2.0181
 7688SOL    HW233744   0.494   9.674   0.415 -0.7176 -0.5877  2.1904
 7689SOL     OW33745   6.862   8.203   2.400 -0.1535  0.1637  0.3412
 7689SOL    HW133746   6.904   8.123   2.357 -0.9664 -1.0973  1.8315
 7689SOL    HW233747   6.891   8.286   2.353  2.4357 -0.8311  0.1452
 7690SOL     OW33748   2.454   8.656   1.467 -0.3115 -0.6005 -0.7854
 7690SOL    HW133749   2.362   8.634   1.435 -0.6521 -1.3713  0.6946
 7690SOL    HW233750   2.468   8.755   1.463 -0.9221 -0.5533 -1.7511
 7691SOL     OW33751   2.434   6.047   3.895  0.5690  0.3413  0.0990
 7691SOL    HW133752   2.461   5.958   3.858 -0.2416  0.1229  0.0119
 7691SOL    HW233753   2.440   6.116   3.823 -0.6104 -0.0060 -0.3438
 7692SOL     OW33754   8.385   7.892   2.659 -0.1856  0.1425 -0.4661
 7692SOL    HW133755   8.359   7.968   2.599  2.2729  0.1869 -1.5334
 7692SOL    HW233756   8.386   7.807   2.607 -1.8307 -0.4577  0.4610
 7693SOL     OW33757   3.056   8.736   2.801  0.2839 -0.3365 -0.1479
 7693SOL    HW133758   3.027   8.788   2.882 -1.3873  0.7981 -1.4661
 7693SOL    HW233759   3.147   8.697   2.819  0.5786  1.0972  1.7358
 7694SOL     OW33760   9.335   6.614   3.438 -0.0810  0.2513 -0.2365
 7694SOL    HW133761   9.377   6.526   3.418  0.3197  0.1993  0.7799
 7694SOL    HW233762   9.353   6.678   3.363 -0.1475 -0.4433 -0.8522
 7695SOL     OW33763   0.556   1.315   2.830  0.0270 -0.3520  0.0287
 7695SOL    HW133764   0.474   1.268   2.796  0.0612  0.5231 -1.3007
 7695SOL    HW233765   0.617   1.249   2.873 -1.2684 -1.0505  0.8187
 7696SOL     OW33766   9.331   7.570   2.300 -0.0620  0.3172 -0.3803
 7696SOL    HW133767   9.261   7.569   2.229 -1.5554 -0.1347  1.0766
 7696SOL    HW233768   9.385   7.654   2.292 -0.6254  0.5735 -1.6369
 7697SOL     OW33769   8.143   6.160   0.528 -0.2844 -0.3236 -0.2588
 7697SOL    HW133770   8.122   6.063   0.543  2.9420 -0.4629  4.5816
 7697SOL    HW233771   8.238   6.169   0.499 -0.8843  1.3815 -1.7677
 7698SOL     OW33772   0.565   9.608   4.016 -0.1295  0.0673  0.1460
 7698SOL    HW133773   0.634   9.572   3.953 -0.3571  0.4073 -0.3024
 7698SOL    HW233774   0.530   9.534   4.073  1.1461  0.0328  0.8963
 7699SOL     OW33775   4.033   7.900   1.543  0.3787 -0.4226 -0.0967
 7699SOL    HW133776   3.950   7.943   1.510 -0.0092 -1.3047 -0.2683
 7699SOL    HW233777   4.100   7.894   1.469  0.3476 -0.3370 -0.1312
 7700SOL     OW33778   1.055   6.160   2.939 -0.4750 -0.1581 -0.4793
 7700SOL    HW133779   1.055   6.236   3.004 -0.9538  0.1763 -0.8692
 7700SOL    HW233780   1.053   6.195   2.846  1.5025 -0.6197 -0.7114
 7701SOL     OW33781   4.401   8.095   0.588  0.1187  0.3191 -0.3153
 7701SOL    HW133782   4.419   8.023   0.656 -3.7175 -0.2367  0.2333
 7701SOL    HW233783   4.391   8.183   0.636  0.9747  0.5633 -0.5774
 7702SOL     OW33784   0.346   8.045   0.189  0.6252 -0.3774 -0.2126
 7702SOL    HW133785   0.379   8.060   0.095  1.3175  1.0754  0.2604
 7702SOL    HW233786   0.394   7.966   0.228 -0.3155 -1.5603 -1.3840
 7703SOL     OW33787   9.235   6.828   0.806 -0.0366  0.0682 -0.1821
 7703SOL    HW133788   9.153   6.794   0.760 -0.0942  1.0932 -0.8498
 7703SOL    HW233789   9.208   6.880   0.888 -0.0534  0.2761 -0.3179
 7704SOL     OW33790   8.063   9.089   4.160  0.0484  0.5484 -0.0659
 7704SOL    HW133791   7.992   9.054   4.099  0.3795  1.4918 -1.0190
 7704SOL    HW233792   8.046   9.186   4.177  0.4275  0.4832  0.6894
 7705SOL     OW33793   3.453   1.105   1.122  0.3759  0.3271 -0.4122
 7705SOL    HW133794   3.541   1.065   1.094  1.1635  1.5926  0.1825
 7705SOL    HW233795   3.379   1.043   1.098  1.2669  0.0940 -2.7193
 7706SOL     OW33796   0.173   3.930   2.514 -0.6231  0.5540  0.0798
 7706SOL    HW133797   0.214   4.015   2.545 -2.4113  0.5495  2.6259
 7706SOL    HW233798   0.213   3.853   2.564 -2.0777  0.3321  0.9306
 7707SOL     OW33799   8.113   1.348   0.583 -0.2234  0.0143 -0.5314
 7707SOL    HW133800   8.019   1.383   0.589 -0.2481 -0.0609 -0.4786
 7707SOL    HW233801   8.150   1.336   0.676 -1.0225 -2.2900 -0.4969
 7708SOL     OW33802   9.508   3.838   2.579 -0.0156  0.3832 -0.1427
 7708SOL    HW133803   9.580   3.848   2.648 -1.4511  3.8710  0.9642
 7708SOL    HW233804   9.423   3.879   2.614 -1.6304 -0.5899 -2.7885
 7709SOL     OW33805   3.984   4.319   1.129 -0.0045 -0.3825 -0.3355
 7709SOL    HW133806   3.885   4.330   1.140 -0.0140 -0.2158 -0.5900
 7709SOL    HW233807   4.006   4.311   1.032  0.2017 -0.7167 -0.2622
 7710SOL     OW33808   9.766   6.802   2.049  0.0092  0.3890  0.7732
 7710SOL    HW133809   9.837   6.757   2.104 -1.4502 -1.3232  1.2778
 7710SOL    HW233810   9.685   6.817   2.105 -0.0841  2.2976  0.1762
 7711SOL     OW33811   9.056   8.874   2.005 -0.0536 -0.4310  0.2604
 7711SOL    HW133812   9.142   8.908   2.043 -0.1982 -0.2004  0.3829
 7711SOL    HW233813   9.071   8.847   1.910  0.1207 -0.2505  0.2343
 7712SOL     OW33814   3.586   7.255   2.838 -0.6087 -0.8493 -0.2847
 7712SOL    HW133815   3.659   7.305   2.791  1.2344 -1.9738  1.3367
 7712SOL    HW233816   3.535   7.201   2.770 -0.0572  0.0877 -1.4671
 7713SOL     OW33817   9.961   2.230   3.294  0.2551 -0.0266  0.5473
 7713SOL    HW133818   9.868   2.261   3.315 -0.7878 -0.6032 -2.8491
 7713SOL    HW233819  10.012   2.305   3.251 -0.5641 -1.2999 -2.8391
 7714SOL     OW33820   6.454   9.251   2.915 -0.2740  0.0120  0.4538
 7714SOL    HW133821   6.443   9.330   2.855  0.3150  0.0254  0.3630
 7714SOL    HW233822   6.534   9.198   2.886 -1.2103 -1.1356 -0.0701
 7715SOL     OW33823   0.826   5.979   0.344 -1.0375 -0.0762 -0.7973
 7715SOL    HW133824   0.774   5.929   0.275 -1.3923  1.0960 -1.3848
 7715SOL    HW233825   0.825   5.928   0.430 -1.9536 -0.7483 -1.2042
 7716SOL     OW33826   2.349   6.812   3.902  0.2662 -0.1453  0.0846
 7716SOL    HW133827   2.275   6.758   3.863 -0.1968  0.7454 -0.2962
 7716SOL    HW233828   2.343   6.811   4.001  0.0992 -0.5681  0.0697
 7717SOL     OW33829   2.897   1.551   0.480 -0.0046 -0.2290  0.5544
 7717SOL    HW133830   2.912   1.452   0.478 -0.9659 -0.3809 -1.9335
 7717SOL    HW233831   2.900   1.586   0.386 -0.1871  2.0227  1.3666
 7718SOL     OW33832   3.479   3.593   0.222 -0.3633 -0.1633 -0.0715
 7718SOL    HW133833   3.536   3.575   0.141 -0.9487 -0.0648 -0.5075
 7718SOL    HW233834   3.394   3.541   0.215 -1.1377  1.1111 -0.3122
 7719SOL     OW33835   1.204   6.086   1.070 -0.3860  0.3756 -0.2007
 7719SOL    HW133836   1.200   6.018   1.143 -0.0664 -0.3938 -0.8956
 7719SOL    HW233837   1.290   6.137   1.077  0.3942 -0.8021 -1.0090
 7720SOL     OW33838   2.915   5.747   4.641  0.4842 -0.2498 -0.3455
 7720SOL    HW133839   2.886   5.774   4.732  0.8026 -1.3663  0.0951
 7720SOL    HW233840   2.847   5.685   4.601 -0.1606  1.0563 -1.2763
 7721SOL     OW33841   1.562   8.082   1.289 -0.1212  0.2690 -0.4432
 7721SOL    HW133842   1.527   8.143   1.219  0.0383 -0.1929 -0.9248
 7721SOL    HW233843   1.495   8.009   1.307 -1.6737  2.2613  2.2852
 7722SOL     OW33844   0.051   5.706   1.478 -0.2619  0.2604 -0.5614
 7722SOL    HW133845   0.140   5.697   1.432  0.3455 -1.5568  0.9052
 7722SOL    HW233846  -0.020   5.663   1.422 -0.0260  0.6056 -1.1382
 7723SOL     OW33847   9.864   8.084   2.188  0.2595  0.2601  0.0351
 7723SOL    HW133848   9.781   8.119   2.232 -0.9180 -1.0295 -1.1001
 7723SOL    HW233849   9.932   8.061   2.258 -1.1216 -0.5865  1.1142
 7724SOL     OW33850   4.982   1.384   3.108  0.6015 -0.2056  0.2402
 7724SOL    HW133851   4.919   1.307   3.116  1.7501 -1.2759 -0.6884
 7724SOL    HW233852   5.074   1.349   3.090  1.0949  1.4071 -0.4184
 7725SOL     OW33853   1.239   5.635   4.046  0.1914  0.5743  1.1990
 7725SOL    HW133854   1.164   5.588   4.092  0.2616  0.0867  0.8236
 7725SOL    HW233855   1.317   5.573   4.037  0.0228  0.5143  0.0314
 7726SOL     OW33856   1.610   9.009   1.357  0.0988  0.3677  0.6812
 7726SOL    HW133857   1.668   8.995   1.437 -1.1466 -1.4673  1.2924
 7726SOL    HW233858   1.664   8.993   1.274  0.6408 -0.6330  1.2205
 7727SOL     OW33859   3.216   7.968   2.826 -0.1986 -0.8230  0.1199
 7727SOL    HW133860   3.185   7.884   2.781  0.9279 -0.3569 -1.6121
 7727SOL    HW233861   3.316   7.965   2.836 -0.2358 -0.0413  0.7571
 7728SOL     OW33862   8.628   3.232   0.645 -0.4416  0.0782 -0.3811
 7728SOL    HW133863   8.606   3.329   0.633 -0.2980 -0.0288 -1.5916
 7728SOL    HW233864   8.675   3.219   0.731  1.2030  1.3643 -1.0616
 7729SOL     OW33865   4.714   2.636   1.720 -0.0805  0.1332  0.0178
 7729SOL    HW133866   4.646   2.705   1.744 -0.9670 -0.7367  0.0479
 7729SOL    HW233867   4.698   2.604   1.627  0.6422  0.3370 -0.1788
 7730SOL     OW33868   0.378   6.424   1.929  0.4292  0.0008  0.2622
 7730SOL    HW133869   0.383   6.351   1.861 -1.5300  1.2953 -1.3222
 7730SOL    HW233870   0.453   6.488   1.915 -0.3373  0.6188 -1.1503
 7731SOL     OW33871   3.671   8.544   1.223 -0.6609  0.2309 -0.3201
 7731SOL    HW133872   3.748   8.608   1.216  0.3012 -0.7602  0.9735
 7731SOL    HW233873   3.701   8.452   1.199 -1.3363 -0.2492  0.6481
 7732SOL     OW33874   1.207   4.819   2.671 -0.3274  0.1332  0.2346
 7732SOL    HW133875   1.111   4.805   2.648  0.2834  0.5848 -2.8279
 7732SOL    HW233876   1.226   4.918   2.672  0.5332 -0.0094 -1.1579
 7733SOL     OW33877   3.818   0.881   4.436 -0.2534 -0.1956  0.0127
 7733SOL    HW133878   3.913   0.905   4.416 -0.5517  2.0757  1.1878
 7733SOL    HW233879   3.766   0.879   4.351  0.7833 -1.2592 -0.6182
 7734SOL     OW33880   8.096   3.410   3.819 -0.0695 -0.1907  0.6243
 7734SOL    HW133881   8.080   3.442   3.913 -3.4417 -1.4867  0.5711
 7734SOL    HW233882   8.090   3.488   3.757 -1.2427  0.1725  1.1758
 7735SOL     OW33883   7.691   9.958   2.514 -0.2700  0.3094  0.7300
 7735SOL    HW133884   7.674   9.914   2.602 -2.2286  0.1785  0.3063
 7735SOL    HW233885   7.660   9.899   2.440  0.4464  0.8467 -0.0178
 7736SOL     OW33886   3.819   4.040   0.035 -0.3121 -0.6548  0.2094
 7736SOL    HW133887   3.725   4.037   0.067 -0.6835  0.3941 -0.7620
 7736SOL    HW233888   3.881   4.028   0.113 -1.2073  0.6846  1.1535
 7737SOL     OW33889   8.233   6.485   1.791  0.0070 -0.2454  0.1816
 7737SOL    HW133890   8.285   6.490   1.706 -0.7742  0.3814 -0.2671
 7737SOL    HW233891   8.295   6.469   1.867  0.6785 -1.1728 -0.5469
 7738SOL     OW33892   6.559   1.159   2.284  0.1698 -0.7116 -0.1685
 7738SOL    HW133893   6.623   1.134   2.357  2.5776  2.4952 -1.0924
 7738SOL    HW233894   6.577   1.102   2.203  1.4064 -0.3295 -0.1773
 7739SOL     OW33895   7.843   8.476   0.809 -0.2747  0.2493 -0.2784
 7739SOL    HW133896   7.853   8.468   0.710 -3.0445  0.8874 -0.6529
 7739SOL    HW233897   7.832   8.572   0.834  0.9211  0.1390  0.7258
 7740SOL     OW33898   6.253   9.763   0.823 -0.2411 -0.0453  0.2347
 7740SOL    HW133899   6.232   9.860   0.810  0.3481  0.0065 -0.3310
 7740SOL    HW233900   6.327   9.736   0.762 -0.4674 -0.8789  0.3190
 7741SOL     OW33901   8.902   3.202   0.334 -0.4397  0.1547 -0.2247
 7741SOL    HW133902   8.955   3.132   0.286 -0.2423 -0.5122  0.9339
 7741SOL    HW233903   8.827   3.158   0.385  0.2341  0.6675  1.2488
 7742SOL     OW33904   0.890   0.343   4.128  0.5398 -0.3924 -0.4497
 7742SOL    HW133905   0.831   0.325   4.206  0.8895 -1.0964 -0.3463
 7742SOL    HW233906   0.835   0.378   4.052 -0.1265 -1.6417 -0.5632
 7743SOL     OW33907   9.479   3.700   0.903  0.2704 -0.3114  0.5119
 7743SOL    HW133908   9.471   3.608   0.940  1.4446 -1.4452 -1.9101
 7743SOL    HW233909   9.520   3.696   0.812 -0.6642  2.5155 -0.0993
 7744SOL     OW33910   1.864   3.564   4.394 -0.4862 -0.4944 -0.5186
 7744SOL    HW133911   1.810   3.481   4.379 -0.4898 -0.3688 -1.1793
 7744SOL    HW233912   1.915   3.587   4.311  0.9870 -0.9007  0.2372
 7745SOL     OW33913   6.133   8.660   1.708 -0.1029 -0.1998  0.5332
 7745SOL    HW133914   6.034   8.652   1.696  0.0135  0.5906 -1.0528
 7745SOL    HW233915   6.177   8.573   1.687 -0.5440 -0.8451  2.2372
 7746SOL     OW33916   0.547   5.772   0.186 -0.2066  0.1704  0.0240
 7746SOL    HW133917   0.497   5.743   0.104 -1.5597  2.3371  0.0470
 7746SOL    HW233918   0.593   5.859   0.168  1.3804 -0.4765  0.8696
 7747SOL     OW33919   9.310   1.648   2.704 -0.3918  0.0343 -0.0629
 7747SOL    HW133920   9.288   1.616   2.612 -0.2262  0.6673 -0.3251
 7747SOL    HW233921   9.226   1.672   2.752 -0.3406  1.9648 -0.8851
 7748SOL     OW33922   0.198   2.739   1.351 -0.9112 -0.1997 -0.2754
 7748SOL    HW133923   0.118   2.683   1.328 -2.8877  2.3524  0.1441
 7748SOL    HW233924   0.181   2.833   1.323  1.6386  0.5511  0.6159
 7749SOL     OW33925   1.320   7.388   1.457 -0.1410 -0.3523 -0.1542
 7749SOL    HW133926   1.410   7.363   1.490 -1.2979 -1.6175  2.1680
 7749SOL    HW233927   1.283   7.462   1.514 -0.8148 -0.2868 -0.6676
 7750SOL     OW33928   5.128   2.905   1.813 -0.2927  0.2104 -0.2973
 7750SOL    HW133929   5.196   2.872   1.878 -1.0687 -1.4058 -0.2777
 7750SOL    HW233930   5.046   2.932   1.862  0.2770  2.0480 -0.3327
 7751SOL     OW33931   0.512   8.494   2.025  0.6512  0.3797  0.3815
 7751SOL    HW133932   0.597   8.542   2.047 -0.1513  2.5787 -1.1222
 7751SOL    HW233933   0.534   8.405   1.984  2.2332  0.7930  0.3009
 7752SOL     OW33934   2.548   9.463   4.116  0.1781  0.0834  0.0840
 7752SOL    HW133935   2.648   9.470   4.114  0.1555  0.2775 -0.6385
 7752SOL    HW233936   2.509   9.529   4.051 -0.3859 -0.5605 -0.2395
 7753SOL     OW33937   3.445   4.406   0.932  0.3074  0.1078  0.0869
 7753SOL    HW133938   3.378   4.375   0.864 -0.3645  1.1261  0.2836
 7753SOL    HW233939   3.475   4.498   0.910 -0.0535  0.5159  1.2767
 7754SOL     OW33940   9.324   5.787   2.411 -0.0428 -0.0010 -0.3403
 7754SOL    HW133941   9.339   5.868   2.354 -0.2362 -0.3909 -0.9460
 7754SOL    HW233942   9.251   5.806   2.477  0.2692  0.4937 -0.1305
 7755SOL     OW33943   4.295   5.294   1.306 -0.0023 -0.3032  0.2029
 7755SOL    HW133944   4.325   5.211   1.353 -0.8844 -0.9480 -0.3726
 7755SOL    HW233945   4.293   5.370   1.372  0.3319 -0.8375  0.8391
 7756SOL     OW33946   3.077   2.246   1.842  0.6633  0.4340 -0.1647
 7756SOL    HW133947   3.053   2.302   1.762 -4.6430  0.4448  1.2081
 7756SOL    HW233948   3.010   2.173   1.852  3.4154 -1.8753  2.1980
 7757SOL     OW33949   3.320   3.229   1.281 -0.3568  0.3787 -0.3913
 7757SOL    HW133950   3.311   3.268   1.190 -0.3642  1.0213 -0.1139
 7757SOL    HW233951   3.386   3.282   1.334 -0.3574  0.0106 -0.0155
 7758SOL     OW33952   7.929   8.266   1.028  0.2429 -0.2811  0.1385
 7758SOL    HW133953   8.026   8.291   1.020  0.3879 -1.1260 -0.9433
 7758SOL    HW233954   7.875   8.326   0.970  0.3697 -1.1723 -0.9224
 7759SOL     OW33955   2.869   6.108   3.584 -0.1053 -0.0873 -0.2158
 7759SOL    HW133956   2.967   6.120   3.595 -0.0742  0.2473 -0.8249
 7759SOL    HW233957   2.844   6.013   3.604  0.1481  0.1411  1.2287
 7760SOL     OW33958   2.292   6.491   2.142  0.1582  0.0957  0.6180
 7760SOL    HW133959   2.252   6.510   2.231 -2.4251  0.0693 -0.5057
 7760SOL    HW233960   2.338   6.402   2.144 -1.2776 -0.6415  1.4830
 7761SOL     OW33961   2.057   0.248   1.199 -0.5822  0.1576  0.2540
 7761SOL    HW133962   2.132   0.289   1.250  0.4458  0.7342 -1.6840
 7761SOL    HW233963   2.018   0.173   1.252 -1.1030  2.2526  2.8998
 7762SOL     OW33964   4.487   3.915   1.289 -0.2175 -0.2060  0.6777
 7762SOL    HW133965   4.488   3.934   1.388  0.1587  0.6391  0.5154
 7762SOL    HW233966   4.525   3.824   1.272 -0.0697 -0.2604  1.2920
 7763SOL     OW33967   9.710   4.518   1.880 -0.2082  0.3122 -0.4301
 7763SOL    HW133968   9.794   4.540   1.929 -0.5055  0.7049 -0.0833
 7763SOL    HW233969   9.693   4.420   1.883 -0.0540  0.2992 -0.0251
 7764SOL     OW33970   6.864   0.232   1.091  0.0886 -0.2645 -0.0627
 7764SOL    HW133971   6.898   0.138   1.083  2.5104  0.6484 -0.7792
 7764SOL    HW233972   6.811   0.240   1.176  0.0872 -2.1865  0.1624
 7765SOL     OW33973   8.181   5.465   1.859 -0.8642 -0.1867  0.0672
 7765SOL    HW133974   8.089   5.499   1.839 -0.7629  1.1733  1.7306
 7765SOL    HW233975   8.194   5.461   1.958  0.0633 -2.6620 -0.1157
 7766SOL     OW33976   1.011   0.677   0.393 -0.5558 -0.0932  0.1399
 7766SOL    HW133977   1.085   0.700   0.458  0.6390 -2.1654 -0.4374
 7766SOL    HW233978   0.934   0.638   0.443 -0.1206 -0.5546  0.4585
 7767SOL     OW33979   7.854   8.981   2.877  0.3854  0.0264 -0.3107
 7767SOL    HW133980   7.946   8.945   2.893 -0.4716 -1.0191  2.5822
 7767SOL    HW233981   7.858   9.055   2.811  3.4122  0.4928  0.3348
 7768SOL     OW33982   1.232   5.056   0.184  0.3220 -0.6430 -0.2462
 7768SOL    HW133983   1.176   4.975   0.202 -0.0336 -0.0429  1.5282
 7768SOL    HW233984   1.328   5.030   0.176  0.0016 -1.4562 -1.4902
 7769SOL     OW33985   7.871   9.368   1.011  0.0882 -1.1839 -0.0253
 7769SOL    HW133986   7.956   9.390   0.963 -0.5833  3.5296  0.7623
 7769SOL    HW233987   7.804   9.335   0.944  1.4997 -1.8507 -1.1494
 7770SOL     OW33988   0.573   7.278   0.714  0.1685 -0.3476 -0.0756
 7770SOL    HW133989   0.488   7.291   0.766  1.8574  1.1986  2.4168
 7770SOL    HW233990   0.617   7.366   0.699  1.3847 -1.1416 -1.2938
 7771SOL     OW33991   3.403   6.677   0.818  0.2139  0.3906 -0.6689
 7771SOL    HW133992   3.388   6.579   0.800 -1.9268  0.6736 -0.5193
 7771SOL    HW233993   3.476   6.687   0.886 -0.0709 -1.1333 -0.1075
 7772SOL     OW33994   8.406   8.605   1.315 -0.3192 -0.2032 -0.5221
 7772SOL    HW133995   8.403   8.510   1.347 -1.9122  0.3498  1.0695
 7772SOL    HW233996   8.453   8.661   1.382 -3.7040  0.9716  0.9946
 7773SOL     OW33997   8.238   3.838   3.696  0.2023 -0.3061 -0.3561
 7773SOL    HW133998   8.325   3.872   3.660 -0.4724  1.4690 -0.3203
 7773SOL    HW233999   8.171   3.912   3.699 -1.0353 -1.4311  0.5350
 7774SOL     OW34000   0.720   8.957   2.634  0.5746 -0.8660 -0.4823
 7774SOL    HW134001   0.630   8.914   2.624  0.1176 -0.3410  1.2087
 7774SOL    HW234002   0.711   9.039   2.690  1.9270 -0.1515 -1.2923
 7775SOL     OW34003   2.933   1.264   4.440  0.1528 -0.2389 -0.2721
 7775SOL    HW134004   2.886   1.342   4.482  1.0673  0.5071 -0.6269
 7775SOL    HW234005   3.019   1.248   4.488 -1.2105 -2.6488  1.4541
 7776SOL     OW34006   4.016   7.054   1.172 -0.1119 -0.3340 -0.2592
 7776SOL    HW134007   3.966   7.054   1.258  0.0293 -0.3398 -0.1780
 7776SOL    HW234008   4.111   7.078   1.188 -0.2036  0.1877 -0.4840
 7777SOL     OW34009   1.450   5.705   4.302  0.0901  0.3083  0.2275
 7777SOL    HW134010   1.447   5.637   4.229 -0.4188  0.5752 -0.0002
 7777SOL    HW234011   1.497   5.787   4.270  2.6863 -0.7601  1.1992
 7778SOL     OW34012   2.073   3.739   2.314 -0.0095 -0.0540  0.0358
 7778SOL    HW134013   1.982   3.709   2.340 -0.5070  0.6647 -0.8341
 7778SOL    HW234014   2.072   3.838   2.299  0.7091 -0.1619 -0.7803
 7779SOL     OW34015   4.895   8.179   3.533  0.2136 -0.2319  0.4640
 7779SOL    HW134016   4.808   8.225   3.550 -0.7698 -1.3403 -1.3761
 7779SOL    HW234017   4.933   8.211   3.446 -0.2506 -2.4800 -0.6097
 7780SOL     OW34018   7.829   7.271   1.781  0.4553 -0.1153  0.0984
 7780SOL    HW134019   7.879   7.222   1.852  0.2432 -1.7034 -0.8356
 7780SOL    HW234020   7.756   7.326   1.824 -0.4545 -1.9909  1.0249
 7781SOL     OW34021   8.894   7.424   1.366  0.4814  0.2585  0.1955
 7781SOL    HW134022   8.866   7.369   1.445  1.1724  2.1324  1.7818
 7781SOL    HW234023   8.855   7.515   1.373  2.1660  1.0706 -0.6010
 7782SOL     OW34024   8.954   5.208   4.724  0.3843 -0.1510 -0.1613
 7782SOL    HW134025   9.043   5.249   4.743  0.8757 -0.6693 -1.2997
 7782SOL    HW234026   8.918   5.166   4.808  0.8188  0.7968  0.5020
 7783SOL     OW34027   0.939   8.180   2.283 -0.1373  0.4112  0.4433
 7783SOL    HW134028   0.921   8.251   2.351  0.2031 -1.1297  2.1755
 7783SOL    HW234029   1.026   8.136   2.302  0.9963  1.4003 -2.2951
 7784SOL     OW34030   8.218   2.827   2.567  0.4139 -0.2268  0.0836
 7784SOL    HW134031   8.260   2.739   2.548 -0.6606 -0.3309 -1.9447
 7784SOL    HW234032   8.177   2.864   2.483  0.5601  2.0429  0.9664
 7785SOL     OW34033   2.095   5.850   0.615  0.0334 -0.5273  0.1727
 7785SOL    HW134034   2.174   5.859   0.555 -1.1851  0.0398 -1.3777
 7785SOL    HW234035   2.081   5.754   0.639 -1.2873 -1.1783 -2.9753
 7786SOL     OW34036   2.748   4.001   3.540  0.6726  0.5708 -0.1183
 7786SOL    HW134037   2.811   3.992   3.462 -0.3577  0.3368 -0.9368
 7786SOL    HW234038   2.680   4.072   3.519 -1.6099 -1.7515 -0.8286
 7787SOL     OW34039   2.622   3.145   3.253 -0.2527  0.3380 -0.1621
 7787SOL    HW134040   2.556   3.207   3.211 -0.7891  0.6942  1.1765
 7787SOL    HW234041   2.707   3.195   3.270 -0.8166  0.8250  1.2735
 7788SOL     OW34042   9.970   0.748   3.554  0.6291 -0.2409 -0.0862
 7788SOL    HW134043   9.950   0.770   3.650  0.6654 -2.3913  0.4414
 7788SOL    HW234044  10.068   0.733   3.543  1.0100  2.6929 -1.0588
 7789SOL     OW34045   4.862   0.155   3.560 -0.0498  0.0467 -0.3940
 7789SOL    HW134046   4.908   0.159   3.471  1.8002 -0.7266  0.4913
 7789SOL    HW234047   4.839   0.247   3.589  1.0008  0.4751 -0.8661
 7790SOL     OW34048   9.719   9.619   2.127 -0.2106 -0.1881 -0.0919
 7790SOL    HW134049   9.786   9.658   2.190 -0.8878 -1.4811  1.4498
 7790SOL    HW234050   9.662   9.693   2.089 -0.8681  0.4669  2.0699
 7791SOL     OW34051   8.362   9.207   4.638 -0.4642  0.4605  0.1855
 7791SOL    HW134052   8.441   9.264   4.614 -0.7359  0.8212  0.1317
 7791SOL    HW234053   8.344   9.142   4.565  1.5885 -1.6356  1.4819
 7792SOL     OW34054   9.352   4.562   1.660 -0.4004  0.2406 -0.0912
 7792SOL    HW134055   9.264   4.597   1.628 -1.3133 -2.6308 -0.9157
 7792SOL    HW234056   9.375   4.605   1.747 -1.3799  2.8839 -1.0816
 7793SOL     OW34057   1.802   5.587   0.985 -0.1145 -0.1490 -0.0991
 7793SOL    HW134058   1.835   5.681   0.983 -1.5146  0.3733  0.5377
 7793SOL    HW234059   1.702   5.587   0.982 -0.1091 -1.6393 -0.6726
 7794SOL     OW34060   9.349   8.956   1.124 -0.1159  0.2774 -0.0420
 7794SOL    HW134061   9.378   8.963   1.028  0.9451 -0.4311  0.2171
 7794SOL    HW234062   9.419   8.907   1.176 -1.2198 -0.3690  0.8593
 7795SOL     OW34063   9.637   6.784   0.904  0.1383  0.3401 -0.5630
 7795SOL    HW134064   9.717   6.736   0.940 -0.0653 -0.5599 -1.2800
 7795SOL    HW234065   9.667   6.852   0.838  0.4383  1.2974  0.5535
 7796SOL     OW34066   9.303   1.577   2.052  0.0068 -0.3358  0.6802
 7796SOL    HW134067   9.369   1.509   2.084  1.0341  0.1188 -0.4479
 7796SOL    HW234068   9.346   1.667   2.049 -0.5486 -0.1010 -0.4428
 7797SOL     OW34069   1.017   9.326   0.985  0.7666  0.3733  0.0134
 7797SOL    HW134070   0.953   9.262   1.027  2.8010 -1.2939  0.6540
 7797SOL    HW234071   1.038   9.296   0.891  1.5112  0.2344  0.2190
 7798SOL     OW34072   0.525   5.643   0.423  0.1495 -0.0580  0.4427
 7798SOL    HW134073   0.525   5.691   0.335  0.1519  0.8023  0.9058
 7798SOL    HW234074   0.597   5.573   0.423 -2.3607 -2.8146 -1.7144
 7799SOL     OW34075   0.079   3.175   4.745 -0.2817  0.5677 -0.6205
 7799SOL    HW134076  -0.010   3.209   4.716 -1.2814  0.8750  2.5511
 7799SOL    HW234077   0.109   3.225   4.826  1.1157 -1.8825  0.4535
 7800SOL     OW34078   2.202   1.791   1.766 -0.3586 -0.4740  0.4546
 7800SOL    HW134079   2.244   1.784   1.856  1.3185  2.7135 -0.0001
 7800SOL    HW234080   2.273   1.798   1.696 -1.5866  1.8950 -0.6245
 7801SOL     OW34081   0.062   9.991   1.768 -0.3447 -0.1878  0.3332
 7801SOL    HW134082   0.109   9.904   1.781 -1.1397 -0.5747  0.6709
 7801SOL    HW234083   0.087  10.029   1.680  2.6673  0.9241  1.5937
 7802SOL     OW34084   8.409   7.911   3.135  0.7963  0.3692 -0.3875
 7802SOL    HW134085   8.348   7.919   3.057 -1.0509  0.5883  1.0285
 7802SOL    HW234086   8.435   7.815   3.148 -0.9051 -0.0334  0.1852
 7803SOL     OW34087   5.051   1.253   1.421  0.3162 -0.0972 -0.5041
 7803SOL    HW134088   5.124   1.194   1.455  1.1728  0.5693 -1.1447
 7803SOL    HW234089   4.980   1.198   1.378  1.4360 -0.6305 -1.6992
 7804SOL     OW34090   0.003   7.760   1.886  0.2128 -0.1509 -0.5944
 7804SOL    HW134091   0.047   7.696   1.949  2.7676  2.2502  0.1731
 7804SOL    HW234092   0.049   7.756   1.797  0.4136  0.6055 -0.5338
 7805SOL     OW34093   7.308   9.395   3.582  0.2812  0.3605  0.2252
 7805SOL    HW134094   7.312   9.442   3.495  1.1712 -0.0013  0.0688
 7805SOL    HW234095   7.339   9.456   3.655  0.5836  0.3027  0.1438
 7806SOL     OW34096   0.818   7.111   4.202 -0.2560 -0.1235 -0.5303
 7806SOL    HW134097   0.742   7.077   4.146  1.7241 -1.5360 -2.4963
 7806SOL    HW234098   0.890   7.146   4.141  1.5047 -0.6924  1.1927
 7807SOL     OW34099   9.627   1.705   3.035 -0.0054 -0.6023  0.3150
 7807SOL    HW134100   9.674   1.773   2.979  0.7540  0.4120  2.1412
 7807SOL    HW234101   9.635   1.730   3.131 -1.1994 -2.3703  0.8974
 7808SOL     OW34102   4.361   3.212   1.752 -0.5213  0.2277  0.1864
 7808SOL    HW134103   4.265   3.238   1.764 -0.5646 -0.2095  0.8240
 7808SOL    HW234104   4.370   3.113   1.762  0.2146  0.4248  1.6584
 7809SOL     OW34105   8.667   1.243   2.101  0.0344 -0.0111 -0.8914
 7809SOL    HW134106   8.702   1.204   2.186  1.1583 -2.7439 -2.5380
 7809SOL    HW234107   8.721   1.324   2.077  2.2402 -1.4450 -0.9598
 7810SOL     OW34108   0.771   1.509   3.434 -0.3570  0.4815 -0.1005
 7810SOL    HW134109   0.675   1.535   3.441 -0.4806 -0.0399  0.1538
 7810SOL    HW234110   0.783   1.415   3.466 -0.1619 -0.3233 -2.4308
 7811SOL     OW34111   5.200   7.016   2.033 -0.3168 -0.0993  0.3570
 7811SOL    HW134112   5.212   6.931   2.084  0.5337  0.0091  0.3510
 7811SOL    HW234113   5.290   7.049   2.002 -0.7110  0.4348 -0.2265
 7812SOL     OW34114   7.366   8.628   1.301  0.2228 -0.1224  0.3900
 7812SOL    HW134115   7.333   8.619   1.207 -1.8227 -1.3544  1.1837
 7812SOL    HW234116   7.364   8.724   1.329  1.3702  0.3213 -0.9793
 7813SOL     OW34117   2.108   7.947   4.518  1.0112  0.4484 -0.2378
 7813SOL    HW134118   2.154   7.878   4.463  0.1539 -1.3828  1.2667
 7813SOL    HW234119   2.019   7.968   4.478  0.0216 -1.5125  0.8605
 7814SOL     OW34120   2.444   9.743   0.785  0.5229 -0.4413 -0.0697
 7814SOL    HW134121   2.384   9.676   0.741 -0.1554 -0.4851  0.9164
 7814SOL    HW234122   2.443   9.729   0.884  0.0817  1.2343  0.1828
 7815SOL     OW34123   5.384   2.887   0.496 -0.2505  0.3339 -0.1802
 7815SOL    HW134124   5.392   2.914   0.592 -0.6132  0.5021 -0.1979
 7815SOL    HW234125   5.320   2.948   0.449 -1.5031 -0.8831 -0.0982
 7816SOL     OW34126   1.574   6.572   4.695  0.8165 -0.6071 -0.0765
 7816SOL    HW134127   1.573   6.473   4.709  0.0776 -0.5598  0.2268
 7816SOL    HW234128   1.662   6.610   4.726  0.7394 -1.0434  0.6680
 7817SOL     OW34129   0.566   6.509   0.287  0.0681  0.1641 -0.6247
 7817SOL    HW134130   0.535   6.450   0.362 -0.2709  0.0519 -0.8538
 7817SOL    HW234131   0.650   6.556   0.315  1.4902 -1.9722 -1.2045
 7818SOL     OW34132   0.698   8.449   2.481  0.0627 -0.5663 -0.7922
 7818SOL    HW134133   0.707   8.445   2.382 -0.4849  1.0654 -0.9149
 7818SOL    HW234134   0.602   8.465   2.505  0.4845  0.9220 -0.0615
 7819SOL     OW34135   3.336   3.198   1.612 -0.4200  0.1297  0.3200
 7819SOL    HW134136   3.384   3.244   1.537 -0.3206 -0.5110 -0.0141
 7819SOL    HW234137   3.240   3.185   1.587 -1.2221  2.9872  1.6912
 7820SOL     OW34138   3.582   9.434   1.033 -0.0758  0.3322 -0.3557
 7820SOL    HW134139   3.601   9.499   0.959  2.0691  2.0659  1.6489
 7820SOL    HW234140   3.635   9.351   1.019  0.0256  0.5008 -0.9648
 7821SOL     OW34141   0.569   1.697   3.427 -0.4500 -0.4863 -0.2353
 7821SOL    HW134142   0.650   1.751   3.402 -0.5848 -0.4009 -0.4931
 7821SOL    HW234143   0.508   1.754   3.483 -0.5099 -0.4300 -0.3587
 7822SOL     OW34144   5.754   9.142   3.011  0.6136 -0.3138 -1.0840
 7822SOL    HW134145   5.752   9.064   3.074 -0.4477  0.8197  0.3045
 7822SOL    HW234146   5.754   9.108   2.917 -1.1835 -2.0002 -0.5128
 7823SOL     OW34147   0.328   8.500   2.248 -0.0817  0.3294 -0.2968
 7823SOL    HW134148   0.400   8.479   2.182  1.0434 -0.8022  1.2661
 7823SOL    HW234149   0.253   8.433   2.238  0.9213 -0.9825  0.8004
 7824SOL     OW34150   9.857   4.566   0.080  0.0469  0.4699  0.2157
 7824SOL    HW134151   9.840   4.490   0.017  2.6466  0.2198 -0.2103
 7824SOL    HW234152   9.890   4.530   0.167  0.3707  1.0562  0.3395
 7825SOL     OW34153   8.304   3.186   2.814  0.7009  0.2676  0.0296
 7825SOL    HW134154   8.282   3.243   2.735  0.9284 -0.2818 -0.4376
 7825SOL    HW234155   8.283   3.235   2.898  1.3033  1.2082 -0.3561
 7826SOL     OW34156   2.433   0.061   1.583  0.4168 -0.5245 -0.2787
 7826SOL    HW134157   2.382   0.019   1.508 -0.3243 -1.8407  0.9645
 7826SOL    HW234158   2.531   0.044   1.569  0.4657  0.9178 -1.9773
 7827SOL     OW34159   2.245   8.561   1.739 -0.8288  0.3539 -0.7311
 7827SOL    HW134160   2.291   8.482   1.700 -0.2049 -0.0117  0.7191
 7827SOL    HW234161   2.157   8.534   1.777 -0.3446  0.2239  0.3172
 7828SOL     OW34162   3.853   4.471   4.644 -0.2829 -0.0981 -0.4240
 7828SOL    HW134163   3.790   4.397   4.620 -1.3180 -0.1455  2.2628
 7828SOL    HW234164   3.942   4.432   4.667 -0.4068 -0.3925 -0.4329
 7829SOL     OW34165   0.255   5.947   1.817  0.4620 -0.5375 -0.1128
 7829SOL    HW134166   0.264   5.921   1.913  2.8436  1.5706  0.2702
 7829SOL    HW234167   0.316   5.891   1.761 -0.0305 -0.9348 -0.2572
 7830SOL     OW34168   8.099   0.532   4.214  0.4586 -0.1213  0.7845
 7830SOL    HW134169   8.182   0.512   4.265  0.4079  0.2025  0.9980
 7830SOL    HW234170   8.103   0.487   4.125  2.1165  2.0949 -0.3212
 7831SOL     OW34171   0.657   0.264   3.314 -0.0712 -0.5057 -0.0136
 7831SOL    HW134172   0.659   0.235   3.410  1.9746  0.6419  0.3097
 7831SOL    HW234173   0.690   0.190   3.256 -1.1946 -1.1575  0.1501
 7832SOL     OW34174   7.679   9.718   1.936  0.3340  0.1653 -0.2660
 7832SOL    HW134175   7.734   9.802   1.937  0.0051  0.3964 -1.0928
 7832SOL    HW234176   7.725   9.647   1.990  0.3622  1.0363  0.8660
 7833SOL     OW34177   3.345   7.729   4.588  0.2113 -0.7689  0.5148
 7833SOL    HW134178   3.405   7.651   4.572  0.2285 -0.8583  1.0045
 7833SOL    HW234179   3.265   7.700   4.641  0.9974 -0.1584  2.0782
 7834SOL     OW34180   0.625   8.832   1.354  0.1043  0.1735 -0.0328
 7834SOL    HW134181   0.665   8.901   1.415 -0.1236  0.8747 -0.6702
 7834SOL    HW234182   0.526   8.845   1.350  0.2048  0.6567 -1.1891
 7835SOL     OW34183   7.201   8.409   1.152  0.2391 -0.1407  0.0825
 7835SOL    HW134184   7.266   8.338   1.179 -0.7917 -1.2921 -0.4469
 7835SOL    HW234185   7.109   8.384   1.182  0.0146  1.4799  0.8246
 7836SOL     OW34186   4.678   7.863   4.707 -0.0484  0.4264 -0.0375
 7836SOL    HW134187   4.752   7.922   4.676  0.3246  0.6674  1.2872
 7836SOL    HW234188   4.627   7.910   4.779 -1.5745  0.3162 -1.0171
 7837SOL     OW34189   1.161   2.055   0.399 -0.5503 -0.7649  0.3734
 7837SOL    HW134190   1.230   1.993   0.363 -1.4226 -1.6063  0.1375
 7837SOL    HW234191   1.161   2.051   0.499  0.8839  0.5001  0.4501
 7838SOL     OW34192   3.674   6.424   1.010 -0.1430  0.1626  0.2499
 7838SOL    HW134193   3.630   6.511   0.990 -0.1297  0.2022  0.3953
 7838SOL    HW234194   3.605   6.358   1.041  0.0229  0.4845  1.3353
 7839SOL     OW34195   2.703   2.044   2.235  0.5057 -0.0184 -0.4316
 7839SOL    HW134196   2.697   2.101   2.317  0.5079  1.4884 -1.4596
 7839SOL    HW234197   2.799   2.020   2.219  0.4565 -0.7018  0.2484
 7840SOL     OW34198   6.448   9.191   0.725  0.6886  0.4505  0.3289
 7840SOL    HW134199   6.398   9.147   0.650  1.5263 -1.4508  0.8558
 7840SOL    HW234200   6.405   9.278   0.748 -0.6282  0.2082 -1.1706
 7841SOL     OW34201   0.821   8.512   0.648 -0.7235 -0.7861  0.0333
 7841SOL    HW134202   0.910   8.468   0.657  0.2940  1.6067  2.1525
 7841SOL    HW234203   0.802   8.532   0.552  0.7004 -1.9198 -0.4887
 7842SOL     OW34204   2.879   5.367   1.129  0.5248 -0.1946  0.6653
 7842SOL    HW134205   2.816   5.380   1.206  1.7536 -0.0221  1.6462
 7842SOL    HW234206   2.871   5.445   1.067 -0.5381 -0.3764  0.5551
 7843SOL     OW34207   6.415   6.437   2.588 -0.2255  0.1925  0.0450
 7843SOL    HW134208   6.447   6.531   2.599 -0.0466  0.0796  0.5011
 7843SOL    HW234209   6.316   6.434   2.607  0.1412 -0.0625  2.1044
 7844SOL     OW34210   3.566   0.306   3.727 -0.2392 -0.2461 -0.2370
 7844SOL    HW134211   3.470   0.279   3.723 -0.0970 -0.9023  0.8342
 7844SOL    HW234212   3.624   0.226   3.714  0.1824  0.3486 -2.2535
 7845SOL     OW34213   2.250   2.464   0.675 -0.7265 -0.1632  0.1145
 7845SOL    HW134214   2.342   2.480   0.640  0.4806 -2.0720  2.3003
 7845SOL    HW234215   2.215   2.377   0.638 -2.3570  1.3095 -1.9902
 7846SOL     OW34216   3.864   9.244   0.334  0.3383  0.0744 -0.1108
 7846SOL    HW134217   3.902   9.315   0.393 -1.5815  0.4614  0.7104
 7846SOL    HW234218   3.765   9.259   0.323  0.2900 -1.2375 -1.6768
 7847SOL     OW34219   9.422   1.031   2.102  0.3009 -0.3705  0.5809
 7847SOL    HW134220   9.455   0.937   2.104  0.6782 -0.2189  1.9550
 7847SOL    HW234221   9.487   1.090   2.151  0.2916  0.6745 -0.6428
 7848SOL     OW34222   0.312   4.297   2.232  0.3748  0.1381 -0.0991
 7848SOL    HW134223   0.257   4.218   2.206 -0.9120  0.8138  0.5504
 7848SOL    HW234224   0.336   4.350   2.150  0.7462 -0.5987 -0.4659
 7849SOL     OW34225   0.751   5.683   3.112 -0.2946  0.1963 -0.3035
 7849SOL    HW134226   0.694   5.601   3.118 -2.0374  1.4959  1.2344
 7849SOL    HW234227   0.847   5.658   3.128 -0.4041 -1.9649 -2.6425
 7850SOL     OW34228   2.293   5.830   4.373 -0.3241 -0.3610 -1.0087
 7850SOL    HW134229   2.364   5.901   4.365  0.4455 -1.0330 -0.2789
 7850SOL    HW234230   2.218   5.865   4.429  0.0833 -0.1398 -0.5931
 7851SOL     OW34231   1.824   1.484   0.658 -0.1130  0.3888  0.6934
 7851SOL    HW134232   1.809   1.477   0.559  1.9120 -0.3926  0.4368
 7851SOL    HW234233   1.913   1.446   0.682 -0.2156  1.3495  2.7221
 7852SOL     OW34234   4.198   9.437   2.455 -0.2008  0.1367 -0.2869
 7852SOL    HW134235   4.145   9.356   2.481  0.7589 -0.4824 -0.2451
 7852SOL    HW234236   4.200   9.445   2.355 -0.4295  0.2058 -0.2869
 7853SOL     OW34237   8.591   1.661   3.863 -0.4184 -0.4411  0.4615
 7853SOL    HW134238   8.629   1.752   3.844 -1.7457 -0.3977 -2.2156
 7853SOL    HW234239   8.626   1.596   3.796 -2.2011 -1.1630  0.2034
 7854SOL     OW34240   7.616   0.928   4.630  0.3840 -0.0959  0.1685
 7854SOL    HW134241   7.542   0.869   4.597  0.0549  0.7533 -0.6490
 7854SOL    HW234242   7.667   0.881   4.701 -1.2221 -0.5257  1.0562
 7855SOL     OW34243   7.628   0.872   3.960  0.5626  0.3571  0.3021
 7855SOL    HW134244   7.569   0.797   3.929  2.4161 -1.5806  1.3384
 7855SOL    HW234245   7.585   0.917   4.038 -0.3117  0.0159  0.0297
 7856SOL     OW34246   3.520   6.865   3.383  0.3681 -0.4419  0.2544
 7856SOL    HW134247   3.467   6.930   3.329 -0.0310 -1.8739 -1.1303
 7856SOL    HW234248   3.459   6.818   3.447  0.2896 -0.7668 -0.0528
 7857SOL     OW34249   1.486   7.388   3.461  0.0665  0.1209  0.0256
 7857SOL    HW134250   1.583   7.382   3.482  0.5481 -0.5292 -2.2832
 7857SOL    HW234251   1.468   7.472   3.410 -0.5244  0.0419  0.0937
 7858SOL     OW34252   9.278   7.756   3.056  0.0057  0.1941  0.5522
 7858SOL    HW134253   9.371   7.748   3.019  0.4976  1.6364  1.4387
 7858SOL    HW234254   9.227   7.672   3.036  1.6736 -0.8516  0.5461
 7859SOL     OW34255   8.897   6.813   0.203 -0.4450 -0.2242  0.0943
 7859SOL    HW134256   8.913   6.741   0.271 -0.3841 -1.8489 -1.6199
 7859SOL    HW234257   8.847   6.775   0.125 -1.8572  1.9834 -0.1013
 7860SOL     OW34258   0.867   1.334   3.210  0.3120  0.3056  0.2125
 7860SOL    HW134259   0.794   1.380   3.160 -0.4950 -0.1901  0.9254
 7860SOL    HW234260   0.857   1.352   3.308  0.4840 -0.6946  0.4201
 7861SOL     OW34261   4.241   2.715   1.752  0.2221  0.0868 -0.0038
 7861SOL    HW134262   4.205   2.641   1.808 -1.2406  0.5883 -0.2571
 7861SOL    HW234263   4.166   2.774   1.722  1.2439  1.0818 -0.6628
 7862SOL     OW34264   0.643   2.812   4.700  0.4355 -0.1615  0.3530
 7862SOL    HW134265   0.738   2.819   4.732  1.0466 -1.7235 -1.0679
 7862SOL    HW234266   0.632   2.728   4.647 -1.4359  0.6570 -0.5747
 7863SOL     OW34267   7.397   6.734   2.982 -0.0955 -0.2319  0.2391
 7863SOL    HW134268   7.340   6.747   2.901 -1.1750 -1.8328  0.7144
 7863SOL    HW234269   7.346   6.760   3.063  0.9290  1.2139  0.4406
 7864SOL     OW34270   7.439   9.513   3.845 -0.4007  0.1661 -0.0454
 7864SOL    HW134271   7.518   9.465   3.808 -0.2047  0.8810 -0.5785
 7864SOL    HW234272   7.380   9.449   3.893 -0.1147 -0.5852 -0.6899
 7865SOL     OW34273   8.828   0.052   3.251  0.3700  0.6774 -0.2510
 7865SOL    HW134274   8.840   0.144   3.213  0.8412  1.1141  0.9343
 7865SOL    HW234275   8.755   0.054   3.320  0.0363  0.0526 -0.5807
 7866SOL     OW34276   9.399   6.857   0.060  0.4300 -0.1809 -0.2548
 7866SOL    HW134277   9.366   6.917   0.133 -0.4780  0.5237 -1.2406
 7866SOL    HW234278   9.464   6.906   0.002  1.2840 -0.7943  0.1679
 7867SOL     OW34279   0.645   0.261   3.904  0.6583  0.1129  0.0380
 7867SOL    HW134280   0.666   0.358   3.917  0.0186  0.2198  0.2628
 7867SOL    HW234281   0.724   0.216   3.862  0.9105  0.7577 -0.1938
 7868SOL     OW34282   1.033   3.222   1.291  0.0736 -0.5223 -0.1865
 7868SOL    HW134283   1.014   3.315   1.324 -0.7213 -0.4898 -0.7311
 7868SOL    HW234284   1.131   3.202   1.303  0.3295  0.5395 -0.4612
 7869SOL     OW34285   2.233   7.658   3.278 -0.0898 -0.0212 -0.2396
 7869SOL    HW134286   2.322   7.649   3.323 -0.5047  0.0796  0.6196
 7869SOL    HW234287   2.190   7.744   3.306 -0.5040 -0.1216 -0.5572
 7870SOL     OW34288   0.492   8.044   2.175  0.2163  0.0451 -0.3166
 7870SOL    HW134289   0.417   8.078   2.118  1.2869  0.9313 -1.2106
 7870SOL    HW234290   0.501   7.945   2.163 -0.0696  0.1091 -1.0809
 7871SOL     OW34291   2.336   1.580   4.339  0.0898 -0.3793  0.6032
 7871SOL    HW134292   2.285   1.500   4.372 -0.7352 -0.0600  0.1093
 7871SOL    HW234293   2.302   1.662   4.385 -0.0765 -0.1192  0.0067
 7872SOL     OW34294   3.014   2.526   4.014 -0.1769  0.2291  0.0768
 7872SOL    HW134295   3.114   2.535   4.015 -0.2267  0.6548  1.5963
 7872SOL    HW234296   2.975   2.597   3.956  0.5264 -1.4055 -2.4886
 7873SOL     OW34297   0.944   6.199   0.708 -0.3089 -0.9460 -0.3463
 7873SOL    HW134298   0.981   6.259   0.636 -1.0645 -0.3633 -0.2486
 7873SOL    HW234299   1.020   6.150   0.751  0.0749 -1.9890 -2.1507
 7874SOL     OW34300   2.470   3.721   0.480  0.1570 -0.0522 -0.3556
 7874SOL    HW134301   2.444   3.801   0.534  1.6345  0.5221 -0.4451
 7874SOL    HW234302   2.396   3.696   0.418 -1.3408 -0.3704  1.5112
 7875SOL     OW34303   0.949   6.886   0.324  0.0884 -0.2709 -0.4041
 7875SOL    HW134304   1.041   6.883   0.364 -0.5313  0.0616  1.0718
 7875SOL    HW234305   0.907   6.796   0.330 -0.1365 -0.1391  0.0170
 7876SOL     OW34306   2.680   7.319   4.727 -0.9611 -0.5495 -0.0555
 7876SOL    HW134307   2.623   7.348   4.650 -1.1665  0.3985  0.4412
 7876SOL    HW234308   2.634   7.246   4.777 -0.4323 -1.7805 -1.3347
 7877SOL     OW34309   4.405   1.683   1.700  0.3126 -0.3298  0.8389
 7877SOL    HW134310   4.343   1.631   1.759  1.0572 -0.5741  1.4200
 7877SOL    HW234311   4.486   1.708   1.752  1.3435 -1.2388 -0.3032
 7878SOL     OW34312   9.125   2.672   0.739  0.2298 -0.1457 -0.3942
 7878SOL    HW134313   9.213   2.706   0.773 -0.8467  2.3145 -0.0296
 7878SOL    HW234314   9.119   2.574   0.756  2.6243 -0.2222  0.2002
 7879SOL     OW34315   0.482   0.425   3.186 -0.2467 -0.5692  0.3691
 7879SOL    HW134316   0.427   0.348   3.153 -1.0487  0.0682  0.1904
 7879SOL    HW234317   0.557   0.391   3.243 -1.6397 -1.3726  1.7636
 7880SOL     OW34318   3.447   2.261   0.530  0.2611 -0.2842  0.9737
 7880SOL    HW134319   3.457   2.177   0.476  0.1762  0.2498  0.1131
 7880SOL    HW234320   3.505   2.332   0.491 -0.2782  0.2904  1.2105
 7881SOL     OW34321   1.552   6.844   3.494  0.6742  0.0713  0.1917
 7881SOL    HW134322   1.598   6.909   3.554 -1.9918  1.6283  0.6635
 7881SOL    HW234323   1.512   6.770   3.548  1.1766 -0.3544 -0.0217
 7882SOL     OW34324   7.818   5.142   3.015 -0.7989 -0.2274 -0.7786
 7882SOL    HW134325   7.860   5.057   3.048 -0.3347 -0.1030 -1.0587
 7882SOL    HW234326   7.720   5.126   3.000 -1.4287  0.1863  2.3828
 7883SOL     OW34327   8.210   2.329   2.858 -0.0339 -0.3724  0.5536
 7883SOL    HW134328   8.121   2.362   2.825  0.0317 -0.3671  0.3792
 7883SOL    HW234329   8.202   2.233   2.885 -0.0320 -0.4482  0.2916
 7884SOL     OW34330   1.201   6.278   1.755 -0.0378 -0.6789 -0.4167
 7884SOL    HW134331   1.259   6.357   1.737 -1.2881 -0.2723 -2.8067
 7884SOL    HW234332   1.217   6.208   1.685 -2.2950 -0.6196 -1.0425
 7885SOL     OW34333   3.091   4.492   4.150  0.0202  0.5512 -0.5678
 7885SOL    HW134334   3.017   4.425   4.142 -0.4440  0.8302  1.0220
 7885SOL    HW234335   3.056   4.583   4.128  0.1519  0.5395 -0.8225
 7886SOL     OW34336   1.131   8.527   0.310 -0.2153 -0.5404 -0.0962
 7886SOL    HW134337   1.113   8.478   0.395  1.0357  0.4513  0.7682
 7886SOL    HW234338   1.211   8.488   0.265 -1.5831 -1.8315 -1.4432
 7887SOL     OW34339   2.834   8.383   4.011  0.8961  0.2938 -0.4929
 7887SOL    HW134340   2.912   8.429   4.054  2.2514 -2.4261  0.0537
 7887SOL    HW234341   2.811   8.302   4.064 -1.9021  0.6951 -1.0435
 7888SOL     OW34342   1.044   0.067   1.712 -0.1041  0.5666  0.3468
 7888SOL    HW134343   0.986   0.048   1.633  0.0532  1.7612 -0.0683
 7888SOL    HW234344   1.002   0.028   1.794 -0.2099 -0.7850 -0.3336
 7889SOL     OW34345   5.271   8.207   1.899 -0.0231  0.6092  0.6984
 7889SOL    HW134346   5.259   8.133   1.833 -1.5863  1.4075  0.0639
 7889SOL    HW234347   5.236   8.177   1.988 -2.4402  1.2118  0.0005
 7890SOL     OW34348   0.935   3.503   2.871 -0.1732 -0.1013 -0.1249
 7890SOL    HW134349   1.019   3.490   2.818 -0.8919  0.5553 -1.4671
 7890SOL    HW234350   0.948   3.577   2.937  1.7023 -2.9013  2.7782
 7891SOL     OW34351   1.026   0.606   1.830 -0.0744  0.5287 -0.0952
 7891SOL    HW134352   0.994   0.548   1.905  0.3344  0.0807 -0.2632
 7891SOL    HW234353   1.040   0.550   1.748  0.1740  0.8914 -0.3032
 7892SOL     OW34354   1.382   5.538   2.075 -0.4054 -0.0489  0.1102
 7892SOL    HW134355   1.382   5.440   2.092 -0.1469  0.0420  0.6384
 7892SOL    HW234356   1.375   5.555   1.976 -1.9077 -0.5664  0.1249
 7893SOL     OW34357   1.314   3.330   4.044 -0.0811 -0.6874  0.3099
 7893SOL    HW134358   1.287   3.249   4.096 -0.2444  0.0111  1.3182
 7893SOL    HW234359   1.242   3.354   3.979 -0.0511 -1.3212  0.0350
 7894SOL     OW34360   3.773   8.413   0.548 -0.1420  0.5584 -0.0770
 7894SOL    HW134361   3.720   8.489   0.585 -1.4311 -0.5323  0.3939
 7894SOL    HW234362   3.717   8.364   0.481  0.3194 -0.5180  0.3162
 7895SOL     OW34363   9.060   3.386   2.443 -0.3685 -0.1289 -0.1042
 7895SOL    HW134364   9.072   3.300   2.493  1.5237 -0.4787 -1.1398
 7895SOL    HW234365   9.137   3.447   2.462  0.4260 -0.2882 -2.6169
 7896SOL     OW34366   3.119   4.761   1.715  0.4133  0.6294 -0.7058
 7896SOL    HW134367   3.188   4.750   1.643 -0.6015  1.8076 -1.8943
 7896SOL    HW234368   3.161   4.805   1.794  1.8213 -1.6977 -0.0942
 7897SOL     OW34369   1.477   1.353   3.469 -0.2793 -0.0628 -0.3703
 7897SOL    HW134370   1.377   1.360   3.469 -0.3326 -0.8376 -0.4619
 7897SOL    HW234371   1.508   1.322   3.379  0.0756  0.6269 -0.4875
 7898SOL     OW34372   4.008   8.477   2.935 -0.4298 -0.1238  0.0299
 7898SOL    HW134373   3.983   8.393   2.887 -0.8974 -0.0180  0.0853
 7898SOL    HW234374   4.028   8.549   2.869  0.6059 -0.4562 -0.0286
 7899SOL     OW34375   4.551   9.045   0.679 -1.2539 -1.0826 -0.9135
 7899SOL    HW134376   4.490   9.070   0.604 -1.5602 -0.9950 -0.6400
 7899SOL    HW234377   4.513   8.967   0.728 -1.4261 -0.6829 -0.4048
 7900SOL     OW34378   1.064   8.449   1.234  0.5882 -0.5361 -0.4168
 7900SOL    HW134379   1.009   8.366   1.227  1.5323 -1.1063 -1.1385
 7900SOL    HW234380   1.007   8.523   1.271  0.1397 -1.8749  1.6946
 7901SOL     OW34381   1.802   7.887   1.859 -0.3987  0.1693 -0.0836
 7901SOL    HW134382   1.860   7.917   1.935  0.4742  0.1797 -0.7500
 7901SOL    HW234383   1.706   7.907   1.880 -0.2574 -0.6217  1.4043
 7902SOL     OW34384   7.731   7.674   3.120  0.3771  0.4659  0.1291
 7902SOL    HW134385   7.804   7.737   3.093  1.3149 -0.5750  0.2224
 7902SOL    HW234386   7.699   7.698   3.212  1.9441 -0.2650  0.8868
 7903SOL     OW34387   8.807   6.414   1.011  0.3861  0.0436 -0.3233
 7903SOL    HW134388   8.760   6.487   1.062 -0.8622  0.0403 -1.4304
 7903SOL    HW234389   8.748   6.333   1.008  1.1590 -0.5183 -0.3380
 7904SOL     OW34390   1.408   0.375   4.298 -0.0167  0.0713 -0.1850
 7904SOL    HW134391   1.420   0.457   4.242  1.2930 -0.3041 -0.4618
 7904SOL    HW234392   1.483   0.312   4.282  0.2476 -0.1502  1.8017
 7905SOL     OW34393   0.582   2.573   1.348  0.5898  0.5430 -0.4074
 7905SOL    HW134394   0.488   2.585   1.316  0.5524  2.3908  0.3395
 7905SOL    HW234395   0.581   2.533   1.440  0.4993  1.2400 -0.1008
 7906SOL     OW34396   9.681   2.426   2.454 -0.5444  0.0591 -0.1585
 7906SOL    HW134397   9.757   2.481   2.488  0.4599 -0.3214 -1.7459
 7906SOL    HW234398   9.597   2.450   2.503  0.6304  0.3394  1.7529
 7907SOL     OW34399   5.061   0.812   1.016  0.2018 -0.3956  0.2480
 7907SOL    HW134400   5.122   0.740   1.051 -0.8150 -1.6408 -0.5209
 7907SOL    HW234401   5.005   0.775   0.943  0.0628  1.3537 -0.5438
 7908SOL     OW34402   9.140   7.028   4.448  0.2521 -0.2983  0.2112
 7908SOL    HW134403   9.172   7.011   4.541  1.3664  1.1979  0.1136
 7908SOL    HW234404   9.219   7.034   4.386 -0.3454  1.0971 -0.4265
 7909SOL     OW34405   1.408   4.017   2.536  0.2239  0.2090  0.5774
 7909SOL    HW134406   1.505   4.000   2.517  0.5090  1.0150  1.3294
 7909SOL    HW234407   1.357   3.931   2.525  1.0811 -0.3101  0.6072
 7910SOL     OW34408   0.374   1.214   3.209 -0.1217 -0.0622  0.1954
 7910SOL    HW134409   0.285   1.211   3.164  0.4267 -0.1405 -0.9245
 7910SOL    HW234410   0.364   1.194   3.306 -1.1935 -1.1507 -0.1325
 7911SOL     OW34411   3.607   3.372   3.431  0.0743  0.6446 -0.2063
 7911SOL    HW134412   3.621   3.296   3.494  0.2381  0.5166 -0.3982
 7911SOL    HW234413   3.529   3.427   3.462 -0.2346  0.2271 -0.2353
 7912SOL     OW34414   4.646   0.284   1.008 -0.2148  0.2239  0.8052
 7912SOL    HW134415   4.736   0.282   0.963 -0.1591 -0.1138  0.9317
 7912SOL    HW234416   4.582   0.336   0.951  0.5213  1.9796  1.5709
 7913SOL     OW34417   9.512   7.322   0.487 -0.5404  0.2370 -0.1125
 7913SOL    HW134418   9.424   7.330   0.535 -1.3163  1.2569 -1.6754
 7913SOL    HW234419   9.500   7.266   0.405  0.2357  0.5166 -0.4169
 7914SOL     OW34420   4.637   3.258   0.008  0.7046 -0.0463  0.6353
 7914SOL    HW134421   4.666   3.163   0.004 -2.5631 -1.0669  0.0533
 7914SOL    HW234422   4.587   3.275   0.093  0.3426  0.9023  0.2435
 7915SOL     OW34423   1.436   7.451   4.154  0.0356  0.0325  0.3553
 7915SOL    HW134424   1.386   7.364   4.158  0.3203 -0.2755 -2.0782
 7915SOL    HW234425   1.534   7.432   4.148  0.0439  0.4759 -1.1245
 7916SOL     OW34426   7.957   7.231   3.786  0.0744  0.2054  0.2260
 7916SOL    HW134427   8.015   7.292   3.733  0.4242 -0.5179 -0.2198
 7916SOL    HW234428   7.897   7.285   3.845 -0.0011  0.9985 -0.5707
 7917SOL     OW34429   3.998   9.207   2.532  0.3465 -0.0481 -0.0969
 7917SOL    HW134430   4.032   9.209   2.438  1.1036 -0.0653  0.1725
 7917SOL    HW234431   3.899   9.217   2.531  0.4171  0.6496 -0.8535
 7918SOL     OW34432   7.709   7.980   1.602  0.0207  0.2567 -0.2613
 7918SOL    HW134433   7.662   7.998   1.515 -2.1870 -0.2141  0.7948
 7918SOL    HW234434   7.734   8.067   1.645  0.6731  0.4994 -1.1324
 7919SOL     OW34435   9.061   3.529   4.721  0.3069  0.1418  0.1297
 7919SOL    HW134436   9.094   3.435   4.732  0.6693 -0.2943 -3.9309
 7919SOL    HW234437   8.962   3.527   4.704  0.4561  0.3634 -0.8318
 7920SOL     OW34438   1.983   1.511   1.505 -0.1718 -0.1006  0.0826
 7920SOL    HW134439   2.028   1.585   1.454 -0.4442 -0.9061 -1.3586
 7920SOL    HW234440   2.003   1.424   1.462 -1.3797 -0.6902  0.6759
 7921SOL     OW34441   9.335   0.311   1.662 -0.2974  0.4310  0.2393
 7921SOL    HW134442   9.376   0.400   1.641 -0.0502  1.0642  3.1126
 7921SOL    HW234443   9.369   0.242   1.599  3.1272  1.4853  0.8481
 7922SOL     OW34444   8.434   5.021   3.538  0.1754  0.4263  0.1274
 7922SOL    HW134445   8.374   5.005   3.460 -1.0204  0.8823  0.9392
 7922SOL    HW234446   8.380   5.054   3.615  1.4385  0.5899  0.9537
 7923SOL     OW34447   2.228   1.172   3.484 -0.0170 -0.0454 -0.0607
 7923SOL    HW134448   2.208   1.241   3.415 -1.8705 -1.6217 -1.1896
 7923SOL    HW234449   2.321   1.139   3.472  0.2364  0.8954 -0.7457
 7924SOL     OW34450   3.917   2.815   2.887 -0.1320  0.3193  0.2322
 7924SOL    HW134451   3.924   2.915   2.887  1.5723  0.2035  0.4669
 7924SOL    HW234452   4.007   2.775   2.871 -0.2614 -1.1906  3.0011
 7925SOL     OW34453   8.241   7.427   1.266 -0.0764  0.1881 -0.0674
 7925SOL    HW134454   8.196   7.515   1.251  0.2785  0.4244  0.2393
 7925SOL    HW234455   8.220   7.365   1.191 -1.7867 -0.0554  0.5779
 7926SOL     OW34456   2.714   9.672   2.680 -0.3006  0.2103  0.1898
 7926SOL    HW134457   2.735   9.769   2.667 -1.8687  0.6233  0.6354
 7926SOL    HW234458   2.718   9.649   2.777 -0.6262  0.0103  0.1601
 7927SOL     OW34459   1.237   2.664   1.642  0.5296  0.8086  0.1912
 7927SOL    HW134460   1.252   2.572   1.678 -2.0872  0.5810  0.8382
 7927SOL    HW234461   1.239   2.662   1.542 -0.7072 -0.1884  0.1792
 7928SOL     OW34462   3.274   5.767   3.104  0.4693 -0.8325 -0.1379
 7928SOL    HW134463   3.286   5.719   3.017  0.1089 -2.8595  0.8882
 7928SOL    HW234464   3.177   5.789   3.117 -0.1278 -4.1246  1.5196
 7929SOL     OW34465   7.854   4.863   2.519  0.2829  0.0983 -0.3913
 7929SOL    HW134466   7.790   4.788   2.504 -0.0472  0.2800  0.1250
 7929SOL    HW234467   7.826   4.942   2.464  0.0404  0.1949 -0.1247
 7930SOL     OW34468   5.111   6.979   1.638 -0.1841 -0.2142  0.1213
 7930SOL    HW134469   5.022   6.980   1.592  0.6176 -0.8596 -1.4800
 7930SOL    HW234470   5.123   6.892   1.684  0.9377 -1.4050 -2.3496
 7931SOL     OW34471   2.749   9.912   2.524 -0.0412  0.5183  0.2417
 7931SOL    HW134472   2.759   9.841   2.454  0.0515  0.0779  0.6938
 7931SOL    HW234473   2.776  10.001   2.487  0.0859  0.2707 -0.2553
 7932SOL     OW34474   8.525   7.148   2.191  0.1641 -0.3745 -0.3512
 7932SOL    HW134475   8.445   7.088   2.177 -0.2302 -0.1479  0.9006
 7932SOL    HW234476   8.603   7.093   2.219  0.2471 -0.5029 -0.8273
 7933SOL     OW34477   4.211   7.602   2.182  0.3486 -0.2657 -0.5479
 7933SOL    HW134478   4.125   7.562   2.215  0.7627 -0.2851  0.5346
 7933SOL    HW234479   4.194   7.694   2.147 -0.0910 -0.2210 -0.2233
 7934SOL     OW34480   6.491   1.064   3.065 -0.2080 -0.5034  0.0530
 7934SOL    HW134481   6.411   1.122   3.080 -1.6295 -2.7978  1.5441
 7934SOL    HW234482   6.464   0.982   3.014  1.3683 -0.8973 -0.1770
 7935SOL     OW34483   2.338   9.267   0.059 -0.3425 -0.2027  0.2865
 7935SOL    HW134484   2.252   9.314   0.039 -1.0263 -1.9885 -1.1289
 7935SOL    HW234485   2.323   9.199   0.130 -0.6015 -1.9478 -1.4041
 7936SOL     OW34486   3.836   9.992   2.447 -0.0337  0.1492 -0.2228
 7936SOL    HW134487   3.926  10.035   2.450  0.4309 -0.8786  0.9251
 7936SOL    HW234488   3.766  10.060   2.469  0.5093  0.8033 -0.5002
 7937SOL     OW34489   0.080   8.808   0.054  0.2942  0.1097 -0.2595
 7937SOL    HW134490   0.176   8.824   0.032  0.6725 -0.5871  0.8429
 7937SOL    HW234491   0.064   8.828   0.151 -0.2080 -1.7313  0.0578
 7938SOL     OW34492   0.986   0.505   0.871  0.6609 -0.2219 -0.3687
 7938SOL    HW134493   0.919   0.578   0.876  0.7561 -0.1893  0.4137
 7938SOL    HW234494   0.992   0.458   0.959  0.1524 -1.5653 -1.0272
 7939SOL     OW34495   2.552   8.683   2.544 -0.0473 -0.3158 -0.0662
 7939SOL    HW134496   2.546   8.741   2.462  0.4390 -1.1896 -0.7324
 7939SOL    HW234497   2.542   8.740   2.626 -3.4097  0.2108 -0.7727
 7940SOL     OW34498   5.778   8.137   2.764  0.0657  1.0058  0.1732
 7940SOL    HW134499   5.730   8.185   2.690  1.5527  0.9416 -0.8583
 7940SOL    HW234500   5.722   8.140   2.847 -2.2468 -0.0899 -1.2822
 7941SOL     OW34501   1.897   2.344   4.304  0.4248  0.5212  0.1488
 7941SOL    HW134502   1.898   2.282   4.382 -1.2639 -1.0191 -1.0059
 7941SOL    HW234503   1.982   2.396   4.301  0.5431  0.5347  2.9458
 7942SOL     OW34504   9.685   2.257   3.700 -0.1364  0.2706 -0.1998
 7942SOL    HW134505   9.628   2.192   3.650  2.2116 -0.5888 -1.8050
 7942SOL    HW234506   9.734   2.315   3.636  0.2281  1.5364  1.1905
 7943SOL     OW34507   0.170   4.073   2.275 -0.4988  0.4312  0.0086
 7943SOL    HW134508   0.168   4.018   2.358 -0.8489 -0.0326 -0.3055
 7943SOL    HW234509   0.129   4.022   2.199 -0.1526  0.8367 -0.4604
 7944SOL     OW34510   0.648   0.038   4.123 -0.2207 -0.3499  0.0778
 7944SOL    HW134511   0.623   0.113   4.062 -2.9250  0.1664  1.7300
 7944SOL    HW234512   0.732   0.059   4.171 -0.4975  1.2399 -0.1283
 7945SOL     OW34513   9.455   9.518   4.655  0.4229 -0.0875  0.6082
 7945SOL    HW134514   9.418   9.609   4.677 -1.4835 -1.1823  2.1367
 7945SOL    HW234515   9.449   9.503   4.556 -1.7155  0.4520  0.6255
 7946SOL     OW34516   6.919   9.074   3.041  0.0151  0.6693  0.6254
 7946SOL    HW134517   7.005   9.120   3.067  1.2438 -1.2236  0.0318
 7946SOL    HW234518   6.865   9.056   3.124 -0.4799  3.1269  0.8684
 7947SOL     OW34519   1.844   2.748   1.003  0.1177 -0.3611 -0.1010
 7947SOL    HW134520   1.812   2.795   1.085  2.0922 -0.1755  0.5947
 7947SOL    HW234521   1.942   2.766   0.990  1.2312 -5.0496  0.7502
 7948SOL     OW34522   1.218   4.722   1.707 -0.3401  0.1921 -0.5524
 7948SOL    HW134523   1.292   4.673   1.661 -2.6882 -3.8582 -0.3087
 7948SOL    HW234524   1.249   4.751   1.797  1.1699 -0.9295 -0.6793
 7949SOL     OW34525   4.143   0.623   3.876  0.4551 -0.0247 -0.2498
 7949SOL    HW134526   4.130   0.714   3.835  2.2971  1.0540  1.4728
 7949SOL    HW234527   4.054   0.587   3.905 -0.2348  1.4631 -0.4436
 7950SOL     OW34528   8.716   6.964   2.231  0.5231 -0.2380  0.4452
 7950SOL    HW134529   8.678   6.919   2.311 -2.6637  0.5797 -0.5594
 7950SOL    HW234530   8.721   6.899   2.155 -1.0621  0.2095 -0.0698
 7951SOL     OW34531   3.549   3.091   4.743 -0.4988 -0.5747  0.1328
 7951SOL    HW134532   3.494   3.094   4.659 -0.7427 -0.7445  0.2833
 7951SOL    HW234533   3.594   3.002   4.749 -2.1958 -1.3881  1.2538
 7952SOL     OW34534   9.824   2.154   4.200  0.4420 -0.0620 -0.5673
 7952SOL    HW134535   9.774   2.192   4.122 -1.5554 -0.1923  0.6330
 7952SOL    HW234536   9.786   2.189   4.285  1.7940 -0.9053  0.4084
 7953SOL     OW34537   5.871   8.618   1.728  0.2090 -0.1841 -0.3441
 7953SOL    HW134538   5.813   8.544   1.764 -0.2097  0.1104 -0.4178
 7953SOL    HW234539   5.848   8.635   1.633 -0.0115  0.3594 -0.1949
 7954SOL     OW34540   9.184   5.853   3.341 -0.4410 -0.0851 -0.2565
 7954SOL    HW134541   9.256   5.919   3.318 -2.0349  1.5304 -0.6810
 7954SOL    HW234542   9.146   5.875   3.431  0.0380 -1.3581  0.2740
 7955SOL     OW34543   1.240   7.364   3.577 -0.0469  0.3612 -0.1125
 7955SOL    HW134544   1.175   7.418   3.523 -1.2354 -2.6605 -1.8226
 7955SOL    HW234545   1.333   7.381   3.544 -0.6344 -0.4008 -2.2293
 7956SOL     OW34546   9.223   3.743   0.957  0.2560 -0.1067 -0.2835
 7956SOL    HW134547   9.179   3.803   0.891  1.1385  0.6934 -0.1546
 7956SOL    HW234548   9.322   3.745   0.942  0.3999 -0.4700  0.6103
 7957SOL     OW34549   9.219   0.162   0.038  0.3936 -0.5000  0.9424
 7957SOL    HW134550   9.129   0.186   0.001  1.2758 -1.2315 -1.7712
 7957SOL    HW234551   9.214   0.072   0.081  0.5484 -1.9489 -2.0230
 7958SOL     OW34552   2.722   8.177   1.869 -0.4071 -0.0070  0.2707
 7958SOL    HW134553   2.768   8.242   1.929  0.4166 -0.3648  0.0267
 7958SOL    HW234554   2.708   8.219   1.779 -0.3601  0.0190  0.2762
 7959SOL     OW34555   0.671   8.703   4.179  0.2168 -0.6751  0.3855
 7959SOL    HW134556   0.658   8.733   4.085  1.8134 -0.4133  0.2323
 7959SOL    HW234557   0.631   8.769   4.241 -0.2949 -0.5347 -0.0887
 7960SOL     OW34558   8.772   5.475   2.672  0.1646  0.3225  0.1238
 7960SOL    HW134559   8.724   5.388   2.668  0.9405 -0.0935 -0.2412
 7960SOL    HW234560   8.848   5.469   2.737  2.4973 -0.4511 -2.5882
 7961SOL     OW34561   3.389   6.537   3.113  0.3211 -0.4440 -0.5098
 7961SOL    HW134562   3.435   6.506   3.029  0.8322 -0.9946 -0.0288
 7961SOL    HW234563   3.457   6.559   3.182 -0.1487 -2.5981  0.6836
 7962SOL     OW34564   6.944   0.383   2.744 -0.5421  0.0178  0.1313
 7962SOL    HW134565   6.967   0.459   2.806 -3.3972  2.5219 -1.7273
 7962SOL    HW234566   7.022   0.364   2.685  0.7848  0.3968  1.7140
 7963SOL     OW34567   0.642   9.203   2.745  0.6078 -0.2921 -0.4735
 7963SOL    HW134568   0.577   9.277   2.730 -2.0688 -2.2507  1.1141
 7963SOL    HW234569   0.703   9.226   2.821  0.5424  0.7449 -0.7309
 7964SOL     OW34570   3.688   9.654   4.617  0.3068  0.2318  0.1162
 7964SOL    HW134571   3.777   9.675   4.657  0.6213  0.0819 -0.5018
 7964SOL    HW234572   3.698   9.584   4.547 -0.5400 -1.0119  1.2102
 7965SOL     OW34573   9.785   2.165   2.489  0.2394 -0.4364  0.3635
 7965SOL    HW134574   9.819   2.151   2.582 -1.4082 -1.8805  0.7857
 7965SOL    HW234575   9.759   2.261   2.477 -0.9611 -0.5493  1.8929
 7966SOL     OW34576   6.177   9.149   2.073  0.2659 -0.5125 -0.0218
 7966SOL    HW134577   6.115   9.079   2.038 -0.3633 -0.2741  0.5859
 7966SOL    HW234578   6.220   9.197   1.997 -2.0697  0.8778 -0.5251
 7967SOL     OW34579   3.447   8.847   1.868  0.3236 -0.0621  0.2480
 7967SOL    HW134580   3.406   8.792   1.796  0.3183  0.0448  0.1705
 7967SOL    HW234581   3.539   8.876   1.840  0.0209  0.6342 -0.0446
 7968SOL     OW34582   6.139   6.411   2.589 -0.1080 -0.2640  0.2840
 7968SOL    HW134583   6.077   6.416   2.511  0.7910  1.0684 -0.3638
 7968SOL    HW234584   6.094   6.364   2.664 -2.0300  0.9714 -0.0518
 7969SOL     OW34585   1.034   2.153   3.291 -0.0339 -0.2194  0.5990
 7969SOL    HW134586   1.131   2.156   3.267  0.1649  1.2371  1.4943
 7969SOL    HW234587   1.020   2.200   3.379 -1.5781 -0.2315  0.3781
 7970SOL     OW34588   4.290   3.164   0.563 -0.0592 -0.4167  0.0700
 7970SOL    HW134589   4.348   3.151   0.643  0.5896  1.1540 -0.1303
 7970SOL    HW234590   4.197   3.133   0.584  0.3823 -1.0959  1.0378
 7971SOL     OW34591   6.263   7.826   1.753  0.0096  0.3701  0.5181
 7971SOL    HW134592   6.293   7.733   1.729  0.2360  0.8357 -1.0521
 7971SOL    HW234593   6.173   7.821   1.797 -1.1688 -0.4267 -1.8850
 7972SOL     OW34594   1.054   9.373   0.464  0.5249  0.4734  0.2609
 7972SOL    HW134595   1.151   9.382   0.486  0.5393  1.4585 -0.2077
 7972SOL    HW234596   1.027   9.444   0.400 -0.7346  0.7876  1.1186
 7973SOL     OW34597   1.483   2.168   4.004  0.1175  0.5452 -0.6023
 7973SOL    HW134598   1.420   2.246   4.008  2.0401  2.1442 -0.5753
 7973SOL    HW234599   1.577   2.201   4.013  0.9204 -1.8912  0.2461
 7974SOL     OW34600   2.542   7.976   2.529  0.3144 -0.6874  0.0808
 7974SOL    HW134601   2.518   7.969   2.626  2.0659  0.5523  0.6330
 7974SOL    HW234602   2.570   7.886   2.495 -0.2004 -1.1028  0.7533
 7975SOL     OW34603   9.400   4.093   1.243  0.2343 -0.0123 -0.3023
 7975SOL    HW134604   9.354   4.135   1.321  0.0287  1.8316 -1.3829
 7975SOL    HW234605   9.447   4.164   1.190 -1.3707 -0.9212 -3.0521
 7976SOL     OW34606   2.396   4.351   3.791 -0.0012 -0.9486  0.4518
 7976SOL    HW134607   2.335   4.305   3.856  0.7846 -1.4748  0.8238
 7976SOL    HW234608   2.490   4.347   3.825 -0.2188  3.5418  2.0555
 7977SOL     OW34609   3.127   5.550   2.729  0.2783  0.4314  0.2217
 7977SOL    HW134610   3.085   5.488   2.796 -0.0771  0.2646 -0.1497
 7977SOL    HW234611   3.157   5.497   2.650  1.9416  0.4412  0.8370
 7978SOL     OW34612   3.513   8.226   2.607 -0.7621  0.2617 -0.3584
 7978SOL    HW134613   3.576   8.301   2.626 -0.4313 -0.1612  0.2214
 7978SOL    HW234614   3.456   8.250   2.529  1.1392  0.0527 -1.8597
 7979SOL     OW34615   0.174   7.916   0.968  0.0436  0.1356  0.3138
 7979SOL    HW134616   0.153   7.924   0.870 -1.1136  0.7655  0.6029
 7979SOL    HW234617   0.089   7.913   1.020  0.6532 -0.3398  1.3001
 7980SOL     OW34618   3.092   0.336   1.908  0.2209  0.3019  0.1077
 7980SOL    HW134619   3.077   0.381   1.820 -1.2903 -1.1344 -0.3982
 7980SOL    HW234620   3.143   0.397   1.968  1.4826  1.2063 -1.8429
 7981SOL     OW34621   1.311   6.263   4.163  0.5387  0.2390  0.2529
 7981SOL    HW134622   1.257   6.247   4.080  1.2979 -1.5437  0.0886
 7981SOL    HW234623   1.336   6.176   4.204  3.4884  1.0311  0.2173
 7982SOL     OW34624   8.573   5.667   3.978 -0.0350 -0.9253  0.3612
 7982SOL    HW134625   8.519   5.617   3.910 -1.9084  0.3344  0.8629
 7982SOL    HW234626   8.556   5.630   4.069 -2.0505  1.0456  0.8373
 7983SOL     OW34627   3.993   6.821   3.001 -0.4161 -0.4892 -0.0536
 7983SOL    HW134628   3.915   6.868   3.042  0.1340 -0.2154  0.6963
 7983SOL    HW234629   4.062   6.804   3.071 -0.2556 -1.6893 -0.4892
 7984SOL     OW34630   1.546   1.406   0.764  0.6607  0.2188 -0.1561
 7984SOL    HW134631   1.521   1.475   0.832  1.9564  0.2038  0.3526
 7984SOL    HW234632   1.644   1.413   0.744  0.1297  0.8385 -2.7169
 7985SOL     OW34633   9.639   3.871   4.570 -0.3540 -0.2629 -0.5930
 7985SOL    HW134634   9.727   3.829   4.548  0.1291  0.0303  0.7551
 7985SOL    HW234635   9.650   3.970   4.581 -0.7152 -0.3136  0.2694
 7986SOL     OW34636   2.693   3.079   1.703  0.3894 -0.8691 -0.0960
 7986SOL    HW134637   2.593   3.077   1.708  0.4263 -0.2446  0.9415
 7986SOL    HW234638   2.720   3.134   1.624 -0.0858 -1.2650 -0.5423
 7987SOL     OW34639   9.179   4.351   0.196 -0.3197 -0.0150  0.4162
 7987SOL    HW134640   9.133   4.439   0.208  0.3382  0.3146  0.5322
 7987SOL    HW234641   9.111   4.277   0.201 -0.8300  0.4627  0.6217
 7988SOL     OW34642   7.321   9.271   2.217  0.2053  0.2762  0.2857
 7988SOL    HW134643   7.403   9.327   2.230  1.1745 -1.2377  0.8677
 7988SOL    HW234644   7.291   9.278   2.122  0.1297  2.0236  0.4391
 7989SOL     OW34645   9.294   2.138   0.154  0.2040 -0.0377  0.2666
 7989SOL    HW134646   9.319   2.050   0.196  0.4058 -0.3965 -0.6050
 7989SOL    HW234647   9.373   2.176   0.106  0.4912  1.2539  1.6932
 7990SOL     OW34648   7.808   5.089   3.861 -0.3340 -0.4175 -0.3853
 7990SOL    HW134649   7.753   5.092   3.945 -0.6255  1.6250 -0.6382
 7990SOL    HW234650   7.904   5.107   3.883 -0.3856 -0.0374 -0.4755
 7991SOL     OW34651   1.221   7.110   0.617 -0.2663 -0.0323  0.5994
 7991SOL    HW134652   1.260   7.195   0.650 -0.3374  0.0881  0.3786
 7991SOL    HW234653   1.182   7.125   0.526 -1.5194  0.0575  1.1285
 7992SOL     OW34654   4.092   3.710   3.569 -0.1405 -0.1689  0.1530
 7992SOL    HW134655   3.999   3.672   3.569 -1.6131  3.1981  1.5009
 7992SOL    HW234656   4.114   3.747   3.479 -0.9513  0.8658  0.3671
 7993SOL     OW34657   2.916   9.118   0.425  0.2472  0.2064  0.2317
 7993SOL    HW134658   2.831   9.068   0.408  0.8511 -1.2078  1.3018
 7993SOL    HW234659   2.974   9.115   0.344  0.2441 -0.7851  0.2571
 7994SOL     OW34660   1.025   7.888   3.047 -0.3325 -0.4895  0.0256
 7994SOL    HW134661   1.053   7.795   3.071 -0.2356 -0.8423 -1.4232
 7994SOL    HW234662   0.949   7.885   2.982  1.3338  0.3939 -2.0358
 7995SOL     OW34663   8.402   3.291   1.699 -1.0361 -0.0490 -0.3632
 7995SOL    HW134664   8.450   3.343   1.770  0.7253 -1.4768 -0.4915
 7995SOL    HW234665   8.431   3.324   1.609  0.4275 -1.5280 -0.4494
 7996SOL     OW34666   8.067   5.762   1.760 -0.0864  0.2848 -0.2208
 7996SOL    HW134667   8.104   5.785   1.670  0.2688 -1.6942 -0.6011
 7996SOL    HW234668   8.058   5.846   1.814  1.2361  1.2963 -1.5025
 7997SOL     OW34669   1.255   5.648   2.345  0.1513  0.1553 -0.3641
 7997SOL    HW134670   1.254   5.630   2.443  0.2027  0.5606 -0.2907
 7997SOL    HW234671   1.303   5.573   2.298  1.9158  0.9665  0.1253
 7998SOL     OW34672   1.519   7.403   4.551 -0.2995  0.5786 -0.5755
 7998SOL    HW134673   1.551   7.482   4.499  1.7107  1.2534  1.5734
 7998SOL    HW234674   1.529   7.422   4.649 -1.4803 -1.6547  0.0128
 7999SOL     OW34675   8.594   4.778   2.128  0.1220  0.0394 -0.1737
 7999SOL    HW134676   8.563   4.835   2.052 -0.4922  1.4945  1.1259
 7999SOL    HW234677   8.515   4.735   2.172  0.2672  0.8564  0.9092
 8000SOL     OW34678   3.523   2.472   3.397  0.3533 -0.2203 -0.0151
 8000SOL    HW134679   3.429   2.439   3.406 -0.4326  1.6129 -1.3104
 8000SOL    HW234680   3.555   2.456   3.303  1.2817 -0.6846  0.3738
 8001SOL     OW34681   8.435   0.075   3.318 -0.0357  0.2355 -0.4627
 8001SOL    HW134682   8.457   0.148   3.383  0.1480 -1.2819  1.2243
 8001SOL    HW234683   8.483  -0.009   3.344 -0.1207 -0.4690 -2.4636
 8002SOL     OW34684   1.457   1.399   0.012 -0.4690 -0.2349 -0.3254
 8002SOL    HW134685   1.367   1.441   0.007 -0.3482  0.0408 -0.2037
 8002SOL    HW234686   1.522   1.452  -0.041 -0.1081  0.2915  0.6221
 8003SOL     OW34687   1.421   7.217   2.824  0.1531 -0.6234  0.1644
 8003SOL    HW134688   1.471   7.291   2.869 -0.5647  1.0235 -1.6889
 8003SOL    HW234689   1.345   7.188   2.883 -0.0650  0.6955  0.5517
 8004SOL     OW34690   9.013   5.455   0.126  0.2672  0.1473 -0.2026
 8004SOL    HW134691   9.059   5.463   0.215 -1.2083  1.1950  0.5010
 8004SOL    HW234692   8.923   5.414   0.139 -0.5031  1.5363 -1.0194
 8005SOL     OW34693   2.442   4.499   2.908  0.6970  0.0785  0.6445
 8005SOL    HW134694   2.451   4.474   2.812  0.4687 -0.9616  0.8905
 8005SOL    HW234695   2.411   4.594   2.915 -1.7648 -0.6140 -0.3317
 8006SOL     OW34696   7.114   9.614   1.725 -0.2432  0.4447 -0.2670
 8006SOL    HW134697   7.108   9.660   1.637 -0.4663 -0.7016 -0.8578
 8006SOL    HW234698   7.059   9.663   1.793  0.0506  1.4109 -0.7243
 8007SOL     OW34699   9.283   0.814   3.061 -0.2115 -0.2651  0.1402
 8007SOL    HW134700   9.220   0.788   2.989 -1.0413  0.0657  0.7437
 8007SOL    HW234701   9.370   0.844   3.020 -0.4405 -0.7031 -0.6813
 8008SOL     OW34702   1.651   0.691   2.153 -0.1692 -0.3883 -0.1036
 8008SOL    HW134703   1.630   0.788   2.154  0.1434 -0.3025 -1.6323
 8008SOL    HW234704   1.727   0.672   2.215 -0.8931  0.1763  0.9687
 8009SOL     OW34705   9.085   7.962   3.008  0.2083  0.1738  0.0629
 8009SOL    HW134706   9.164   7.902   3.016  0.6737  0.9274  1.2704
 8009SOL    HW234707   9.006   7.910   2.976  0.5516 -1.1190  1.3203
 8010SOL     OW34708   4.534   3.475   3.264  0.0273 -0.3531 -0.5470
 8010SOL    HW134709   4.566   3.486   3.170 -1.2639 -0.3680 -1.0002
 8010SOL    HW234710   4.503   3.563   3.299 -1.4868 -0.7417 -0.8850
 8011SOL     OW34711   1.417   1.358   4.007  1.2797 -0.0556 -0.3353
 8011SOL    HW134712   1.319   1.371   3.989  1.5812  3.1022  0.0971
 8011SOL    HW234713   1.428   1.304   4.091 -0.0822 -0.3253 -0.3184
 8012SOL     OW34714   4.598   1.470   1.459  0.1354  0.1772  0.3986
 8012SOL    HW134715   4.558   1.562   1.459 -2.6264 -0.9747 -0.7173
 8012SOL    HW234716   4.557   1.416   1.532  1.0534 -0.4790  0.4349
 8013SOL     OW34717   5.042   7.643   4.610 -0.4534  0.4674  0.4389
 8013SOL    HW134718   5.054   7.679   4.517 -0.3859  1.0644  0.6766
 8013SOL    HW234719   4.969   7.574   4.610  0.8362 -0.9280 -0.4181
 8014SOL     OW34720   9.887   3.509   0.151  0.4911 -0.6090  0.5720
 8014SOL    HW134721   9.911   3.596   0.195 -1.5249  0.1424  0.2414
 8014SOL    HW234722   9.848   3.447   0.219 -1.0604 -0.0615  0.2005
 8015SOL     OW34723   8.322   9.533   4.330  0.3367  0.0127  0.5205
 8015SOL    HW134724   8.262   9.521   4.409 -0.6708 -0.3136 -0.2867
 8015SOL    HW234725   8.390   9.604   4.350 -0.0599  0.0893  1.5898
 8016SOL     OW34726   4.812   9.984   3.802 -0.0405  0.0647  0.5350
 8016SOL    HW134727   4.799  10.038   3.718  0.2614 -0.3057  0.2493
 8016SOL    HW234728   4.881  10.029   3.860  1.2905 -0.7705 -0.3682
 8017SOL     OW34729   1.394   8.369   2.222  0.0850  0.4305 -0.4056
 8017SOL    HW134730   1.472   8.425   2.195  1.0518 -1.2880 -1.2701
 8017SOL    HW234731   1.414   8.273   2.204 -1.7145 -0.1657  0.6290
 8018SOL     OW34732   9.404   8.858   2.374  0.2853 -0.0996  0.2338
 8018SOL    HW134733   9.327   8.900   2.423 -0.2503  2.4717 -2.6930
 8018SOL    HW234734   9.380   8.764   2.350 -2.0459  0.7166 -0.7778
 8019SOL     OW34735   0.081   6.200   4.550 -0.2589 -0.3640 -0.5978
 8019SOL    HW134736   0.083   6.295   4.519 -0.9819 -0.4633 -0.9650
 8019SOL    HW234737   0.019   6.192   4.628 -1.5084 -0.8387 -1.6324
 8020SOL     OW34738   3.504   1.590   0.977 -0.4288  0.8220  0.1327
 8020SOL    HW134739   3.455   1.508   1.007  1.0517 -0.1505 -0.0060
 8020SOL    HW234740   3.552   1.570   0.891  0.5292  1.6112  0.4767
 8021SOL     OW34741   2.089   6.551   3.605 -0.0516  0.2047  0.3000
 8021SOL    HW134742   2.002   6.539   3.557  0.6792 -1.0593 -0.7547
 8021SOL    HW234743   2.158   6.491   3.563  1.6911  2.2477  0.1947
 8022SOL     OW34744   5.082   2.650   1.697  0.1684 -0.2595  0.1792
 8022SOL    HW134745   5.126   2.733   1.731  0.0313 -0.0664 -0.1125
 8022SOL    HW234746   5.001   2.630   1.751 -0.9138  0.8965 -0.9752
 8023SOL     OW34747   1.680   7.609   2.780  0.0399 -0.3182 -0.3781
 8023SOL    HW134748   1.656   7.605   2.684 -1.2492 -0.4100 -0.0597
 8023SOL    HW234749   1.779   7.598   2.790  0.3849  1.2874 -1.7907
 8024SOL     OW34750   0.656   9.753   3.234 -0.0890  0.4631 -0.2807
 8024SOL    HW134751   0.681   9.657   3.248 -1.2584  0.2428  0.3439
 8024SOL    HW234752   0.583   9.778   3.297  0.3385  1.8275 -0.3107
 8025SOL     OW34753   8.786   7.521   4.581 -0.2437  0.3823 -0.2243
 8025SOL    HW134754   8.870   7.546   4.629  0.1414 -1.0900 -0.1129
 8025SOL    HW234755   8.711   7.580   4.612  1.1427  3.0770 -1.8143
 8026SOL     OW34756   8.691   6.638   2.448 -0.0321 -0.1723  0.4005
 8026SOL    HW134757   8.623   6.706   2.424 -0.0282 -0.4769 -0.4753
 8026SOL    HW234758   8.751   6.674   2.520 -1.1016  0.0985  1.1720
 8027SOL     OW34759   3.721   1.267   0.243 -0.2262  0.5902 -0.2366
 8027SOL    HW134760   3.701   1.237   0.150  0.0517  0.3239 -0.2127
 8027SOL    HW234761   3.816   1.300   0.248 -0.2493  0.6330 -0.0558
 8028SOL     OW34762   3.001   1.794   3.301 -0.8187  1.0230 -0.1334
 8028SOL    HW134763   3.050   1.858   3.242 -0.1384  1.5611  1.0149
 8028SOL    HW234764   3.066   1.742   3.356 -1.4873  1.1127  0.7462
 8029SOL     OW34765   9.633   2.377   2.191  0.0610  0.1722 -0.1806
 8029SOL    HW134766   9.631   2.420   2.281 -1.6763  2.2274 -1.1649
 8029SOL    HW234767   9.558   2.412   2.135  1.2920 -0.8483 -2.5426
 8030SOL     OW34768   6.447   0.009   1.033 -0.3596  0.0249  0.0848
 8030SOL    HW134769   6.385   0.087   1.030  0.6627  0.8325 -0.6916
 8030SOL    HW234770   6.473  -0.009   1.128  0.5644  1.5986  0.1636
 8031SOL     OW34771   1.638   6.340   3.434  0.0822 -0.5252  0.1240
 8031SOL    HW134772   1.565   6.328   3.366  0.2535 -1.2466  0.0603
 8031SOL    HW234773   1.629   6.268   3.504  0.1307 -0.0098  0.6596
 8032SOL     OW34774   9.664   7.790   3.230 -0.4395  0.1528  0.1825
 8032SOL    HW134775   9.585   7.840   3.196  0.0755  0.3291 -0.7798
 8032SOL    HW234776   9.665   7.793   3.330 -1.8994 -0.2586  0.2294
 8033SOL     OW34777   0.311   8.903   1.009  0.1120 -0.5678 -0.3812
 8033SOL    HW134778   0.312   9.000   0.982 -1.8950  0.0496  1.5955
 8033SOL    HW234779   0.296   8.846   0.928  1.3345  0.7546 -1.5676
 8034SOL     OW34780   3.302   3.308   2.775 -0.7207  0.7003  0.2012
 8034SOL    HW134781   3.393   3.284   2.809 -0.1234  1.3732 -0.9007
 8034SOL    HW234782   3.272   3.393   2.819 -0.6167  0.7207  0.2335
 8035SOL     OW34783   2.720   2.922   1.938  0.1514  0.0169  0.1866
 8035SOL    HW134784   2.693   2.991   1.871  0.9984 -0.8851 -1.1008
 8035SOL    HW234785   2.644   2.858   1.952 -0.1190  0.3578  0.2893
 8036SOL     OW34786   8.158   1.601   2.019  0.1843 -0.4778  0.1038
 8036SOL    HW134787   8.210   1.527   2.061  1.0572  0.4758  0.7292
 8036SOL    HW234788   8.094   1.639   2.086 -0.2640 -0.6473 -0.2183
 8037SOL     OW34789   1.431   4.025   3.888  0.0642 -0.1295  0.6783
 8037SOL    HW134790   1.407   4.043   3.983 -0.1347  0.6897  0.4763
 8037SOL    HW234791   1.353   4.046   3.829  0.9278  1.5860  0.1125
 8038SOL     OW34792   7.756   8.109   2.981  0.5754  0.1221 -0.2946
 8038SOL    HW134793   7.719   8.160   2.903 -0.1444  0.9619  0.5872
 8038SOL    HW234794   7.692   8.113   3.057  1.2586 -0.7285  0.3345
 8039SOL     OW34795   1.565   7.416   2.961  0.4737 -0.3644 -0.1609
 8039SOL    HW134796   1.600   7.475   2.889  0.9100 -1.2756 -0.7111
 8039SOL    HW234797   1.642   7.378   3.013  0.2577 -1.2628 -0.4766
 8040SOL     OW34798   2.120   9.922   1.601  0.0450  0.0216 -0.1016
 8040SOL    HW134799   2.076   9.834   1.617 -1.2820  0.6863 -0.0495
 8040SOL    HW234800   2.093   9.987   1.672  1.2654  0.3939  0.0415
 8041SOL     OW34801   8.600   7.186   0.121  0.0856 -0.4801  0.1616
 8041SOL    HW134802   8.617   7.094   0.155  2.6747 -0.2755 -0.5071
 8041SOL    HW234803   8.682   7.221   0.076 -1.1488  1.8124 -0.3840
 8042SOL     OW34804   0.268   0.646   1.900 -0.4576  0.5904  0.1260
 8042SOL    HW134805   0.196   0.684   1.959 -0.3982  2.0342 -0.7156
 8042SOL    HW234806   0.315   0.572   1.948 -1.6020  0.5419  1.2005
 8043SOL     OW34807   3.916   2.320   3.689 -0.2640  0.1419 -0.3135
 8043SOL    HW134808   3.842   2.363   3.637 -0.8691 -0.4003  0.0896
 8043SOL    HW234809   3.958   2.248   3.633 -1.0173 -0.5475 -0.0005
 8044SOL     OW34810   4.658   1.785   1.735 -0.2290  0.3931  0.4396
 8044SOL    HW134811   4.623   1.851   1.801 -0.3764 -0.6546  1.4395
 8044SOL    HW234812   4.722   1.724   1.781 -0.9735 -0.8795 -0.1743
 8045SOL     OW34813   2.373   9.949   2.057  0.1713  0.2083  0.4069
 8045SOL    HW134814   2.341  10.015   1.988  0.7483  1.0180  0.9048
 8045SOL    HW234815   2.470   9.929   2.040  0.0222 -0.4314  0.3222
 8046SOL     OW34816   0.244   9.219   2.485 -0.3324 -0.2487 -0.0555
 8046SOL    HW134817   0.296   9.275   2.549 -0.4945 -0.2025  0.0340
 8046SOL    HW234818   0.151   9.207   2.518 -0.8814  1.0924 -1.0492
 8047SOL     OW34819   3.011   3.784   0.877  0.2789 -0.1199  0.0223
 8047SOL    HW134820   2.965   3.801   0.964 -1.6628  1.9364 -1.3455
 8047SOL    HW234821   3.110   3.794   0.889 -0.0366  1.1298  1.7816
 8048SOL     OW34822   1.073   0.117   4.612  0.1496  0.3350 -0.3770
 8048SOL    HW134823   1.071   0.043   4.679 -1.3280  1.1524  0.4931
 8048SOL    HW234824   0.980   0.141   4.586  0.5016  3.3491  0.9525
 8049SOL     OW34825   8.965   0.091   2.347  0.0971 -0.8593  0.6073
 8049SOL    HW134826   8.888   0.154   2.358  1.2564  1.0588 -1.7841
 8049SOL    HW234827   8.958   0.046   2.258  0.6207 -2.2600  1.2643
 8050SOL     OW34828   1.188   1.941   2.153 -0.5376 -0.1187 -0.4912
 8050SOL    HW134829   1.172   2.040   2.154 -0.7764 -0.1520 -1.0224
 8050SOL    HW234830   1.207   1.910   2.246  0.0434  0.5130 -0.3916
 8051SOL     OW34831   0.760   1.733   0.763 -0.3605  0.3966 -0.1029
 8051SOL    HW134832   0.822   1.661   0.732 -0.8908  0.6167 -1.7176
 8051SOL    HW234833   0.698   1.696   0.832  0.4863 -0.2355  0.3378
 8052SOL     OW34834   4.880   1.910   2.905 -0.1966  0.1668 -0.5503
 8052SOL    HW134835   4.837   1.867   2.984  1.6514 -1.5020 -0.4235
 8052SOL    HW234836   4.936   1.987   2.934  0.3470 -0.3421 -0.2508
 8053SOL     OW34837   9.929   1.540   1.359 -0.2834  0.1159 -0.0992
 8053SOL    HW134838   9.911   1.443   1.379  0.0919 -0.2304 -1.4103
 8053SOL    HW234839   9.919   1.556   1.261  1.4124  1.0297 -0.1252
 8054SOL     OW34840   8.189   7.538   1.855  0.2833  0.9317  0.3141
 8054SOL    HW134841   8.137   7.546   1.941  0.4330  0.5157  0.4454
 8054SOL    HW234842   8.276   7.587   1.864 -0.5312  2.5407 -0.2719
 8055SOL     OW34843   4.509   7.564   4.155  0.4633  0.1431  0.2938
 8055SOL    HW134844   4.416   7.565   4.118  1.0735  1.6612 -1.2652
 8055SOL    HW234845   4.562   7.639   4.116  1.7391  0.6299  2.8042
 8056SOL     OW34846   7.486   6.675   2.020  0.0069  0.1507 -0.4636
 8056SOL    HW134847   7.392   6.678   2.057 -0.7078 -1.2905 -2.1043
 8056SOL    HW234848   7.492   6.736   1.941 -0.2217 -1.5726 -1.8268
 8057SOL     OW34849   9.701   4.315   2.851 -0.2185  0.1728 -0.4044
 8057SOL    HW134850   9.791   4.301   2.809 -0.2644 -1.0256 -0.1147
 8057SOL    HW234851   9.709   4.383   2.924  0.7190 -0.8551  0.4710
 8058SOL     OW34852   4.338   8.816   1.909  0.4425  0.3860 -0.4569
 8058SOL    HW134853   4.253   8.766   1.923  0.9003 -0.7912 -1.6949
 8058SOL    HW234854   4.318   8.907   1.871 -0.3522  0.8558  1.0711
 8059SOL     OW34855   1.706   4.389   4.302  0.2721 -0.3980 -0.1406
 8059SOL    HW134856   1.802   4.363   4.313  1.5026  3.6433 -0.3999
 8059SOL    HW234857   1.669   4.418   4.390  0.0417  0.3584 -0.4843
 8060SOL     OW34858   5.950   7.493   2.271  0.2280  0.6538  0.2642
 8060SOL    HW134859   5.908   7.581   2.295  0.7156  0.8692  0.3506
 8060SOL    HW234860   6.019   7.508   2.200  0.8795  0.4662  0.8516
 8061SOL     OW34861   2.318   0.375   3.339  0.2379 -0.0054  0.5654
 8061SOL    HW134862   2.409   0.410   3.319  0.2129  0.2610  0.9076
 8061SOL    HW234863   2.262   0.380   3.257  0.0274  1.4262  0.7858
 8062SOL     OW34864   2.157   9.932   4.650  0.0890 -0.5634 -0.4754
 8062SOL    HW134865   2.256   9.945   4.639  0.3536 -0.9750  1.2966
 8062SOL    HW234866   2.128   9.969   4.738 -1.3764 -0.3300 -1.0409
 8063SOL     OW34867   9.328   1.614   3.121  0.5463 -0.3682  0.0313
 8063SOL    HW134868   9.365   1.659   3.040  0.3866 -1.2811 -0.5617
 8063SOL    HW234869   9.393   1.623   3.197 -0.0645  1.9565  0.3050
 8064SOL     OW34870   0.706   1.750   2.243  0.4017  0.4280 -0.3532
 8064SOL    HW134871   0.777   1.771   2.175  0.6833 -1.4794 -0.6771
 8064SOL    HW234872   0.682   1.653   2.237 -1.3998  0.7991  0.5669
 8065SOL     OW34873   4.293   9.345   4.732 -0.2099  0.0051 -0.0428
 8065SOL    HW134874   4.338   9.288   4.664 -0.6199 -1.7979  1.1479
 8065SOL    HW234875   4.275   9.290   4.814 -0.5574  1.8797  1.1601
 8066SOL     OW34876   1.940   7.630   4.730  0.3492 -0.4458  0.1970
 8066SOL    HW134877   1.901   7.563   4.792 -0.6344  0.1480  0.2300
 8066SOL    HW234878   2.017   7.676   4.774 -0.1709 -0.2229  0.8697
 8067SOL     OW34879   8.660   9.302   3.665 -0.5036 -0.5625  0.1514
 8067SOL    HW134880   8.713   9.221   3.640  1.6649  1.0619 -0.6669
 8067SOL    HW234881   8.690   9.334   3.755 -1.5685 -0.8172  0.6056
 8068SOL     OW34882   0.820   3.223   1.047  0.2093 -0.3790 -0.5046
 8068SOL    HW134883   0.894   3.179   1.098 -1.2048 -0.5023  1.5100
 8068SOL    HW234884   0.756   3.265   1.111 -3.3084 -3.1996 -2.0094
 8069SOL     OW34885   4.543   9.994   0.960 -0.0430 -1.0165 -0.2498
 8069SOL    HW134886   4.635  10.021   0.991  0.3415 -0.3576 -1.9202
 8069SOL    HW234887   4.476  10.059   0.996  0.6181  0.8663 -2.3331
 8070SOL     OW34888   7.342   8.956   4.403 -0.2084 -0.0911 -0.2394
 8070SOL    HW134889   7.380   8.936   4.493  1.2782 -2.1840 -1.2750
 8070SOL    HW234890   7.252   8.998   4.413 -0.3871 -0.9599  2.2106
 8071SOL     OW34891   9.964   5.570   3.752  0.2609  0.2440  0.0633
 8071SOL    HW134892   9.993   5.585   3.847  0.8370  0.6965 -0.1886
 8071SOL    HW234893   9.864   5.561   3.750  0.2945 -0.3787  0.7964
 8072SOL     OW34894   9.661   2.882   4.290 -0.4196  0.1414 -0.1020
 8072SOL    HW134895   9.672   2.789   4.325  0.5179  0.2114 -0.2061
 8072SOL    HW234896   9.677   2.883   4.191  0.0931  0.5074 -0.0153
 8073SOL     OW34897   4.637   9.273   2.028  0.2360  0.3918 -0.2061
 8073SOL    HW134898   4.595   9.301   1.942  1.8944  2.3083 -0.4284
 8073SOL    HW234899   4.598   9.185   2.057 -0.9642  0.1418 -2.4445
 8074SOL     OW34900   0.149   6.636   0.995  0.2701  0.1268 -0.0840
 8074SOL    HW134901   0.197   6.576   1.060 -0.9836 -0.7469  0.0716
 8074SOL    HW234902   0.152   6.595   0.904 -0.3043 -0.0031 -0.0443
 8075SOL     OW34903   7.711   1.569   2.866  0.0695 -0.2188 -0.5334
 8075SOL    HW134904   7.669   1.593   2.954  0.4559 -0.3942 -0.3028
 8075SOL    HW234905   7.641   1.573   2.794 -0.6524 -1.8119  0.0607
 8076SOL     OW34906   3.983   7.445   4.313 -0.0785  0.2541 -0.6335
 8076SOL    HW134907   4.002   7.442   4.411 -3.1100  1.2407  0.0469
 8076SOL    HW234908   3.990   7.352   4.275 -1.0738 -0.5065  0.9924
 8077SOL     OW34909   2.751   7.222   0.659 -0.4969 -0.2420  0.0731
 8077SOL    HW134910   2.809   7.141   0.648  0.8273  0.7927 -0.6905
 8077SOL    HW234911   2.708   7.220   0.749  0.9776 -0.8738  0.7747
 8078SOL     OW34912   9.887   6.281   3.725 -0.3118  0.0431 -0.0795
 8078SOL    HW134913   9.868   6.187   3.751 -0.7773  0.2174  0.2354
 8078SOL    HW234914   9.822   6.311   3.655 -1.3919  0.7076  1.1512
 8079SOL     OW34915   4.625   7.670   3.122 -0.3092 -0.3781 -0.4833
 8079SOL    HW134916   4.613   7.636   3.215  0.4902 -1.4621 -0.7577
 8079SOL    HW234917   4.715   7.641   3.088 -0.1938  0.8468 -1.2357
 8080SOL     OW34918   1.829   9.826   4.318 -0.1745 -0.2713  0.6231
 8080SOL    HW134919   1.797   9.792   4.229  2.1554  0.3174 -0.4803
 8080SOL    HW234920   1.765   9.895   4.352 -0.1743  0.7918 -1.4515
 8081SOL     OW34921   1.935   1.185   3.693  0.0884 -0.0211 -0.6177
 8081SOL    HW134922   1.854   1.133   3.667  0.2197 -0.4428 -0.1953
 8081SOL    HW234923   2.017   1.132   3.671  0.1951 -0.5704  1.0011
 8082SOL     OW34924   0.768   4.048   0.323 -0.0160  0.7904 -0.1291
 8082SOL    HW134925   0.731   4.061   0.230 -0.9325 -0.5274  0.0367
 8082SOL    HW234926   0.839   3.978   0.321 -1.2734 -0.5269  0.4412
 8083SOL     OW34927   3.180   8.226   0.541 -0.0829  0.2143  0.4175
 8083SOL    HW134928   3.159   8.269   0.453  0.9477 -0.5783 -0.2242
 8083SOL    HW234929   3.263   8.268   0.579  1.6689 -2.0492 -0.8224
 8084SOL     OW34930   8.491   1.983   0.478 -0.3671  0.7189 -0.6124
 8084SOL    HW134931   8.444   1.955   0.561 -0.4834  0.8373 -0.6391
 8084SOL    HW234932   8.573   1.926   0.466  1.1573  2.4821  1.0317
 8085SOL     OW34933   7.190   3.811   4.380  0.2352  0.4383 -0.8051
 8085SOL    HW134934   7.168   3.776   4.289  0.4861 -0.8322 -0.3769
 8085SOL    HW234935   7.255   3.887   4.372  1.2978 -0.5537 -1.5982
 8086SOL     OW34936   3.698   6.026   2.558  0.6694  0.1031  0.3704
 8086SOL    HW134937   3.709   6.125   2.567 -1.7205  0.2084  2.9536
 8086SOL    HW234938   3.667   6.004   2.465  0.1041  1.8963  0.1144
 8087SOL     OW34939   2.244   2.610   4.537 -0.9635 -0.2879  0.1685
 8087SOL    HW134940   2.314   2.659   4.589 -1.2491  0.7816 -0.4508
 8087SOL    HW234941   2.154   2.651   4.554 -1.0850 -0.0560 -1.0168
 8088SOL     OW34942   0.873   7.954   0.926 -0.6557 -0.3839  0.2684
 8088SOL    HW134943   0.842   7.992   0.839  0.2965  0.1077  0.1279
 8088SOL    HW234944   0.905   8.028   0.986  1.8321 -0.9594 -0.2568
 8089SOL     OW34945   5.086   0.136   0.653  0.2856  0.2001  0.2244
 8089SOL    HW134946   5.100   0.124   0.752 -0.8748  2.1818  0.6587
 8089SOL    HW234947   5.171   0.115   0.605  0.8273 -0.9459  1.6274
 8090SOL     OW34948   3.456   6.490   2.856 -0.1062  0.4509  0.2149
 8090SOL    HW134949   3.417   6.489   2.764  2.1240 -0.0901 -0.7448
 8090SOL    HW234950   3.506   6.576   2.870  1.1743 -0.2807  0.2085
 8091SOL     OW34951   8.027   0.713   2.237 -0.0840  0.3335 -0.2912
 8091SOL    HW134952   7.986   0.621   2.244  0.6124  0.0330 -0.1222
 8091SOL    HW234953   8.083   0.718   2.154  0.2181  0.4727 -0.0771
 8092SOL     OW34954   7.841   2.326   4.268  0.0778  0.4024  0.0978
 8092SOL    HW134955   7.778   2.312   4.344 -0.6158  0.3640 -0.4795
 8092SOL    HW234956   7.898   2.244   4.257  2.0689  1.4442  2.3036
 8093SOL     OW34957   8.778   3.493   3.929 -0.0867 -0.1583  0.4308
 8093SOL    HW134958   8.866   3.462   3.965  0.3927  0.1273 -0.4597
 8093SOL    HW234959   8.789   3.583   3.886 -1.1874  0.6557  1.8364
 8094SOL     OW34960   8.650   3.636   0.409  0.2619  0.3171  0.1744
 8094SOL    HW134961   8.618   3.554   0.457  1.9729 -0.1400  0.5695
 8094SOL    HW234962   8.642   3.623   0.310  2.4864 -1.1939  0.1551
 8095SOL     OW34963   4.922   0.547   2.992  0.2907 -0.1277 -0.2244
 8095SOL    HW134964   4.897   0.639   2.962  0.6086  0.7961  2.2712
 8095SOL    HW234965   5.005   0.551   3.047 -0.8935 -1.6209  1.7170
 8096SOL     OW34966   0.591   5.051   4.019  0.0961 -0.5509  0.4082
 8096SOL    HW134967   0.688   5.064   4.038 -0.3797  0.8774  1.9527
 8096SOL    HW234968   0.537   5.114   4.075 -1.7101 -1.1149 -0.6521
 8097SOL     OW34969   1.331   1.096   3.733 -0.4503  0.1726 -0.2297
 8097SOL    HW134970   1.413   1.150   3.750 -0.1097 -0.3404 -0.2389
 8097SOL    HW234971   1.291   1.067   3.820 -1.3908  1.5651 -0.1832
 8098SOL     OW34972   7.798   9.536   2.100  0.4528 -0.4047  0.3705
 8098SOL    HW134973   7.879   9.588   2.128  0.9504 -0.5057 -0.8573
 8098SOL    HW234974   7.823   9.440   2.086  0.4824 -0.1179 -1.5994
 8099SOL     OW34975   9.718   5.364   3.189 -0.1914  0.1232  0.8120
 8099SOL    HW134976   9.817   5.352   3.187 -0.2951 -0.6157  0.0943
 8099SOL    HW234977   9.695   5.456   3.157  0.2654  0.3481  1.1189
 8100SOL     OW34978   8.814   7.035   1.882 -0.7300 -0.2780  0.5506
 8100SOL    HW134979   8.891   6.989   1.836 -1.4400 -0.9823  0.0392
 8100SOL    HW234980   8.849   7.093   1.955  0.2241 -1.3700  0.9830
 8101SOL     OW34981   1.325   9.264   0.172 -0.2289 -0.1159 -0.1305
 8101SOL    HW134982   1.372   9.284   0.258 -1.2099  0.4105  0.2914
 8101SOL    HW234983   1.337   9.340   0.109 -0.2905 -0.1016 -0.1235
 8102SOL     OW34984   9.232   2.945   3.296 -0.3592  0.0905  0.5092
 8102SOL    HW134985   9.182   2.862   3.272 -0.3769  0.2618 -0.0487
 8102SOL    HW234986   9.308   2.921   3.357  0.6241 -0.5752 -0.9278
 8103SOL     OW34987   6.247   8.645   2.590  0.0679  0.1078  0.1172
 8103SOL    HW134988   6.211   8.686   2.507  2.3344  1.5850 -0.1998
 8103SOL    HW234989   6.213   8.695   2.670  1.4089  1.5286 -0.1786
 8104SOL     OW34990   7.816   9.771   3.969  0.5229 -0.6260  0.4224
 8104SOL    HW134991   7.800   9.699   4.037  1.9828 -0.0878  1.3318
 8104SOL    HW234992   7.735   9.830   3.964  0.4122 -0.6554  1.6891
 8105SOL     OW34993   0.911   4.502   2.521 -0.9421 -0.2546 -0.2582
 8105SOL    HW134994   0.938   4.494   2.617  0.5457 -1.0280 -0.7279
 8105SOL    HW234995   0.904   4.412   2.480 -0.7282  0.1034 -1.1012
 8106SOL     OW34996   3.140   1.213   0.883  0.0468  0.3045  0.2476
 8106SOL    HW134997   3.163   1.299   0.839 -0.4306  0.9534  1.2500
 8106SOL    HW234998   3.057   1.224   0.937  0.4155 -0.5697  1.0190
 8107SOL     OW34999   9.657   4.269   0.364  0.7596 -0.4944  0.1162
 8107SOL    HW135000   9.603   4.345   0.328  1.0661  1.2512  3.1810
 8107SOL    HW235001   9.755   4.291   0.357  0.8609 -0.7902  0.6096
 8108SOL     OW35002   1.800   9.284   0.856 -0.0798  0.4312 -0.1011
 8108SOL    HW135003   1.712   9.330   0.867  1.0164  2.9006 -1.2324
 8108SOL    HW235004   1.850   9.287   0.943 -0.4504  0.4323  0.1128
 8109SOL     OW35005   9.532   5.240   4.381  0.1197 -0.7358  0.4006
 8109SOL    HW135006   9.457   5.236   4.448 -1.4250 -0.2987 -1.2724
 8109SOL    HW235007   9.574   5.331   4.385 -2.0849  0.4199 -1.4237
 8110SOL     OW35008   7.827   5.754   3.136  0.2851 -0.0101 -0.0986
 8110SOL    HW135009   7.911   5.798   3.168 -0.0343  0.7822 -0.3528
 8110SOL    HW235010   7.848   5.695   3.059  1.2500 -2.7370  2.1632
 8111SOL     OW35011   1.271   3.271   2.186 -0.2863 -0.0803 -0.0169
 8111SOL    HW135012   1.268   3.291   2.284  2.0045  0.9573 -0.1214
 8111SOL    HW235013   1.216   3.190   2.167 -2.6886  1.0758  1.7450
 8112SOL     OW35014   5.045   4.527   0.619  0.1257 -0.2615  0.0856
 8112SOL    HW135015   5.109   4.602   0.635 -0.3984  0.6880 -2.0492
 8112SOL    HW235016   5.083   4.442   0.654  1.1226  0.8469  1.7325
 8113SOL     OW35017   4.174   9.016   4.366 -0.3862 -0.4298 -0.2859
 8113SOL    HW135018   4.113   8.984   4.439 -0.1009  1.6629  0.9054
 8113SOL    HW235019   4.269   8.997   4.392 -0.3214 -0.2895 -0.4210
 8114SOL     OW35020   8.119   3.431   4.422 -0.8141 -0.1375 -0.2950
 8114SOL    HW135021   8.023   3.444   4.397 -0.9217 -1.2368 -0.4695
 8114SOL    HW235022   8.142   3.334   4.419 -0.4454 -0.1684  2.4604
 8115SOL     OW35023   9.768   6.351   2.067 -0.1989  0.4980 -0.6656
 8115SOL    HW135024   9.726   6.281   2.008  1.8629 -0.6779 -0.8121
 8115SOL    HW235025   9.857   6.317   2.098 -0.1751  2.1675  1.0909
 8116SOL     OW35026   5.071   9.151   2.258 -0.0430 -0.2684  0.2540
 8116SOL    HW135027   5.003   9.149   2.184  0.0343 -2.4826  0.2166
 8116SOL    HW235028   5.040   9.213   2.330 -1.3152 -0.0182 -0.4936
 8117SOL     OW35029   2.907   9.341   3.036  0.2651 -0.8753  0.0491
 8117SOL    HW135030   2.928   9.256   3.084 -1.4887 -1.1503  0.3724
 8117SOL    HW235031   2.821   9.378   3.070  0.9002  0.9363 -0.2341
 8118SOL     OW35032   2.033   9.620   2.284  1.0187  0.7026 -0.2477
 8118SOL    HW135033   2.102   9.648   2.217  1.6725  0.7863  0.4542
 8118SOL    HW235034   1.944   9.616   2.240  1.2968  1.6452 -0.9085
 8119SOL     OW35035   6.462   0.356   1.743 -0.7168  0.1771 -0.1384
 8119SOL    HW135036   6.395   0.300   1.792 -0.6751 -0.8210 -1.2066
 8119SOL    HW235037   6.488   0.310   1.658  0.8951  0.8408 -0.0114
 8120SOL     OW35038   9.900   2.802   1.803 -0.5749 -0.0178  0.4490
 8120SOL    HW135039   9.846   2.726   1.767  0.0795  0.1835 -0.9872
 8120SOL    HW235040   9.840   2.871   1.842 -1.1980 -1.0560  1.3411
 8121SOL     OW35041   9.847   5.603   0.570  0.4907 -0.0289 -0.2860
 8121SOL    HW135042   9.855   5.641   0.663 -1.3300  0.3327 -0.2605
 8121SOL    HW235043   9.763   5.550   0.563  1.6497 -1.8188 -1.1456
 8122SOL     OW35044   1.014   2.540   0.509  0.0464  0.2854  0.4788
 8122SOL    HW135045   0.992   2.562   0.604  1.3484  0.7434  0.6818
 8122SOL    HW235046   0.984   2.615   0.450  1.2399  1.0083  0.7786
 8123SOL     OW35047   6.420   9.296   2.509 -0.3276 -0.0461 -0.5529
 8123SOL    HW135048   6.390   9.376   2.561  3.4919  1.8721 -1.1225
 8123SOL    HW235049   6.402   9.311   2.412  1.9728  0.9265 -0.8490
 8124SOL     OW35050   1.967   2.515   1.541 -0.4431  0.2673  0.4349
 8124SOL    HW135051   2.016   2.436   1.505 -0.2336  1.4216 -1.9563
 8124SOL    HW235052   2.032   2.575   1.588 -0.1767  0.1306  0.2439
 8125SOL     OW35053   4.896   9.833   4.053  0.2018  0.2839 -0.1674
 8125SOL    HW135054   4.992   9.824   4.079  0.5590  2.7968 -0.4373
 8125SOL    HW235055   4.882   9.922   4.010 -2.2351 -0.1052 -0.2487
 8126SOL     OW35056   5.557   8.590   2.001 -0.1775  0.0659  0.1889
 8126SOL    HW135057   5.523   8.661   1.940  2.4447  1.2192  0.0167
 8126SOL    HW235058   5.547   8.621   2.096  0.8173  0.6239  0.1198
 8127SOL     OW35059   3.251   2.432   0.678 -0.2455  0.5888 -0.4160
 8127SOL    HW135060   3.301   2.399   0.597 -1.0803 -0.2224 -0.5994
 8127SOL    HW235061   3.316   2.447   0.753  0.3480  0.0703 -0.8200
 8128SOL     OW35062   0.256   1.179   0.287  0.0761  0.3440 -0.2476
 8128SOL    HW135063   0.233   1.274   0.266  3.2323  1.1322 -0.4628
 8128SOL    HW235064   0.276   1.171   0.385 -0.4947 -0.1775 -0.1717
 8129SOL     OW35065   1.994   7.455   0.532 -0.5280  0.0748 -0.1161
 8129SOL    HW135066   2.015   7.548   0.503 -0.3493 -0.1888 -0.8246
 8129SOL    HW235067   1.914   7.422   0.482 -0.5466 -0.1843  0.0829
 8130SOL     OW35068   3.248   5.388   2.491 -0.0932 -0.3683 -0.1278
 8130SOL    HW135069   3.345   5.401   2.472 -0.4332  0.0928 -1.6287
 8130SOL    HW235070   3.196   5.394   2.406 -1.3793 -1.2305  0.5766
 8131SOL     OW35071   2.022   4.765   4.658 -0.0536 -0.2317 -0.0608
 8131SOL    HW135072   2.093   4.754   4.589 -1.0469 -1.6866 -0.8528
 8131SOL    HW235073   1.932   4.765   4.615 -0.6045  0.5782  1.0471
 8132SOL     OW35074   9.165   6.058   0.868 -0.4701 -0.6025 -0.3660
 8132SOL    HW135075   9.142   6.008   0.952 -0.9509  1.7272  0.9364
 8132SOL    HW235076   9.086   6.112   0.839  0.4419  0.4062 -1.0120
 8133SOL     OW35077   0.569   6.630   1.840  0.0912 -0.0793  0.4292
 8133SOL    HW135078   0.592   6.601   1.934 -0.1753  0.7134  0.7398
 8133SOL    HW235079   0.644   6.684   1.803  0.0192 -0.0482  0.3304
 8134SOL     OW35080   0.537   1.912   4.065 -0.2915  1.0448 -0.0140
 8134SOL    HW135081   0.625   1.865   4.061  0.0041  1.5463  0.5686
 8134SOL    HW235082   0.464   1.845   4.078  0.0495  0.6738 -0.0063
 8135SOL     OW35083   3.476   9.130   3.234 -0.0882 -0.4859 -0.1136
 8135SOL    HW135084   3.548   9.111   3.300 -0.1433 -0.4809 -0.0522
 8135SOL    HW235085   3.415   9.051   3.227  0.4365 -0.8420 -0.8198
 8136SOL     OW35086   0.642   8.888   1.774 -0.4584  0.2272 -0.3880
 8136SOL    HW135087   0.580   8.959   1.740  0.1892  0.6247 -0.7484
 8136SOL    HW235088   0.638   8.885   1.874 -1.0696  0.2402 -0.4090
 8137SOL     OW35089   2.329   6.539   2.797 -0.5981 -0.2173  0.3561
 8137SOL    HW135090   2.335   6.624   2.745  0.3252 -0.0869  0.6726
 8137SOL    HW235091   2.248   6.541   2.856 -0.9127  0.1814 -0.0854
 8138SOL     OW35092   8.096   6.792   3.882 -0.4136  0.5433  0.8925
 8138SOL    HW135093   8.008   6.838   3.868  0.2491  1.4123 -0.5477
 8138SOL    HW235094   8.169   6.860   3.884  0.2284 -0.1735  2.0900
 8139SOL     OW35095   1.954   5.092   1.349 -0.0619  0.7453 -0.2079
 8139SOL    HW135096   1.875   5.153   1.355 -0.9686 -0.5320  1.0793
 8139SOL    HW235097   1.926   5.004   1.312  0.4345 -0.2596  1.7474
 8140SOL     OW35098   9.440   5.580   0.496  0.7424 -0.1791 -0.4558
 8140SOL    HW135099   9.352   5.562   0.541  1.3748 -1.6271  0.2193
 8140SOL    HW235100   9.514   5.574   0.563  1.3205  1.6891 -0.8872
 8141SOL     OW35101   2.633   2.586   1.761 -0.0144  0.7318  0.0623
 8141SOL    HW135102   2.706   2.518   1.762 -0.4070  0.3024  0.1632
 8141SOL    HW235103   2.598   2.595   1.667  0.1010  0.8607  0.0323
 8142SOL     OW35104   2.096   9.088   3.660 -0.2606  0.5110 -0.7008
 8142SOL    HW135105   2.120   9.131   3.747  0.5853  0.3659 -0.8594
 8142SOL    HW235106   2.009   9.040   3.670 -0.3231  0.7540 -0.0203
 8143SOL     OW35107   7.781   2.338   4.000  0.1474  0.6010 -0.3555
 8143SOL    HW135108   7.806   2.345   4.097 -0.5612  1.0038 -0.1948
 8143SOL    HW235109   7.845   2.391   3.945  0.7747  0.0642 -0.1413
 8144SOL     OW35110   2.788   1.321   3.945  0.4540  0.4172 -0.1630
 8144SOL    HW135111   2.775   1.238   3.890  1.1879  0.5302 -0.5097
 8144SOL    HW235112   2.770   1.300   4.041  0.1400 -0.0245 -0.3148
 8145SOL     OW35113   3.415   4.753   4.060  0.0858  0.1112  0.6552
 8145SOL    HW135114   3.382   4.731   4.152 -0.1910  0.9574  0.7697
 8145SOL    HW235115   3.423   4.670   4.006 -1.5315 -0.1928  0.8588
 8146SOL     OW35116   7.130   9.095   1.014 -0.0923  0.3778  0.2838
 8146SOL    HW135117   7.073   9.038   0.955  0.0208  1.6199 -1.0576
 8146SOL    HW235118   7.087   9.104   1.104 -0.6347 -0.9220  0.1718
 8147SOL     OW35119   1.319   8.891   2.334  0.1789 -0.1289 -0.1017
 8147SOL    HW135120   1.361   8.971   2.377  0.9713 -0.7039  0.1962
 8147SOL    HW235121   1.347   8.886   2.238 -0.5213  0.3992 -0.3425
 8148SOL     OW35122   9.575   2.147   0.504  0.1357  0.0428  0.0421
 8148SOL    HW135123   9.668   2.123   0.529  0.4654  0.5214 -0.7228
 8148SOL    HW235124   9.575   2.229   0.447 -0.8333  0.7185  0.9665
 8149SOL     OW35125   3.684   1.587   1.432  0.5466 -0.0426 -0.2460
 8149SOL    HW135126   3.593   1.594   1.474  0.6981  0.7170 -0.0398
 8149SOL    HW235127   3.712   1.491   1.431  1.3973  0.0922  3.2910
 8150SOL     OW35128   9.856   0.364   4.360 -0.3552  0.0754 -0.0817
 8150SOL    HW135129   9.762   0.365   4.325 -0.7406 -0.0657  0.9435
 8150SOL    HW235130   9.876   0.452   4.404 -0.7816 -0.7318  1.7347
 8151SOL     OW35131   2.050   6.335   4.310  0.5439  0.3077 -0.0244
 8151SOL    HW135132   2.032   6.408   4.243 -1.1865 -0.9056 -0.9171
 8151SOL    HW235133   2.030   6.246   4.269  2.3002 -0.6698  1.1782
 8152SOL     OW35134   2.791   1.603   3.624  0.3294 -0.2730  0.0897
 8152SOL    HW135135   2.814   1.605   3.721  0.8168 -0.2716 -0.0247
 8152SOL    HW235136   2.715   1.666   3.606  0.7198  0.2739  0.3424
 8153SOL     OW35137   3.501   7.102   4.390  0.4701  0.7920  0.0736
 8153SOL    HW135138   3.489   7.200   4.376 -0.8534  0.4409 -1.4607
 8153SOL    HW235139   3.509   7.056   4.301 -0.3375 -0.6523  0.7270
 8154SOL     OW35140   9.329   8.213   2.499 -0.0239  0.0935 -0.4135
 8154SOL    HW135141   9.352   8.248   2.408  0.8497 -1.0789 -0.6544
 8154SOL    HW235142   9.363   8.119   2.509 -0.4770  0.0579  0.9773
 8155SOL     OW35143   1.448   3.560   3.652 -0.0502  0.0488  0.0640
 8155SOL    HW135144   1.473   3.657   3.646 -0.9936  0.2389 -0.9586
 8155SOL    HW235145   1.497   3.508   3.582  0.2658 -0.1719  0.4493
 8156SOL     OW35146   0.926   4.218   2.459 -0.0672 -0.0010 -1.0204
 8156SOL    HW135147   0.848   4.228   2.521  1.7500 -1.2504  1.5886
 8156SOL    HW235148   0.933   4.122   2.430  1.1561 -0.1663 -0.2519
 8157SOL     OW35149   8.257   0.610   2.962  0.2744 -0.3458 -0.3789
 8157SOL    HW135150   8.341   0.561   2.986  0.3482 -0.5108 -0.9611
 8157SOL    HW235151   8.261   0.703   2.997  0.6240 -0.4107 -0.2487
 8158SOL     OW35152   3.461   1.250   2.083  0.3535 -0.7029  0.3425
 8158SOL    HW135153   3.507   1.335   2.057 -0.7423  0.2527  1.5034
 8158SOL    HW235154   3.527   1.175   2.082  1.4486  0.2557 -0.1523
 8159SOL     OW35155   1.624   6.435   4.236  0.2670 -0.6531  0.7212
 8159SOL    HW135156   1.700   6.462   4.296  1.2026 -1.7890  0.0710
 8159SOL    HW235157   1.546   6.407   4.292  1.0792 -1.5561  1.4130
 8160SOL     OW35158   4.734   1.116   3.597 -0.6874 -0.6177 -0.0052
 8160SOL    HW135159   4.701   1.193   3.651  1.2890  1.1424 -1.2407
 8160SOL    HW235160   4.749   1.037   3.657 -0.6507  0.6075  1.6369
 8161SOL     OW35161   3.718   8.977   0.810 -0.1288  0.3072  0.3805
 8161SOL    HW135162   3.637   9.031   0.790 -0.4253 -0.0922  0.4942
 8161SOL    HW235163   3.764   8.952   0.725 -0.7888 -0.4774  0.2524
 8162SOL     OW35164   0.406   7.785   1.923 -0.0000  0.0247 -0.0619
 8162SOL    HW135165   0.476   7.787   1.995  0.3439  0.4277 -0.4075
 8162SOL    HW235166   0.352   7.702   1.933 -0.5669  0.5249  1.2529
 8163SOL     OW35167   8.939   9.913   4.272  0.1612 -0.0158  0.5675
 8163SOL    HW135168   8.939  10.003   4.316 -0.7187 -0.3792  1.3185
 8163SOL    HW235169   9.022   9.863   4.298 -0.2511 -0.1444  1.6482
 8164SOL     OW35170   1.025   3.318   2.324 -0.1126 -0.1677  0.1499
 8164SOL    HW135171   0.964   3.248   2.286  1.1631 -1.3378  0.2232
 8164SOL    HW235172   1.065   3.285   2.409 -0.1759  1.0121  0.6422
 8165SOL     OW35173   9.301   2.466   0.976 -0.1695 -0.6928  0.3231
 8165SOL    HW135174   9.226   2.431   1.032  1.2629 -1.3190  1.8966
 8165SOL    HW235175   9.373   2.397   0.971  0.3106 -0.0974 -1.1786
 8166SOL     OW35176   0.752   4.878   2.451 -0.0332  0.0413  0.0988
 8166SOL    HW135177   0.685   4.951   2.440 -2.2812 -1.8993  0.4180
 8166SOL    HW235178   0.815   4.877   2.373 -0.6412  1.6458 -0.4177
 8167SOL     OW35179   7.334   9.779   3.428  0.1474 -0.2604 -0.6756
 8167SOL    HW135180   7.338   9.812   3.334  1.5104 -0.3083 -0.6371
 8167SOL    HW235181   7.308   9.854   3.489  0.1212 -0.0202 -0.9860
 8168SOL     OW35182   7.165   9.623   0.576  0.3856 -0.9416  0.2082
 8168SOL    HW135183   7.186   9.696   0.511  0.9109 -1.2232  0.0560
 8168SOL    HW235184   7.205   9.537   0.543 -0.0686 -1.2623  0.4776
 8169SOL     OW35185   1.275   0.653   4.532  0.0519  0.0476  0.0912
 8169SOL    HW135186   1.296   0.555   4.531  1.3147  0.3024  0.9869
 8169SOL    HW235187   1.187   0.668   4.488 -0.6074 -1.6082  0.7904
 8170SOL     OW35188   8.871   0.266   3.086  0.4792  0.0155  0.1409
 8170SOL    HW135189   8.831   0.357   3.100 -1.7478 -0.7624 -1.0096
 8170SOL    HW235190   8.890   0.252   2.989  2.2513 -0.1755  0.5071
 8171SOL     OW35191   4.449   9.859   3.313  0.0414  0.4840 -0.8955
 8171SOL    HW135192   4.527   9.798   3.319 -1.7175 -1.7487  0.1676
 8171SOL    HW235193   4.383   9.824   3.246 -1.1570  0.9893 -0.0115
 8172SOL     OW35194   0.966   2.320   3.516  0.0149  0.1629  0.5372
 8172SOL    HW135195   0.905   2.364   3.449 -0.0592 -1.7170 -0.6849
 8172SOL    HW235196   1.047   2.377   3.530  0.2494  0.3830 -1.5296
 8173SOL     OW35197   0.758   6.327   2.200  0.2555 -0.5507  0.5520
 8173SOL    HW135198   0.695   6.254   2.226  0.3945  0.0259  2.5868
 8173SOL    HW235199   0.837   6.326   2.261  1.7924 -0.6636 -1.3807
 8174SOL     OW35200   9.690   7.074   4.026  0.1118  0.7777  0.7110
 8174SOL    HW135201   9.651   7.007   3.963 -1.4337  1.5362  0.8363
 8174SOL    HW235202   9.616   7.116   4.080  1.3361  0.6557  2.5187
 8175SOL     OW35203   2.430   0.416   1.594  0.0466  0.4631  0.3041
 8175SOL    HW135204   2.491   0.495   1.592  0.0600  0.4363 -0.4072
 8175SOL    HW235205   2.357   0.432   1.660 -0.8364  1.7310 -0.9538
 8176SOL     OW35206   4.423   0.188   2.790 -0.3319 -0.9365 -0.4556
 8176SOL    HW135207   4.466   0.112   2.838 -0.8833 -1.4512 -0.7828
 8176SOL    HW235208   4.390   0.255   2.856  2.6947  0.4293 -0.2176
 8177SOL     OW35209   0.368   5.712   3.106 -0.2768 -0.3769 -0.2893
 8177SOL    HW135210   0.289   5.772   3.091 -0.6502 -0.4504  1.3618
 8177SOL    HW235211   0.438   5.761   3.158  0.0696 -0.8669 -0.2886
 8178SOL     OW35212   0.503   7.657   4.417 -0.4534  0.3843  0.0793
 8178SOL    HW135213   0.499   7.583   4.350  0.6271  0.4477 -0.0723
 8178SOL    HW235214   0.569   7.633   4.489 -0.9653  0.6926  0.6566
 8179SOL     OW35215   9.066   1.374   4.551 -0.3379 -0.1227 -0.5814
 8179SOL    HW135216   8.970   1.401   4.548 -0.4858 -0.3972  1.2619
 8179SOL    HW235217   9.085   1.324   4.635  0.9085 -2.0922 -1.9687
 8180SOL     OW35218   7.982   3.263   1.053  0.4213  0.3690  0.2052
 8180SOL    HW135219   8.065   3.288   1.002  0.5036 -0.6765 -0.1936
 8180SOL    HW235220   7.935   3.189   1.005 -0.3145  0.4053  0.8622
 8181SOL     OW35221   6.920   0.232   3.494  0.3474 -0.4277  0.0284
 8181SOL    HW135222   6.920   0.132   3.496 -0.0573 -0.4187  0.7606
 8181SOL    HW235223   6.851   0.266   3.558  1.6862  0.3421  1.1001
 8182SOL     OW35224   1.561   2.080   1.946 -0.2786 -0.1926 -0.1415
 8182SOL    HW135225   1.563   2.123   2.036 -0.0075  0.3748 -0.4132
 8182SOL    HW235226   1.473   2.034   1.933 -0.6737  0.4863  0.0655
 8183SOL     OW35227   0.244   9.434   1.566 -0.4280  0.1454 -0.2178
 8183SOL    HW135228   0.299   9.510   1.601 -1.3509  0.1055  1.3033
 8183SOL    HW235229   0.305   9.368   1.522  0.8290 -0.2036  2.0055
 8184SOL     OW35230   4.260   5.538   1.419 -0.2038 -0.5034  0.0877
 8184SOL    HW135231   4.283   5.557   1.514 -0.5401 -0.6681  0.2040
 8184SOL    HW235232   4.308   5.602   1.359  0.8946 -1.1238  0.2934
 8185SOL     OW35233   4.991   0.251   1.803 -0.1123 -0.0087  0.1255
 8185SOL    HW135234   5.023   0.304   1.883  1.1505 -1.8111  0.8555
 8185SOL    HW235235   5.020   0.297   1.719  1.1480  0.3717  0.7533
 8186SOL     OW35236   4.020   7.125   3.072  0.4887 -0.1654  0.0664
 8186SOL    HW135237   4.108   7.084   3.046  0.3590  0.6549 -1.7119
 8186SOL    HW235238   3.999   7.200   3.011 -1.5419 -0.4360  0.4015
 8187SOL     OW35239   1.563   9.695   2.619 -0.2574  0.7788  0.1703
 8187SOL    HW135240   1.568   9.794   2.602  0.3896  0.7142 -0.0232
 8187SOL    HW235241   1.625   9.671   2.693 -3.4019  1.1253  3.0583
 8188SOL     OW35242   1.838   4.583   1.605  0.1022 -0.2415 -0.3492
 8188SOL    HW135243   1.802   4.526   1.680 -1.5188  1.6046  0.3273
 8188SOL    HW235244   1.856   4.675   1.640  0.8326  0.2007 -1.8804
 8189SOL     OW35245   8.302   0.148   4.720 -0.1363  0.2259 -0.5614
 8189SOL    HW135246   8.343   0.083   4.656 -0.7817 -0.5720 -0.1687
 8189SOL    HW235247   8.244   0.100   4.785 -0.4741  1.1749 -0.1434
 8190SOL     OW35248   9.735   9.286   4.577  0.6325 -0.0282  1.0262
 8190SOL    HW135249   9.668   9.269   4.648 -0.4395  0.3510  0.1134
 8190SOL    HW235250   9.689   9.303   4.490  1.9417 -1.0165  0.1157
 8191SOL     OW35251   1.398   8.875   4.712  0.1235  0.3723  0.7815
 8191SOL    HW135252   1.342   8.792   4.701 -1.5783  1.5613  0.3442
 8191SOL    HW235253   1.339   8.955   4.715  1.9014  1.7938 -1.0890
 8192SOL     OW35254   7.954   8.689   2.399 -0.1277 -0.5180 -0.2155
 8192SOL    HW135255   7.862   8.654   2.418  0.1923 -2.9814 -2.8773
 8192SOL    HW235256   7.949   8.764   2.334 -0.2283 -0.9362 -0.6924
 8193SOL     OW35257   9.053   9.284   1.818 -0.0283  0.0474  0.2304
 8193SOL    HW135258   9.018   9.191   1.805  0.9621 -0.1339 -1.3403
 8193SOL    HW235259   9.152   9.280   1.831 -0.1694  0.7833  1.6300
 8194SOL     OW35260   2.820   6.956   0.643 -0.3528 -0.6525 -0.2746
 8194SOL    HW135261   2.740   6.945   0.585  0.6540 -0.3809 -1.7500
 8194SOL    HW235262   2.801   6.918   0.734 -3.3034  2.4542  0.4999
 8195SOL     OW35263   8.055   9.466   2.318  0.4195 -0.1690 -0.2558
 8195SOL    HW135264   8.073   9.376   2.278  0.9974  1.3109 -3.5461
 8195SOL    HW235265   8.133   9.495   2.373  0.4156 -1.4590  0.4596
 8196SOL     OW35266   3.191   5.431   0.500  0.3810  0.1937 -0.1690
 8196SOL    HW135267   3.272   5.474   0.541 -0.4870  1.4788  0.2404
 8196SOL    HW235268   3.182   5.338   0.536  0.8600  0.5450  0.8979
 8197SOL     OW35269   0.003   2.535   0.412  0.0845  0.3417 -0.5383
 8197SOL    HW135270  -0.005   2.589   0.328  1.7683  2.1394  0.4215
 8197SOL    HW235271   0.061   2.583   0.477 -0.5078 -1.4350  1.3564
 8198SOL     OW35272   5.106   9.532   0.954  0.1387 -0.0443 -0.4352
 8198SOL    HW135273   5.184   9.503   1.010 -0.1206  1.5305  0.7981
 8198SOL    HW235274   5.122   9.625   0.920 -1.9465  1.0412  1.3683
 8199SOL     OW35275   1.412   3.138   3.723  0.1835 -0.1336 -0.0323
 8199SOL    HW135276   1.369   3.227   3.738  0.3804 -0.4296  2.6447
 8199SOL    HW235277   1.353   3.067   3.760 -0.1898 -1.1886 -2.5740
 8200SOL     OW35278   9.806   1.311   0.118  0.1125  0.0324  0.1244
 8200SOL    HW135279   9.744   1.367   0.064 -1.6439 -1.4897  0.4917
 8200SOL    HW235280   9.895   1.306   0.073  0.1099  2.5709 -0.2186
 8201SOL     OW35281   3.855   7.055   2.355  0.0184 -0.5980  0.1142
 8201SOL    HW135282   3.780   7.113   2.321 -0.5568 -1.1839  0.3868
 8201SOL    HW235283   3.856   6.969   2.304 -0.5840 -1.3089  1.2925
 8202SOL     OW35284   2.997   1.957   0.979 -0.0986 -0.1452 -0.2005
 8202SOL    HW135285   3.096   1.955   0.992 -0.1040  0.8676  0.0427
 8202SOL    HW235286   2.974   1.914   0.892  0.6000  0.0665 -0.4941
 8203SOL     OW35287   7.403   0.105   3.734  0.2131  0.6209 -0.4817
 8203SOL    HW135288   7.331   0.092   3.667  1.1046 -0.4259 -1.2637
 8203SOL    HW235289   7.471   0.169   3.699  0.4037  0.4893 -0.3587
 8204SOL     OW35290   2.410   6.186   4.118 -0.1192 -0.6140  0.0562
 8204SOL    HW135291   2.403   6.127   4.038 -1.0392  0.9831 -1.0816
 8204SOL    HW235292   2.349   6.265   4.106  0.7131  0.3055  1.7491
 8205SOL     OW35293   9.698   5.954   3.136  0.2802  0.3986  0.3076
 8205SOL    HW135294   9.663   5.899   3.060  0.4677 -0.1850  0.6387
 8205SOL    HW235295   9.744   6.035   3.100 -0.9003  0.8741 -0.1512
 8206SOL     OW35296   8.714   9.723   4.585  0.4744 -0.8179 -0.2615
 8206SOL    HW135297   8.813   9.733   4.571  0.1392  1.0720 -1.4125
 8206SOL    HW235298   8.696   9.639   4.638  2.8103 -0.3207  1.4069
 8207SOL     OW35299   7.852   6.132   3.735 -0.1925  0.4934 -0.1726
 8207SOL    HW135300   7.909   6.082   3.671  2.2022  0.9672  1.4939
 8207SOL    HW235301   7.787   6.070   3.779  1.3200 -0.7641  0.3291
 8208SOL     OW35302   6.072   9.065   2.786  0.3179  0.5277  0.0323
 8208SOL    HW135303   5.976   9.044   2.766 -0.1677  3.1120 -0.5223
 8208SOL    HW235304   6.078   9.152   2.835  2.4080  0.4573 -0.0436
 8209SOL     OW35305   4.226   4.918   1.605 -0.1595 -0.0161  0.1150
 8209SOL    HW135306   4.150   4.931   1.541 -0.5213 -1.1972  0.3006
 8209SOL    HW235307   4.189   4.895   1.695  0.3478  1.6065  0.7555
 8210SOL     OW35308   3.672   2.788   2.981  0.0432 -0.0461 -0.1631
 8210SOL    HW135309   3.768   2.793   2.955  0.0737  1.8554  0.2568
 8210SOL    HW235310   3.615   2.791   2.899  0.2529  2.1140 -0.2503
 8211SOL     OW35311   8.671   5.825   0.699  0.0744 -0.0818 -0.5266
 8211SOL    HW135312   8.640   5.824   0.604 -0.8194 -1.6140 -0.2278
 8211SOL    HW235313   8.771   5.820   0.701  0.0174 -1.8207 -1.3551
 8212SOL     OW35314   0.202   0.353   0.400  0.2600 -0.1761  0.2773
 8212SOL    HW135315   0.122   0.405   0.369  0.2346  1.0282  2.2616
 8212SOL    HW235316   0.272   0.353   0.328 -0.6391  0.6926 -0.6115
 8213SOL     OW35317   2.243   7.747   2.727  0.1240 -0.1857  0.1068
 8213SOL    HW135318   2.319   7.796   2.770  1.2920 -0.9754 -1.0244
 8213SOL    HW235319   2.270   7.652   2.709 -1.6451 -0.9028  1.0566
 8214SOL     OW35320   7.890   9.877   0.564 -0.0711  0.1579 -0.1328
 8214SOL    HW135321   7.891   9.780   0.591  1.3367 -0.0660 -0.9520
 8214SOL    HW235322   7.983   9.907   0.545 -0.5056  1.6893  0.1254
 8215SOL     OW35323   8.245   4.666   3.194 -0.4827  0.4766  0.1551
 8215SOL    HW135324   8.212   4.580   3.157  0.8059  0.1569 -0.2950
 8215SOL    HW235325   8.273   4.653   3.290  1.4752 -0.1012 -0.4576
 8216SOL     OW35326   8.774   2.757   2.324 -0.3492 -0.4455 -0.1751
 8216SOL    HW135327   8.851   2.820   2.323  0.2705 -1.1894 -1.0595
 8216SOL    HW235328   8.724   2.765   2.410 -0.7757  1.8210 -0.6126
 8217SOL     OW35329   8.787   2.631   4.064  0.2456 -0.5654  0.0460
 8217SOL    HW135330   8.734   2.547   4.051  0.8380 -0.8570 -0.5055
 8217SOL    HW235331   8.789   2.653   4.162  0.6919 -1.5982  0.2818
 8218SOL     OW35332   4.111   0.941   4.677 -0.0319 -0.2286  0.2591
 8218SOL    HW135333   4.121   0.884   4.596 -1.5423 -0.1064 -0.0336
 8218SOL    HW235334   4.042   0.902   4.738 -0.1554  0.6042  0.6662
 8219SOL     OW35335   0.735   3.102   0.765  0.2486  0.4909  0.1719
 8219SOL    HW135336   0.789   3.112   0.681 -0.4828  1.2755 -0.2208
 8219SOL    HW235337   0.792   3.121   0.844  0.6331  1.0009 -0.2224
 8220SOL     OW35338   3.927   5.174   1.872  0.1450  0.1094 -0.3033
 8220SOL    HW135339   3.932   5.077   1.894 -0.2133  0.3626  0.9309
 8220SOL    HW235340   3.844   5.192   1.820 -1.1622  0.1920  1.7964
 8221SOL     OW35341   6.341   1.117   2.486 -0.0491  0.1680 -0.7885
 8221SOL    HW135342   6.394   1.189   2.442  1.1112 -0.5165 -0.5231
 8221SOL    HW235343   6.403   1.053   2.531 -1.0756 -0.9242 -0.9184
 8222SOL     OW35344   7.446   2.249   0.265 -0.4771  0.5073  0.4359
 8222SOL    HW135345   7.350   2.270   0.246 -1.2347 -2.5428  0.6369
 8222SOL    HW235346   7.474   2.170   0.210  2.4393  2.3857 -0.8805
 8223SOL     OW35347   9.527   7.223   4.181  0.4793 -0.4572  0.0594
 8223SOL    HW135348   9.610   7.276   4.196  0.4838 -0.5625  0.4074
 8223SOL    HW235349   9.463   7.276   4.125  0.4903 -0.0918  0.3934
 8224SOL     OW35350   2.439   7.283   4.589  0.2660 -0.4600  0.7765
 8224SOL    HW135351   2.376   7.281   4.667 -1.7361 -1.0674 -0.7868
 8224SOL    HW235352   2.433   7.372   4.544  1.1384 -0.2369  1.1098
 8225SOL     OW35353   4.591   9.722   2.316 -0.0835  0.4853 -0.1271
 8225SOL    HW135354   4.575   9.696   2.220 -1.5283 -1.3213  0.5680
 8225SOL    HW235355   4.650   9.653   2.359 -0.4905  0.6015  0.6203
 8226SOL     OW35356   6.167   7.635   2.120 -0.3810  0.3272 -0.5984
 8226SOL    HW135357   6.150   7.731   2.099  1.3557  0.6410 -0.6128
 8226SOL    HW235358   6.248   7.626   2.178 -0.8293 -1.0943 -0.1542
 8227SOL     OW35359   5.292   3.730   0.405 -0.8044 -0.1002  0.3091
 8227SOL    HW135360   5.366   3.770   0.351  0.4871 -0.5187  1.7301
 8227SOL    HW235361   5.220   3.799   0.418 -0.4093  0.5002 -0.5778
 8228SOL     OW35362   2.496   8.311   3.765  0.5916  0.0001  0.0126
 8228SOL    HW135363   2.401   8.328   3.792  1.1950  1.6025  1.2044
 8228SOL    HW235364   2.498   8.245   3.690 -1.6408  2.2866 -2.1319
 8229SOL     OW35365   8.274   7.155   3.660  0.3739  0.1190 -0.3651
 8229SOL    HW135366   8.220   7.114   3.586  1.5699  0.2704 -1.3422
 8229SOL    HW235367   8.246   7.250   3.673 -0.8843 -0.3450  0.4135
 8230SOL     OW35368   7.715   0.216   3.888  0.0622  0.1755  0.9080
 8230SOL    HW135369   7.657   0.143   3.922  0.7748  0.0014  1.7901
 8230SOL    HW235370   7.688   0.241   3.795 -0.5569 -0.8006  0.8255
 8231SOL     OW35371   0.338   1.143   2.293  0.0496  0.7250  0.7547
 8231SOL    HW135372   0.332   1.088   2.210  0.7444 -2.1024  2.5332
 8231SOL    HW235373   0.434   1.157   2.318 -0.1533  1.5593  1.1021
 8232SOL     OW35374   4.027   8.570   0.848 -0.0593 -0.3528  0.1048
 8232SOL    HW135375   3.929   8.588   0.837 -0.2204 -1.8875 -1.1491
 8232SOL    HW235376   4.040   8.483   0.895  0.7063 -0.2267  0.1347
 8233SOL     OW35377   9.900   6.009   2.805  0.0517 -0.4883  0.3100
 8233SOL    HW135378   9.827   6.043   2.746  0.0132 -1.2883 -0.1089
 8233SOL    HW235379   9.983   5.994   2.751 -0.0615 -1.4683  0.4023
 8234SOL     OW35380   2.239   3.942   4.087  0.6949  0.3994 -0.2364
 8234SOL    HW135381   2.331   3.909   4.108  0.3634 -0.4761 -0.1284
 8234SOL    HW235382   2.172   3.876   4.120  0.0104  1.2264  0.0434
 8235SOL     OW35383   1.624   9.428   1.311 -0.2186 -0.0093  0.2861
 8235SOL    HW135384   1.569   9.500   1.267 -1.1758 -0.7946  0.1729
 8235SOL    HW235385   1.582   9.339   1.293  2.6350 -0.9190 -2.1541
 8236SOL     OW35386   9.479   6.095   1.591 -0.1122  0.3685  0.2185
 8236SOL    HW135387   9.501   6.179   1.639 -0.2999  0.7059 -0.2869
 8236SOL    HW235388   9.541   6.022   1.621  1.4269  1.2047 -0.8964
 8237SOL     OW35389   4.835   3.059   0.708 -0.3791 -0.0135  0.5530
 8237SOL    HW135390   4.868   3.143   0.665  0.2229  0.2088  1.4402
 8237SOL    HW235391   4.875   3.050   0.799 -0.9747 -0.9176  0.7324
 8238SOL     OW35392   6.114   9.546   0.954 -0.7330  0.5784  0.8498
 8238SOL    HW135393   6.170   9.623   0.922 -1.4691  1.1882  1.0159
 8238SOL    HW235394   6.158   9.504   1.033  0.4958 -0.1950 -0.2285
 8239SOL     OW35395   8.838   5.850   4.350  0.3945 -0.2671 -0.1938
 8239SOL    HW135396   8.782   5.783   4.399  0.2417  1.5123  2.1736
 8239SOL    HW235397   8.934   5.825   4.359  0.2847 -0.6376 -0.0276
 8240SOL     OW35398   8.994   8.825   0.269  0.4061  0.2950  0.0616
 8240SOL    HW135399   9.005   8.885   0.349  0.5160 -0.4774  0.6262
 8240SOL    HW235400   8.926   8.754   0.290  1.2820 -0.6018 -0.1338
 8241SOL     OW35401   2.982   0.270   4.449  0.1354  0.1876 -0.4842
 8241SOL    HW135402   3.081   0.283   4.454  0.5662 -1.6682 -3.2445
 8241SOL    HW235403   2.942   0.337   4.386  0.1075 -1.0387 -1.8123
 8242SOL     OW35404   0.784   0.201   0.474  0.2558  0.7072  0.6576
 8242SOL    HW135405   0.693   0.178   0.506  0.1601  0.4743  0.2231
 8242SOL    HW235406   0.796   0.167   0.381  1.1261 -0.1421  1.0659
 8243SOL     OW35407   0.253   4.225   0.797 -0.1524 -0.3507 -0.0066
 8243SOL    HW135408   0.185   4.252   0.865  0.7749 -2.8372  1.9633
 8243SOL    HW235409   0.225   4.139   0.754  0.4830 -0.0598 -1.0296
 8244SOL     OW35410   4.523   3.382   0.250  0.0448  0.4429  0.1248
 8244SOL    HW135411   4.582   3.329   0.311 -0.6075 -0.8626 -0.3434
 8244SOL    HW235412   4.429   3.380   0.285 -0.4975 -1.0393 -1.3412
 8245SOL     OW35413   3.365   6.430   0.756 -0.1961  0.1657  0.3013
 8245SOL    HW135414   3.428   6.358   0.784  2.2080  2.2266  0.3865
 8245SOL    HW235415   3.341   6.418   0.660  2.0492  0.5350 -0.3306
 8246SOL     OW35416   0.170   4.595   1.238  0.1730  0.4005 -0.3440
 8246SOL    HW135417   0.166   4.640   1.327 -0.3012 -0.2988 -0.0098
 8246SOL    HW235418   0.265   4.596   1.205  0.9994 -2.2418  1.6988
 8247SOL     OW35419   8.989   5.481   1.631 -0.2533  0.7663  0.2860
 8247SOL    HW135420   8.940   5.539   1.566 -1.5550 -0.3171  0.2817
 8247SOL    HW235421   8.962   5.505   1.724 -1.2539 -0.2150  0.2615
 8248SOL     OW35422   4.398   7.189   3.584  0.2664  0.4058  0.5246
 8248SOL    HW135423   4.360   7.240   3.662  1.1649  2.0619 -0.0913
 8248SOL    HW235424   4.387   7.243   3.501  0.7540 -0.6589 -0.2345
 8249SOL     OW35425   3.787   0.820   2.138 -0.1777  0.3607 -0.3263
 8249SOL    HW135426   3.748   0.737   2.099 -0.0475  0.2469 -0.2150
 8249SOL    HW235427   3.857   0.796   2.206 -0.5522  0.5620  0.1294
 8250SOL     OW35428   9.992   6.177   0.591 -0.3730 -0.7487 -0.4295
 8250SOL    HW135429  10.032   6.257   0.546 -1.6157 -0.1152 -0.4263
 8250SOL    HW235430  10.028   6.171   0.684 -0.7484  0.1853 -0.2140
 8251SOL     OW35431   2.986   7.364   3.750  0.1310 -0.1727 -0.1603
 8251SOL    HW135432   2.889   7.351   3.726  0.3199 -1.3861 -0.3136
 8251SOL    HW235433   3.008   7.306   3.829  0.5481  0.6665  0.3357
 8252SOL     OW35434   9.494   9.341   1.329 -0.2627  0.3040 -0.0623
 8252SOL    HW135435   9.423   9.299   1.272 -2.4231  0.9852  2.0059
 8252SOL    HW235436   9.557   9.271   1.362  1.6647  0.0240 -4.0209
 8253SOL     OW35437   0.180   4.908   2.831 -0.5815 -0.1938  0.1212
 8253SOL    HW135438   0.158   4.851   2.752 -2.1734 -0.3587  0.6662
 8253SOL    HW235439   0.278   4.902   2.849 -0.8387 -3.7098  0.8696
 8254SOL     OW35440   2.700   5.149   1.316 -0.1178 -0.0316  0.1401
 8254SOL    HW135441   2.652   5.130   1.230 -1.4515 -2.6647  1.4284
 8254SOL    HW235442   2.657   5.098   1.390  1.4197  1.7157  2.2805
 8255SOL     OW35443   2.550   9.912   1.237 -0.1667 -0.4229 -0.1489
 8255SOL    HW135444   2.518   9.967   1.160  2.0400  1.9424  0.5142
 8255SOL    HW235445   2.483   9.916   1.311 -0.1399  1.2483 -0.1929
 8256SOL     OW35446   6.846   9.124   1.643 -0.1784 -0.2316 -0.2393
 8256SOL    HW135447   6.747   9.119   1.657  0.0907 -0.2446  1.7538
 8256SOL    HW235448   6.871   9.219   1.623 -0.3722  0.1128  1.1068
 8257SOL     OW35449   1.538   8.067   4.049 -0.2548 -0.3645  0.7534
 8257SOL    HW135450   1.598   8.070   4.129 -0.0111  0.6039  0.5463
 8257SOL    HW235451   1.559   7.987   3.994 -0.2376 -0.8869  1.5166
 8258SOL     OW35452   3.845   0.288   1.301  0.0324  0.2562 -0.3793
 8258SOL    HW135453   3.838   0.318   1.396 -1.5256  0.7840 -0.6482
 8258SOL    HW235454   3.798   0.353   1.241  0.5800 -0.3256 -1.4637
 8259SOL     OW35455   6.717   9.236   3.289 -0.0193 -0.5101  0.0838
 8259SOL    HW135456   6.742   9.328   3.261 -0.9523 -0.1275  0.4749
 8259SOL    HW235457   6.620   9.234   3.313  0.7256 -0.8300  3.2507
 8260SOL     OW35458   4.398   2.990   2.704 -0.5208 -0.0506 -0.2407
 8260SOL    HW135459   4.427   2.899   2.678 -1.5005 -0.7444  1.0182
 8260SOL    HW235460   4.353   2.987   2.794  0.5285  1.8512  0.3908
 8261SOL     OW35461   1.888   1.974   3.068  0.3779 -0.1368 -0.2823
 8261SOL    HW135462   1.855   1.989   2.975  3.7490 -1.2996 -1.7075
 8261SOL    HW235463   1.903   1.877   3.083  1.5977  0.2158  0.8737
 8262SOL     OW35464   5.352   0.601   1.809  0.3974  0.4898 -0.2582
 8262SOL    HW135465   5.302   0.514   1.803  0.9403  0.1755 -0.2981
 8262SOL    HW235466   5.325   0.660   1.734  0.5666  0.0622 -0.6633
 8263SOL     OW35467   0.402   4.268   1.902  0.2180  0.6289  0.3468
 8263SOL    HW135468   0.416   4.364   1.928 -1.6104  0.6738  1.2139
 8263SOL    HW235469   0.306   4.243   1.915  0.9378 -1.7220  1.4495
 8264SOL     OW35470   8.533   6.180   2.108  0.1429 -0.1674 -0.7221
 8264SOL    HW135471   8.567   6.162   2.016 -0.1956 -2.3723 -0.4302
 8264SOL    HW235472   8.592   6.135   2.175 -1.0211 -0.6225  0.0055
 8265SOL     OW35473   6.733   0.434   1.821 -0.0721  0.2860 -0.3785
 8265SOL    HW135474   6.643   0.403   1.792  0.7477 -2.5099 -0.1147
 8265SOL    HW235475   6.724   0.490   1.903 -1.6584  0.9306 -0.9852
 8266SOL     OW35476   5.346   0.756   3.196  0.7377 -0.6588 -0.3361
 8266SOL    HW135477   5.343   0.745   3.295  4.2054 -3.1630 -0.4182
 8266SOL    HW235478   5.265   0.806   3.166  0.6633  2.0904  3.9555
 8267SOL     OW35479   0.239   9.869   1.245 -0.2167 -0.4483 -0.4906
 8267SOL    HW135480   0.303   9.938   1.278 -0.3516 -1.0499  1.0615
 8267SOL    HW235481   0.235   9.873   1.145  0.3932  1.2205 -0.4676
 8268SOL     OW35482   1.844   5.137   3.956  0.8342 -0.8431  0.8421
 8268SOL    HW135483   1.744   5.140   3.952  0.8314  2.6562  2.0452
 8268SOL    HW235484   1.881   5.135   3.863 -0.3657  3.2499  0.1633
 8269SOL     OW35485   1.670   2.514   2.593 -0.1440 -0.1668  0.2977
 8269SOL    HW135486   1.594   2.464   2.550 -0.5097  1.3888 -0.9050
 8269SOL    HW235487   1.757   2.477   2.559 -0.3792 -0.9381  0.5166
 8270SOL     OW35488   9.611   0.522   3.363 -0.2192  0.1812 -0.0802
 8270SOL    HW135489   9.684   0.507   3.430 -0.2198  1.1375  0.1396
 8270SOL    HW235490   9.617   0.453   3.291  1.2100  0.5646 -0.3314
 8271SOL     OW35491   2.782   9.216   0.898 -0.0525 -0.5041 -0.6429
 8271SOL    HW135492   2.728   9.167   0.966 -1.0248  1.5108  0.0708
 8271SOL    HW235493   2.805   9.154   0.823 -0.7069 -2.2035  0.5398
 8272SOL     OW35494   3.875   3.108   0.062  0.5928 -0.2737  0.4184
 8272SOL    HW135495   3.948   3.161   0.106  1.8776 -1.8362  0.2353
 8272SOL    HW235496   3.809   3.170   0.021  0.9168  1.2003  2.0377
 8273SOL     OW35497   9.054   4.585   0.243 -0.3269  0.1746  0.0211
 8273SOL    HW135498   9.039   4.628   0.332 -0.8526  2.0977 -0.9644
 8273SOL    HW235499   9.071   4.656   0.175 -1.6014 -1.1695 -1.7372
 8274SOL     OW35500   6.154   0.142   3.931  0.1066 -0.0832 -0.4919
 8274SOL    HW135501   6.096   0.165   4.009  1.2637 -0.0934  0.3852
 8274SOL    HW235502   6.135   0.048   3.903  1.9766 -1.2412  1.8944
 8275SOL     OW35503   6.618   0.078   2.398  0.0337 -0.3315  0.2405
 8275SOL    HW135504   6.656   0.162   2.360  0.3977 -1.1053 -1.1326
 8275SOL    HW235505   6.654  -0.001   2.349 -1.0375 -1.2518  0.8864
 8276SOL     OW35506   8.333   5.368   3.599 -0.4182 -0.0716 -0.7939
 8276SOL    HW135507   8.242   5.410   3.603 -0.8667 -0.8479 -2.6628
 8276SOL    HW235508   8.383   5.404   3.520  0.1105 -1.2417 -0.9930
 8277SOL     OW35509   6.999   8.775   2.103  0.5188 -0.2300 -0.5903
 8277SOL    HW135510   7.008   8.740   2.197 -0.9860 -0.7648 -0.6452
 8277SOL    HW235511   7.013   8.700   2.039  1.2956  0.0880 -0.7963
 8278SOL     OW35512   5.492   8.575   3.046 -0.3395  0.0591 -0.1173
 8278SOL    HW135513   5.435   8.564   2.965 -0.6316  0.6149  0.0091
 8278SOL    HW235514   5.451   8.526   3.123 -0.5673  0.3246 -0.0670
 8279SOL     OW35515   8.888   6.792   3.458  0.2062  0.4512 -0.1226
 8279SOL    HW135516   8.824   6.788   3.534 -2.0469  2.7636 -1.7975
 8279SOL    HW235517   8.876   6.712   3.399  0.0695  0.0097  0.5090
 8280SOL     OW35518   7.911   2.522   1.285 -0.5159 -0.5416 -0.1783
 8280SOL    HW135519   7.987   2.457   1.286 -0.1955 -0.1588  0.2537
 8280SOL    HW235520   7.917   2.580   1.204 -1.0467 -1.3394 -0.7960
 8281SOL     OW35521   8.447   5.955   1.272 -0.6998  0.5986  0.2918
 8281SOL    HW135522   8.443   5.908   1.184 -0.7323  0.5802  0.3027
 8281SOL    HW235523   8.369   6.017   1.279 -1.8034 -0.8379  1.1188
 8282SOL     OW35524   5.328   0.709   1.510  0.1681  0.3401  0.2039
 8282SOL    HW135525   5.243   0.705   1.457 -0.0645 -1.7746  0.6900
 8282SOL    HW235526   5.341   0.802   1.544  0.1007  1.6839 -3.1675
 8283SOL     OW35527   8.949   7.262   1.956  0.1176 -0.2932 -0.4718
 8283SOL    HW135528   9.038   7.248   2.000  0.0322  0.7301  0.0530
 8283SOL    HW235529   8.962   7.291   1.861  0.3994  1.5237  0.0938
 8284SOL     OW35530   9.862   2.150   1.184 -0.1510 -0.7799  0.4927
 8284SOL    HW135531   9.807   2.233   1.171  1.2080  0.0892  0.1505
 8284SOL    HW235532   9.877   2.135   1.281  0.9104  0.2699  0.5007
 8285SOL     OW35533   2.902   0.617   2.321 -0.8365 -0.6704 -0.0731
 8285SOL    HW135534   2.888   0.602   2.224  1.3632 -1.1009 -0.3527
 8285SOL    HW235535   2.849   0.696   2.351 -2.8363 -1.5479 -1.2387
 8286SOL     OW35536   8.550   4.325   3.882  0.1344  0.9828  0.8045
 8286SOL    HW135537   8.615   4.304   3.810  0.9043  2.2918  1.1132
 8286SOL    HW235538   8.574   4.273   3.964 -0.4592 -0.1392  0.2738
 8287SOL     OW35539   9.951   2.581   3.711  0.5405 -0.1915  0.4628
 8287SOL    HW135540   9.989   2.543   3.795  0.3741  0.5243  0.8595
 8287SOL    HW235541   9.978   2.677   3.702  2.2720 -0.7938 -1.3129
 8288SOL     OW35542   1.203   7.476   4.586  0.2124 -0.2375  0.0929
 8288SOL    HW135543   1.247   7.483   4.497 -0.4054 -1.8403 -0.3543
 8288SOL    HW235544   1.259   7.523   4.655  0.1965  1.8807 -1.2794
 8289SOL     OW35545   4.061   3.836   1.489  0.6076 -0.1885 -0.1576
 8289SOL    HW135546   3.961   3.843   1.494  0.3300 -3.1378 -0.4885
 8289SOL    HW235547   4.096   3.796   1.574  1.3978 -0.0763 -0.4277
 8290SOL     OW35548   0.443   4.892   2.745 -0.2429 -0.3053  0.3175
 8290SOL    HW135549   0.510   4.966   2.751  0.0755 -0.4865 -0.7391
 8290SOL    HW235550   0.402   4.892   2.653 -1.2096 -0.6136  0.7410
 8291SOL     OW35551   4.451   7.568   2.041 -0.0693  0.0890 -0.1670
 8291SOL    HW135552   4.482   7.474   2.058  0.9837  0.8039  2.1393
 8291SOL    HW235553   4.366   7.585   2.091  1.0404  1.0783  1.4310
 8292SOL     OW35554   1.033   2.709   3.752  0.1673  0.9669 -0.1071
 8292SOL    HW135555   0.964   2.774   3.720 -0.4864  0.4188  0.1868
 8292SOL    HW235556   1.124   2.742   3.725 -0.0703  2.5163  0.8807
 8293SOL     OW35557   3.441   7.964   2.289  0.1891 -0.3293 -0.8236
 8293SOL    HW135558   3.444   8.014   2.202 -0.5683 -0.4561 -0.9316
 8293SOL    HW235559   3.362   7.995   2.342 -0.3662 -1.4793 -0.9473
 8294SOL     OW35560   9.404   5.706   2.129  0.2301  0.2231 -0.0463
 8294SOL    HW135561   9.328   5.683   2.068  0.9806 -1.5747 -0.3656
 8294SOL    HW235562   9.370   5.715   2.223 -0.6004  0.8563 -0.4075
 8295SOL     OW35563   2.284   9.380   0.368  0.0086 -0.7390  0.0490
 8295SOL    HW135564   2.366   9.416   0.324  0.8305 -2.2129  0.3167
 8295SOL    HW235565   2.311   9.310   0.435 -1.4552 -1.1596  0.2120
 8296SOL     OW35566   4.961   8.793   2.402  0.2179 -0.3988  0.7386
 8296SOL    HW135567   4.937   8.834   2.314 -0.7306 -0.3984  0.9863
 8296SOL    HW235568   4.877   8.774   2.453  0.7824 -0.1153  1.7758
 8297SOL     OW35569   8.768   1.606   0.441  0.4619  0.4784  0.2744
 8297SOL    HW135570   8.734   1.571   0.529 -0.0796  1.3300  0.4175
 8297SOL    HW235571   8.720   1.560   0.366  1.3777 -0.7040  0.4054
 8298SOL     OW35572   9.890   7.721   3.421  0.0428 -0.3471 -0.5657
 8298SOL    HW135573   9.980   7.678   3.422  0.2298 -0.0664 -2.4905
 8298SOL    HW235574   9.822   7.660   3.461  1.0558 -0.6269  0.7485
 8299SOL     OW35575   0.288   9.578   3.105 -0.3846 -0.1587 -0.0965
 8299SOL    HW135576   0.363   9.574   3.040 -1.0479  1.0615 -0.9422
 8299SOL    HW235577   0.248   9.487   3.115  0.8481 -0.6985 -0.0584
 8300SOL     OW35578   0.374   2.718   3.862  0.5949  0.5412  0.5326
 8300SOL    HW135579   0.468   2.686   3.869  0.2921 -0.2492  1.0977
 8300SOL    HW235580   0.372   2.812   3.827  1.5305  0.1362 -0.6141
 8301SOL     OW35581   0.543   9.147   3.265  0.1972  0.0312  0.2351
 8301SOL    HW135582   0.561   9.206   3.186 -2.9354 -1.8564 -1.9972
 8301SOL    HW235583   0.557   9.051   3.239 -2.2170 -0.7089  1.4859
 8302SOL     OW35584   7.406   9.359   4.378 -0.2441 -0.0832  0.0619
 8302SOL    HW135585   7.459   9.414   4.443  0.1491  0.9709 -1.1407
 8302SOL    HW235586   7.314   9.345   4.415 -0.3739  1.4557  0.3688
 8303SOL     OW35587   2.238   7.378   1.487 -0.0858 -0.2594  0.3929
 8303SOL    HW135588   2.245   7.466   1.440 -0.5023 -1.3438 -1.7535
 8303SOL    HW235589   2.152   7.374   1.538 -0.3352  0.3485  0.0232
 8304SOL     OW35590   3.229   4.513   4.380 -0.5641  0.4012 -0.2942
 8304SOL    HW135591   3.213   4.500   4.282  1.6793 -0.9670 -0.5315
 8304SOL    HW235592   3.225   4.424   4.426  0.5848  0.7342  0.4807
 8305SOL     OW35593   8.491   0.851   3.852 -0.0454 -0.1227 -0.2219
 8305SOL    HW135594   8.466   0.833   3.757 -1.0723 -0.1571  0.0422
 8305SOL    HW235595   8.558   0.924   3.856  0.2747 -0.3747 -0.9974
 8306SOL     OW35596   8.012   9.108   1.203 -0.5449 -0.3828  0.1994
 8306SOL    HW135597   8.030   9.040   1.274 -0.7289  0.2646  0.8708
 8306SOL    HW235598   8.067   9.190   1.220 -0.3055 -0.3741 -0.6185
 8307SOL     OW35599   8.318   2.475   2.285  0.0790  0.2177 -0.0055
 8307SOL    HW135600   8.351   2.524   2.204  0.7153  1.0155  0.7319
 8307SOL    HW235601   8.319   2.376   2.266  0.2935  0.3902 -0.9429
 8308SOL     OW35602   9.875   6.121   0.289  0.4908  0.5697 -0.2635
 8308SOL    HW135603   9.925   6.112   0.375  0.3610 -1.5015 -0.3871
 8308SOL    HW235604   9.777   6.123   0.307  0.4528 -0.1607 -0.3823
 8309SOL     OW35605   8.718   2.136   1.950  0.3266 -0.0025  0.3248
 8309SOL    HW135606   8.710   2.057   2.011 -1.3051  0.1986  0.4142
 8309SOL    HW235607   8.784   2.117   1.878 -0.6536 -1.7676 -0.1329
 8310SOL     OW35608   7.928   1.965   4.432  0.4607 -0.7564 -0.2426
 8310SOL    HW135609   8.011   1.963   4.489 -0.3068  1.4402  1.0109
 8310SOL    HW235610   7.864   1.895   4.464 -0.1376  0.7279  1.9251
 8311SOL     OW35611   8.375   2.982   0.706  0.6327  0.4194 -0.1849
 8311SOL    HW135612   8.448   2.913   0.704  0.8870  0.7087 -1.0867
 8311SOL    HW235613   8.413   3.071   0.680  0.2837  0.8859  0.8898
 8312SOL     OW35614   2.450   2.224   0.863  0.2138 -0.1451 -0.4312
 8312SOL    HW135615   2.351   2.235   0.872  0.3527  1.3256 -0.5780
 8312SOL    HW235616   2.494   2.314   0.864  1.4515 -0.7106 -1.5094
 8313SOL     OW35617   9.390   4.799   0.012 -0.4070 -0.1691  0.1634
 8313SOL    HW135618   9.477   4.760  -0.019  0.5214  0.5713  1.7749
 8313SOL    HW235619   9.367   4.762   0.102 -3.0391 -2.2516 -1.2911
 8314SOL     OW35620   1.015   3.633   3.281  0.5191 -0.3091  0.6439
 8314SOL    HW135621   1.097   3.591   3.242 -1.0162 -2.5330 -0.2930
 8314SOL    HW235622   0.956   3.562   3.319 -1.1843  1.2101  0.8974
 8315SOL     OW35623   1.633   5.471   1.865  0.0798 -0.6493 -0.0843
 8315SOL    HW135624   1.561   5.537   1.842 -1.7496 -2.4947  0.2259
 8315SOL    HW235625   1.690   5.508   1.939 -0.3034  0.9871 -0.5831
 8316SOL     OW35626   8.357   8.387   2.096  0.8536  0.3225  0.0650
 8316SOL    HW135627   8.408   8.307   2.128 -0.1733  0.2063  1.4299
 8316SOL    HW235628   8.407   8.470   2.119  0.5402  0.1993  1.2186
 8317SOL     OW35629   9.918   7.944   1.076  0.0022 -0.0730 -0.3969
 8317SOL    HW135630   9.849   8.003   1.034 -1.1204 -0.4518  0.8974
 8317SOL    HW235631   9.901   7.849   1.050  0.0005 -0.1754 -0.0202
 8318SOL     OW35632   4.204   2.391   0.350  0.3737  0.3689 -0.2704
 8318SOL    HW135633   4.157   2.459   0.295 -0.6695  0.2410  0.4362
 8318SOL    HW235634   4.195   2.414   0.447 -0.4328 -1.0276  0.0045
 8319SOL     OW35635   3.359   6.203   2.223 -0.0176  0.2113 -0.1385
 8319SOL    HW135636   3.308   6.278   2.265 -0.0272 -0.9497  1.9877
 8319SOL    HW235637   3.303   6.121   2.222  1.2247 -0.6484  0.6928
 8320SOL     OW35638   8.164   8.918   0.031  0.3513 -0.5097  0.5441
 8320SOL    HW135639   8.184   9.012   0.057  0.0447  0.0659 -1.2132
 8320SOL    HW235640   8.216   8.855   0.090  1.9955  0.7998  0.5320
 8321SOL     OW35641   6.856   6.861   2.304 -0.4476  0.7975 -0.3991
 8321SOL    HW135642   6.822   6.789   2.243  0.6399 -1.2251  1.3111
 8321SOL    HW235643   6.949   6.886   2.277 -0.1631  0.2780  0.0881
 8322SOL     OW35644   1.566   7.295   1.544 -0.1571 -0.4698  0.1481
 8322SOL    HW135645   1.578   7.353   1.625  2.2211 -0.8397  0.0881
 8322SOL    HW235646   1.620   7.212   1.554 -1.6297 -1.5733 -0.8514
 8323SOL     OW35647   8.137   7.395   3.649 -0.4121 -0.1958 -0.2361
 8323SOL    HW135648   8.088   7.393   3.561 -0.9981  2.0729 -0.0034
 8323SOL    HW235649   8.120   7.483   3.694  2.7763  0.1013  0.5112
 8324SOL     OW35650   2.404   9.884   3.524  0.2364 -0.1302 -0.1286
 8324SOL    HW135651   2.397   9.956   3.454  0.2416 -2.0818 -2.2097
 8324SOL    HW235652   2.324   9.887   3.583  0.7178  2.2104  0.4588
 8325SOL     OW35653   3.320   2.871   4.113 -0.3078 -0.1609 -0.1651
 8325SOL    HW135654   3.405   2.849   4.066  0.7150  0.9550  1.1219
 8325SOL    HW235655   3.293   2.792   4.169  0.0602 -0.3966 -0.3142
 8326SOL     OW35656   1.160   8.566   2.274 -0.0459  0.3768 -0.4118
 8326SOL    HW135657   1.249   8.530   2.305  0.3343  0.7602 -1.0483
 8326SOL    HW235658   1.143   8.536   2.180 -0.0310  1.3045 -0.7153
 8327SOL     OW35659   0.914   2.693   4.525 -0.2956  0.0286  0.4677
 8327SOL    HW135660   0.939   2.692   4.621 -0.1826  0.2017  0.4397
 8327SOL    HW235661   0.818   2.665   4.515 -0.2148 -0.3018  0.6014
 8328SOL     OW35662   1.443   2.108   0.528  0.2332  0.1912  0.0378
 8328SOL    HW135663   1.425   2.202   0.498 -1.4178  0.4150  1.6841
 8328SOL    HW235664   1.445   2.048   0.448  1.4510  1.6196 -1.0506
 8329SOL     OW35665   8.453   3.136   2.077  0.0275  0.4813  0.4482
 8329SOL    HW135666   8.535   3.188   2.051 -0.6470  1.0590 -0.5836
 8329SOL    HW235667   8.480   3.053   2.125  1.1803  1.1612  1.0131
 8330SOL     OW35668   2.894   0.444   3.299 -0.4041 -0.3177  0.3536
 8330SOL    HW135669   2.975   0.387   3.308  0.0670 -0.4760 -3.8149
 8330SOL    HW235670   2.921   0.539   3.289 -0.7468 -0.2721 -0.1864
 8331SOL     OW35671   2.051   2.254   2.388 -0.0768 -0.2450 -0.0860
 8331SOL    HW135672   2.032   2.162   2.422  2.4341 -1.7472 -2.5161
 8331SOL    HW235673   1.999   2.270   2.304 -2.2522  1.4778  1.5193
 8332SOL     OW35674   3.038   2.074   0.081  0.6095  0.1429 -0.2902
 8332SOL    HW135675   2.978   2.144   0.043  0.3974 -0.2374 -0.6587
 8332SOL    HW235676   3.115   2.118   0.127  0.2879  0.6234 -0.2038
 8333SOL     OW35677   2.278   4.492   2.223 -0.0337 -0.4257  0.0450
 8333SOL    HW135678   2.320   4.414   2.271  1.1566  0.6283  0.7593
 8333SOL    HW235679   2.189   4.511   2.264 -0.0754 -1.0439  0.2580
 8334SOL     OW35680   8.865   4.439   1.996 -0.6296  0.1866 -0.6070
 8334SOL    HW135681   8.808   4.440   1.913 -0.1968  1.1433 -0.8977
 8334SOL    HW235682   8.854   4.525   2.045 -0.4013 -0.1316  0.0037
 8335SOL     OW35683   2.518   9.092   2.083  0.3658  0.4895 -0.5569
 8335SOL    HW135684   2.430   9.093   2.034 -1.3669  0.9267  2.4574
 8335SOL    HW235685   2.530   9.178   2.131  1.4706 -0.3905  0.7693
 8336SOL     OW35686   0.489   8.334   4.508 -0.1464  0.0317 -0.2341
 8336SOL    HW135687   0.547   8.296   4.580  1.4204 -0.2933 -1.6456
 8336SOL    HW235688   0.440   8.414   4.544 -0.5021 -0.9698  1.6056
 8337SOL     OW35689   3.532   8.786   2.748  0.1356 -0.1186  0.1317
 8337SOL    HW135690   3.537   8.769   2.650 -0.8029 -1.9708  0.3753
 8337SOL    HW235691   3.477   8.868   2.765 -0.1759 -0.1140 -0.8567
 8338SOL     OW35692   9.337   2.423   0.241 -0.0658 -0.3197  0.3254
 8338SOL    HW135693   9.259   2.399   0.184 -0.0337  0.8856 -0.2391
 8338SOL    HW235694   9.310   2.493   0.307  1.1188  1.9794 -1.5198
 8339SOL     OW35695   7.299   0.937   2.656 -0.7717  0.1561 -0.0874
 8339SOL    HW135696   7.206   0.914   2.685 -2.1474  1.7478 -3.0423
 8339SOL    HW235697   7.313   0.907   2.562  1.8142 -0.2196  0.3759
 8340SOL     OW35698   3.193   8.066   2.401 -0.2851 -0.2089 -0.3989
 8340SOL    HW135699   3.140   8.046   2.319  0.8736 -0.5457 -1.0786
 8340SOL    HW235700   3.132   8.071   2.480 -1.3757 -0.1296 -1.2360
 8341SOL     OW35701   2.696   2.452   4.382 -0.4833 -0.4733  0.1230
 8341SOL    HW135702   2.606   2.420   4.350 -1.0389  0.3615  0.8221
 8341SOL    HW235703   2.683   2.527   4.447  0.7192 -0.5214  0.4243
 8342SOL     OW35704   2.250   5.280   3.681 -0.2498  0.7587  0.3026
 8342SOL    HW135705   2.259   5.232   3.768  0.9091 -0.2739 -0.3824
 8342SOL    HW235706   2.339   5.314   3.652 -0.0470 -1.6191 -2.0196
 8343SOL     OW35707   6.639   6.394   3.111 -0.3296 -0.2296  0.2574
 8343SOL    HW135708   6.625   6.414   3.014  0.0411  1.3762  0.5119
 8343SOL    HW235709   6.625   6.297   3.127 -2.1667 -0.2290 -1.0995
 8344SOL     OW35710   9.510   9.089   4.152  0.1989  0.5588 -0.4019
 8344SOL    HW135711   9.571   9.119   4.079  0.6525  2.4359  0.7358
 8344SOL    HW235712   9.546   9.119   4.240 -0.8481 -0.8685  0.5289
 8345SOL     OW35713   7.742   5.075   4.406 -0.2601  0.2678 -0.0322
 8345SOL    HW135714   7.690   4.993   4.431  1.0150 -0.8388 -0.9830
 8345SOL    HW235715   7.827   5.079   4.458  0.1419  0.4741 -0.6965
 8346SOL     OW35716   8.999   4.876   0.768 -0.0031 -0.3545 -0.7262
 8346SOL    HW135717   9.005   4.974   0.755 -1.2746 -0.3134 -1.1083
 8346SOL    HW235718   8.959   4.857   0.858 -0.7038 -0.5026 -1.0647
 8347SOL     OW35719   3.842   8.878   4.662 -0.2325 -0.1161 -0.1046
 8347SOL    HW135720   3.907   8.819   4.709 -0.4877  0.0522  0.4613
 8347SOL    HW235721   3.827   8.961   4.715  1.6671  1.4054 -1.8896
 8348SOL     OW35722   9.725   1.057   2.632  0.1965 -0.2381 -0.3634
 8348SOL    HW135723   9.762   1.127   2.572 -0.7601 -1.4034 -2.3609
 8348SOL    HW235724   9.755   1.074   2.726  1.2490  1.9258 -1.0684
 8349SOL     OW35725   6.944   8.239   3.198 -0.8366  0.5582  0.0629
 8349SOL    HW135726   7.017   8.307   3.191 -1.0814  0.4792 -3.8881
 8349SOL    HW235727   6.857   8.286   3.214 -0.5725  0.9561  0.3458
 8350SOL     OW35728   0.871   9.995   2.039 -0.1516  0.0979 -0.0567
 8350SOL    HW135729   0.776   9.984   2.068 -0.0631 -0.6525 -0.0486
 8350SOL    HW235730   0.904  10.086   2.067 -0.9108  0.4213 -0.2018
 8351SOL     OW35731   3.707   6.750   1.683 -0.1816  0.4869  0.0888
 8351SOL    HW135732   3.789   6.752   1.740 -0.3002 -0.7315  0.3204
 8351SOL    HW235733   3.729   6.713   1.593 -0.6882 -0.9905  0.5449
 8352SOL     OW35734   1.240   5.917   3.782  0.5783 -0.0268 -0.5544
 8352SOL    HW135735   1.216   5.821   3.772  1.4010 -0.3708  0.6047
 8352SOL    HW235736   1.181   5.973   3.724  1.2084 -1.3618 -2.5370
 8353SOL     OW35737   2.687   8.685   2.114  0.3835 -0.8250 -0.5916
 8353SOL    HW135738   2.623   8.621   2.071 -1.0037 -0.1191  0.3718
 8353SOL    HW235739   2.736   8.639   2.187 -0.8505 -0.7199  0.3173
 8354SOL     OW35740   4.579   1.049   0.908  0.4094  0.1316  0.4547
 8354SOL    HW135741   4.492   1.098   0.899  1.0861  1.1729 -0.6105
 8354SOL    HW235742   4.599   1.002   0.823  0.5489 -0.7022  0.9439
 8355SOL     OW35743   4.272   9.628   0.124  0.3881  0.0577  0.0016
 8355SOL    HW135744   4.307   9.549   0.074 -0.3938 -0.2805 -0.0216
 8355SOL    HW235745   4.172   9.621   0.131  0.5304 -0.1936  2.0653
 8356SOL     OW35746   1.583   4.707   3.123  0.0093  0.4087  0.0139
 8356SOL    HW135747   1.658   4.702   3.056  0.3959  1.5706  0.3438
 8356SOL    HW235748   1.501   4.664   3.084  1.4920 -3.0668  0.5769
 8357SOL     OW35749   2.511   3.262   1.953 -0.1841 -0.0628 -0.4183
 8357SOL    HW135750   2.505   3.188   2.020  3.1190 -1.2735 -1.3273
 8357SOL    HW235751   2.479   3.347   1.994 -0.5667 -1.2700  1.8753
 8358SOL     OW35752   1.667   5.993   4.617  0.0824  0.7286  0.0042
 8358SOL    HW135753   1.646   6.062   4.548 -0.5803  1.2785  0.7475
 8358SOL    HW235754   1.602   5.918   4.610 -0.8978  1.4635  0.9564
 8359SOL     OW35755   2.690   1.102   2.426 -0.0982 -0.1740  0.4519
 8359SOL    HW135756   2.678   1.117   2.328 -0.0937  1.9429  0.7582
 8359SOL    HW235757   2.627   1.160   2.477  0.1801 -0.9599  1.7193
 8360SOL     OW35758   3.589   7.394   2.407 -0.4866  0.2640 -0.2134
 8360SOL    HW135759   3.521   7.424   2.339 -0.6599  0.3268 -0.0127
 8360SOL    HW235760   3.542   7.355   2.486 -0.2838  0.1721 -0.1388
 8361SOL     OW35761   9.401   5.829   1.284  0.3476 -0.2026 -0.1322
 8361SOL    HW135762   9.357   5.889   1.351 -0.0537 -0.7804  0.1164
 8361SOL    HW235763   9.500   5.838   1.292  0.3080 -0.7493  0.9626
 8362SOL     OW35764   8.138   9.744   0.314 -0.0052  0.0420 -0.5840
 8362SOL    HW135765   8.187   9.807   0.254  1.1419 -0.2571  0.0195
 8362SOL    HW235766   8.180   9.653   0.307  0.1240  0.0051  0.6635
 8363SOL     OW35767   8.768   1.291   4.265 -0.0201 -0.3517  0.4069
 8363SOL    HW135768   8.694   1.239   4.224 -1.1066  2.2996 -1.0910
 8363SOL    HW235769   8.850   1.283   4.208 -0.5549  0.5947 -0.5070
 8364SOL     OW35770   8.937   1.011   1.763 -0.2556  0.2964  0.1260
 8364SOL    HW135771   9.003   1.082   1.739  0.3645 -0.5137 -0.6125
 8364SOL    HW235772   8.865   1.008   1.694 -1.7425  1.9944  1.5682
 8365SOL     OW35773   3.768   2.419   4.688  0.2912 -0.4839  0.0886
 8365SOL    HW135774   3.832   2.343   4.682  0.9555 -0.0254  1.1337
 8365SOL    HW235775   3.775   2.475   4.606  2.1616  0.2657  0.7232
 8366SOL     OW35776   9.281   8.668   2.071 -0.2129 -0.1711 -0.0962
 8366SOL    HW135777   9.215   8.699   2.140 -0.8760 -0.2497 -0.6962
 8366SOL    HW235778   9.236   8.661   1.982  0.8249  0.6730 -0.7025
 8367SOL     OW35779   2.159   6.086   1.827  0.2643 -0.6025  0.4521
 8367SOL    HW135780   2.191   6.105   1.734 -1.5223  1.1438  0.1402
 8367SOL    HW235781   2.093   6.012   1.825 -1.1491  0.6390  0.0305
 8368SOL     OW35782   3.006   6.746   4.680  0.1258 -0.4802 -0.0530
 8368SOL    HW135783   3.048   6.825   4.635  1.0799 -1.4000 -0.8244
 8368SOL    HW235784   2.907   6.750   4.669  0.0361  1.3952  1.2298
 8369SOL     OW35785   3.037   2.716   2.847  0.1644  0.0706 -0.6043
 8369SOL    HW135786   2.988   2.640   2.891 -0.9766  0.8383 -0.5279
 8369SOL    HW235787   2.979   2.757   2.777  0.8136  0.8039 -0.7159
 8370SOL     OW35788   8.360   0.314   1.372 -0.1714 -0.4114 -0.5354
 8370SOL    HW135789   8.343   0.216   1.359  0.9708 -0.7433  0.3581
 8370SOL    HW235790   8.440   0.326   1.430 -0.4223  1.0643 -0.4777
 8371SOL     OW35791   3.290   1.259   0.367 -0.1635  0.5842 -0.0707
 8371SOL    HW135792   3.245   1.201   0.435  1.1369  1.0123  1.1787
 8371SOL    HW235793   3.341   1.201   0.303 -1.5071  0.1702 -0.7732
 8372SOL     OW35794   8.661   5.552   4.219 -0.3631 -0.4104 -0.2872
 8372SOL    HW135795   8.761   5.544   4.217 -0.1651  1.8339 -1.3206
 8372SOL    HW235796   8.629   5.549   4.314  0.6632 -1.3962  0.0324
 8373SOL     OW35797   1.654   5.985   1.580 -0.1653 -0.1811  0.1192
 8373SOL    HW135798   1.721   5.925   1.623  1.3112  0.5657 -1.1182
 8373SOL    HW235799   1.650   6.072   1.629 -0.8127 -0.5140  0.6661
 8374SOL     OW35800   3.777   8.408   2.740  0.3148  0.0215  0.2216
 8374SOL    HW135801   3.738   8.355   2.815 -0.1125 -0.2363 -0.1793
 8374SOL    HW235802   3.811   8.346   2.669  3.0415  0.1883  1.3270
 8375SOL     OW35803   3.117   6.922   1.111 -0.0578  0.4290  0.3640
 8375SOL    HW135804   3.123   6.863   1.191 -0.4785 -0.3740 -0.1976
 8375SOL    HW235805   3.159   6.876   1.032 -1.1528  0.5276 -0.2767
 8376SOL     OW35806   2.785   2.061   3.108  0.2337  0.3607 -0.5982
 8376SOL    HW135807   2.877   2.098   3.127 -0.2418  1.2605 -0.0007
 8376SOL    HW235808   2.726   2.076   3.187 -0.7478  0.8148 -1.4075
 8377SOL     OW35809   2.221   0.370   0.543 -0.2285  0.2970  0.0854
 8377SOL    HW135810   2.302   0.312   0.549  0.2351  0.9121 -0.2592
 8377SOL    HW235811   2.140   0.312   0.530  0.1263 -0.3287  0.6082
 8378SOL     OW35812   4.847   9.080   2.002 -0.1551 -0.9993 -0.2962
 8378SOL    HW135813   4.882   9.110   1.914 -2.1834  0.0232 -0.7953
 8378SOL    HW235814   4.796   9.155   2.045  0.4931 -1.5976  1.5782
 8379SOL     OW35815   2.917   4.012   3.787  0.3605 -0.6834  0.4664
 8379SOL    HW135816   2.895   3.924   3.829 -3.3672  0.2411  0.6818
 8379SOL    HW235817   2.905   4.005   3.688  1.1555 -0.6930  0.3676
 8380SOL     OW35818   4.135   6.120   1.827 -0.1641 -0.4719  0.1069
 8380SOL    HW135819   4.153   6.064   1.908 -1.2956 -0.4546  0.3809
 8380SOL    HW235820   4.067   6.074   1.769  1.7418 -1.2165 -1.6094
 8381SOL     OW35821   5.259   0.346   3.511  0.0413  0.7995  0.4088
 8381SOL    HW135822   5.170   0.318   3.475  0.8064 -0.2462 -0.7078
 8381SOL    HW235823   5.295   0.274   3.571 -0.5465  1.8861  2.1246
 8382SOL     OW35824   0.237   1.589   1.508 -0.5314  0.5234  0.3529
 8382SOL    HW135825   0.316   1.602   1.569  0.2106 -0.9587 -0.2686
 8382SOL    HW235826   0.229   1.667   1.447  1.4424 -0.0311 -0.6576
 8383SOL     OW35827   9.009   0.695   3.129  0.0886 -0.1577  0.8683
 8383SOL    HW135828   9.020   0.685   3.030  1.2799 -0.2041  0.9977
 8383SOL    HW235829   9.098   0.715   3.170 -0.6640  1.5518  1.7277
 8384SOL     OW35830   0.316   3.438   0.931 -0.0680  0.3717  0.8935
 8384SOL    HW135831   0.321   3.393   1.020  0.1111  0.2426  0.8204
 8384SOL    HW235832   0.409   3.449   0.894 -0.0903  1.0719  1.0437
 8385SOL     OW35833   9.820   6.349   0.834  0.0676 -0.3957  0.5973
 8385SOL    HW135834   9.749   6.379   0.898  0.1594  1.9979 -0.3684
 8385SOL    HW235835   9.877   6.427   0.809  2.2358 -2.0150  0.3200
 8386SOL     OW35836   1.760   3.816   4.449 -0.8202  0.1065 -0.6626
 8386SOL    HW135837   1.784   3.719   4.450 -1.0788 -0.0293  3.6086
 8386SOL    HW235838   1.666   3.827   4.415 -1.4757 -1.3586  0.6068
 8387SOL     OW35839   2.417   7.864   4.130  0.4356 -0.1421 -0.0252
 8387SOL    HW135840   2.369   7.949   4.109  2.8948  1.2782 -0.0332
 8387SOL    HW235841   2.406   7.843   4.227 -0.5450 -0.0727 -0.1152
 8388SOL     OW35842   4.508   9.016   4.248 -0.0623  0.0802  0.4457
 8388SOL    HW135843   4.515   9.106   4.292 -0.3816  1.6706 -2.6528
 8388SOL    HW235844   4.411   8.989   4.242  0.0036 -0.2932  0.9466
 8389SOL     OW35845   1.423   9.304   0.473  0.1174 -0.4103  0.2660
 8389SOL    HW135846   1.409   9.313   0.571 -1.0058  3.1650 -0.1560
 8389SOL    HW235847   1.519   9.280   0.455  0.9282  1.2341  2.1579
 8390SOL     OW35848   3.650   9.126   4.284  0.1377 -0.7079 -0.0629
 8390SOL    HW135849   3.601   9.196   4.336  0.2512  0.1907 -1.1577
 8390SOL    HW235850   3.590   9.047   4.270 -0.1325 -0.6657  0.7967
 8391SOL     OW35851   9.621   2.205   2.921 -0.4110  0.2708  0.1291
 8391SOL    HW135852   9.557   2.265   2.969 -1.3820  0.6134 -1.5204
 8391SOL    HW235853   9.631   2.236   2.826  0.3338 -1.2159 -0.3043
 8392SOL     OW35854   3.498   2.065   1.109 -0.1764  0.6190 -0.5183
 8392SOL    HW135855   3.535   2.014   1.031 -0.4602 -0.6100  0.1383
 8392SOL    HW235856   3.574   2.095   1.167 -0.1127 -0.8174  0.1626
 8393SOL     OW35857   5.616   9.049   2.080  0.0492 -0.1536 -0.2883
 8393SOL    HW135858   5.656   9.065   1.990 -1.8269 -0.6338 -1.2365
 8393SOL    HW235859   5.521   9.018   2.070  0.0905 -1.0913  1.8305
 8394SOL     OW35860   1.762   1.272   1.004  0.4510 -0.2130 -0.4106
 8394SOL    HW135861   1.780   1.321   1.090 -1.2413  0.8252 -0.6383
 8394SOL    HW235862   1.685   1.314   0.957  1.1552 -0.9839 -2.2985
 8395SOL     OW35863   8.555   9.349   3.420  0.3275  0.0355  0.3419
 8395SOL    HW135864   8.628   9.333   3.354  0.5985 -0.1649  0.6903
 8395SOL    HW235865   8.594   9.352   3.512  0.0310  0.8607  0.4439
 8396SOL     OW35866   8.553   7.435   4.015 -0.0306  0.5198 -0.0308
 8396SOL    HW135867   8.651   7.451   4.014 -0.0459  0.5619 -0.5960
 8396SOL    HW235868   8.531   7.359   3.954 -0.3605  0.5666  0.0284
 8397SOL     OW35869   5.110   8.553   4.367 -0.2814 -0.3970 -0.2165
 8397SOL    HW135870   5.028   8.611   4.371  0.4284  0.6112 -0.2027
 8397SOL    HW235871   5.134   8.523   4.459  0.1016  0.3404 -0.0788
 8398SOL     OW35872   8.211   1.298   4.467 -0.4957  0.6035  0.3230
 8398SOL    HW135873   8.145   1.244   4.520  0.0840  0.4834  0.9244
 8398SOL    HW235874   8.203   1.273   4.370 -0.0052 -0.8149  0.6344
 8399SOL     OW35875   0.634   5.399   3.081  0.5674 -0.2726 -1.0124
 8399SOL    HW135876   0.603   5.439   2.995  0.1505 -1.1931 -1.2903
 8399SOL    HW235877   0.666   5.306   3.065  1.1646 -0.1921 -0.2961
 8400SOL     OW35878   9.797   9.829   3.463 -0.4941 -0.2746 -0.0371
 8400SOL    HW135879   9.849   9.813   3.379 -0.1243  0.5903  0.0149
 8400SOL    HW235880   9.758   9.921   3.460  2.8693  1.3443  2.4817
 8401SOL     OW35881   2.356   3.943   2.496  0.3690 -0.4108  0.6445
 8401SOL    HW135882   2.259   3.964   2.479  0.8063  2.3372  1.3530
 8401SOL    HW235883   2.364   3.848   2.526 -2.1576 -0.5634  0.9927
 8402SOL     OW35884   5.780   6.388   2.546 -0.4619  0.2956  0.2958
 8402SOL    HW135885   5.835   6.356   2.623 -0.9721  0.0486  0.5633
 8402SOL    HW235886   5.838   6.397   2.465 -0.1381 -0.5109  0.4275
 8403SOL     OW35887   9.537   4.712   1.501  0.1632  0.1775 -0.2665
 8403SOL    HW135888   9.447   4.685   1.536 -0.3146  1.2819 -0.6084
 8403SOL    HW235889   9.571   4.641   1.439 -0.4430 -0.2915 -0.0692
 8404SOL     OW35890   5.030   8.395   3.350  0.6837 -0.2291 -0.3206
 8404SOL    HW135891   5.089   8.341   3.289  0.3717 -2.5927  1.3768
 8404SOL    HW235892   5.086   8.454   3.408  1.2000 -0.3167 -0.7319
 8405SOL     OW35893   0.656   2.580   4.555  0.1866 -0.0982 -0.5388
 8405SOL    HW135894   0.655   2.489   4.597  0.0295  0.0544 -0.2120
 8405SOL    HW235895   0.577   2.589   4.494  1.3765 -0.9575 -2.2279
 8406SOL     OW35896   4.095   3.784   3.033 -0.1738  0.4945  0.6233
 8406SOL    HW135897   4.170   3.724   3.003 -1.1001 -0.3260 -0.1277
 8406SOL    HW235898   4.052   3.825   2.952 -0.8289  0.5937  1.0244
 8407SOL     OW35899   6.866   9.517   2.776  0.2464 -0.5758  0.3096
 8407SOL    HW135900   6.848   9.595   2.716  0.4530 -1.5751 -1.0684
 8407SOL    HW235901   6.802   9.519   2.852 -0.0016  0.7279  0.0907
 8408SOL     OW35902   4.392   0.429   0.999  0.3521  0.1674 -0.2999
 8408SOL    HW135903   4.378   0.508   0.939  1.8191 -0.8086 -1.9905
 8408SOL    HW235904   4.423   0.460   1.089  1.4859  1.4941 -1.1315
 8409SOL     OW35905   2.957   0.045   2.292  0.6491  0.2031  0.0609
 8409SOL    HW135906   2.949   0.137   2.254 -1.0162 -0.2964 -0.8511
 8409SOL    HW235907   3.041   0.002   2.258  2.0596  1.7984  1.4511
 8410SOL     OW35908   8.318   9.838   0.894 -0.1685 -0.2146 -0.7012
 8410SOL    HW135909   8.333   9.840   0.795  0.2368  2.1853 -0.6262
 8410SOL    HW235910   8.327   9.931   0.930 -0.3177 -1.0788  1.5922
 8411SOL     OW35911   0.475   9.160   1.731 -0.1932 -0.0516  0.3282
 8411SOL    HW135912   0.422   9.081   1.702  1.5002 -1.4615  0.9402
 8411SOL    HW235913   0.420   9.216   1.793 -0.8244 -1.7565  1.3756
 8412SOL     OW35914   3.269   7.208   0.356 -0.6247  0.2489 -0.0091
 8412SOL    HW135915   3.304   7.115   0.344 -0.1649  0.5292 -0.9708
 8412SOL    HW235916   3.193   7.224   0.292 -1.0355  0.3714  0.5043
 8413SOL     OW35917   1.937   5.960   1.325  0.0402 -0.1609 -0.5784
 8413SOL    HW135918   2.027   6.002   1.315 -0.0163 -0.2552 -1.5044
 8413SOL    HW235919   1.944   5.877   1.380  0.1741  0.9826  1.1734
 8414SOL     OW35920   1.554   7.437   1.813 -0.2086  0.2122 -0.3267
 8414SOL    HW135921   1.602   7.417   1.899 -1.0250  0.8165  0.2759
 8414SOL    HW235922   1.481   7.370   1.800  1.0790 -0.9812 -1.4708
 8415SOL     OW35923   4.504   1.652   2.393  0.2851 -0.4070 -0.6660
 8415SOL    HW135924   4.552   1.735   2.366 -1.3834  0.0383 -2.4090
 8415SOL    HW235925   4.436   1.674   2.463  0.4239 -0.4751 -0.5076
 8416SOL     OW35926   9.501   7.766   2.191 -0.1101 -0.0204 -0.1675
 8416SOL    HW135927   9.490   7.857   2.151  0.0793  0.3141  0.5456
 8416SOL    HW235928   9.570   7.715   2.140 -1.3367 -0.3343 -1.5564
 8417SOL     OW35929   0.241   5.181   2.028  0.4152 -0.4129 -0.2007
 8417SOL    HW135930   0.209   5.247   1.959  1.2599 -0.8237 -0.9993
 8417SOL    HW235931   0.260   5.093   1.984  0.9414 -0.6912  0.5678
 8418SOL     OW35932   8.472   1.211   2.545  0.4917  0.5559  0.0527
 8418SOL    HW135933   8.399   1.152   2.579  0.7950 -0.3485 -0.8226
 8418SOL    HW235934   8.558   1.160   2.541  0.9013  1.2429 -0.1219
 8419SOL     OW35935   0.700   4.782   3.461  0.2811  0.0863  0.1053
 8419SOL    HW135936   0.764   4.707   3.449 -0.7160 -0.3992 -2.6097
 8419SOL    HW235937   0.611   4.747   3.490  0.2598  0.3716  0.3863
 8420SOL     OW35938   7.172   8.751   1.809  0.0042 -0.2429  0.2234
 8420SOL    HW135939   7.081   8.712   1.824  0.4978 -1.1716  0.8474
 8420SOL    HW235940   7.179   8.784   1.714 -1.1307  0.2577  0.3081
 8421SOL     OW35941   7.012   7.958   2.819  0.6525 -0.6657  0.0623
 8421SOL    HW135942   7.099   7.911   2.837  1.1571  1.0960  2.4682
 8421SOL    HW235943   7.029   8.037   2.761  0.5128 -0.8165 -0.1853
 8422SOL     OW35944   3.389   5.023   3.687 -0.0223 -0.8646  0.0426
 8422SOL    HW135945   3.384   4.930   3.652  1.4753 -1.6798  1.9511
 8422SOL    HW235946   3.382   5.022   3.787 -0.8719  1.1405  0.0270
 8423SOL     OW35947   0.818   6.842   0.848  0.0889 -0.1893 -0.0774
 8423SOL    HW135948   0.884   6.776   0.811 -0.1583  0.4366 -1.6980
 8423SOL    HW235949   0.790   6.904   0.775 -1.3721  0.3132  0.8988
 8424SOL     OW35950   9.002   6.094   1.268  0.4713 -0.0698  0.5319
 8424SOL    HW135951   8.935   6.028   1.234 -1.6216  0.8687  2.6723
 8424SOL    HW235952   9.008   6.171   1.205 -0.4165 -0.2068  0.2648
 8425SOL     OW35953   9.355   1.511   3.572  0.3039  0.2027 -0.1045
 8425SOL    HW135954   9.349   1.545   3.666 -2.9488 -1.2536  0.3044
 8425SOL    HW235955   9.401   1.422   3.573 -0.1762 -0.0434  0.1778
 8426SOL     OW35956   8.165   0.711   2.468  0.1898  0.2774 -0.4580
 8426SOL    HW135957   8.106   0.741   2.543  0.6866  0.6420 -0.2107
 8426SOL    HW235958   8.127   0.742   2.381 -0.5442 -0.4013 -0.3775
 8427SOL     OW35959   7.914   7.035   2.777 -0.1030  0.6978 -0.5133
 8427SOL    HW135960   7.973   7.091   2.719 -0.7031  0.9166 -0.9112
 8427SOL    HW235961   7.877   7.091   2.850  0.6971  0.4102  0.1243
 8428SOL     OW35962   4.531   1.961   1.915  0.0719 -0.0623 -0.4459
 8428SOL    HW135963   4.536   2.042   1.856  0.9569  0.0202 -0.2611
 8428SOL    HW235964   4.490   1.986   2.002  0.2015  0.1518 -0.4458
 8429SOL     OW35965   9.638   7.388   0.913  0.0309 -0.3640 -0.2850
 8429SOL    HW135966   9.641   7.333   0.996  2.4463  1.4280  0.8544
 8429SOL    HW235967   9.702   7.351   0.845 -1.0078 -1.0720 -0.8965
 8430SOL     OW35968   2.038   7.895   2.641  0.6392 -0.2940  0.6294
 8430SOL    HW135969   2.100   7.841   2.697 -0.3369  0.6364  2.6658
 8430SOL    HW235970   2.027   7.986   2.681 -1.4230 -0.1774 -0.1126
 8431SOL     OW35971   9.560   8.274   2.949  0.2493  0.1843 -0.4257
 8431SOL    HW135972   9.613   8.259   3.033 -0.7938  2.5742  0.7051
 8431SOL    HW235973   9.473   8.226   2.957  0.1102  0.4854 -0.0739
 8432SOL     OW35974   1.773   7.785   0.154  0.6231  0.3521  0.1478
 8432SOL    HW135975   1.675   7.801   0.143  0.2843 -1.9702 -0.5135
 8432SOL    HW235976   1.805   7.722   0.083  2.2424 -0.2057  1.3363
 8433SOL     OW35977   1.055   9.774   1.439  0.2462 -0.1141  0.0088
 8433SOL    HW135978   0.986   9.775   1.512 -0.8392 -0.3758 -1.0062
 8433SOL    HW235979   1.139   9.730   1.473  0.3257  1.2330  1.6015
 8434SOL     OW35980   7.310   3.238   4.200  0.1719 -0.7529  0.5371
 8434SOL    HW135981   7.309   3.337   4.217  3.1239 -0.9479  2.3139
 8434SOL    HW235982   7.339   3.221   4.106  0.7436  0.0645  0.5566
 8435SOL     OW35983   2.646   9.490   3.492  0.5194 -0.2561 -0.0137
 8435SOL    HW135984   2.698   9.545   3.426 -1.4140  0.7281 -0.7445
 8435SOL    HW235985   2.551   9.482   3.461  0.3796 -2.5709  0.9866
 8436SOL     OW35986   3.207   7.555   4.047  0.0890 -0.1674 -0.7439
 8436SOL    HW135987   3.190   7.496   4.127 -0.2794  1.1592  0.1633
 8436SOL    HW235988   3.125   7.557   3.990 -0.3454  0.4809 -0.1056
 8437SOL     OW35989   8.672   9.592   2.827 -0.3683 -0.7748  0.2324
 8437SOL    HW135990   8.586   9.624   2.865  0.3021  1.7693 -0.3282
 8437SOL    HW235991   8.661   9.572   2.729 -0.5308 -1.2888  0.3548
 8438SOL     OW35992   4.562   6.347   1.376 -0.2145  0.1412  0.9892
 8438SOL    HW135993   4.575   6.441   1.408  1.6543  0.7321 -1.3493
 8438SOL    HW235994   4.465   6.330   1.360 -0.6652  1.3482  2.3424
 8439SOL     OW35995   8.975   0.280   4.173 -0.1316  0.5968 -0.1449
 8439SOL    HW135996   9.072   0.275   4.149  0.2534 -0.9134  1.5589
 8439SOL    HW235997   8.961   0.233   4.260 -2.9108 -1.9516 -1.9009
 8440SOL     OW35998   2.880   4.690   1.518  0.2392  0.7108 -0.2652
 8440SOL    HW135999   2.889   4.694   1.618  1.1918  0.6541 -0.3417
 8440SOL    HW236000   2.809   4.753   1.489  0.7155  1.5545  0.3600
 8441SOL     OW36001   7.770   6.673   3.523 -0.3598  0.3073 -0.3436
 8441SOL    HW136002   7.862   6.653   3.488  0.3473  2.8954 -0.0979
 8441SOL    HW236003   7.726   6.589   3.552  2.3524 -0.8742  0.4679
 8442SOL     OW36004   1.628   2.021   2.304  0.2818 -0.6959 -0.1832
 8442SOL    HW136005   1.673   1.983   2.222  0.4393  1.3167 -1.0526
 8442SOL    HW236006   1.605   1.946   2.366  1.0726 -2.1715 -1.6081
 8443SOL     OW36007   2.587   9.914   3.948  0.0627 -0.0972  0.1349
 8443SOL    HW136008   2.619   9.976   4.019  0.3927 -0.9076  0.6929
 8443SOL    HW236009   2.664   9.887   3.890  0.0104 -0.4043  0.2107
 8444SOL     OW36010   4.858   9.741   1.662  0.3333  0.2153 -0.6370
 8444SOL    HW136011   4.884   9.679   1.587  0.8286 -0.3499 -0.0012
 8444SOL    HW236012   4.937   9.795   1.689  1.7943 -3.6858  3.3922
 8445SOL     OW36013   7.832   3.615   3.805 -0.2650  0.0554 -0.5367
 8445SOL    HW136014   7.914   3.600   3.750  1.7511  1.8494  1.8356
 8445SOL    HW236015   7.770   3.676   3.757  0.6670  0.2083 -1.5623
 8446SOL     OW36016   2.714   4.095   0.779 -0.5891 -0.6154  0.1009
 8446SOL    HW136017   2.746   4.150   0.856  1.1819 -2.1487  0.5059
 8446SOL    HW236018   2.786   4.030   0.753 -1.9333 -1.4678 -1.5539
 8447SOL     OW36019   0.974   4.271   3.815 -0.1042 -0.0594 -0.1228
 8447SOL    HW136020   0.973   4.370   3.804 -2.6607 -0.2428 -1.9900
 8447SOL    HW236021   1.042   4.246   3.884  1.7265  2.8466 -0.7748
 8448SOL     OW36022   2.026   3.738   3.301 -0.4577 -0.3663  0.1015
 8448SOL    HW136023   2.093   3.684   3.249 -0.8056  0.0389 -0.7914
 8448SOL    HW236024   2.022   3.830   3.263  0.5959  0.4934  2.0278
 8449SOL     OW36025   9.278   5.051   3.338  0.6708 -0.3337 -0.2093
 8449SOL    HW136026   9.340   4.973   3.346  2.5963  1.1044 -0.9421
 8449SOL    HW236027   9.318   5.131   3.382 -1.2321  0.3073  0.4247
 8450SOL     OW36028   0.462   3.359   2.683 -0.3160  0.1520  0.5637
 8450SOL    HW136029   0.474   3.458   2.680  0.6968  0.0121 -0.3577
 8450SOL    HW236030   0.494   3.318   2.598  2.5752 -1.2789  2.2512
 8451SOL     OW36031   8.217   0.819   0.601 -0.3312 -0.0392  0.6255
 8451SOL    HW136032   8.200   0.795   0.505 -1.2286  2.2320  0.1696
 8451SOL    HW236033   8.139   0.792   0.657 -0.3984 -0.1375  0.4834
 8452SOL     OW36034   3.747   1.832   1.578 -0.1761  0.5794 -0.3712
 8452SOL    HW136035   3.716   1.757   1.518 -0.9399  1.2472 -0.8205
 8452SOL    HW236036   3.721   1.812   1.672  1.9119 -0.9586 -0.1006
 8453SOL     OW36037   8.752   5.677   2.070 -0.1719 -0.1738 -0.3611
 8453SOL    HW136038   8.742   5.579   2.056  2.6263 -0.3592 -1.4097
 8453SOL    HW236039   8.674   5.712   2.121 -1.5450 -2.8088 -0.6002
 8454SOL     OW36040   0.648   6.436   1.323  0.2890  0.2889 -0.5039
 8454SOL    HW136041   0.674   6.348   1.361 -2.8157 -0.6527 -0.4239
 8454SOL    HW236042   0.564   6.468   1.366  1.7476  3.6723 -0.0226
 8455SOL     OW36043   1.642   3.035   3.612 -0.6112  0.2669 -0.6761
 8455SOL    HW136044   1.568   3.087   3.654 -0.7292 -1.4542  1.3837
 8455SOL    HW236045   1.610   2.943   3.590  0.7313 -0.3305 -0.2269
 8456SOL     OW36046   2.199   7.464   2.715  0.2539  0.4569  0.3603
 8456SOL    HW136047   2.204   7.368   2.688 -2.4347  0.2771  0.3719
 8456SOL    HW236048   2.249   7.478   2.800  0.3851 -0.9883  0.5239
 8457SOL     OW36049   0.347   5.564   1.079 -0.5308 -0.4547  0.3425
 8457SOL    HW136050   0.435   5.526   1.050 -0.9673  0.4737 -2.3410
 8457SOL    HW236051   0.273   5.503   1.049 -1.0006  0.6219 -0.7631
 8458SOL     OW36052   7.849   4.411   4.235 -0.9216 -0.0480 -0.2842
 8458SOL    HW136053   7.819   4.480   4.169  1.7530  0.0097 -1.4965
 8458SOL    HW236054   7.907   4.344   4.189 -2.2486 -2.2664  1.2103
 8459SOL     OW36055   4.504   1.729   0.801 -0.5599 -0.2300 -0.6718
 8459SOL    HW136056   4.453   1.748   0.885 -0.7810 -0.1145 -0.8311
 8459SOL    HW236057   4.568   1.804   0.783  0.6703 -1.0363  0.2806
 8460SOL     OW36058   5.586   7.474   1.732 -0.7400 -0.8502 -0.3191
 8460SOL    HW136059   5.638   7.389   1.743 -1.4187 -1.2683 -0.2942
 8460SOL    HW236060   5.488   7.453   1.730 -0.8238 -0.3790 -3.0056
 8461SOL     OW36061   5.198   1.056   1.610  0.0422  0.0317  0.0987
 8461SOL    HW136062   5.170   1.138   1.659  0.6827  0.2308  0.1241
 8461SOL    HW236063   5.117   0.998   1.594 -0.1452 -0.1039  1.5107
 8462SOL     OW36064   0.694   1.918   3.302  0.1980 -0.0076 -0.1125
 8462SOL    HW136065   0.653   2.002   3.339  0.7811 -0.5409  1.7866
 8462SOL    HW236066   0.791   1.935   3.282  0.0306  0.1020 -0.8439
 8463SOL     OW36067   9.489   6.603   0.191 -0.7012 -0.6896 -0.0780
 8463SOL    HW136068   9.399   6.619   0.151 -0.6308  0.5537  0.2482
 8463SOL    HW236069   9.497   6.652   0.277  0.1529 -1.1105  0.0916
 8464SOL     OW36070   8.446   5.864   2.707  0.2560 -0.1804  0.3607
 8464SOL    HW136071   8.496   5.946   2.737  0.9950 -0.4308 -0.1761
 8464SOL    HW236072   8.501   5.783   2.726 -0.6166 -0.5868  1.2053
 8465SOL     OW36073   9.612   5.312   4.678 -0.0397  0.3741  0.6512
 8465SOL    HW136074   9.630   5.257   4.596 -0.9155  2.3381 -0.9307
 8465SOL    HW236075   9.587   5.253   4.754 -0.3060 -1.4419 -0.8191
 8466SOL     OW36076   5.418   8.264   3.510 -0.0363 -0.4492 -0.0769
 8466SOL    HW136077   5.482   8.315   3.451  1.2280 -0.0866  1.5779
 8466SOL    HW236078   5.383   8.185   3.460  0.1254  0.4894 -1.7193
 8467SOL     OW36079   4.580   2.611   0.514 -0.3317  0.0786  0.6521
 8467SOL    HW136080   4.587   2.624   0.613  0.8132  0.9361  0.4629
 8467SOL    HW236081   4.670   2.591   0.476 -0.3189  2.3311 -0.5662
 8468SOL     OW36082   8.751   6.713   0.004  0.3478 -0.3845 -0.3284
 8468SOL    HW136083   8.734   6.766  -0.079 -0.2354 -0.2422 -0.1212
 8468SOL    HW236084   8.681   6.643   0.014 -0.3822  0.4738  0.7496
 8469SOL     OW36085   8.712   4.334   3.655 -0.4119  0.4408 -0.4717
 8469SOL    HW136086   8.736   4.252   3.602  1.8785  0.5775  0.2954
 8469SOL    HW236087   8.796   4.382   3.680 -1.5867  1.4003  1.6772
 8470SOL     OW36088   4.589   1.729   2.077 -0.4717 -0.4799 -0.0226
 8470SOL    HW136089   4.618   1.648   2.025 -3.0310 -1.3434 -0.1943
 8470SOL    HW236090   4.575   1.805   2.015  1.8730  0.1353  0.1294
 8471SOL     OW36091   1.097   5.292   4.438 -0.1925  0.2492 -0.4755
 8471SOL    HW136092   1.150   5.303   4.522  0.3472  2.3919 -1.0541
 8471SOL    HW236093   1.133   5.215   4.385  0.7477  0.1346  0.3172
 8472SOL     OW36094   9.343   4.324   0.546  0.3195  0.7395 -0.2916
 8472SOL    HW136095   9.285   4.397   0.583 -3.9339 -3.3198  1.4236
 8472SOL    HW236096   9.395   4.282   0.620 -0.1511 -0.4294 -0.6176
 8473SOL     OW36097   1.321   3.546   2.180  0.0547  0.0981  0.2185
 8473SOL    HW136098   1.339   3.448   2.168  0.2443 -0.0281  1.3946
 8473SOL    HW236099   1.302   3.564   2.277 -1.6503  0.9722 -0.2663
 8474SOL     OW36100   6.986   8.004   2.292  0.1581  0.2257  0.2017
 8474SOL    HW136101   6.944   7.941   2.227 -0.2920 -0.2913  0.9897
 8474SOL    HW236102   7.079   7.974   2.312 -0.3736 -0.7469  1.3029
 8475SOL     OW36103   7.298   0.205   0.568  0.1033  0.6626  0.2378
 8475SOL    HW136104   7.209   0.160   0.567  0.6222 -0.3664 -1.5934
 8475SOL    HW236105   7.358   0.164   0.499  2.0950  1.1684  1.6014
 8476SOL     OW36106   7.865   1.454   0.561 -0.0490  0.0870 -0.2105
 8476SOL    HW136107   7.897   1.535   0.512 -1.3954  0.5044 -0.4412
 8476SOL    HW236108   7.765   1.459   0.571 -0.1057 -1.3844  0.0661
 8477SOL     OW36109   8.084   8.119   3.044 -0.7366  0.0284 -0.1012
 8477SOL    HW136110   8.045   8.189   2.984 -0.8268  0.5345  0.5359
 8477SOL    HW236111   8.078   8.150   3.139  0.5466 -0.2168  0.0623
 8478SOL     OW36112   1.238   3.117   4.181  0.5102 -0.0438 -0.0909
 8478SOL    HW136113   1.292   3.073   4.253  0.5311 -0.1011 -0.1425
 8478SOL    HW236114   1.148   3.143   4.218 -0.1051 -1.5569 -0.4890
 8479SOL     OW36115   8.108   0.019   0.126  0.4256  0.4934  0.5139
 8479SOL    HW136116   8.009   0.014   0.134  0.5713 -1.0552  1.4342
 8479SOL    HW236117   8.145   0.072   0.202  0.1758  2.5342 -0.7592
 8480SOL     OW36118   9.379   8.432   1.463 -0.2866 -0.7468  0.0271
 8480SOL    HW136119   9.416   8.468   1.378  2.5873 -1.8719  0.7610
 8480SOL    HW236120   9.373   8.333   1.459 -1.0428 -0.7459  0.8000
 8481SOL     OW36121   5.083   0.001   1.775 -0.7064 -0.1689 -0.3131
 8481SOL    HW136122   5.026   0.082   1.790 -0.3547 -0.0962  0.6542
 8481SOL    HW236123   5.141  -0.014   1.855 -0.3589 -1.0451 -0.7294
 8482SOL     OW36124   4.778   4.075   0.487  0.1528  0.1854 -0.0706
 8482SOL    HW136125   4.795   4.174   0.482 -1.7947  0.4545 -2.4615
 8482SOL    HW236126   4.851   4.027   0.440 -0.4117  0.6940 -1.4909
 8483SOL     OW36127   9.124   4.810   0.079  0.1609 -0.0658 -0.4734
 8483SOL    HW136128   9.072   4.895   0.079  0.7312  0.2933 -1.1016
 8483SOL    HW236129   9.218   4.829   0.050  0.0209 -1.0713 -1.6434
 8484SOL     OW36130   4.172   3.238   1.398  0.0080 -0.2836  0.9192
 8484SOL    HW136131   4.087   3.273   1.438  0.3436  2.8661 -0.9222
 8484SOL    HW236132   4.249   3.262   1.456 -0.1080 -0.9385  1.3431
 8485SOL     OW36133   4.319   9.088   1.906  0.1701 -0.7799 -0.6496
 8485SOL    HW136134   4.372   9.164   1.869  0.2675 -0.1274  0.7998
 8485SOL    HW236135   4.224   9.117   1.920  0.4451 -0.5820  0.8985
 8486SOL     OW36136   8.819   0.382   3.420  0.7480 -0.1731  0.5973
 8486SOL    HW136137   8.905   0.430   3.439 -0.5028  2.2758  0.1962
 8486SOL    HW236138   8.776   0.422   3.339  0.0811 -2.5797 -0.2803
 8487SOL     OW36139   8.255   1.890   1.312 -0.1639 -0.3306  0.9567
 8487SOL    HW136140   8.221   1.908   1.404 -0.8771 -1.2309  0.8713
 8487SOL    HW236141   8.205   1.814   1.272  1.3325 -1.0890  0.4800
 8488SOL     OW36142   0.362   1.716   1.096 -0.1549  0.4959  0.0049
 8488SOL    HW136143   0.325   1.746   1.008 -1.2809 -1.6793 -0.3028
 8488SOL    HW236144   0.303   1.749   1.170 -0.6532  0.1450 -0.2358
 8489SOL     OW36145   9.728   9.008   3.548  0.4298  0.5579 -0.1728
 8489SOL    HW136146   9.708   8.987   3.644  0.9716  0.1460 -0.1453
 8489SOL    HW236147   9.822   9.043   3.541  0.9761 -0.9969 -0.7618
 8490SOL     OW36148   2.306   4.190   4.450 -0.7159  0.3415  0.0823
 8490SOL    HW136149   2.318   4.093   4.427  0.1575  0.2251  0.9989
 8490SOL    HW236150   2.311   4.202   4.549  2.1427  1.7022 -0.1658
 8491SOL     OW36151   0.964   3.821   4.186  0.2880 -0.1233 -0.4019
 8491SOL    HW136152   0.917   3.820   4.098  1.6925  0.9318 -1.1805
 8491SOL    HW236153   1.060   3.847   4.173  0.3554  0.6996  1.5089
 8492SOL     OW36154   9.011   3.840   1.463  0.2787 -0.1102 -0.0384
 8492SOL    HW136155   9.051   3.797   1.382  0.3201  1.4717 -0.8936
 8492SOL    HW236156   8.929   3.791   1.491  0.8989 -1.3419 -0.3602
 8493SOL     OW36157   1.628   0.593   2.541 -0.5673 -0.0952  0.2907
 8493SOL    HW136158   1.693   0.594   2.465  1.7320 -0.9572  2.2171
 8493SOL    HW236159   1.676   0.582   2.627 -3.2007  0.2601  1.8712
 8494SOL     OW36160   8.555   2.418   1.612  0.2346  0.2162  0.2103
 8494SOL    HW136161   8.579   2.512   1.587 -0.3816  0.2083 -0.4701
 8494SOL    HW236162   8.540   2.412   1.710 -1.8582  1.3588  0.0095
 8495SOL     OW36163   0.099   9.580   3.873 -0.1123 -0.3547 -0.1492
 8495SOL    HW136164   0.122   9.512   3.803  2.9470  1.2599 -0.8281
 8495SOL    HW236165   0.096   9.537   3.963 -2.4900 -2.1574 -1.0371
 8496SOL     OW36166   2.372   4.844   3.556 -0.5906 -0.4568  0.1096
 8496SOL    HW136167   2.321   4.768   3.596 -0.6298 -1.0928 -1.1044
 8496SOL    HW236168   2.453   4.809   3.509 -0.9763  0.1647 -1.0539
 8497SOL     OW36169   8.080   0.980   0.152 -0.0762  0.2241 -0.3517
 8497SOL    HW136170   8.051   1.074   0.134  1.4187  1.1024  1.6330
 8497SOL    HW236171   8.171   0.966   0.113 -1.4245 -1.2708 -3.0451
 8498SOL     OW36172   9.716   0.481   1.954 -0.0979 -0.4478  0.3806
 8498SOL    HW136173   9.621   0.504   1.976 -0.4599 -1.6741  0.1378
 8498SOL    HW236174   9.739   0.514   1.863 -0.4808 -0.6570  0.2079
 8499SOL     OW36175   4.640   8.867   2.870  1.0741 -0.1587  0.7931
 8499SOL    HW136176   4.728   8.844   2.830  0.6440  0.1651 -0.3554
 8499SOL    HW236177   4.569   8.809   2.830  0.5186  0.7347  0.4713
 8500SOL     OW36178   7.895   6.730   2.063 -0.6197 -0.0967  0.4781
 8500SOL    HW136179   7.927   6.729   1.968 -1.0927  3.8539  0.1932
 8500SOL    HW236180   7.825   6.660   2.075  0.4732 -1.6221 -1.6957
 8501SOL     OW36181   4.855   3.715   0.014 -0.0766  0.0448  0.3800
 8501SOL    HW136182   4.836   3.752   0.105 -0.0474 -0.2352  0.4996
 8501SOL    HW236183   4.949   3.736  -0.011 -0.5730  1.6059 -0.2934
 8502SOL     OW36184   9.073   0.329   2.751  0.4332 -0.5346 -0.3759
 8502SOL    HW136185   9.095   0.336   2.848 -0.8667 -2.4003  0.0799
 8502SOL    HW236186   9.129   0.257   2.709  0.7268  0.0145 -0.9449
 8503SOL     OW36187   4.565   9.964   3.605 -0.3114  0.1388 -0.5647
 8503SOL    HW136188   4.571   9.901   3.682 -0.0891 -0.8850 -1.4044
 8503SOL    HW236189   4.552   9.912   3.520 -2.5310  1.3425 -0.9904
 8504SOL     OW36190   0.611   7.862   2.524  0.2701 -0.2264  0.2269
 8504SOL    HW136191   0.548   7.936   2.499  1.9091  1.1659  0.1589
 8504SOL    HW236192   0.705   7.890   2.505  1.0053 -1.8694  1.3385
 8505SOL     OW36193   8.261   0.646   4.641  0.2699 -0.3876 -0.1811
 8505SOL    HW136194   8.290   0.685   4.554  2.6123  0.4402  0.9091
 8505SOL    HW236195   8.247   0.547   4.630  1.6367 -0.4801 -1.2548
 8506SOL     OW36196   8.468   7.201   0.918  0.2896 -0.1315  0.7027
 8506SOL    HW136197   8.533   7.163   0.983  1.4304 -0.9318 -0.8682
 8506SOL    HW236198   8.507   7.198   0.826 -0.9695  1.7084  0.0660
 8507SOL     OW36199   0.943   8.858   1.764  0.2785 -0.0407  0.0343
 8507SOL    HW136200   0.976   8.871   1.857 -0.7649  0.0793  0.3906
 8507SOL    HW236201   0.843   8.864   1.762  0.1947 -1.3545 -0.8697
 8508SOL     OW36202   7.977   7.916   1.924 -0.0344 -0.2072 -0.2053
 8508SOL    HW136203   8.065   7.874   1.903  0.9511 -0.5344  4.1304
 8508SOL    HW236204   7.990   8.013   1.944 -0.5380 -0.4486  1.3071
 8509SOL     OW36205   0.648   6.199   0.272 -0.1650  0.2080 -0.1228
 8509SOL    HW136206   0.722   6.153   0.320  0.8273 -1.2118 -2.8707
 8509SOL    HW236207   0.668   6.296   0.263 -0.1523  0.4053  1.8506
 8510SOL     OW36208   2.226   1.198   1.683  0.6043 -0.4150  0.2317
 8510SOL    HW136209   2.144   1.158   1.724  0.5619 -1.1482 -0.5436
 8510SOL    HW236210   2.304   1.185   1.744  0.3079 -0.4636  0.5985
 8511SOL     OW36211   1.881   8.716   1.956  0.2380 -0.0997  0.4211
 8511SOL    HW136212   1.875   8.621   1.927  0.3913 -0.1375  0.5098
 8511SOL    HW236213   1.948   8.724   2.030 -0.2055 -0.0198  0.8178
 8512SOL     OW36214   1.095   3.080   2.018 -0.0137 -0.4573 -0.0713
 8512SOL    HW136215   1.005   3.066   2.059 -0.1495 -1.2020 -0.6134
 8512SOL    HW236216   1.085   3.128   1.930  0.2345  0.6844  0.5127
 8513SOL     OW36217   0.391   0.288   4.192  0.1135  0.0709 -0.1956
 8513SOL    HW136218   0.402   0.198   4.233 -0.4807  0.7386  1.4491
 8513SOL    HW236219   0.299   0.297   4.153 -0.1633  0.3139  0.5112
 8514SOL     OW36220   3.276   6.814   3.537 -0.1077  0.1767 -0.1137
 8514SOL    HW136221   3.188   6.770   3.522 -0.8942  0.7285  2.6369
 8514SOL    HW236222   3.262   6.908   3.568  1.4247  0.0950  0.9037
 8515SOL     OW36223   3.120   4.602   4.620  0.1698  0.2586  0.1793
 8515SOL    HW136224   3.182   4.551   4.679 -1.1411 -1.4618  0.1184
 8515SOL    HW236225   3.132   4.572   4.525 -0.3676  0.2974  0.0953
 8516SOL     OW36226   4.535   8.499   2.796 -0.5475 -0.5546 -0.9676
 8516SOL    HW136227   4.517   8.513   2.699 -0.2706 -0.6494 -1.0323
 8516SOL    HW236228   4.512   8.582   2.846 -0.1990 -0.3257 -1.1817
 8517SOL     OW36229   3.540   8.812   1.151 -0.3890  0.4269 -0.1191
 8517SOL    HW136230   3.610   8.783   1.087 -0.7738  0.5224 -0.5855
 8517SOL    HW236231   3.530   8.743   1.223 -0.7011 -0.1913 -0.7488
 8518SOL     OW36232   8.058   2.529   2.496 -0.0263  0.3684 -0.4495
 8518SOL    HW136233   8.006   2.453   2.457  0.2929  0.3150 -0.7691
 8518SOL    HW236234   8.140   2.545   2.441  0.9281 -0.3325  0.7390
 8519SOL     OW36235   7.237   7.361   1.706  0.0883 -0.2022 -0.7850
 8519SOL    HW136236   7.263   7.421   1.782  1.6821  0.7541 -2.0612
 8519SOL    HW236237   7.139   7.371   1.688 -0.1292  0.2201  0.5570
 8520SOL     OW36238   1.515   6.198   1.126 -0.3521 -0.5069  0.9437
 8520SOL    HW136239   1.469   6.248   1.200 -1.4149 -0.3583  0.1896
 8520SOL    HW236240   1.566   6.121   1.166 -0.3641 -0.0313  1.9002
 8521SOL     OW36241   3.589   9.896   2.670 -0.3299  0.0354 -0.2589
 8521SOL    HW136242   3.620   9.984   2.706 -1.8297  0.2997  0.4427
 8521SOL    HW236243   3.536   9.911   2.587  0.4632 -0.3211 -0.8389
 8522SOL     OW36244   4.810   1.127   3.966 -0.0485  0.0333  0.2100
 8522SOL    HW136245   4.864   1.061   3.913  2.3955 -0.5488  3.3194
 8522SOL    HW236246   4.728   1.082   4.001 -0.2280 -0.3340 -0.6525
 8523SOL     OW36247   9.822   1.737   4.148 -0.0406 -0.2158  0.3666
 8523SOL    HW136248   9.727   1.754   4.172  0.1656  1.2283  0.1842
 8523SOL    HW236249   9.881   1.801   4.197  0.7406 -0.3085 -0.4377
 8524SOL     OW36250   0.302   5.803   3.510  0.1018  0.5389 -0.6824
 8524SOL    HW136251   0.268   5.743   3.582  1.3397 -0.7813 -1.1860
 8524SOL    HW236252   0.231   5.815   3.441 -1.3386  2.3269  1.0238
 8525SOL     OW36253   0.674   2.694   1.647  0.2970 -0.7802 -0.2826
 8525SOL    HW136254   0.760   2.656   1.681 -0.5787 -3.2108 -0.6680
 8525SOL    HW236255   0.693   2.756   1.570  1.8002 -0.0244  0.6738
 8526SOL     OW36256   9.058   7.221   2.493 -0.3087 -0.2557  0.1732
 8526SOL    HW136257   8.987   7.255   2.432 -0.5236 -0.9181  0.0470
 8526SOL    HW236258   9.137   7.283   2.492 -0.2258 -0.3814 -0.9389
 8527SOL     OW36259   9.375   1.978   2.414  0.0219 -0.1607 -0.4728
 8527SOL    HW136260   9.401   2.018   2.326  0.0973  0.7958 -0.0240
 8527SOL    HW236261   9.458   1.953   2.464  0.0430  1.1742  0.1764
 8528SOL     OW36262   2.006   8.064   4.052  0.4783 -0.2129  0.7980
 8528SOL    HW136263   2.081   8.053   4.116  1.8366 -4.3107 -1.2924
 8528SOL    HW236264   1.988   7.977   4.006 -4.1162  1.1994 -0.3820
 8529SOL     OW36265   4.690   0.178   1.637  0.2378  0.0804  0.3014
 8529SOL    HW136266   4.771   0.126   1.607  0.9444  1.9957 -1.1796
 8529SOL    HW236267   4.693   0.270   1.598 -2.7636  0.1313  0.1045
 8530SOL     OW36268   8.921   1.905   0.696 -0.5110 -0.1581 -0.0978
 8530SOL    HW136269   8.832   1.950   0.696 -0.1083  0.6455 -0.9069
 8530SOL    HW236270   8.983   1.953   0.634  0.3065 -1.0694  0.0006
 8531SOL     OW36271   2.145   2.302   1.461  0.1330  0.2213 -0.5110
 8531SOL    HW136272   2.162   2.219   1.514 -1.5141  1.0478  1.4015
 8531SOL    HW236273   2.103   2.278   1.374 -1.6942 -0.9161  0.6401
 8532SOL     OW36274   8.301   4.614   1.677  0.1953 -0.8730  0.3037
 8532SOL    HW136275   8.309   4.539   1.612  0.9388  0.8791 -1.6913
 8532SOL    HW236276   8.385   4.622   1.731  0.7654 -0.4429 -0.6429
 8533SOL     OW36277   2.681   9.817   0.039  0.8657  0.0833  0.6446
 8533SOL    HW136278   2.656   9.784  -0.052  2.0183  0.3200  0.2322
 8533SOL    HW236279   2.655   9.913   0.047 -0.2405 -0.2425  0.9616
 8534SOL     OW36280   0.749   9.979   1.647 -0.9462 -0.0352 -0.0689
 8534SOL    HW136281   0.681  10.034   1.695  0.3776  0.9721  0.6967
 8534SOL    HW236282   0.784  10.030   1.568 -1.0243 -0.5174 -0.4196
 8535SOL     OW36283   7.972   6.543   2.870  0.1429 -0.4115  0.1932
 8535SOL    HW136284   7.894   6.601   2.847 -0.7353 -1.3721  0.6980
 8535SOL    HW236285   7.960   6.505   2.962  2.6148  1.7500  1.4601
 8536SOL     OW36286   8.363   7.656   1.000  0.0916 -0.3641  0.1093
 8536SOL    HW136287   8.348   7.753   1.016  0.9672 -0.2974  0.5160
 8536SOL    HW236288   8.296   7.603   1.052 -0.1993  0.0082  0.1170
 8537SOL     OW36289   0.478   0.614   1.156  0.0224 -0.3450 -0.2668
 8537SOL    HW136290   0.492   0.655   1.246  0.1310 -0.2428 -0.3310
 8537SOL    HW236291   0.380   0.604   1.139  0.0112 -2.2091  0.7056
 8538SOL     OW36292   8.939   6.761   4.240 -0.1438 -0.5294  0.2365
 8538SOL    HW136293   9.035   6.768   4.212 -0.2465 -1.7902 -0.4690
 8538SOL    HW236294   8.933   6.766   4.340  0.6797 -0.7050  0.3006
 8539SOL     OW36295   2.589   2.353   1.166  0.7643 -0.6383 -0.3485
 8539SOL    HW136296   2.624   2.259   1.164  0.3659 -0.7832 -2.4903
 8539SOL    HW236297   2.504   2.356   1.218 -0.2999 -1.8992 -1.9417
 8540SOL     OW36298   4.492   9.063   1.492 -0.1766 -0.0549  0.2650
 8540SOL    HW136299   4.530   9.108   1.411  0.2189 -0.7495  0.0632
 8540SOL    HW236300   4.484   9.130   1.566 -0.8697  0.6607 -0.4546
 8541SOL     OW36301   2.342   7.765   1.553  0.5348  0.1695  0.0769
 8541SOL    HW136302   2.311   7.684   1.602 -2.6259  1.4583  0.3707
 8541SOL    HW236303   2.310   7.761   1.458 -0.1105  1.2834  0.2354
 8542SOL     OW36304   8.098   4.679   0.517  0.4110  0.2711  0.0682
 8542SOL    HW136305   8.145   4.605   0.469 -1.7957 -1.6182  0.7300
 8542SOL    HW236306   8.159   4.718   0.586  1.8858 -0.3993 -0.8422
 8543SOL     OW36307   8.691   4.150   4.618 -0.3157  0.0657 -0.3956
 8543SOL    HW136308   8.703   4.066   4.564  0.3555 -1.2918  1.8037
 8543SOL    HW236309   8.623   4.208   4.573 -1.4058 -2.0221 -1.5447
 8544SOL     OW36310   0.238   2.827   4.175  0.4666  0.3185  0.5228
 8544SOL    HW136311   0.173   2.820   4.099  0.4378 -0.8227  0.6448
 8544SOL    HW236312   0.189   2.835   4.261  0.3913 -3.4929  0.9211
 8545SOL     OW36313   0.096   0.077   2.270  0.4122 -0.1651 -0.0218
 8545SOL    HW136314   0.062   0.142   2.202  0.8210 -0.8945 -0.9401
 8545SOL    HW236315   0.135  -0.003   2.223  1.5106 -0.2780  1.0587
 8546SOL     OW36316   9.845   0.029   1.511 -0.8292 -0.3207  0.4618
 8546SOL    HW136317   9.779   0.045   1.438 -0.7821 -2.3930 -0.0645
 8546SOL    HW236318   9.797  -0.002   1.593 -0.8000  1.2223  1.0775
 8547SOL     OW36319   4.552   3.186   1.325 -0.1128 -0.1123 -0.7041
 8547SOL    HW136320   4.528   3.104   1.377  1.1363 -0.2044 -0.2633
 8547SOL    HW236321   4.630   3.167   1.266 -1.7675 -0.1242 -2.9632
 8548SOL     OW36322   0.566   5.656   2.375  0.6878  0.4556 -0.1733
 8548SOL    HW136323   0.647   5.606   2.345 -0.9310 -1.8323 -0.7831
 8548SOL    HW236324   0.505   5.671   2.298 -0.5290  0.1647  0.7104
 8549SOL     OW36325   1.068   0.413   0.209 -0.2788  0.2318  0.2017
 8549SOL    HW136326   1.071   0.502   0.255  0.7791  0.2597  0.0769
 8549SOL    HW236327   1.112   0.420   0.119  0.0032 -0.4733  0.2827
 8550SOL     OW36328   3.537   9.643   1.729 -0.2999 -0.0029 -0.5622
 8550SOL    HW136329   3.572   9.664   1.820 -0.0616 -1.0562 -0.4050
 8550SOL    HW236330   3.594   9.572   1.687  0.4716  1.5109 -2.1159
 8551SOL     OW36331   7.602   9.683   3.446 -0.4251  0.3240  0.7308
 8551SOL    HW136332   7.645   9.692   3.536  0.5483 -1.6828  0.4998
 8551SOL    HW236333   7.507   9.713   3.451 -0.6609 -0.6600  2.6544
 8552SOL     OW36334   7.901   1.691   4.275 -0.2447  0.2256  0.3093
 8552SOL    HW136335   7.873   1.613   4.220 -1.8654  0.7178  0.3990
 8552SOL    HW236336   7.911   1.772   4.217  0.9018  0.0887  0.3005
 8553SOL     OW36337   8.449   3.322   4.198 -0.1142 -0.2133 -0.1597
 8553SOL    HW136338   8.508   3.285   4.127 -1.7498  0.3046 -1.8437
 8553SOL    HW236339   8.355   3.290   4.184 -0.5955  0.4665  1.3548
 8554SOL     OW36340   1.075   3.932   0.196 -0.6719  0.1182 -0.0112
 8554SOL    HW136341   1.093   4.028   0.174  0.2592  0.0441  0.4110
 8554SOL    HW236342   1.143   3.900   0.261 -1.3769 -0.6443  0.3570
 8555SOL     OW36343   4.066   0.418   1.800  1.2961  0.1397 -0.4090
 8555SOL    HW136344   4.150   0.453   1.759  1.2419  0.1268 -0.5326
 8555SOL    HW236345   4.040   0.332   1.755 -0.3832  1.6276 -2.3991
 8556SOL     OW36346   0.261   3.662   3.227 -0.6336 -0.1375 -0.3401
 8556SOL    HW136347   0.275   3.598   3.303 -0.6075 -0.6229 -0.7477
 8556SOL    HW236348   0.298   3.752   3.251 -0.0821 -0.4498 -0.0112
 8557SOL     OW36349   0.064   3.474   1.750  0.9450  0.1284  0.0207
 8557SOL    HW136350   0.073   3.415   1.829 -1.4645 -0.6672 -0.2632
 8557SOL    HW236351   0.053   3.569   1.780 -1.0191 -0.2989  0.7009
 8558SOL     OW36352   0.912   6.563   1.511  0.5914  0.1841 -0.0839
 8558SOL    HW136353   0.917   6.569   1.411  1.4443  1.4390  0.0192
 8558SOL    HW236354   0.832   6.614   1.543 -0.7238 -1.7138 -0.2246
 8559SOL     OW36355   3.022   4.315   1.222 -0.2309  0.1708  0.1770
 8559SOL    HW136356   3.107   4.310   1.170 -0.6061  0.1899 -0.4365
 8559SOL    HW236357   3.028   4.392   1.287 -0.1846  0.8266 -0.5937
 8560SOL     OW36358   9.738   0.107   3.476 -0.5253  0.6103  0.0936
 8560SOL    HW136359   9.678   0.140   3.549 -0.4963 -2.8513  1.8212
 8560SOL    HW236360   9.830   0.094   3.512 -0.0369  0.6822 -1.0932
 8561SOL     OW36361   7.546   9.481   4.655  0.1930 -0.1506  0.8120
 8561SOL    HW136362   7.539   9.381   4.654  0.8220 -0.1898  0.2285
 8561SOL    HW236363   7.623   9.508   4.713  2.7204 -0.1847 -2.3892
 8562SOL     OW36364   1.387   7.875   0.835 -0.7135 -0.0186 -0.2618
 8562SOL    HW136365   1.363   7.948   0.899 -0.3979 -0.7352  0.6825
 8562SOL    HW236366   1.396   7.913   0.743  1.9253  1.6336  0.6109
 8563SOL     OW36367   4.061   8.697   2.775 -0.1317 -0.3304 -0.9014
 8563SOL    HW136368   4.095   8.765   2.840 -1.7879 -0.6178  0.2905
 8563SOL    HW236369   3.963   8.709   2.762 -0.3672 -2.2222 -1.0153
 8564SOL     OW36370   5.808   0.849   2.502 -0.6637  0.0530  0.3246
 8564SOL    HW136371   5.902   0.873   2.479 -0.5945 -0.5943 -0.0756
 8564SOL    HW236372   5.807   0.789   2.582 -0.7234 -0.2008  0.1313
 8565SOL     OW36373   9.353   5.230   1.660  0.0870  0.0877 -0.2634
 8565SOL    HW136374   9.327   5.172   1.737  1.5378  0.9316  0.8918
 8565SOL    HW236375   9.381   5.172   1.584 -1.6771 -0.7567 -0.2851
 8566SOL     OW36376   9.225   6.377   4.499 -0.1826  0.0168 -0.3445
 8566SOL    HW136377   9.287   6.449   4.530 -0.4592  0.2336 -0.2927
 8566SOL    HW236378   9.191   6.326   4.578 -0.6897  0.4059 -0.3108
 8567SOL     OW36379   2.261   4.891   0.846 -0.0251 -0.5100 -0.7675
 8567SOL    HW136380   2.177   4.907   0.896  1.2626 -1.9045  1.9286
 8567SOL    HW236381   2.251   4.808   0.790 -0.2107 -1.0543  0.0708
 8568SOL     OW36382   8.410   6.794   3.525 -0.0898 -0.1181  0.3887
 8568SOL    HW136383   8.459   6.861   3.581  0.0336  1.8010 -1.9404
 8568SOL    HW236384   8.323   6.771   3.570  1.3140 -0.9485  2.8292
 8569SOL     OW36385   4.176   2.729   2.739  0.0391 -0.1598  0.2896
 8569SOL    HW136386   4.206   2.658   2.675 -2.8654 -0.4256 -0.8302
 8569SOL    HW236387   4.141   2.807   2.687  1.3470  1.2934  1.5357
 8570SOL     OW36388   0.899   2.447   4.199 -0.2529  0.4816 -0.2013
 8570SOL    HW136389   0.899   2.377   4.128 -0.8090 -1.8132  2.0279
 8570SOL    HW236390   0.993   2.464   4.229 -0.2803 -0.6505  0.5410
 8571SOL     OW36391   8.568   4.174   2.787  0.0481 -0.4613 -0.1892
 8571SOL    HW136392   8.509   4.174   2.706 -0.3013  0.3359  0.0594
 8571SOL    HW236393   8.663   4.159   2.759  0.3011  2.3504 -1.0418
 8572SOL     OW36394   1.434   1.844   3.478 -0.0138 -0.4111 -0.6721
 8572SOL    HW136395   1.442   1.819   3.381 -1.7879  0.0917 -0.9743
 8572SOL    HW236396   1.341   1.877   3.496  0.1990 -0.8209  1.2859
 8573SOL     OW36397   0.499   9.827   0.146  0.3045 -0.0658  0.1317
 8573SOL    HW136398   0.490   9.853   0.050 -0.3047  0.5262  0.3402
 8573SOL    HW236399   0.460   9.899   0.204  1.0083 -0.2448  0.8402
 8574SOL     OW36400   3.966   0.971   1.328  0.1241 -0.2825 -0.2677
 8574SOL    HW136401   3.945   0.907   1.253 -1.6771 -0.9791  0.7887
 8574SOL    HW236402   3.919   1.057   1.311 -0.2988 -0.4468  0.0678
 8575SOL     OW36403   7.964   1.307   0.021  0.1957  0.0863 -0.2624
 8575SOL    HW136404   8.009   1.374   0.080  0.7149 -0.7491  0.3144
 8575SOL    HW236405   7.865   1.310   0.036  0.1988  0.8633 -0.3960
 8576SOL     OW36406   4.483   2.056   2.189 -0.7885  0.4074  0.1827
 8576SOL    HW136407   4.479   2.150   2.154  1.2668 -0.3421 -2.2240
 8576SOL    HW236408   4.522   2.056   2.281 -1.2304  1.9403  0.3848
 8577SOL     OW36409   0.949   6.041   3.851 -0.1582  0.0316  0.5072
 8577SOL    HW136410   0.895   6.113   3.894 -1.7305 -0.6696 -0.2525
 8577SOL    HW236411   0.954   6.057   3.753 -0.8921 -1.1297  0.2740
 8578SOL     OW36412   6.498   0.339   2.544 -0.1024  0.2171  0.1381
 8578SOL    HW136413   6.401   0.335   2.520 -0.1120 -0.0900  0.2259
 8578SOL    HW236414   6.523   0.256   2.594  0.0359  0.6186  0.7406
 8579SOL     OW36415   2.442   0.199   0.559 -0.5786  0.4567 -0.3581
 8579SOL    HW136416   2.537   0.173   0.571 -0.3202  2.5633  2.8249
 8579SOL    HW236417   2.385   0.147   0.624 -1.2606  1.0012 -0.5194
 8580SOL     OW36418   8.051   8.512   3.663  0.3071 -0.2209  0.0756
 8580SOL    HW136419   8.031   8.536   3.758  2.3625  0.6824  0.3076
 8580SOL    HW236420   7.971   8.533   3.606 -0.1468  1.3500  1.2542
 8581SOL     OW36421   1.128   6.026   0.825  0.2919  0.3417 -0.2787
 8581SOL    HW136422   1.178   6.060   0.903 -0.2409  0.5678 -0.0318
 8581SOL    HW236423   1.128   5.926   0.826  0.4141  0.3447 -0.0771
 8582SOL     OW36424   9.163   5.895   2.023  0.1218  0.2841  0.2633
 8582SOL    HW136425   9.195   5.880   1.930  0.4760  0.0738  0.4164
 8582SOL    HW236426   9.135   5.808   2.063 -1.6429  0.6170 -0.2276
 8583SOL     OW36427   3.154   0.176   0.420  0.3051  0.0091 -0.1589
 8583SOL    HW136428   3.188   0.251   0.475 -1.8866  0.0885  1.1613
 8583SOL    HW236429   3.057   0.191   0.399 -0.3532 -2.7073  0.6745
 8584SOL     OW36430   7.053   6.580   2.471 -0.6335 -0.2680  0.6696
 8584SOL    HW136431   7.017   6.539   2.555 -2.5054 -0.1423 -0.0474
 8584SOL    HW236432   7.079   6.675   2.490 -0.1712 -0.5109  1.3105
 8585SOL     OW36433   1.627   8.984   1.067  0.7143  0.3966 -0.1468
 8585SOL    HW136434   1.573   8.902   1.049 -2.6284  2.2369  1.0598
 8585SOL    HW236435   1.668   9.017   0.982 -2.0146  0.2316 -1.5800
 8586SOL     OW36436   8.287   5.253   0.230  0.3179 -0.0754  0.7598
 8586SOL    HW136437   8.240   5.341   0.230  1.2335  0.4438  2.9707
 8586SOL    HW236438   8.248   5.194   0.159 -1.3117  1.5594  0.2648
 8587SOL     OW36439   1.896   1.970   3.842 -0.1248  0.1110 -0.0563
 8587SOL    HW136440   1.919   2.067   3.842 -0.4113  0.1843 -0.9352
 8587SOL    HW236441   1.919   1.930   3.753  0.9613 -0.8628  0.6511
 8588SOL     OW36442   2.879   0.678   3.941 -0.1033  0.2846 -0.1930
 8588SOL    HW136443   2.868   0.730   4.025  0.9781 -0.7101  0.5775
 8588SOL    HW236444   2.968   0.700   3.899 -1.2422  1.8829 -1.8727
 8589SOL     OW36445   0.420   8.828   4.480  0.1418 -0.0155 -0.0188
 8589SOL    HW136446   0.395   8.878   4.397 -1.1415 -0.0368  0.3387
 8589SOL    HW236447   0.513   8.793   4.472  1.2062  2.7490 -0.1415
 8590SOL     OW36448   0.155   3.025   3.881  0.4399 -0.3669  0.3865
 8590SOL    HW136449   0.068   3.068   3.855  1.0148 -0.0769 -1.0786
 8590SOL    HW236450   0.137   2.930   3.908 -0.1560 -0.7219 -1.2361
 8591SOL     OW36451   0.206   8.479   4.406  0.1554  0.2046 -0.3065
 8591SOL    HW136452   0.285   8.485   4.467  0.2792  0.7620 -0.5203
 8591SOL    HW236453   0.136   8.423   4.448  0.7236 -0.4126 -0.1762
 8592SOL     OW36454   0.260   4.839   1.714  0.1289 -0.3280  0.2205
 8592SOL    HW136455   0.355   4.869   1.703  0.2278 -0.3237  1.0618
 8592SOL    HW236456   0.239   4.829   1.811 -0.4673 -1.1764  0.0177
 8593SOL     OW36457   8.439   9.204   0.755 -0.2664 -0.0801 -0.3182
 8593SOL    HW136458   8.397   9.115   0.739 -1.0827  0.3383 -0.5411
 8593SOL    HW236459   8.406   9.241   0.842  0.9504 -0.5008  0.3319
 8594SOL     OW36460   8.911   7.322   3.281  0.2901  0.0082 -0.1314
 8594SOL    HW136461   8.996   7.343   3.233  1.6709 -1.7995  1.4305
 8594SOL    HW236462   8.932   7.297   3.376 -1.7625 -2.4202 -0.2535
 8595SOL     OW36463   9.190   1.847   3.955 -0.0692  0.0674 -0.3319
 8595SOL    HW136464   9.183   1.839   4.054  1.8545 -0.9396 -0.2518
 8595SOL    HW236465   9.104   1.882   3.918 -1.2896 -0.8838  1.5453
 8596SOL     OW36466   3.549   0.737   0.833 -0.2632 -0.3041 -0.4806
 8596SOL    HW136467   3.450   0.755   0.834 -0.3466 -0.5952 -1.7816
 8596SOL    HW236468   3.568   0.661   0.771  0.9233  0.6975 -1.3924
 8597SOL     OW36469   3.999   9.925   0.570  0.4496 -0.8097  0.6490
 8597SOL    HW136470   4.089   9.889   0.546  0.4087  0.0775 -0.9241
 8597SOL    HW236471   3.949   9.948   0.486 -0.0268  1.6147  1.5581
 8598SOL     OW36472   9.975   6.548   0.754  0.6392  0.0018  0.9327
 8598SOL    HW136473   9.965   6.597   0.667  0.7231  1.2092  1.6000
 8598SOL    HW236474  10.058   6.492   0.751  0.5378 -0.1255  0.1731
 8599SOL     OW36475   2.632   0.622   2.191 -0.2012  0.0389  0.6035
 8599SOL    HW136476   2.552   0.632   2.131  0.5098  0.1917 -0.3349
 8599SOL    HW236477   2.677   0.711   2.201  0.4923 -0.2674  0.2202
 8600SOL     OW36478   1.005   6.725   0.677 -0.0837  0.1719  0.2658
 8600SOL    HW136479   1.039   6.641   0.719 -0.2525 -0.4730 -0.8752
 8600SOL    HW236480   1.041   6.733   0.584  1.4445  2.3074  0.9954
 8601SOL     OW36481   8.265   2.135   0.140 -0.7377 -0.1867  0.1056
 8601SOL    HW136482   8.321   2.141   0.223  0.1921 -0.9913 -0.4537
 8601SOL    HW236483   8.210   2.052   0.142 -0.5283 -0.3352 -0.1911
 8602SOL     OW36484   3.806   7.958   4.618  0.1387  0.1659 -0.4226
 8602SOL    HW136485   3.707   7.953   4.609  0.2133 -1.8364 -0.3450
 8602SOL    HW236486   3.838   8.049   4.592 -1.8454  1.2585  0.8694
 8603SOL     OW36487   1.374   9.733   0.129 -0.4488 -0.3904  0.2477
 8603SOL    HW136488   1.383   9.721   0.228  1.8372 -1.9822 -0.0889
 8603SOL    HW236489   1.436   9.806   0.098 -0.5839 -0.4184 -0.0932
 8604SOL     OW36490   7.525   2.880   0.083 -0.5858 -0.4846  0.2717
 8604SOL    HW136491   7.532   2.797   0.027  1.8828 -1.4586  1.9335
 8604SOL    HW236492   7.603   2.940   0.064 -1.3551  0.5859  0.4605
 8605SOL     OW36493   9.781   0.283   3.823 -0.2927  0.5814 -0.7007
 8605SOL    HW136494   9.878   0.265   3.811 -0.5175 -1.6563  0.5155
 8605SOL    HW236495   9.768   0.376   3.857  1.6183  0.0648  1.5487
 8606SOL     OW36496   8.206   3.194   0.045  0.1644  0.8009  0.3072
 8606SOL    HW136497   8.227   3.277   0.098 -0.6289  0.5270  1.0481
 8606SOL    HW236498   8.193   3.117   0.107 -1.7427  0.6875 -0.2203
 8607SOL     OW36499   3.756   0.854   4.749 -0.4791 -0.3070  0.0547
 8607SOL    HW136500   3.760   0.850   4.649  3.1379  0.4189  0.1068
 8607SOL    HW236501   3.838   0.811   4.787 -0.5718  1.7359  2.6487
 8608SOL     OW36502   4.202   4.234   4.419  0.3403  0.4552 -0.2308
 8608SOL    HW136503   4.104   4.241   4.433  0.4765 -0.4726  1.3304
 8608SOL    HW236504   4.221   4.220   4.322 -1.1058  0.0334 -0.4634
 8609SOL     OW36505   0.075   3.590   0.521 -0.2431  0.2754  0.3067
 8609SOL    HW136506   0.103   3.636   0.606  0.2681  0.6377 -0.0532
 8609SOL    HW236507   0.150   3.593   0.455 -1.4254  2.1341 -1.0297
 8610SOL     OW36508   9.116   8.744   1.740 -0.0486 -0.3483 -0.3491
 8610SOL    HW136509   9.050   8.788   1.679 -0.0992 -1.2638 -0.9767
 8610SOL    HW236510   9.204   8.792   1.735 -0.7423  1.0830  0.7427
 8611SOL     OW36511   2.223   9.707   4.220  0.4253 -0.1517  0.5234
 8611SOL    HW136512   2.279   9.790   4.221 -0.7496  0.6461  1.1943
 8611SOL    HW236513   2.132   9.727   4.257 -0.8857 -1.0307 -2.0891
 8612SOL     OW36514   8.056   1.669   1.732 -0.0509  0.4467 -0.3749
 8612SOL    HW136515   8.110   1.647   1.650  0.1877  1.0269 -0.3800
 8612SOL    HW236516   8.104   1.636   1.813 -0.3766 -0.2943 -0.4789
 8613SOL     OW36517   8.360   4.920   4.020  1.0497  0.4168  0.0271
 8613SOL    HW136518   8.321   4.884   3.935  0.5861  1.4361 -0.1990
 8613SOL    HW236519   8.432   4.987   3.998  1.3836  0.2006  0.4450
 8614SOL     OW36520   1.878   5.591   3.281  1.0300  0.1711  0.0390
 8614SOL    HW136521   1.844   5.508   3.324 -0.9091  0.6346 -0.5414
 8614SOL    HW236522   1.863   5.586   3.182  1.8556  0.7603 -0.1220
 8615SOL     OW36523   9.106   1.758   0.210  0.6929 -0.0147 -0.1760
 8615SOL    HW136524   9.101   1.681   0.272 -2.2974  0.4278  0.1832
 8615SOL    HW236525   9.038   1.748   0.138  0.0910  2.3810  0.0042
 8616SOL     OW36526   0.826   5.724   0.764  0.2729  0.2283 -0.3611
 8616SOL    HW136527   0.733   5.688   0.768  0.0490  0.8953  0.4699
 8616SOL    HW236528   0.862   5.735   0.856  0.8530  0.8282 -0.6549
 8617SOL     OW36529   7.537   1.421   2.324  0.1508 -0.0239 -0.0383
 8617SOL    HW136530   7.464   1.473   2.368  0.2225  0.2272 -0.2183
 8617SOL    HW236531   7.563   1.344   2.383 -1.8490 -1.4850 -0.9957
 8618SOL     OW36532   0.321   4.923   2.492 -0.3310  0.1319  0.0064
 8618SOL    HW136533   0.289   4.991   2.558 -0.3941 -0.9830  1.1370
 8618SOL    HW236534   0.349   4.970   2.407 -0.8467  1.5091  0.5785
 8619SOL     OW36535   2.452   5.584   4.314 -0.5284 -0.1715 -0.0826
 8619SOL    HW136536   2.367   5.612   4.269 -1.3703 -1.9920  0.3237
 8619SOL    HW236537   2.448   5.608   4.411 -0.9470 -0.9923  0.1119
 8620SOL     OW36538   9.931   4.369   3.261 -0.0677  0.3227 -0.4872
 8620SOL    HW136539   9.869   4.361   3.339 -0.1475 -2.0815 -0.7607
 8620SOL    HW236540  10.014   4.417   3.289 -0.3210 -0.0336  0.9340
 8621SOL     OW36541   8.132   9.334   3.269 -0.2196 -0.3506 -0.1782
 8621SOL    HW136542   8.099   9.254   3.319 -0.4430  0.3911  0.8823
 8621SOL    HW236543   8.146   9.409   3.333 -1.0104  0.7819 -1.3168
 8622SOL     OW36544   2.308   1.320   3.702 -0.0114 -0.0729 -0.2130
 8622SOL    HW136545   2.266   1.254   3.640  1.9375 -0.2238 -1.4059
 8622SOL    HW236546   2.281   1.412   3.676 -0.3064 -0.2172 -0.4171
 8623SOL     OW36547   2.041   5.303   1.659 -0.4627 -0.3746 -0.4799
 8623SOL    HW136548   2.023   5.269   1.751 -0.6962  0.9367 -0.0482
 8623SOL    HW236549   2.123   5.258   1.623 -0.3936 -0.9159  0.3419
 8624SOL     OW36550   3.355   1.352   4.744 -0.1211  0.4604  0.7879
 8624SOL    HW136551   3.418   1.335   4.668  0.1245 -0.3417  1.1586
 8624SOL    HW236552   3.370   1.284   4.815 -1.4502  0.2095  0.8535
 8625SOL     OW36553   4.414   0.907   4.245 -0.1102  0.1794 -0.0450
 8625SOL    HW136554   4.481   0.936   4.177 -0.2812  0.3209 -0.1550
 8625SOL    HW236555   4.440   0.818   4.282 -0.0138  0.1023 -0.2951
 8626SOL     OW36556   0.731   5.878   2.870 -0.4840 -0.2487 -0.0843
 8626SOL    HW136557   0.728   5.786   2.909 -0.6052 -0.6430 -1.0214
 8626SOL    HW236558   0.719   5.946   2.943 -0.1524 -0.9677  0.6391
 8627SOL     OW36559   1.273   9.361   1.850 -0.0333 -0.4686 -0.0333
 8627SOL    HW136560   1.193   9.302   1.861 -0.9645  0.7880  0.1316
 8627SOL    HW236561   1.310   9.351   1.758  0.1710 -1.7367  0.1818
 8628SOL     OW36562   4.933   8.179   1.113 -0.0853  0.3153 -0.1000
 8628SOL    HW136563   4.841   8.209   1.084  1.3723  4.5032 -0.8355
 8628SOL    HW236564   4.957   8.223   1.199  0.8546 -1.5793  0.6280
 8629SOL     OW36565   9.246   7.751   3.607 -0.3540  0.5815 -0.3934
 8629SOL    HW136566   9.345   7.760   3.605 -0.1017 -1.7450 -0.4543
 8629SOL    HW236567   9.211   7.750   3.513 -0.4455  1.4487 -0.3704
 8630SOL     OW36568   2.692   5.526   1.318  0.1325 -0.1142  0.3063
 8630SOL    HW136569   2.735   5.478   1.395  0.2915 -0.0079  0.2853
 8630SOL    HW236570   2.597   5.547   1.341  0.7661  1.7847  1.3343
 8631SOL     OW36571   4.296   7.196   4.442  0.0102 -0.1132 -0.0442
 8631SOL    HW136572   4.351   7.116   4.465  1.4079  0.6383 -0.6506
 8631SOL    HW236573   4.339   7.278   4.480 -1.0440  0.4278  0.0034
 8632SOL     OW36574   0.383   4.512   2.081  0.4303  0.3153 -0.0619
 8632SOL    HW136575   0.307   4.545   2.024  0.2927  0.4911  0.2190
 8632SOL    HW236576   0.453   4.582   2.087 -1.2718  1.8650  3.1182
 8633SOL     OW36577   0.058   0.817   3.254  0.0636 -0.6386  0.4547
 8633SOL    HW136578   0.025   0.856   3.340  1.0791 -0.2412  0.6735
 8633SOL    HW236579   0.097   0.727   3.271 -0.8249 -1.0756  0.2086
 8634SOL     OW36580   4.464   7.900   0.780 -0.0988 -0.0665 -0.8428
 8634SOL    HW136581   4.560   7.872   0.782  0.3089  1.2237 -2.1635
 8634SOL    HW236582   4.407   7.822   0.756  0.6360 -0.7626 -0.3508
 8635SOL     OW36583   7.840   7.762   2.295  0.1001  0.3938 -0.2028
 8635SOL    HW136584   7.851   7.738   2.199  1.3233  0.2104 -0.0177
 8635SOL    HW236585   7.788   7.847   2.302 -2.2446 -0.9345 -0.9348
 8636SOL     OW36586   3.327   2.955   1.110 -0.3141  0.3216  0.6208
 8636SOL    HW136587   3.248   2.989   1.161 -0.2903  1.3836 -0.0320
 8636SOL    HW236588   3.390   2.910   1.173 -1.6225 -0.8981  1.0942
 8637SOL     OW36589   2.725   5.440   0.091  0.2138 -0.0920  0.3230
 8637SOL    HW136590   2.731   5.448  -0.009  2.1441  1.2645  0.5190
 8637SOL    HW236591   2.736   5.344   0.117  1.6379 -0.2187 -0.6825
 8638SOL     OW36592   0.957   8.605   3.746 -0.1408  0.6858 -0.1783
 8638SOL    HW136593   0.913   8.524   3.784 -1.4305  1.0769 -0.7881
 8638SOL    HW236594   0.984   8.667   3.820 -1.4185  0.8315  0.1742
 8639SOL     OW36595   4.755   8.077   1.433 -0.5373 -0.0324 -0.2608
 8639SOL    HW136596   4.688   8.044   1.500  1.0939 -0.4654  1.1804
 8639SOL    HW236597   4.845   8.084   1.476  0.7011 -1.0412 -2.6128
 8640SOL     OW36598   8.756   9.864   2.216  0.0161 -0.1310 -0.3078
 8640SOL    HW136599   8.822   9.809   2.165  1.1467  1.7205 -0.8724
 8640SOL    HW236600   8.666   9.856   2.174  0.2221 -1.3542 -0.5235
 8641SOL     OW36601   7.415   7.073   2.627 -0.1362  0.4170 -0.0836
 8641SOL    HW136602   7.448   7.159   2.587  1.7743 -0.7277 -1.0617
 8641SOL    HW236603   7.320   7.058   2.602 -0.0585  1.5613 -1.0849
 8642SOL     OW36604   9.535   7.076   0.907  0.2013 -0.2364 -0.5553
 8642SOL    HW136605   9.575   7.110   0.992  0.3250  2.0233 -1.4864
 8642SOL    HW236606   9.605   7.071   0.837 -0.2947 -0.2842 -1.0520
 8643SOL     OW36607   4.049   7.013   3.334  0.7791  0.1507  0.1850
 8643SOL    HW136608   4.035   7.035   3.238 -1.1965  3.1244  1.0580
 8643SOL    HW236609   4.143   7.035   3.360  1.9333 -2.6361 -1.5158
 8644SOL     OW36610   8.481   6.847   1.256  0.3537  0.5136 -0.2483
 8644SOL    HW136611   8.444   6.860   1.348 -0.2505  0.4417 -0.4834
 8644SOL    HW236612   8.425   6.781   1.206  2.3843 -1.7638  0.3438
 8645SOL     OW36613   6.528   9.069   2.100  0.0327  0.2912  0.1656
 8645SOL    HW136614   6.526   9.152   2.155  3.2597  1.2222 -1.0070
 8645SOL    HW236615   6.607   9.014   2.125 -1.4891 -1.9750  0.1894
 8646SOL     OW36616   2.718   0.244   0.851  0.0359 -0.4521  0.3924
 8646SOL    HW136617   2.662   0.323   0.824 -0.4698 -1.4557 -1.6609
 8646SOL    HW236618   2.673   0.160   0.819  1.6983 -1.4085  0.5238
 8647SOL     OW36619   3.443   2.101   4.677  0.8376 -0.2437 -0.3998
 8647SOL    HW136620   3.410   2.007   4.690 -2.5941  1.0475  0.5831
 8647SOL    HW236621   3.475   2.137   4.764  0.0412  0.2727 -0.3206
 8648SOL     OW36622   3.455   0.174   4.551  0.0087 -0.0489 -0.5292
 8648SOL    HW136623   3.538   0.197   4.602  0.8691 -2.9530 -0.4917
 8648SOL    HW236624   3.400   0.110   4.604 -1.9642  1.3434 -0.8462
 8649SOL     OW36625   9.269   5.514   1.705  0.4911  0.5406  0.6117
 8649SOL    HW136626   9.173   5.511   1.676  0.3942  1.2664  0.8470
 8649SOL    HW236627   9.321   5.445   1.655 -0.2273 -0.1195  0.7576
 8650SOL     OW36628   1.620   2.433   0.759  0.1864  0.5831  0.3810
 8650SOL    HW136629   1.535   2.483   0.743 -0.9800 -0.9896  1.6440
 8650SOL    HW236630   1.656   2.457   0.849  0.6976  0.6678  0.1575
 8651SOL     OW36631   1.943   9.950   3.124 -0.6605  0.0092 -0.2357
 8651SOL    HW136632   1.982   9.931   3.033 -2.3174  0.1239 -0.9813
 8651SOL    HW236633   2.013   9.935   3.193  1.4408  2.5209 -1.7139
 8652SOL     OW36634   0.824   6.703   1.757 -0.0602 -0.5023  0.4729
 8652SOL    HW136635   0.867   6.616   1.777 -0.3813 -1.1392 -1.4857
 8652SOL    HW236636   0.875   6.777   1.800 -0.1040 -1.6831  2.6106
 8653SOL     OW36637   7.994   3.489   3.130 -0.5905 -0.6506 -0.0009
 8653SOL    HW136638   8.065   3.550   3.097 -0.7035 -0.3464  0.3202
 8653SOL    HW236639   7.909   3.507   3.080 -1.3263  1.2489  1.9105
 8654SOL     OW36640   7.154   9.926   0.829 -0.9508 -0.0185  0.4662
 8654SOL    HW136641   7.238   9.881   0.796 -0.6669  0.7979  0.0697
 8654SOL    HW236642   7.076   9.865   0.815 -0.2382 -1.3328  2.0709
 8655SOL     OW36643   8.706   0.876   3.292 -0.0272  0.1058 -0.0534
 8655SOL    HW136644   8.783   0.916   3.244 -0.1019 -0.1671 -0.4097
 8655SOL    HW236645   8.630   0.941   3.295  0.2177  0.3710  0.2926
 8656SOL     OW36646   9.260   4.689   3.481 -0.1322 -1.0304  0.0544
 8656SOL    HW136647   9.312   4.702   3.396 -0.2322  0.3327  0.1947
 8656SOL    HW236648   9.195   4.764   3.493 -0.1905 -1.2625  1.2971
 8657SOL     OW36649   9.006   0.372   0.406 -0.6933 -0.0157 -0.0129
 8657SOL    HW136650   9.005   0.394   0.504  1.8021 -1.2023  0.3181
 8657SOL    HW236651   8.992   0.274   0.393 -1.9152  0.2586 -0.9259
 8658SOL     OW36652   1.878   9.834   3.818 -0.1178  0.0528 -0.1743
 8658SOL    HW136653   1.935   9.770   3.869  1.4935  1.1441 -0.5728
 8658SOL    HW236654   1.883   9.812   3.720 -2.6926 -1.6355  0.0244
 8659SOL     OW36655   7.819   2.111   3.862  0.6029 -0.0592 -0.6358
 8659SOL    HW136656   7.779   2.186   3.914  0.9606 -0.5251  0.3251
 8659SOL    HW236657   7.831   2.032   3.922  0.7347 -0.7055 -1.5039
 8660SOL     OW36658   8.282   8.229   2.730  0.4212 -0.4278 -0.2388
 8660SOL    HW136659   8.285   8.303   2.664  0.4099 -0.4649 -0.2812
 8660SOL    HW236660   8.368   8.225   2.781  0.3495 -0.2658 -0.1049
 8661SOL     OW36661   8.470   9.123   0.120  0.6898 -0.1247 -0.4184
 8661SOL    HW136662   8.437   9.128   0.026 -0.1006  1.4892 -0.0740
 8661SOL    HW236663   8.570   9.129   0.120  0.7615 -1.1339 -1.2043
 8662SOL     OW36664   0.205   1.022   1.498  0.3385 -0.1972  0.0361
 8662SOL    HW136665   0.265   0.960   1.549  0.8894  1.0336  0.9387
 8662SOL    HW236666   0.148   0.970   1.435  0.9637 -1.5826  0.5913
 8663SOL     OW36667   0.959   5.724   2.413 -0.1290 -0.5567 -0.0585
 8663SOL    HW136668   0.924   5.686   2.499 -1.7962 -0.8823 -0.8628
 8663SOL    HW236669   1.052   5.758   2.427  0.2937 -2.2682  1.4068
 8664SOL     OW36670   8.346   3.281   0.666  1.1204  0.2075  0.3652
 8664SOL    HW136671   8.356   3.257   0.570  0.2148 -1.4893  0.6913
 8664SOL    HW236672   8.430   3.325   0.698  0.8380  2.3184 -1.6145
 8665SOL     OW36673   0.993   0.691   4.476 -0.6209 -0.3223  0.3320
 8665SOL    HW136674   0.971   0.749   4.398 -0.8611  0.2050  0.7874
 8665SOL    HW236675   0.947   0.726   4.558 -0.1716 -0.7240  0.7608
 8666SOL     OW36676   1.519   5.510   4.122  0.4576 -0.4501 -0.1738
 8666SOL    HW136677   1.608   5.523   4.165  0.5689 -0.5678 -0.3704
 8666SOL    HW236678   1.531   5.488   4.025  0.1624  1.1908 -0.5893
 8667SOL     OW36679   0.249   2.634   1.639  0.6473 -0.3164  0.0959
 8667SOL    HW136680   0.283   2.709   1.696  1.4235 -0.9480  0.4739
 8667SOL    HW236681   0.226   2.668   1.548 -0.8011  0.7535  0.8355
 8668SOL     OW36682   2.868   0.569   0.808 -0.0918 -0.1888 -0.1061
 8668SOL    HW136683   2.772   0.554   0.828 -0.8151  2.3197 -1.4795
 8668SOL    HW236684   2.909   0.484   0.775 -1.5572 -1.5257  1.4767
 8669SOL     OW36685   0.810   4.466   1.632 -0.1134  0.3228 -0.4184
 8669SOL    HW136686   0.728   4.413   1.654 -0.5644  0.9239 -0.6490
 8669SOL    HW236687   0.889   4.405   1.632 -0.6237 -0.3495 -0.6593
 8670SOL     OW36688   4.694   1.539   2.739  0.0492 -0.0202  0.0182
 8670SOL    HW136689   4.754   1.460   2.726 -0.5708 -0.2729 -1.3633
 8670SOL    HW236690   4.737   1.621   2.702 -0.8293 -0.3662 -1.8108
 8671SOL     OW36691   3.419   9.595   2.998 -0.0561 -0.8710 -0.2042
 8671SOL    HW136692   3.499   9.555   3.043  0.4246 -2.2461 -2.1887
 8671SOL    HW236693   3.344   9.602   3.063  0.7249 -2.4700  0.8962
 8672SOL     OW36694   5.086   2.388   1.070  0.1782  0.0816 -0.2206
 8672SOL    HW136695   5.117   2.357   0.980  0.1442  2.7569 -1.1937
 8672SOL    HW236696   5.142   2.465   1.100 -0.8052  0.2081  1.3410
 8673SOL     OW36697   2.010   8.766   3.778 -0.2893 -0.1806  0.1659
 8673SOL    HW136698   1.968   8.841   3.831  1.4956  0.9394  0.0293
 8673SOL    HW236699   1.941   8.695   3.761 -1.9075  1.2261  0.6644
 8674SOL     OW36700   3.049   3.151   1.124  0.0398 -0.4481  0.1071
 8674SOL    HW136701   3.046   3.218   1.198  0.9002 -2.2952  1.8884
 8674SOL    HW236702   2.994   3.071   1.150 -0.1953 -0.8386 -1.5529
 8675SOL     OW36703   8.225   1.299   0.340  0.0192  0.0679 -0.7132
 8675SOL    HW136704   8.248   1.205   0.315 -0.9154  0.2538 -2.4160
 8675SOL    HW236705   8.179   1.300   0.429  0.0786 -1.0843 -0.6636
 8676SOL     OW36706   0.106   2.502   3.915 -0.1465 -1.0386  0.3639
 8676SOL    HW136707   0.105   2.448   4.000  1.6589  0.5610  1.4193
 8676SOL    HW236708   0.199   2.508   3.880 -1.1117 -3.4180 -2.9338
 8677SOL     OW36709   3.458   7.222   3.979  0.5942  0.7663  0.5535
 8677SOL    HW136710   3.535   7.277   4.012  1.0240 -0.1029  1.0206
 8677SOL    HW236711   3.465   7.129   4.016  1.4630 -0.4540 -2.5036
 8678SOL     OW36712   0.826   1.086   2.489 -0.4011 -0.0341  0.2656
 8678SOL    HW136713   0.860   1.018   2.423 -1.3946 -0.3556  0.0795
 8678SOL    HW236714   0.839   1.051   2.582  0.0895 -0.0065  0.2111
 8679SOL     OW36715   4.737   9.919   1.373  0.2895  0.4245  0.2205
 8679SOL    HW136716   4.822   9.946   1.418  1.9360  0.2227 -2.6945
 8679SOL    HW236717   4.699   9.998   1.324 -1.1929  0.4789  1.3812
 8680SOL     OW36718   2.786   4.292   2.432  0.2867 -0.1349 -0.2477
 8680SOL    HW136719   2.690   4.266   2.423  0.4710 -0.8078 -0.2776
 8680SOL    HW236720   2.797   4.355   2.509 -0.2530  0.3423 -0.5546
 8681SOL     OW36721   4.374   2.386   2.904 -0.5036 -0.7078  0.5895
 8681SOL    HW136722   4.434   2.461   2.929  0.6451 -2.0822  2.0634
 8681SOL    HW236723   4.410   2.338   2.825 -1.5013  0.5715 -0.6658
 8682SOL     OW36724   3.883   7.157   3.496  0.7113 -0.3823 -0.4995
 8682SOL    HW136725   3.798   7.104   3.500 -0.6956  1.5752 -2.8253
 8682SOL    HW236726   3.940   7.123   3.422  1.0922 -0.5016 -0.1479
 8683SOL     OW36727   5.702   6.798   3.010  0.2760 -0.1310 -0.3056
 8683SOL    HW136728   5.637   6.754   2.948  0.2352  1.5115 -1.4428
 8683SOL    HW236729   5.664   6.884   3.043 -0.0974 -1.3928  2.7664
 8684SOL     OW36730   1.714   6.037   2.244 -0.2240 -0.6266 -0.1298
 8684SOL    HW136731   1.767   6.118   2.219  0.2007 -1.8613 -3.5733
 8684SOL    HW236732   1.618   6.062   2.254 -0.1222  0.3087 -1.3723
 8685SOL     OW36733   0.352   5.169   1.696 -0.1032 -0.1040 -0.4782
 8685SOL    HW136734   0.411   5.140   1.621  0.2065  1.4195 -0.8416
 8685SOL    HW236735   0.264   5.201   1.660  0.3865  1.5114 -0.3093
 8686SOL     OW36736   3.161   2.450   1.056  0.4653  0.5930 -0.2095
 8686SOL    HW136737   3.197   2.415   1.143 -0.4317  2.6792  1.0514
 8686SOL    HW236738   3.237   2.481   0.999  1.0267 -0.2205  0.0869
 8687SOL     OW36739   2.109   0.989   3.630  0.4365 -0.2876 -0.6952
 8687SOL    HW136740   2.093   0.912   3.569  1.2799 -0.5373 -0.6100
 8687SOL    HW236741   2.142   1.067   3.576  3.3705 -1.1927 -0.3185
 8688SOL     OW36742   3.824   2.859   3.211 -0.1524 -0.0897  0.2960
 8688SOL    HW136743   3.884   2.779   3.217  0.4180  0.3339  0.2577
 8688SOL    HW236744   3.763   2.849   3.132 -0.0902 -0.4911  0.2981
 8689SOL     OW36745   2.976   2.644   3.351 -0.3912  0.2246  0.0686
 8689SOL    HW136746   3.068   2.678   3.370  0.3597 -1.9379  0.4108
 8689SOL    HW236747   2.943   2.685   3.266  1.6140 -0.3596 -1.0323
 8690SOL     OW36748   8.807   3.244   1.381 -0.4083 -0.4084 -0.0520
 8690SOL    HW136749   8.748   3.176   1.422 -0.8433  1.0359  1.7956
 8690SOL    HW236750   8.891   3.253   1.435 -0.5951  0.9104  0.0305
 8691SOL     OW36751   0.217   2.110   4.301 -0.4571  0.8385 -0.0513
 8691SOL    HW136752   0.187   2.133   4.208 -0.3991  0.5231 -0.1476
 8691SOL    HW236753   0.314   2.085   4.300 -0.8104 -0.5414 -0.1296
 8692SOL     OW36754   4.365   7.107   2.633 -0.1942 -0.3681  0.1944
 8692SOL    HW136755   4.367   7.025   2.691  1.1695 -0.0243  0.6793
 8692SOL    HW236756   4.271   7.138   2.622 -0.5500 -0.8964  1.5895
 8693SOL     OW36757   7.861   3.836   3.982 -0.2807 -0.0041 -0.2241
 8693SOL    HW136758   7.847   3.907   3.914  0.2348 -0.1914 -0.5265
 8693SOL    HW236759   7.868   3.747   3.937  0.8955 -0.0296 -0.0042
 8694SOL     OW36760   8.502   4.490   1.370 -0.2836  0.4155 -0.1108
 8694SOL    HW136761   8.474   4.510   1.276 -0.7446  1.9551  0.3475
 8694SOL    HW236762   8.495   4.392   1.387 -0.5760  0.1786 -1.5560
 8695SOL     OW36763   1.876   6.602   0.240 -0.1107  0.0635 -0.1978
 8695SOL    HW136764   1.843   6.529   0.299  0.0649 -0.5863 -0.9009
 8695SOL    HW236765   1.965   6.634   0.273 -0.4428  0.3316  0.4292
 8696SOL     OW36766   9.695   1.295   3.869 -0.0329  0.1560  0.3033
 8696SOL    HW136767   9.779   1.319   3.917  0.2622 -0.8415  0.3032
 8696SOL    HW236768   9.702   1.323   3.773  0.0309  0.6790  0.4616
 8697SOL     OW36769   9.241   3.857   2.374 -0.1969  0.3500 -0.5565
 8697SOL    HW136770   9.327   3.814   2.347  0.2726  0.9447 -0.0212
 8697SOL    HW236771   9.255   3.955   2.386 -0.7137  0.3113  0.4712
 8698SOL     OW36772   8.960   5.058   4.468  0.2185 -0.1626 -0.0900
 8698SOL    HW136773   9.047   5.024   4.433  0.6757  1.1238 -0.2070
 8698SOL    HW236774   8.975   5.115   4.548 -0.4667  0.5182 -0.4393
 8699SOL     OW36775   4.241   1.789   3.686  0.3337 -0.3046 -0.0591
 8699SOL    HW136776   4.149   1.773   3.720 -0.2830 -0.4696 -1.7349
 8699SOL    HW236777   4.305   1.795   3.763 -0.8218 -1.8106  1.0488
 8700SOL     OW36778   3.288   9.579   4.439 -0.8258 -0.1666  0.2405
 8700SOL    HW136779   3.240   9.541   4.359  0.0459 -1.0695  0.1344
 8700SOL    HW236780   3.386   9.580   4.422 -0.8404  2.5838  0.0856
 8701SOL     OW36781   0.589   7.436   3.997  0.0840 -0.1571 -0.2867
 8701SOL    HW136782   0.499   7.478   3.990  0.8856  1.3917 -1.8320
 8701SOL    HW236783   0.616   7.401   3.907  0.3577 -2.0708  0.5134
 8702SOL     OW36784   2.704   9.999   2.162  0.1999 -0.5952  0.4165
 8702SOL    HW136785   2.651  10.084   2.167 -0.1137 -0.6561 -1.4155
 8702SOL    HW236786   2.794  10.012   2.203  0.8153  1.1615 -1.4264
 8703SOL     OW36787   8.717   2.229   0.122  0.0923 -0.3294  0.3926
 8703SOL    HW136788   8.815   2.252   0.126  0.2473 -0.6620 -1.1299
 8703SOL    HW236789   8.663   2.313   0.127  0.5148  0.0012 -0.4331
 8704SOL     OW36790   9.496   1.191   0.342  0.0099  0.1992 -0.3836
 8704SOL    HW136791   9.463   1.135   0.266  1.0453 -0.0368 -0.6642
 8704SOL    HW236792   9.424   1.199   0.411 -0.3527 -0.9774 -0.6208
 8705SOL     OW36793   1.141   6.708   1.618  0.1647  0.0737 -0.7000
 8705SOL    HW136794   1.103   6.794   1.584  0.2480  0.2896 -0.2561
 8705SOL    HW236795   1.074   6.635   1.606 -0.5289  0.5208  0.4117
 8706SOL     OW36796   4.081   3.219   2.998 -0.1568  1.0355 -0.2452
 8706SOL    HW136797   4.011   3.178   3.055 -0.5288  0.5461 -1.0444
 8706SOL    HW236798   4.041   3.249   2.912  0.8343 -0.4257 -1.2537
 8707SOL     OW36799   2.659   6.898   3.009  0.0961  0.0066 -0.6017
 8707SOL    HW136800   2.665   6.927   2.914 -0.3341 -1.6244 -1.1455
 8707SOL    HW236801   2.749   6.901   3.051  0.3691  0.2675 -1.2060
 8708SOL     OW36802   1.645   0.488   1.454 -0.8018 -0.0310 -0.1304
 8708SOL    HW136803   1.623   0.436   1.371 -1.8497  0.2086 -0.0154
 8708SOL    HW236804   1.634   0.586   1.435  0.5269  0.1243 -0.1602
 8709SOL     OW36805   9.097   3.851   2.740 -0.3116  0.0284  0.0168
 8709SOL    HW136806   9.011   3.900   2.756 -1.4640 -1.6775 -0.8130
 8709SOL    HW236807   9.111   3.785   2.813 -0.3667 -0.6030 -0.5434
 8710SOL     OW36808   9.413   9.760   3.489  0.4707 -0.2912 -0.7229
 8710SOL    HW136809   9.452   9.806   3.568 -0.2786 -1.9788  0.6560
 8710SOL    HW236810   9.469   9.680   3.465 -0.3441 -0.8715 -0.7133
 8711SOL     OW36811   8.739   2.754   0.025  0.5889  0.1045 -0.2999
 8711SOL    HW136812   8.717   2.851   0.040  0.6714  0.3898 -1.9245
 8711SOL    HW236813   8.838   2.741   0.026  0.5682 -0.0263  0.2544
 8712SOL     OW36814   8.509   2.912   2.228 -0.1218 -0.1969 -0.0876
 8712SOL    HW136815   8.430   2.860   2.193 -0.3828  0.1327  0.0041
 8712SOL    HW236816   8.582   2.849   2.252 -1.1305 -0.6612  1.8030
 8713SOL     OW36817   0.814   0.117   1.429  0.1243  1.1413  0.5827
 8713SOL    HW136818   0.860   0.198   1.466 -1.4493  2.5827 -0.5289
 8713SOL    HW236819   0.839   0.106   1.333 -3.1698  2.9839 -0.5449
 8714SOL     OW36820   3.365   1.855   4.661 -0.5210 -0.3553  0.4444
 8714SOL    HW136821   3.323   1.771   4.695 -1.5067 -0.4465 -0.9481
 8714SOL    HW236822   3.315   1.887   4.580 -0.8240  2.1479  1.5691
 8715SOL     OW36823   4.440   3.843   3.326 -0.1160  0.0086  0.1420
 8715SOL    HW136824   4.456   3.784   3.404 -0.1947 -0.3177 -0.0887
 8715SOL    HW236825   4.451   3.791   3.241  2.2741  0.8979 -0.1386
 8716SOL     OW36826   3.009   2.163   0.449 -0.0045  0.4292  0.0934
 8716SOL    HW136827   3.042   2.153   0.543  0.7181  0.0954 -0.1937
 8716SOL    HW236828   3.051   2.244   0.408 -1.3455  1.3397  0.4904
 8717SOL     OW36829   1.104   4.792   4.053 -0.2529 -0.3792 -0.0117
 8717SOL    HW136830   1.076   4.699   4.074 -0.6434 -0.4259 -0.7164
 8717SOL    HW236831   1.051   4.826   3.975 -1.2833  1.0134  1.2558
 8718SOL     OW36832   0.776   6.242   3.006  0.0028  0.6612  0.0997
 8718SOL    HW136833   0.874   6.246   3.022  0.3099 -2.1537 -0.8132
 8718SOL    HW236834   0.738   6.160   3.048 -1.3710  0.0187 -2.2818
 8719SOL     OW36835   1.050   7.825   2.257 -0.1785  0.6151  0.5567
 8719SOL    HW136836   1.146   7.806   2.276  0.1660  1.6541 -0.0846
 8719SOL    HW236837   1.004   7.857   2.340 -0.1698 -0.6132  1.0487
 8720SOL     OW36838   2.936   9.103   3.210 -0.7299  0.0281  0.4154
 8720SOL    HW136839   2.850   9.097   3.260 -0.6108 -0.5534  0.5466
 8720SOL    HW236840   3.012   9.081   3.270 -0.6670 -1.7147 -0.2837
 8721SOL     OW36841   3.888   7.101   1.797  0.1571 -0.4032 -0.1714
 8721SOL    HW136842   3.984   7.081   1.780  0.2531 -0.1357  0.0616
 8721SOL    HW236843   3.872   7.199   1.784 -0.5952 -0.8199 -2.7136
 8722SOL     OW36844   5.270   8.222   2.246  0.6586  0.1846 -0.3750
 8722SOL    HW136845   5.341   8.155   2.227  0.3500 -0.8761  2.0629
 8722SOL    HW236846   5.233   8.207   2.338  0.3831  3.5159  0.1152
 8723SOL     OW36847   1.473   1.882   2.933 -0.2347  0.2576 -0.4542
 8723SOL    HW136848   1.528   1.798   2.932  3.1917  2.4135 -2.4227
 8723SOL    HW236849   1.426   1.893   2.846 -1.2282  0.0848  0.0470
 8724SOL     OW36850   2.904   2.827   0.438  0.3648 -0.1657  0.6014
 8724SOL    HW136851   2.996   2.813   0.400 -0.2218  0.2135 -0.9535
 8724SOL    HW236852   2.847   2.874   0.372 -1.3657 -1.5883  1.0414
 8725SOL     OW36853   9.054   8.701   2.238  0.0823 -0.4910  0.0242
 8725SOL    HW136854   8.993   8.702   2.317  2.3130  0.7395  1.7853
 8725SOL    HW236855   9.006   8.740   2.159 -1.3696  0.6601  1.4295
 8726SOL     OW36856   0.273   7.786   3.834 -0.4752  0.1509 -0.6104
 8726SOL    HW136857   0.302   7.710   3.892 -0.6161  0.5250 -0.0461
 8726SOL    HW236858   0.180   7.770   3.802 -0.6796  0.3208 -0.0972
 8727SOL     OW36859   4.837   7.039   1.578  0.2968 -0.1836 -0.1015
 8727SOL    HW136860   4.753   7.033   1.633  0.2207 -0.4035 -0.2424
 8727SOL    HW236861   4.824   7.105   1.505  0.5796  0.5113  0.4692
 8728SOL     OW36862   6.586   6.708   2.602 -0.0776  0.9397 -0.0081
 8728SOL    HW136863   6.581   6.664   2.692 -1.4631 -0.7322 -0.8890
 8728SOL    HW236864   6.519   6.782   2.597  0.6126  1.6189  0.6323
 8729SOL     OW36865   8.262   2.353   4.637  0.0024  0.7154 -0.4012
 8729SOL    HW136866   8.205   2.383   4.713  1.9177 -0.2055  1.4401
 8729SOL    HW236867   8.312   2.431   4.599 -2.0544  1.4346 -1.6937
 8730SOL     OW36868   8.469   4.248   1.852  0.6104 -0.5834 -0.0413
 8730SOL    HW136869   8.439   4.214   1.941  1.5177 -0.4337  0.3239
 8730SOL    HW236870   8.525   4.330   1.865  0.9046 -0.6727 -0.7400
 8731SOL     OW36871   3.077   2.323   2.098 -0.6683 -0.8557 -0.2158
 8731SOL    HW136872   3.138   2.245   2.111 -0.5175 -1.0408 -1.9431
 8731SOL    HW236873   3.050   2.328   2.002 -1.3080  0.7590  0.0417
 8732SOL     OW36874   9.665   5.834   1.235  0.1224  0.2751  0.0670
 8732SOL    HW136875   9.694   5.817   1.140 -0.0685  1.7536 -0.2720
 8732SOL    HW236876   9.745   5.846   1.293  0.2568 -1.6761  0.3028
 8733SOL     OW36877   2.234   2.921   0.534  0.0971  0.1977  0.3700
 8733SOL    HW136878   2.324   2.890   0.503  0.2488  0.5289  0.4767
 8733SOL    HW236879   2.244   2.974   0.618 -0.0175  1.6835 -0.5344
 8734SOL     OW36880   4.362   3.314   2.997 -0.3612  0.0784  0.0920
 8734SOL    HW136881   4.401   3.305   2.906  0.2689 -0.7231  0.4344
 8734SOL    HW236882   4.277   3.260   3.002 -0.1658 -0.2278  0.1093
 8735SOL     OW36883   0.231   0.316   2.534  0.0651 -0.2268 -0.0695
 8735SOL    HW136884   0.262   0.349   2.445 -0.2837 -3.1837 -1.3644
 8735SOL    HW236885   0.302   0.258   2.574 -0.8078 -0.9892  0.3839
 8736SOL     OW36886   7.874   9.309   0.534 -0.0956  0.2142  0.0379
 8736SOL    HW136887   7.803   9.254   0.578 -0.2870 -0.9629 -1.7220
 8736SOL    HW236888   7.964   9.280   0.567 -0.1819 -1.2828 -0.9848
 8737SOL     OW36889   6.454   8.662   1.537  0.4192 -0.4290 -0.1810
 8737SOL    HW136890   6.443   8.580   1.592 -0.8267  0.2342  0.5822
 8737SOL    HW236891   6.513   8.727   1.585 -1.6993  0.6775  1.0229
 8738SOL     OW36892   0.273   6.612   0.184  0.5381  0.2393 -0.0984
 8738SOL    HW136893   0.263   6.516   0.157 -1.9151  0.5808 -0.5082
 8738SOL    HW236894   0.307   6.617   0.278  1.0441 -1.0141 -0.1983
 8739SOL     OW36895   3.598   3.565   4.725  0.3596 -0.0455 -0.0784
 8739SOL    HW136896   3.679   3.623   4.713 -0.2562  1.0754  1.0460
 8739SOL    HW236897   3.521   3.605   4.676 -0.1336  0.2552  0.9225
 8740SOL     OW36898   9.867   8.119   1.621 -0.5446 -0.4441  0.1339
 8740SOL    HW136899   9.966   8.122   1.610 -0.7720  2.6101 -1.6258
 8740SOL    HW236900   9.845   8.095   1.716  1.9619  1.8041  1.3631
 8741SOL     OW36901   2.892   7.435   1.807  0.3391  0.9270  0.0862
 8741SOL    HW136902   2.963   7.503   1.823  0.8840  0.5630 -0.7559
 8741SOL    HW236903   2.869   7.432   1.710  0.3648 -0.1159  0.1028
 8742SOL     OW36904   0.626   2.622   0.798 -0.7129 -0.0086 -0.1456
 8742SOL    HW136905   0.623   2.540   0.855 -4.4058 -0.2219 -0.5412
 8742SOL    HW236906   0.641   2.702   0.855  0.7568 -0.7061  0.4860
 8743SOL     OW36907   4.043   4.426   1.792  0.4883  0.0966 -0.5587
 8743SOL    HW136908   4.127   4.382   1.759 -0.2625 -0.5403 -1.6497
 8743SOL    HW236909   4.016   4.499   1.730 -0.7045 -0.8320 -1.1512
 8744SOL     OW36910   9.845   9.507   2.633  0.1555  0.5425 -0.0639
 8744SOL    HW136911   9.799   9.578   2.581  0.9085 -0.7740 -2.6011
 8744SOL    HW236912   9.943   9.512   2.618  0.4104  0.3159  1.4640
 8745SOL     OW36913   3.671   1.924   0.533  0.1081 -0.0126 -0.0990
 8745SOL    HW136914   3.754   1.952   0.484 -0.6850 -0.5219 -1.7640
 8745SOL    HW236915   3.608   1.879   0.469 -0.9204 -0.7545  1.4120
 8746SOL     OW36916   0.590   9.329   3.067  0.3353  0.2240 -0.1621
 8746SOL    HW136917   0.673   9.289   3.028  1.2985  0.3751  1.6575
 8746SOL    HW236918   0.574   9.419   3.026  1.1806  0.2696 -0.4133
 8747SOL     OW36919   4.729   7.862   2.366 -0.0186  0.0318  0.3004
 8747SOL    HW136920   4.738   7.765   2.390  1.8986  0.0553 -0.2163
 8747SOL    HW236921   4.819   7.899   2.342 -1.3635  0.5910 -4.5490
 8748SOL     OW36922   0.266   8.949   2.249 -0.1252  0.4465  0.3303
 8748SOL    HW136923   0.295   9.041   2.274  1.2736  0.3878 -1.0587
 8748SOL    HW236924   0.337   8.883   2.275 -0.3898 -0.0541 -0.2156
 8749SOL     OW36925   0.426   0.882   2.937  0.6867 -0.4130  0.2355
 8749SOL    HW136926   0.495   0.830   2.887 -0.0447 -0.9259 -0.2559
 8749SOL    HW236927   0.335   0.849   2.911  0.2999 -0.8453  2.0837
 8750SOL     OW36928   0.588   8.190   3.764 -0.2962  0.5987  0.2438
 8750SOL    HW136929   0.670   8.146   3.726 -0.3753  0.9453 -0.3324
 8750SOL    HW236930   0.598   8.199   3.863  0.1312  0.1494  0.2429
 8751SOL     OW36931   0.942   7.272   0.175 -0.1858 -0.0826  0.8624
 8751SOL    HW136932   0.886   7.193   0.151  1.4321 -1.6681  2.1109
 8751SOL    HW236933   1.000   7.297   0.097  2.0122 -2.5563  1.6122
 8752SOL     OW36934   3.252   4.900   1.927 -0.3078  0.1904  0.5696
 8752SOL    HW136935   3.286   4.873   2.017  1.2538  0.4775  0.0830
 8752SOL    HW236936   3.326   4.945   1.875 -1.0379 -0.4133 -1.0323
 8753SOL     OW36937   0.941   7.652   0.357  0.0124  0.6084  0.6420
 8753SOL    HW136938   0.877   7.580   0.383 -0.5272  0.8879  0.0754
 8753SOL    HW236939   1.012   7.659   0.427  0.1833 -0.6109  0.6134
 8754SOL     OW36940   4.000   9.463   0.758  0.0635 -0.2791 -0.7465
 8754SOL    HW136941   4.054   9.382   0.782  0.5493  0.4511  0.7522
 8754SOL    HW236942   4.058   9.545   0.767 -0.6818  0.3128 -1.2920
 8755SOL     OW36943   3.475   0.590   0.098 -0.0930 -0.4840 -0.0932
 8755SOL    HW136944   3.491   0.557   0.191  1.2973 -0.4653 -0.3155
 8755SOL    HW236945   3.530   0.537   0.033  0.0556  0.4410 -0.7466
 8756SOL     OW36946   8.588   8.025   1.755 -0.3704 -0.1908  0.2792
 8756SOL    HW136947   8.564   7.973   1.674  0.7363 -0.3257  0.0338
 8756SOL    HW236948   8.653   7.973   1.811  0.5347  0.8044  0.1664
 8757SOL     OW36949   0.321   5.210   1.099  0.5789  0.1077 -0.3320
 8757SOL    HW136950   0.227   5.184   1.117  1.2138 -2.1015 -0.0383
 8757SOL    HW236951   0.355   5.266   1.175 -0.4421  0.7698 -0.3612
 8758SOL     OW36952   3.699   5.264   1.667  0.3826 -0.0446 -0.0149
 8758SOL    HW136953   3.608   5.271   1.707  0.5353  1.0036  0.1791
 8758SOL    HW236954   3.745   5.353   1.675  1.3525 -0.5213 -0.2603
 8759SOL     OW36955   2.166   4.897   4.047 -0.5452  0.1260  0.1090
 8759SOL    HW136956   2.150   4.800   4.029 -0.6030  0.1106  0.2371
 8759SOL    HW236957   2.235   4.906   4.119 -0.5043  0.1799  0.0633
 8760SOL     OW36958   9.457   3.680   4.604  0.1931 -0.2083  0.0346
 8760SOL    HW136959   9.519   3.757   4.587  2.0584 -1.8688 -0.9139
 8760SOL    HW236960   9.505   3.594   4.586 -1.5789 -1.6464  1.9540
 8761SOL     OW36961   4.972   7.937   2.275  0.5019 -0.1712 -0.7414
 8761SOL    HW136962   4.961   7.912   2.179  0.6745 -0.6515 -0.6368
 8761SOL    HW236963   5.064   7.914   2.306  0.2965 -0.4587 -0.3331
 8762SOL     OW36964   4.370   8.772   0.389  0.0217 -0.1432 -0.2910
 8762SOL    HW136965   4.272   8.782   0.370 -0.1476  0.2120  0.7093
 8762SOL    HW236966   4.402   8.853   0.438  0.3127 -1.2485  1.3719
 8763SOL     OW36967   9.623   0.704   2.720 -0.4101  0.0744  0.5925
 8763SOL    HW136968   9.618   0.728   2.623  0.1758 -1.3748  0.1970
 8763SOL    HW236969   9.712   0.664   2.741 -1.2622 -1.5268  1.2773
 8764SOL     OW36970   9.439   7.734   0.278 -0.1658 -0.1341  0.5996
 8764SOL    HW136971   9.445   7.651   0.222 -0.9989 -0.8580  1.5628
 8764SOL    HW236972   9.445   7.814   0.219 -0.5346 -0.8817 -0.4770
 8765SOL     OW36973   1.721   3.119   2.107  0.0201  0.2199  0.2509
 8765SOL    HW136974   1.747   3.023   2.100  0.2634  0.3863 -1.3156
 8765SOL    HW236975   1.621   3.127   2.107 -0.0001 -0.0353  0.4493
 8766SOL     OW36976   9.758   8.949   0.589  0.0253  0.0546  0.2667
 8766SOL    HW136977   9.723   8.948   0.496  3.1625 -1.3874 -0.9967
 8766SOL    HW236978   9.812   9.032   0.604 -1.8229  1.0933  1.3992
 8767SOL     OW36979   1.169   8.255   3.798  0.7855 -0.4017 -0.1765
 8767SOL    HW136980   1.213   8.194   3.864 -0.5484 -0.8221  0.3339
 8767SOL    HW236981   1.093   8.207   3.753 -0.7081  1.0885  0.7004
 8768SOL     OW36982   3.484   5.800   3.530 -0.0646 -0.4215  0.1909
 8768SOL    HW136983   3.435   5.813   3.444  0.6645 -0.4562 -0.2252
 8768SOL    HW236984   3.547   5.723   3.522 -1.2510 -1.5550  1.3014
 8769SOL     OW36985   8.263   9.965   3.007 -0.3468  0.3153 -0.3832
 8769SOL    HW136986   8.231   9.925   3.093  1.2744  0.1228  0.1480
 8769SOL    HW236987   8.273  10.064   3.017  1.5179  0.0824  0.2075
 8770SOL     OW36988   1.227   4.205   3.441  0.1094  0.0868  0.0863
 8770SOL    HW136989   1.291   4.281   3.452 -0.4588  0.4860  0.6196
 8770SOL    HW236990   1.135   4.235   3.463 -0.5018 -0.1048 -2.0816
 8771SOL     OW36991   3.248   9.289   0.584  0.9223 -0.0291  0.0778
 8771SOL    HW136992   3.249   9.218   0.514 -1.8899  1.9890 -2.1868
 8771SOL    HW236993   3.196   9.257   0.664 -0.3599 -0.5280 -0.9345
 8772SOL     OW36994   1.036   6.143   2.326 -0.1449  0.5533 -0.6000
 8772SOL    HW136995   1.111   6.094   2.369 -0.1791  0.6210 -0.4642
 8772SOL    HW236996   1.035   6.123   2.228 -0.4074 -0.0421 -0.4774
 8773SOL     OW36997   9.682   1.402   0.354  0.7104  0.7000  0.2166
 8773SOL    HW136998   9.626   1.320   0.366 -1.0503  1.5733 -1.7198
 8773SOL    HW236999   9.734   1.395   0.269  0.0194  1.8720 -0.3161
 8774SOL     OW37000   5.166   8.776   2.633 -0.2508  0.1116 -0.7986
 8774SOL    HW137001   5.104   8.738   2.564 -1.6898  0.8050  0.0945
 8774SOL    HW237002   5.145   8.735   2.722  1.3286 -0.4718 -0.6836
 8775SOL     OW37003   4.600   2.926   0.777 -0.1573  0.3080  0.7800
 8775SOL    HW137004   4.546   3.005   0.808  0.1747 -0.3008  3.0099
 8775SOL    HW237005   4.690   2.958   0.747 -0.4565  0.9191  0.5200
 8776SOL     OW37006   6.142   8.572   3.039 -0.0996  0.0923  0.1102
 8776SOL    HW137007   6.219   8.508   3.038 -0.2808 -0.1117 -0.9898
 8776SOL    HW237008   6.066   8.534   2.987  0.1172  1.6134 -1.3576
 8777SOL     OW37009   5.774   9.632   2.090  0.3172 -0.0873  0.2288
 8777SOL    HW137010   5.787   9.634   2.189 -0.6004  1.2758  0.3387
 8777SOL    HW237011   5.727   9.548   2.063 -3.0306  1.3319  1.4277
 8778SOL     OW37012   3.629   4.407   1.765  0.2624 -0.0066  0.1144
 8778SOL    HW137013   3.592   4.494   1.799  1.3773  0.0008  1.3457
 8778SOL    HW237014   3.691   4.369   1.833 -0.3517 -1.8669 -0.3550
 8779SOL     OW37015   4.345   8.450   0.044 -0.6511  0.2860 -0.0588
 8779SOL    HW137016   4.306   8.391   0.114 -1.1554  1.0033  0.2699
 8779SOL    HW237017   4.398   8.523   0.088  0.2275 -0.0892 -0.4695
 8780SOL     OW37018   3.021   9.325   0.217  0.4253 -0.0456 -0.0813
 8780SOL    HW137019   2.963   9.365   0.287  0.9339  0.8095 -0.1516
 8780SOL    HW237020   3.012   9.377   0.132 -0.0598 -0.9734 -0.6054
 8781SOL     OW37021   0.870   5.338   3.976 -0.6948 -0.2622  0.1022
 8781SOL    HW137022   0.918   5.401   3.915 -0.0472 -0.4347  0.4334
 8781SOL    HW237023   0.784   5.310   3.933 -1.3366  1.4017  0.2654
 8782SOL     OW37024   4.103   6.381   1.995  0.4508  0.0110  0.2310
 8782SOL    HW137025   4.077   6.401   1.900  1.2083  2.3996  0.4847
 8782SOL    HW237026   4.136   6.287   2.001  0.4937 -0.1434 -1.9067
 8783SOL     OW37027   3.565   7.136   3.100  0.4855  0.1243 -0.2122
 8783SOL    HW137028   3.552   7.168   3.006 -1.6870  0.1704  0.0721
 8783SOL    HW237029   3.597   7.212   3.157  1.1932  0.2584 -0.7913
 8784SOL     OW37030   4.128   0.819   4.439  0.2732  0.2765  0.0897
 8784SOL    HW137031   4.105   0.725   4.464  1.0342 -0.2751 -1.2105
 8784SOL    HW237032   4.187   0.818   4.358 -1.1938  1.9438 -1.0259
 8785SOL     OW37033   0.961   4.947   3.431  0.3845  0.3298 -0.0927
 8785SOL    HW137034   0.869   4.910   3.414 -0.1775  1.7293 -0.1060
 8785SOL    HW237035   1.019   4.930   3.351 -0.2907  0.7809 -0.6858
 8786SOL     OW37036   2.232   1.809   4.487  0.6321 -0.2625  0.1130
 8786SOL    HW137037   2.262   1.904   4.485  0.7644 -0.2981  0.3908
 8786SOL    HW237038   2.266   1.765   4.571  0.3647 -0.4836  0.1055
 8787SOL     OW37039   2.011   1.954   1.968 -0.1956 -0.2539  0.7045
 8787SOL    HW137040   2.108   1.934   1.974  0.3193  1.9219  0.0331
 8787SOL    HW237041   1.972   1.908   1.889  0.6890  0.3707 -0.0994
 8788SOL     OW37042   8.532   1.823   4.570  0.6308  0.1133  0.1863
 8788SOL    HW137043   8.470   1.768   4.515  0.9281  1.5459 -1.6533
 8788SOL    HW237044   8.482   1.898   4.612  0.8086  0.3307  0.0131
 8789SOL     OW37045   4.897   1.454   1.522 -0.1566 -0.1889 -0.1801
 8789SOL    HW137046   4.818   1.471   1.463  0.4774  0.8187 -0.7536
 8789SOL    HW237047   4.949   1.376   1.487 -1.2921 -1.3314  0.6231
 8790SOL     OW37048   1.680   6.186   2.915 -0.5060 -0.2597  0.0257
 8790SOL    HW137049   1.602   6.160   2.858 -0.2584  0.9261 -0.8883
 8790SOL    HW237050   1.765   6.172   2.863 -0.3352  1.7270 -0.2847
 8791SOL     OW37051   2.448   3.482   4.297 -0.2051 -0.5635  0.2422
 8791SOL    HW137052   2.461   3.572   4.256  1.1740 -1.5036 -1.4960
 8791SOL    HW237053   2.391   3.426   4.237 -0.3325 -1.1201  0.8813
 8792SOL     OW37054   9.978   9.123   4.540 -0.8335  0.3425 -0.5516
 8792SOL    HW137055   9.899   9.185   4.543 -1.8591 -0.9853  0.9201
 8792SOL    HW237056   9.949   9.032   4.569  1.0944 -0.3484 -0.7569
 8793SOL     OW37057   7.647   2.871   3.720 -0.0440 -0.0183 -0.5898
 8793SOL    HW137058   7.623   2.948   3.779  0.1210  0.0387 -0.5956
 8793SOL    HW237059   7.721   2.898   3.659  1.9455 -1.0361  1.3098
 8794SOL     OW37060   9.856   4.291   4.699  0.0511 -0.0463  0.2291
 8794SOL    HW137061   9.804   4.282   4.615  0.1749  0.0785  0.1377
 8794SOL    HW237062   9.896   4.203   4.724 -0.2763 -0.1637  0.3484
 8795SOL     OW37063   1.342   6.867   0.693  0.1809 -0.1788 -0.4734
 8795SOL    HW137064   1.310   6.873   0.788 -3.3417  0.0660 -1.5963
 8795SOL    HW237065   1.318   6.951   0.645  1.1080 -0.6903 -1.8473
 8796SOL     OW37066   3.210   0.261   2.463 -0.1232 -0.1066 -0.3058
 8796SOL    HW137067   3.291   0.202   2.465 -0.8169 -1.0479  0.7298
 8796SOL    HW237068   3.144   0.225   2.396  0.6741  1.1688 -1.8057
 8797SOL     OW37069   0.983   4.907   3.841  0.2063  0.0885 -0.3859
 8797SOL    HW137070   0.938   4.942   3.759 -0.9948 -1.2064 -0.2886
 8797SOL    HW237071   0.949   4.956   3.921  0.2393  0.2812 -0.4881
 8798SOL     OW37072   8.565   1.786   2.995  0.0202 -0.0469  0.6118
 8798SOL    HW137073   8.526   1.877   3.011  0.6345  0.4431 -0.6568
 8798SOL    HW237074   8.616   1.758   3.076 -0.8705  0.3739  1.3326
 8799SOL     OW37075   6.221   0.873   1.970 -0.4272 -0.1741  0.0583
 8799SOL    HW137076   6.316   0.848   1.950 -0.6586 -0.4415 -0.7401
 8799SOL    HW237077   6.216   0.968   2.000  0.2644 -0.5664  1.4865
 8800SOL     OW37078   4.644   8.262   3.560 -0.1348 -0.3190 -0.0555
 8800SOL    HW137079   4.626   8.358   3.585 -0.8395 -0.2451 -0.8515
 8800SOL    HW237080   4.596   8.202   3.625  0.4066 -0.1380  0.5184
 8801SOL     OW37081   0.835   0.121   2.999  0.4001  0.0683  0.3374
 8801SOL    HW137082   0.843   0.086   3.093 -0.7525  0.1334  0.4723
 8801SOL    HW237083   0.816   0.045   2.937  0.4895  0.1166  0.2511
 8802SOL     OW37084   0.480   3.862   3.519 -0.1529 -0.4668 -0.3159
 8802SOL    HW137085   0.578   3.879   3.509 -0.1432  0.2557  0.9677
 8802SOL    HW237086   0.460   3.838   3.613 -1.0700 -1.6555 -0.8031
 8803SOL     OW37087   9.196   0.454   4.085 -0.1970 -0.0317 -0.0023
 8803SOL    HW137088   9.257   0.378   4.066 -0.2284 -0.0619  0.0153
 8803SOL    HW237089   9.143   0.476   4.003 -1.4261 -1.1491  0.4684
 8804SOL     OW37090   3.891   3.620   3.143  0.3415  0.4999  0.0448
 8804SOL    HW137091   3.951   3.552   3.187  0.0350  0.5956  0.6247
 8804SOL    HW237092   3.945   3.679   3.084  1.0214  1.2830  1.4112
 8805SOL     OW37093   9.438   1.406   1.101 -0.0411  0.0576  0.0775
 8805SOL    HW137094   9.384   1.413   1.184  1.7022  0.4874  1.2092
 8805SOL    HW237095   9.438   1.494   1.054 -1.8579 -0.4564 -0.9467
 8806SOL     OW37096   1.026   7.498   1.835  0.2942 -0.0043 -0.0198
 8806SOL    HW137097   1.073   7.565   1.892  1.6122 -0.4910 -0.5034
 8806SOL    HW237098   0.930   7.493   1.860  0.1111  2.2911 -0.1841
 8807SOL     OW37099   8.037   9.116   3.436  0.1084 -0.2547 -0.2609
 8807SOL    HW137100   8.135   9.133   3.446 -0.4032  1.3501  2.5283
 8807SOL    HW237101   8.023   9.019   3.415  2.2576 -0.5431 -0.5391
 8808SOL     OW37102   1.946   6.200   3.576  0.0616  0.2671 -0.3964
 8808SOL    HW137103   1.977   6.127   3.636 -0.9922  0.2844  0.1751
 8808SOL    HW237104   1.851   6.221   3.595  0.3460  1.7719 -0.5888
 8809SOL     OW37105   5.320   8.055   3.351  0.0276 -0.0750 -0.9695
 8809SOL    HW137106   5.266   7.992   3.406  0.7091  0.2498  0.0984
 8809SOL    HW237107   5.409   8.014   3.331  0.9584  0.9858  0.7795
 8810SOL     OW37108   9.200   6.701   4.204 -0.1519  0.1150 -0.3955
 8810SOL    HW137109   9.221   6.605   4.188  0.5441  0.3968 -1.2046
 8810SOL    HW237110   9.272   6.743   4.259 -0.3502  0.2276 -0.2200
 8811SOL     OW37111   2.149   7.279   3.615  0.0587  0.5016  0.6503
 8811SOL    HW137112   2.101   7.203   3.659 -0.3101 -0.5434 -1.5280
 8811SOL    HW237113   2.153   7.356   3.679 -2.2095 -0.2810  1.8166
 8812SOL     OW37114   2.719   8.151   4.166 -0.6143 -0.6690 -0.1577
 8812SOL    HW137115   2.726   8.134   4.264  2.4213  1.0049 -0.0239
 8812SOL    HW237116   2.738   8.067   4.115 -0.4759 -1.1356  0.6593
 8813SOL     OW37117   2.269   5.134   3.919 -0.5761 -0.1860  0.2949
 8813SOL    HW137118   2.238   5.197   3.990 -1.2683 -0.8389  0.5785
 8813SOL    HW237119   2.251   5.040   3.948 -0.3387 -0.4787 -0.4983
 8814SOL     OW37120   2.392   5.338   0.680 -0.0703  0.0130  0.4721
 8814SOL    HW137121   2.418   5.430   0.709 -1.6494  1.0851 -1.3728
 8814SOL    HW237122   2.299   5.340   0.643  0.2626 -2.1132 -0.5682
 8815SOL     OW37123   0.775   5.539   0.039  0.2483  0.4808  0.1095
 8815SOL    HW137124   0.781   5.583  -0.051 -0.6554  1.5771  0.5836
 8815SOL    HW237125   0.738   5.603   0.106 -0.4257 -0.7711  0.9648
 8816SOL     OW37126   8.962   2.876   3.756 -0.5615 -0.1577  0.3965
 8816SOL    HW137127   9.020   2.843   3.830 -0.4403 -3.1371 -0.9698
 8816SOL    HW237128   8.893   2.807   3.734  0.3274  0.0094 -3.2370
 8817SOL     OW37129   4.355   8.490   0.910 -0.1413 -0.2502 -0.0252
 8817SOL    HW137130   4.263   8.477   0.948 -0.0641  0.6568  0.4770
 8817SOL    HW237131   4.413   8.531   0.980  0.2655  0.5205 -0.8207
 8818SOL     OW37132   9.610   2.770   4.704 -0.0705  0.6692 -0.6504
 8818SOL    HW137133   9.679   2.709   4.744  2.1320  2.3304 -1.7745
 8818SOL    HW237134   9.654   2.855   4.674 -2.0930  0.5632 -4.1530
 8819SOL     OW37135   3.950   9.319   0.035 -0.0975 -0.4058  0.2360
 8819SOL    HW137136   4.037   9.270   0.039 -0.0919 -0.4065  0.0809
 8819SOL    HW237137   3.958   9.406   0.083  0.2534  0.0160 -0.5825
 8820SOL     OW37138   1.172   3.404   3.382 -0.0538 -0.1958  0.0871
 8820SOL    HW137139   1.259   3.371   3.344 -0.2112 -0.7367  0.1946
 8820SOL    HW237140   1.144   3.344   3.457 -0.0236  0.5461  0.6917
 8821SOL     OW37141   9.191   0.395   2.994 -0.4087  0.1390 -0.2282
 8821SOL    HW137142   9.280   0.440   3.002 -1.2041  1.5401  1.0416
 8821SOL    HW237143   9.163   0.359   3.083  0.1836 -2.8812 -1.2181
 8822SOL     OW37144   2.199   5.803   1.319 -0.2589 -0.5041 -0.2601
 8822SOL    HW137145   2.123   5.761   1.369  0.4539 -1.0331  0.4155
 8822SOL    HW237146   2.228   5.742   1.245 -0.3414 -0.4126 -0.3676
 8823SOL     OW37147   7.768   9.721   0.828  0.3327 -0.1567  0.4061
 8823SOL    HW137148   7.747   9.667   0.909 -1.7592 -0.2666 -0.1671
 8823SOL    HW237149   7.730   9.813   0.839 -0.5921 -0.3892 -0.7098
 8824SOL     OW37150   9.625   3.013   0.381  0.3385 -0.2078 -0.1676
 8824SOL    HW137151   9.699   2.949   0.401  1.2012  0.2824 -1.6599
 8824SOL    HW237152   9.589   3.050   0.467  2.9790  0.8121  0.5868
 8825SOL     OW37153   4.559   9.769   1.865 -0.2433 -0.2963  0.2660
 8825SOL    HW137154   4.573   9.753   1.767  0.1980 -1.2352  0.4715
 8825SOL    HW237155   4.463   9.791   1.882 -0.0892  1.0440 -0.5183
 8826SOL     OW37156   0.225   4.550   0.437  0.2219 -0.5076  0.2161
 8826SOL    HW137157   0.183   4.599   0.514  0.8868  0.5513 -0.0883
 8826SOL    HW237158   0.276   4.472   0.472  0.6330  0.0462  0.8753
 8827SOL     OW37159   0.854   7.854   2.056 -0.1205 -0.0524 -1.0586
 8827SOL    HW137160   0.927   7.840   2.122 -0.5229  3.0326  0.1645
 8827SOL    HW237161   0.893   7.881   1.968  0.2795  0.0260 -0.8575
 8828SOL     OW37162   2.783   2.736   0.729 -0.3893 -0.1789 -0.8745
 8828SOL    HW137163   2.777   2.681   0.645  0.5798  0.5487 -1.4373
 8828SOL    HW237164   2.817   2.680   0.804 -0.5874 -0.6582 -1.1450
 8829SOL     OW37165   8.300   7.916   3.984 -0.0040  0.7053 -0.3914
 8829SOL    HW137166   8.366   7.942   3.914  0.6073  0.3400  0.0440
 8829SOL    HW237167   8.313   7.820   4.009 -1.0308  0.4909 -0.6606
 8830SOL     OW37168   8.571   4.798   4.532  0.2741 -0.5369  0.3921
 8830SOL    HW137169   8.603   4.864   4.464 -0.7413  0.5984  0.9730
 8830SOL    HW237170   8.509   4.733   4.488 -1.2558  0.8601  0.4051
 8831SOL     OW37171   8.625   7.911   2.230  0.3825 -0.1408  0.4472
 8831SOL    HW137172   8.619   7.972   2.309  1.4196  0.5570  0.0051
 8831SOL    HW237173   8.621   7.816   2.261 -0.0333  0.1322  1.2565
 8832SOL     OW37174   8.991   5.027   3.033 -0.9304 -0.0868  0.9428
 8832SOL    HW137175   9.083   5.025   2.994 -1.1616 -1.3545  0.4441
 8832SOL    HW237176   8.924   5.044   2.961 -1.3290 -2.0725  0.8162
 8833SOL     OW37177   3.372   2.593   2.817  0.1369 -0.0870 -0.7251
 8833SOL    HW137178   3.448   2.529   2.818  0.0186 -0.2088  0.4095
 8833SOL    HW237179   3.291   2.549   2.777  0.2133 -0.4660 -0.4621
 8834SOL     OW37180   0.897   3.585   3.929  0.3425 -0.1175 -0.0661
 8834SOL    HW137181   0.858   3.675   3.946 -2.4465 -1.5241  1.3276
 8834SOL    HW237182   0.965   3.565   4.000 -0.3057  0.2021  0.6557
 8835SOL     OW37183   3.764   3.086   0.753 -0.3320 -0.2219  0.2349
 8835SOL    HW137184   3.820   3.085   0.836  1.2179  0.3609 -0.7756
 8835SOL    HW237185   3.754   3.181   0.722 -0.5142 -0.4881 -0.5078
 8836SOL     OW37186   8.972   8.226   4.728 -0.3460 -0.1164 -0.2301
 8836SOL    HW137187   8.962   8.295   4.655  0.0717  0.6783  0.4579
 8836SOL    HW237188   8.893   8.231   4.789  0.2799  0.5871  0.5228
 8837SOL     OW37189   0.026   0.911   2.073  0.1779 -0.0310  0.0325
 8837SOL    HW137190   0.100   0.973   2.048 -0.4660 -0.2041 -2.4218
 8837SOL    HW237191  -0.005   0.861   1.992 -1.8910 -0.7610  1.2292
 8838SOL     OW37192   1.575   9.174   2.017  0.3621 -0.0628  0.0863
 8838SOL    HW137193   1.661   9.123   2.018  0.1209 -0.4617  0.5049
 8838SOL    HW237194   1.588   9.263   2.060  0.1355 -0.8217  1.7523
 8839SOL     OW37195   0.434   4.557   3.393 -0.0641 -0.3462  0.0817
 8839SOL    HW137196   0.423   4.637   3.452 -2.3924  1.2951 -2.4835
 8839SOL    HW237197   0.345   4.516   3.375  0.7960 -1.7658 -1.0357
 8840SOL     OW37198   1.796   0.859   3.966 -0.2438 -0.1004 -0.3769
 8840SOL    HW137199   1.759   0.946   3.935  1.3792  1.0623  0.8645
 8840SOL    HW237200   1.723   0.805   4.010 -1.4587  0.2102 -1.9727
 8841SOL     OW37201   0.679   7.760   3.897 -0.0143 -0.8721  0.9637
 8841SOL    HW137202   0.636   7.754   3.988  0.7995  1.5553  1.5376
 8841SOL    HW237203   0.775   7.732   3.904 -0.1509 -1.4027  0.7024
 8842SOL     OW37204   4.911   9.640   2.276  0.4105 -0.5002 -0.4941
 8842SOL    HW137205   5.006   9.665   2.293 -0.1840  1.6196 -0.1327
 8842SOL    HW237206   4.870   9.704   2.211 -1.5829  0.3933  1.5692
 8843SOL     OW37207   0.259   0.637   3.529 -0.5348 -0.5626 -0.4881
 8843SOL    HW137208   0.354   0.654   3.505  0.1519 -1.4266  1.5059
 8843SOL    HW237209   0.218   0.576   3.462 -0.1518  1.0178 -2.2026
 8844SOL     OW37210   3.590   2.253   3.631  0.3744  0.2096  0.0014
 8844SOL    HW137211   3.556   2.339   3.591  1.9693  0.0761 -1.7341
 8844SOL    HW237212   3.568   2.177   3.569  0.9654 -0.3192  0.4427
 8845SOL     OW37213   2.085   5.548   4.431  0.2519 -0.2362 -0.0129
 8845SOL    HW137214   2.134   5.616   4.485 -0.7878  1.2436 -0.8913
 8845SOL    HW237215   2.142   5.467   4.420  2.1409  1.0993 -0.2749
 8846SOL     OW37216   7.668   7.058   1.614 -0.4640 -0.4140 -0.1973
 8846SOL    HW137217   7.678   6.967   1.654  1.0155 -1.0310 -1.9288
 8846SOL    HW237218   7.754   7.107   1.620 -0.6430  0.0430 -1.2439
 8847SOL     OW37219   2.021   5.925   2.754  0.2072 -0.0940  0.3637
 8847SOL    HW137220   2.011   5.859   2.680  0.5043 -0.4429  0.6310
 8847SOL    HW237221   2.028   5.876   2.841 -1.5681  0.3666  0.7764
 8848SOL     OW37222   9.974   4.792   0.640  0.3779  0.0201 -0.3048
 8848SOL    HW137223   9.886   4.779   0.594  0.9987 -0.8242 -1.2861
 8848SOL    HW237224  10.043   4.820   0.573  0.7150  1.3049  0.5631
 8849SOL     OW37225   1.915   1.988   0.095  0.5332  0.7080  0.0191
 8849SOL    HW137226   1.944   2.069   0.044  1.8581  1.2611  1.5941
 8849SOL    HW237227   1.901   2.012   0.191  0.5813 -0.8615  0.4396
 8850SOL     OW37228   0.752   4.108   3.778 -0.6532 -0.3580 -0.0081
 8850SOL    HW137229   0.816   4.183   3.797 -1.4134  0.6014 -1.2155
 8850SOL    HW237230   0.689   4.098   3.855 -0.8165  0.5129 -0.0240
 8851SOL     OW37231   2.314   6.215   1.041  0.8095  0.2790 -0.1373
 8851SOL    HW137232   2.271   6.294   0.998 -0.0885 -0.6644 -0.9884
 8851SOL    HW237233   2.321   6.140   0.975 -0.5993 -1.1957  1.3486
 8852SOL     OW37234   4.459   1.806   2.996  0.0701  0.3008  0.5894
 8852SOL    HW137235   4.427   1.757   3.076 -0.1652 -0.9038 -0.2255
 8852SOL    HW237236   4.449   1.748   2.915  0.7642  1.3087 -0.2370
 8853SOL     OW37237   1.688   2.170   0.697 -0.0075  0.6291 -0.2539
 8853SOL    HW137238   1.614   2.132   0.641  0.0584  1.3284 -0.8321
 8853SOL    HW237239   1.663   2.263   0.725  1.2471  1.3819 -1.6042
 8854SOL     OW37240   7.716   0.217   2.155 -0.4035 -0.5679 -0.7090
 8854SOL    HW137241   7.801   0.191   2.200 -0.1978 -1.0744 -1.3910
 8854SOL    HW237242   7.653   0.254   2.223  0.9747  1.3996 -0.4692
 8855SOL     OW37243   1.408   7.881   4.518 -0.2291  0.1065  0.3515
 8855SOL    HW137244   1.347   7.810   4.484  1.1193  0.0377 -2.0526
 8855SOL    HW237245   1.386   7.968   4.475  1.4503  0.0386 -0.7103
 8856SOL     OW37246   9.371   9.629   0.262 -0.3144  0.0943 -0.1004
 8856SOL    HW137247   9.377   9.534   0.292  1.1450 -0.2129 -1.3460
 8856SOL    HW237248   9.329   9.684   0.335  0.6481 -1.1335  1.3973
 8857SOL     OW37249   9.098   4.463   3.450  0.6059 -0.1818  0.4794
 8857SOL    HW137250   9.031   4.430   3.383 -0.1226  0.0801  1.0763
 8857SOL    HW237251   9.146   4.542   3.413 -0.6278  0.6959  0.7197
 8858SOL     OW37252   8.457   8.702   0.373  0.0465 -0.1595 -0.3646
 8858SOL    HW137253   8.496   8.793   0.359  0.7913 -0.2081  1.2917
 8858SOL    HW237254   8.524   8.632   0.349 -0.7007 -0.2967 -2.1285
 8859SOL     OW37255   3.710   2.190   3.878 -0.0717 -0.4103  0.9033
 8859SOL    HW137256   3.663   2.213   3.793 -0.4204 -1.2356  0.8699
 8859SOL    HW237257   3.808   2.207   3.868  0.0109 -1.3859  0.0227
 8860SOL     OW37258   6.791   8.977   2.121  0.2812 -0.1374  0.2561
 8860SOL    HW137259   6.834   9.019   2.201 -0.8526 -0.1196  0.8537
 8860SOL    HW237260   6.834   8.888   2.102  0.3098 -0.2966  1.0815
 8861SOL     OW37261   8.754   6.646   3.234 -0.0735 -0.2492 -0.2479
 8861SOL    HW137262   8.789   6.707   3.163  2.1698 -0.0055  1.0040
 8861SOL    HW237263   8.773   6.551   3.209  2.8968 -0.0568  1.0826
 8862SOL     OW37264   8.235   8.928   3.767  0.0978 -0.3422  0.1622
 8862SOL    HW137265   8.239   9.022   3.801  1.4166 -0.9761  1.8253
 8862SOL    HW237266   8.307   8.874   3.809  1.9728 -1.1709 -3.8250
 8863SOL     OW37267   4.959   3.953   0.280  0.3869 -0.2634 -0.0299
 8863SOL    HW137268   4.966   4.009   0.197  0.4057 -0.2479 -0.0180
 8863SOL    HW237269   4.878   3.895   0.273  0.1978 -0.0147  0.0901
 8864SOL     OW37270   9.916   3.190   3.701 -0.4152  0.2502 -0.0245
 8864SOL    HW137271   9.947   3.284   3.707 -0.7025  0.3500 -0.0800
 8864SOL    HW237272   9.822   3.188   3.664  0.2178 -0.1551 -1.6664
 8865SOL     OW37273   2.247   5.373   0.325  0.6248  0.4075  0.0924
 8865SOL    HW137274   2.234   5.469   0.350 -0.3803  0.4283 -0.4563
 8865SOL    HW237275   2.320   5.366   0.257 -0.1394  0.9491 -0.8122
 8866SOL     OW37276   3.556   3.919   2.243  0.2293 -0.2246 -0.1254
 8866SOL    HW137277   3.544   3.821   2.259  1.5909 -0.4038 -0.1254
 8866SOL    HW237278   3.512   3.944   2.157  0.5095 -0.9919 -0.5019
 8867SOL     OW37279   8.450   6.750   0.288 -0.3751  0.0883  0.1677
 8867SOL    HW137280   8.510   6.671   0.272 -0.2346 -0.2121  2.0776
 8867SOL    HW237281   8.505   6.834   0.283 -0.1923 -0.0484 -0.1597
 8868SOL     OW37282   8.978   8.168   1.292  0.1436  0.6010 -0.4196
 8868SOL    HW137283   8.940   8.089   1.341  0.7213  0.8896  0.5059
 8868SOL    HW237284   9.049   8.136   1.229  0.1829  0.3517 -0.2507
 8869SOL     OW37285   7.441   9.560   1.507  0.0855 -0.6577 -0.3832
 8869SOL    HW137286   7.394   9.649   1.513  0.3044 -0.5136 -0.7861
 8869SOL    HW237287   7.426   9.509   1.591  0.9306  0.2499  0.3319
 8870SOL     OW37288   3.133   9.155   0.842 -0.3867 -0.1999  0.3357
 8870SOL    HW137289   3.165   9.091   0.912  1.2781  0.4309  0.1594
 8870SOL    HW237290   3.172   9.245   0.859 -1.5142  0.4160 -0.2986
 8871SOL     OW37291   4.070   1.466   1.747 -0.3865 -0.1236 -0.0404
 8871SOL    HW137292   4.131   1.470   1.825  0.3409  0.6996 -0.6440
 8871SOL    HW237293   4.064   1.557   1.704 -0.8493 -0.5433 -0.8819
 8872SOL     OW37294   1.708   1.747   2.106 -0.1232 -0.4332  0.1442
 8872SOL    HW137295   1.781   1.773   2.170 -2.0127  0.7869  1.8361
 8872SOL    HW237296   1.746   1.686   2.036  2.9135  1.4764  0.0196
 8873SOL     OW37297   2.720   1.250   2.882  0.1967  0.7557 -0.4137
 8873SOL    HW137298   2.785   1.297   2.821  2.0372 -1.2938 -0.1116
 8873SOL    HW237299   2.769   1.218   2.963 -1.3948 -0.1139  0.2109
 8874SOL     OW37300   2.436   9.997   2.589  0.2802 -0.7271 -0.5500
 8874SOL    HW137301   2.535   9.984   2.594  0.6380  1.9069  0.3175
 8874SOL    HW237302   2.416  10.095   2.590 -2.4166 -1.2462  0.5350
 8875SOL     OW37303   7.170   7.266   2.932 -0.4095  0.2519  0.0888
 8875SOL    HW137304   7.131   7.189   2.983 -0.5424  1.0959  1.2966
 8875SOL    HW237305   7.120   7.349   2.956  0.6175  0.9380 -0.1571
 8876SOL     OW37306   8.126   9.801   4.745  0.1591  0.2440 -0.2379
 8876SOL    HW137307   8.221   9.817   4.721  0.1391  0.5810 -0.1016
 8876SOL    HW237308   8.099   9.864   4.818 -0.1559  0.1244 -0.2482
 8877SOL     OW37309   9.727   4.779   1.858 -0.2401  0.2668 -0.6262
 8877SOL    HW137310   9.717   4.680   1.855 -0.7083  0.3368 -1.2782
 8877SOL    HW237311   9.735   4.815   1.765 -0.5485  0.8960 -0.4105
 8878SOL     OW37312   9.605   2.350   0.301  0.1959  0.5165  0.3250
 8878SOL    HW137313   9.517   2.380   0.266  0.0067 -1.0204 -0.5568
 8878SOL    HW237314   9.678   2.378   0.238  0.3426  1.6243  0.9617
 8879SOL     OW37315   8.873   4.501   4.134 -0.2754 -0.2086 -0.3236
 8879SOL    HW137316   8.812   4.454   4.069 -0.7731  1.8627 -1.3752
 8879SOL    HW237317   8.877   4.448   4.219 -1.5737 -1.6631 -1.1332
 8880SOL     OW37318   7.576   1.173   2.455 -0.5689 -0.0395  0.4217
 8880SOL    HW137319   7.607   1.078   2.453 -0.4946  0.0072 -0.4960
 8880SOL    HW237320   7.545   1.196   2.548 -0.6107 -0.9629  0.6341
 8881SOL     OW37321   3.715   8.277   3.591  0.2126 -0.3183  0.0483
 8881SOL    HW137322   3.731   8.229   3.677 -0.1818  1.4812  1.1729
 8881SOL    HW237323   3.694   8.211   3.519  1.7051 -1.9298  1.0585
 8882SOL     OW37324   0.733   1.455   2.687 -0.2811 -0.1382 -0.1347
 8882SOL    HW137325   0.660   1.405   2.734  1.6881 -3.2044 -0.1386
 8882SOL    HW237326   0.780   1.515   2.752 -2.5246  1.5692 -0.0564
 8883SOL     OW37327   6.759   0.392   3.289  0.0984  0.0514 -0.6018
 8883SOL    HW137328   6.817   0.342   3.354  0.9880 -0.2088 -1.5947
 8883SOL    HW237329   6.673   0.342   3.276  0.6631 -0.8228 -0.9990
 8884SOL     OW37330   1.433   0.403   3.502  0.1290 -0.2588 -0.0409
 8884SOL    HW137331   1.387   0.470   3.443 -1.1077 -0.1033  1.0723
 8884SOL    HW237332   1.508   0.360   3.451 -0.1764  0.7032 -1.3414
 8885SOL     OW37333   2.625   5.048   2.489 -0.0029  0.0744  0.0594
 8885SOL    HW137334   2.701   5.089   2.438 -0.0056  1.7690  1.3628
 8885SOL    HW237335   2.539   5.089   2.460  0.0390  1.4060  1.7003
 8886SOL     OW37336   1.266   8.053   3.947  0.0902  0.1965 -0.0633
 8886SOL    HW137337   1.351   8.070   3.997 -0.4984  0.7387  0.7611
 8886SOL    HW237338   1.210   7.987   3.997 -0.7442  1.1524  0.2738
 8887SOL     OW37339   8.068   1.381   2.487 -0.2512 -0.2300  0.2214
 8887SOL    HW137340   8.100   1.326   2.564  0.1882 -0.3069 -0.0147
 8887SOL    HW237341   8.039   1.322   2.412  0.8203 -0.1479 -0.2750
 8888SOL     OW37342   3.129   4.165   0.893  0.2074  0.3806  0.0805
 8888SOL    HW137343   3.183   4.233   0.845 -0.1017  0.0059 -0.8203
 8888SOL    HW237344   3.185   4.121   0.964  0.5946  1.1084  0.2268
 8889SOL     OW37345   0.163   1.640   3.209 -0.0290 -0.1375 -0.0797
 8889SOL    HW137346   0.202   1.631   3.117  0.7033  0.0354  0.2123
 8889SOL    HW237347   0.236   1.647   3.276 -0.5604 -1.5021  0.6586
 8890SOL     OW37348   9.687   0.701   3.188  0.2165  0.5560  0.5104
 8890SOL    HW137349   9.645   0.635   3.250 -0.1048 -0.2255 -0.5285
 8890SOL    HW237350   9.730   0.774   3.241  0.4118 -0.3835  1.6641
 8891SOL     OW37351   7.555   8.443   1.357 -0.0428  0.6980 -0.4476
 8891SOL    HW137352   7.632   8.477   1.303 -0.1948  1.3622 -0.2441
 8891SOL    HW237353   7.473   8.496   1.336 -0.2533  0.5317 -0.0474
 8892SOL     OW37354   0.944   1.483   0.557 -0.1267  0.5569  0.5479
 8892SOL    HW137355   0.908   1.463   0.465 -0.7351 -1.8393  1.2549
 8892SOL    HW237356   1.040   1.454   0.562  0.2881  1.8700  0.2984
 8893SOL     OW37357   4.620   8.754   1.930  0.0820  0.1718 -0.5509
 8893SOL    HW137358   4.529   8.748   1.889 -0.2412  0.7346  0.0847
 8893SOL    HW237359   4.622   8.828   1.997 -0.1082 -2.2446  2.2275
 8894SOL     OW37360   3.326   5.638   4.667 -0.2753  0.1760  0.2307
 8894SOL    HW137361   3.330   5.694   4.750  0.4165 -0.2427  0.4806
 8894SOL    HW237362   3.241   5.586   4.667 -0.5462  0.6064  0.3945
 8895SOL     OW37363   1.949   7.355   3.915  0.6945  0.7617  0.1294
 8895SOL    HW137364   1.888   7.354   3.995 -0.3348  0.9045 -0.6399
 8895SOL    HW237365   1.975   7.261   3.893 -1.4753  0.4288 -1.1880
 8896SOL     OW37366   8.547   7.264   2.819  0.3256 -0.3374 -0.4140
 8896SOL    HW137367   8.491   7.301   2.745  1.4192  0.3846 -0.9122
 8896SOL    HW237368   8.528   7.314   2.903  1.2726  0.9134 -0.9201
 8897SOL     OW37369   6.021   7.468   3.308  0.3914 -0.1620  0.4155
 8897SOL    HW137370   5.939   7.519   3.281  1.7203  0.9449 -1.6848
 8897SOL    HW237371   6.046   7.404   3.236  2.3881  0.7979  0.2288
 8898SOL     OW37372   9.223   0.279   3.509 -0.0041  0.4156  0.4233
 8898SOL    HW137373   9.221   0.188   3.550  0.3402  0.0900 -0.2736
 8898SOL    HW237374   9.310   0.324   3.532  0.6217 -0.1573 -0.7671
 8899SOL     OW37375   3.082   4.300   4.530 -0.1338 -0.4144  0.1418
 8899SOL    HW137376   3.136   4.326   4.609  0.0834 -2.2328  0.6080
 8899SOL    HW237377   3.123   4.220   4.486 -1.4736 -0.7595 -0.5143
 8900SOL     OW37378   1.677   1.524   4.657 -0.1819  0.5668  0.3331
 8900SOL    HW137379   1.776   1.521   4.643 -0.1894 -2.3048  0.5383
 8900SOL    HW237380   1.649   1.617   4.681  2.4113  1.4798 -0.0643
 8901SOL     OW37381   2.207   8.665   4.171  0.8383  0.2586 -0.5956
 8901SOL    HW137382   2.180   8.761   4.181 -2.3692 -0.7717  1.3750
 8901SOL    HW237383   2.300   8.653   4.207  0.6532  2.3158  0.6784
 8902SOL     OW37384   1.284   3.140   4.662  0.2488 -0.0790  0.3204
 8902SOL    HW137385   1.203   3.108   4.612  0.7928 -1.8374  0.5399
 8902SOL    HW237386   1.359   3.156   4.598  0.1171  0.3293  0.2659
 8903SOL     OW37387   0.786   7.978   1.668  0.4436 -0.2232 -0.3339
 8903SOL    HW137388   0.830   7.983   1.758 -2.3069 -0.2508  1.0659
 8903SOL    HW237389   0.806   8.061   1.616  1.1158  0.2947  0.7387
 8904SOL     OW37390   0.925   2.659   1.502  0.2386 -0.2866 -0.2461
 8904SOL    HW137391   1.025   2.656   1.498  0.2396 -0.4863 -0.1018
 8904SOL    HW237392   0.889   2.566   1.490  0.0076  0.0125 -1.9820
 8905SOL     OW37393   0.798   7.582   3.642  0.0736  0.1386 -0.0535
 8905SOL    HW137394   0.847   7.633   3.713 -1.1921 -0.9020  1.6073
 8905SOL    HW237395   0.702   7.608   3.643 -0.8557 -3.0876  1.6461
 8906SOL     OW37396   6.557   7.012   2.632  0.0968  0.2410  0.1726
 8906SOL    HW137397   6.578   6.975   2.542 -0.3361 -1.5282  0.7635
 8906SOL    HW237398   6.630   6.986   2.696  0.4257  1.5229  0.3368
 8907SOL     OW37399   8.923   9.937   4.717 -0.0255 -0.2399 -0.0693
 8907SOL    HW137400   8.864   9.979   4.648  0.9251 -1.4595 -1.6509
 8907SOL    HW237401   8.926   9.995   4.798 -1.1471  1.2134 -1.0467
 8908SOL     OW37402   3.830   8.682   2.043 -0.0472  0.0548  0.1016
 8908SOL    HW137403   3.851   8.763   2.098  0.7391  1.0518 -1.6374
 8908SOL    HW237404   3.732   8.681   2.023 -0.4637 -0.6654  2.0174
 8909SOL     OW37405   1.752   8.730   2.304 -0.0061  0.5307 -0.1694
 8909SOL    HW137406   1.703   8.797   2.359 -0.3740 -0.5507  0.8527
 8909SOL    HW237407   1.850   8.737   2.323 -0.2591 -0.8765  1.8588
 8910SOL     OW37408   2.403   2.916   3.826 -0.2231 -0.4448  0.1123
 8910SOL    HW137409   2.358   2.937   3.739  0.8619  1.2160 -0.0621
 8910SOL    HW237410   2.500   2.895   3.808  0.2075  0.7561  1.0055
 8911SOL     OW37411   0.332   5.726   3.979  0.2409  0.1969 -0.0984
 8911SOL    HW137412   0.430   5.733   3.996  0.0286 -0.6614  1.5194
 8911SOL    HW237413   0.293   5.818   3.971  1.2115  0.5467 -1.1173
 8912SOL     OW37414   1.122   8.770   2.019  0.0431 -0.3555  0.6164
 8912SOL    HW137415   1.118   8.670   2.026  1.0914 -0.6327 -2.0551
 8912SOL    HW237416   1.215   8.801   2.039 -0.6048  0.2264  2.7768
 8913SOL     OW37417   5.302   7.403   2.705  0.3641 -0.0574  0.3347
 8913SOL    HW137418   5.316   7.354   2.618  0.2412  0.8049 -0.1772
 8913SOL    HW237419   5.383   7.458   2.725 -0.0402  0.5842  0.2189
 8914SOL     OW37420   2.852   5.681   2.307  0.0892  0.3245  0.0952
 8914SOL    HW137421   2.754   5.674   2.326 -0.3095  1.7811 -1.3212
 8914SOL    HW237422   2.891   5.755   2.361 -0.1185  1.4125 -1.2130
 8915SOL     OW37423   1.664   7.888   2.691 -0.5361  0.1327 -0.3711
 8915SOL    HW137424   1.577   7.913   2.734  0.4617 -0.9566  2.3901
 8915SOL    HW237425   1.679   7.790   2.700  1.4514  0.4580  0.1605
 8916SOL     OW37426   0.081   8.501   3.311  0.0411  0.1963  0.2117
 8916SOL    HW137427   0.046   8.569   3.376  1.7455 -1.1832  2.6405
 8916SOL    HW237428   0.097   8.415   3.358 -0.3250 -1.3936 -2.4474
 8917SOL     OW37429   8.560   8.170   2.391 -0.6985  0.7001  0.2916
 8917SOL    HW137430   8.467   8.144   2.418 -0.7415  1.4222  0.8477
 8917SOL    HW237431   8.557   8.212   2.301 -0.8202  0.1126  0.0155
 8918SOL     OW37432   0.121   5.552   2.600  0.0522  0.2919  0.0441
 8918SOL    HW137433   0.200   5.547   2.538 -0.1621  0.2285 -0.2257
 8918SOL    HW237434   0.151   5.584   2.689  0.3313  0.5795 -0.1527
 8919SOL     OW37435   0.714   1.352   3.837  0.2754  0.7357 -0.3959
 8919SOL    HW137436   0.779   1.280   3.813  0.7796  1.3275 -0.8135
 8919SOL    HW237437   0.641   1.353   3.768 -1.1714 -1.1225  1.0455
 8920SOL     OW37438   9.634   1.982   3.891 -0.2159  0.6755 -0.3954
 8920SOL    HW137439   9.731   1.995   3.869 -0.1783  1.0407 -0.0057
 8920SOL    HW237440   9.600   1.901   3.843  0.2778  0.5551 -0.5450
 8921SOL     OW37441   1.213   8.683   4.580 -0.6860 -0.0900  0.9496
 8921SOL    HW137442   1.162   8.763   4.549  0.9355  0.8558  0.6730
 8921SOL    HW237443   1.159   8.601   4.563 -1.4103  0.7470 -0.8754
 8922SOL     OW37444   9.273   4.123   2.431 -0.1477  0.3309  0.5853
 8922SOL    HW137445   9.180   4.096   2.409 -0.1809  0.1015  1.0084
 8922SOL    HW237446   9.278   4.223   2.438 -0.1793  0.3964 -0.2632
 8923SOL     OW37447   9.224   7.870   4.619  0.3696 -0.0390 -0.3716
 8923SOL    HW137448   9.249   7.874   4.716 -0.6290 -1.6951 -0.0227
 8923SOL    HW237449   9.157   7.941   4.599 -0.6147 -0.6813  0.5471
 8924SOL     OW37450   8.378   5.355   2.546 -0.2118 -0.3088 -0.0953
 8924SOL    HW137451   8.400   5.377   2.451  1.4475 -2.1880 -0.1682
 8924SOL    HW237452   8.347   5.438   2.593 -1.3333  0.5717 -2.3283
 8925SOL     OW37453   3.038   5.379   2.933 -0.1925 -0.4424 -0.0236
 8925SOL    HW137454   2.989   5.291   2.933 -2.7793  0.9593 -0.2019
 8925SOL    HW237455   2.989   5.445   2.988  2.3361  0.6433  1.0138
 8926SOL     OW37456   0.180   3.194   0.815 -0.3119  0.0104  0.3095
 8926SOL    HW137457   0.220   3.154   0.733  0.6759 -0.1495  0.8601
 8926SOL    HW237458   0.235   3.272   0.845 -0.8858  0.3116  0.5955
 8927SOL     OW37459   8.146   2.802   1.491  0.0478  0.1693  0.2523
 8927SOL    HW137460   8.137   2.856   1.407  0.3025 -0.2166 -0.0260
 8927SOL    HW237461   8.056   2.774   1.522 -0.0125 -0.1371 -0.1909
 8928SOL     OW37462   3.540   8.986   0.361  0.3285  0.0250  0.3147
 8928SOL    HW137463   3.577   9.045   0.434  1.6193  0.4473 -0.6477
 8928SOL    HW237464   3.460   9.029   0.320  0.1174  0.1974  0.9061
 8929SOL     OW37465   7.755   9.549   0.055  0.2863  0.1015 -0.2606
 8929SOL    HW137466   7.807   9.581  -0.024  0.6921 -0.5265 -0.2524
 8929SOL    HW237467   7.803   9.576   0.139  0.1237  0.3196 -0.2373
 8930SOL     OW37468   9.862   3.752   4.426 -0.4041 -0.1943 -0.2529
 8930SOL    HW137469   9.853   3.781   4.331  0.2340 -1.9022 -0.8556
 8930SOL    HW237470   9.857   3.652   4.431  0.0747 -0.1484  1.4467
 8931SOL     OW37471   4.790   7.134   3.541 -0.0903  0.2972  0.1392
 8931SOL    HW137472   4.732   7.057   3.515 -0.2941  0.6491 -0.4564
 8931SOL    HW237473   4.775   7.155   3.638 -0.4719 -0.0326  0.1526
 8932SOL     OW37474   8.814   4.293   4.324 -0.4613  0.2264 -0.5658
 8932SOL    HW137475   8.902   4.275   4.367  0.1492  3.1787 -0.5440
 8932SOL    HW237476   8.746   4.312   4.394 -0.7975 -0.5827 -0.6605
 8933SOL     OW37477   4.220   3.710   4.500 -0.2258 -0.0970 -0.1128
 8933SOL    HW137478   4.194   3.806   4.506 -2.1428 -0.7123  1.8524
 8933SOL    HW237479   4.198   3.675   4.409  0.9249  1.4164 -1.0038
 8934SOL     OW37480   4.004   1.328   0.230  0.7415 -0.2730  0.2536
 8934SOL    HW137481   4.047   1.239   0.213 -0.2358 -0.8001  0.4998
 8934SOL    HW237482   4.065   1.384   0.286  1.8059 -0.3963 -0.7696
 8935SOL     OW37483   3.103   8.338   0.036  0.0102  0.2601  0.5957
 8935SOL    HW137484   3.149   8.262  -0.008  0.9022  0.0064  1.9248
 8935SOL    HW237485   3.100   8.417  -0.026  2.6017  0.4130  0.6044
 8936SOL     OW37486   9.709   3.531   1.732  0.7569  0.1314 -0.1399
 8936SOL    HW137487   9.712   3.495   1.639 -2.2557  0.9860 -0.6448
 8936SOL    HW237488   9.728   3.458   1.797  1.1783 -0.8734 -1.3740
 8937SOL     OW37489   1.155   4.809   0.901  0.2109  0.3343 -0.0714
 8937SOL    HW137490   1.088   4.748   0.945  0.2448 -0.4095 -1.0449
 8937SOL    HW237491   1.129   4.823   0.806  0.7935  1.0123 -0.1324
 8938SOL     OW37492   1.739   1.254   2.024 -0.1882 -0.4709  0.3699
 8938SOL    HW137493   1.792   1.198   1.959  0.2715  2.3944 -1.8276
 8938SOL    HW237494   1.801   1.308   2.080 -0.6849 -0.7032  1.1512
 8939SOL     OW37495   9.786   2.068   1.891  0.2300 -0.0581 -0.1155
 8939SOL    HW137496   9.722   2.138   1.859  0.2894  0.6023  1.1959
 8939SOL    HW237497   9.880   2.098   1.873  0.2690  0.4072  0.8762
 8940SOL     OW37498   1.905   5.137   2.686 -0.3999  0.0692  0.1546
 8940SOL    HW137499   1.996   5.097   2.696 -0.3750  1.0486  4.9853
 8940SOL    HW237500   1.836   5.066   2.700 -0.3750  0.0823  0.3429
 8941SOL     OW37501   8.666   2.114   2.752 -0.3564  0.1175 -0.1143
 8941SOL    HW137502   8.619   2.175   2.688 -1.2276 -0.5140 -0.0899
 8941SOL    HW237503   8.665   2.021   2.716  3.6013  0.5589 -1.6110
 8942SOL     OW37504   9.526   6.497   2.698 -0.1222  0.6799 -0.3146
 8942SOL    HW137505   9.499   6.547   2.616 -0.0371  0.3569 -0.5393
 8942SOL    HW237506   9.556   6.405   2.673  1.1733  1.0154 -0.0728
 8943SOL     OW37507   2.069   2.551   3.812 -0.2169  0.3287  0.3508
 8943SOL    HW137508   2.018   2.470   3.842  0.9127  0.2135  2.0501
 8943SOL    HW237509   2.015   2.633   3.829 -0.5897  0.0660  0.4415
 8944SOL     OW37510   3.785   9.647   0.530  0.6701 -0.8041  0.2342
 8944SOL    HW137511   3.810   9.551   0.535  1.1613 -0.7202 -0.5232
 8944SOL    HW237512   3.838   9.699   0.597 -1.1084 -1.3618  2.0936
 8945SOL     OW37513   7.366   0.212   3.258 -0.6615 -0.0287 -0.1078
 8945SOL    HW137514   7.358   0.230   3.160 -3.1133 -0.2513  0.0280
 8945SOL    HW237515   7.310   0.277   3.309  1.6805  0.9864  1.2767
 8946SOL     OW37516   3.723   9.108   3.410  0.0681 -0.1702  0.0038
 8946SOL    HW137517   3.689   9.197   3.440 -0.1847  0.0266 -0.8620
 8946SOL    HW237518   3.716   9.043   3.486 -1.9926 -0.0692 -0.0738
 8947SOL     OW37519   9.491   0.495   2.953 -0.2318  0.3542 -0.2750
 8947SOL    HW137520   9.433   0.488   2.872 -1.8291  0.7933  0.8081
 8947SOL    HW237521   9.582   0.528   2.927 -0.7087  0.4250 -1.8777
 8948SOL     OW37522   9.660   4.624   2.543 -0.5116  0.8415 -0.3611
 8948SOL    HW137523   9.585   4.558   2.546 -1.2371  1.6961  1.6891
 8948SOL    HW237524   9.641   4.698   2.608  2.4309  0.7036  0.7482
 8949SOL     OW37525   2.064   9.283   0.599 -0.0863 -0.2111  0.2635
 8949SOL    HW137526   2.153   9.239   0.586  1.0300  1.9668  0.2421
 8949SOL    HW237527   2.074   9.362   0.660 -1.9156  0.3231 -0.0959
 8950SOL     OW37528   8.943   1.880   1.981 -0.5788  0.3068  0.0189
 8950SOL    HW137529   8.856   1.863   2.029  0.3743 -0.7750  1.3828
 8950SOL    HW237530   9.000   1.939   2.037 -0.8463  1.9203 -1.3693
 8951SOL     OW37531   4.370   7.644   1.787  0.1649  0.2135  0.2507
 8951SOL    HW137532   4.286   7.693   1.809 -0.5944 -1.2221  0.6112
 8951SOL    HW237533   4.416   7.617   1.872  1.0098  0.9941  0.0582
 8952SOL     OW37534   3.731   3.519   2.293 -0.1167 -0.6563  0.2268
 8952SOL    HW137535   3.712   3.454   2.220  1.3250 -1.4309  0.5133
 8952SOL    HW237536   3.771   3.471   2.371  1.3664  0.6165  0.2767
 8953SOL     OW37537   1.358   4.241   0.724 -0.1363 -0.6124 -0.0302
 8953SOL    HW137538   1.314   4.331   0.720 -1.6012 -1.3592 -0.9217
 8953SOL    HW237539   1.295   4.171   0.690  0.2972 -2.2574  2.4339
 8954SOL     OW37540   6.232   9.416   3.015  0.1137  0.2822  0.3040
 8954SOL    HW137541   6.147   9.373   2.985 -0.5220  1.4454  0.4319
 8954SOL    HW237542   6.310   9.370   2.972 -0.5682 -0.7969  0.2022
 8955SOL     OW37543   8.774   6.581   3.892  0.2644 -0.6185  0.1056
 8955SOL    HW137544   8.780   6.559   3.795 -2.5666 -0.1957 -0.2078
 8955SOL    HW237545   8.774   6.497   3.946  2.6232 -0.8303 -0.1703
 8956SOL     OW37546   7.209   6.743   2.775 -0.6913  0.1939  1.1516
 8956SOL    HW137547   7.112   6.756   2.797 -0.9623  1.1750 -0.5049
 8956SOL    HW237548   7.241   6.821   2.721  0.6970 -0.7355  0.6223
 8957SOL     OW37549   2.577   2.344   1.893 -0.4150 -0.3445 -0.0921
 8957SOL    HW137550   2.543   2.386   1.978 -1.7267 -1.1909 -0.1909
 8957SOL    HW237551   2.502   2.338   1.827  1.1444  2.6175 -2.2632
 8958SOL     OW37552   2.552   7.473   2.092  0.0691 -0.1394 -0.1180
 8958SOL    HW137553   2.529   7.564   2.055 -1.8123 -0.6537 -0.2824
 8958SOL    HW237554   2.645   7.450   2.066  0.1986  1.2874 -1.0317
 8959SOL     OW37555   1.254   2.674   2.186  0.1212 -0.0109 -0.4568
 8959SOL    HW137556   1.271   2.772   2.179  0.7148 -0.0376  0.4435
 8959SOL    HW237557   1.262   2.632   2.096  1.0199  0.5936 -0.6687
 8960SOL     OW37558   1.177   5.132   3.970 -0.1319  0.5834  0.6958
 8960SOL    HW137559   1.107   5.064   3.949 -1.2612  1.5474  1.2586
 8960SOL    HW237560   1.260   5.087   4.002  0.1721 -0.6789 -1.8083
 8961SOL     OW37561   0.218   1.580   1.910 -0.0822 -0.4954  0.0982
 8961SOL    HW137562   0.161   1.649   1.954  2.3061  1.3433  0.3957
 8961SOL    HW237563   0.232   1.503   1.973 -1.0631 -0.3132  0.5355
 8962SOL     OW37564   0.066   1.138   0.839  0.1682 -0.2703  0.2369
 8962SOL    HW137565   0.144   1.195   0.812 -0.1112  0.2132  0.4535
 8962SOL    HW237566   0.082   1.101   0.931 -0.0926  0.2499  0.4923
 8963SOL     OW37567   7.094   0.496   2.513  0.1152  0.6941 -0.3864
 8963SOL    HW137568   7.181   0.539   2.539 -1.8349  2.3592  3.8620
 8963SOL    HW237569   7.021   0.564   2.518 -2.0421 -1.5899 -0.1377
 8964SOL     OW37570   2.646   4.704   3.605  0.4160 -0.4666  0.0502
 8964SOL    HW137571   2.618   4.698   3.701 -0.2001 -1.1275 -0.1727
 8964SOL    HW237572   2.632   4.617   3.560  1.9586 -0.5496 -0.3166
 8965SOL     OW37573   2.649   7.779   4.611  0.1208 -0.2840 -0.1083
 8965SOL    HW137574   2.588   7.750   4.684 -0.6392 -0.3283 -0.7556
 8965SOL    HW237575   2.691   7.866   4.636 -1.0143  0.2749 -0.1137
 8966SOL     OW37576   8.056   8.652   0.218 -0.0906  0.7289  0.1953
 8966SOL    HW137577   8.002   8.714   0.161  1.7725  1.7843 -0.4453
 8966SOL    HW237578   8.150   8.648   0.184  0.5530 -0.1705  2.0061
 8967SOL     OW37579   1.007   0.758   2.607  0.0012  0.8239 -0.2654
 8967SOL    HW137580   1.106   0.768   2.596  0.2982 -2.7562 -1.3472
 8967SOL    HW237581   0.987   0.703   2.688 -1.0248  0.0412 -1.0321
 8968SOL     OW37582   3.245   9.982   4.336  0.4060 -0.0067  0.0402
 8968SOL    HW137583   3.335  10.008   4.371  0.0956  2.7480 -1.0578
 8968SOL    HW237584   3.248   9.978   4.236 -1.0982  1.7816 -0.0962
 8969SOL     OW37585   8.086   9.583   1.218 -0.2478 -0.1597  0.4777
 8969SOL    HW137586   8.012   9.520   1.239 -2.0449  2.7154  3.3295
 8969SOL    HW237587   8.066   9.631   1.133 -1.6492  0.4584  1.1254
 8970SOL     OW37588   3.426   1.130   0.170  0.0040  0.2755  0.4486
 8970SOL    HW137589   3.390   1.044   0.133  0.5856 -0.6369  1.9750
 8970SOL    HW237590   3.520   1.143   0.139 -0.1880  0.5253 -0.0374
 8971SOL     OW37591   3.880   7.959   3.690  0.1436  0.0016 -0.7017
 8971SOL    HW137592   3.900   7.869   3.652  0.3651  0.3938 -1.5264
 8971SOL    HW237593   3.948   7.981   3.760 -0.4636 -0.8666  0.1812
 8972SOL     OW37594   3.575   3.555   1.072 -0.0672  0.1790 -0.2513
 8972SOL    HW137595   3.531   3.579   1.159  1.1478  0.0785  0.3906
 8972SOL    HW237596   3.597   3.458   1.071 -0.0886  0.1757 -0.6860
 8973SOL     OW37597   0.295   9.755   4.192  0.6131  0.4711  0.1348
 8973SOL    HW137598   0.225   9.731   4.124  2.1492  1.0895 -1.7142
 8973SOL    HW237599   0.307   9.678   4.255  0.7068 -1.0350 -1.6492
 8974SOL     OW37600   2.483   9.677   3.950 -0.2467  0.0295 -0.9208
 8974SOL    HW137601   2.388   9.698   3.971 -0.0115 -0.6319  0.8730
 8974SOL    HW237602   2.531   9.761   3.927 -0.4118  0.8803  1.7111
 8975SOL     OW37603   3.046   9.092   0.108  0.0847  0.3277  0.2844
 8975SOL    HW137604   3.039   9.188   0.136 -0.9235 -0.5557  3.1121
 8975SOL    HW237605   2.964   9.066   0.057 -0.9561  0.1738  2.0159
 8976SOL     OW37606   0.354   2.419   4.533  0.6565 -0.0412 -0.1442
 8976SOL    HW137607   0.380   2.403   4.628 -1.9149  0.3552  0.6669
 8976SOL    HW237608   0.277   2.360   4.509  1.2647 -0.1075 -1.9741
 8977SOL     OW37609   0.669   8.547   1.336 -0.6949  0.4928 -0.1309
 8977SOL    HW137610   0.626   8.636   1.343 -1.0897  0.1796  1.5443
 8977SOL    HW237611   0.600   8.475   1.341 -0.0348 -0.0039  2.2448
 8978SOL     OW37612   3.807   7.232   0.757  0.0254  0.5052  0.4630
 8978SOL    HW137613   3.821   7.250   0.854  2.7197 -0.8576  0.3440
 8978SOL    HW237614   3.739   7.159   0.746 -0.6618  1.0088  1.2801
 8979SOL     OW37615   3.250   9.644   2.304  0.0233  0.3408  0.3965
 8979SOL    HW137616   3.280   9.631   2.399  0.7941 -0.1727  0.0916
 8979SOL    HW237617   3.298   9.578   2.245  1.5499  2.3956 -0.7270
 8980SOL     OW37618   8.241   1.597   1.495  0.4762  0.3584 -0.0172
 8980SOL    HW137619   8.318   1.638   1.545  0.4033 -0.0775  0.4517
 8980SOL    HW237620   8.263   1.501   1.474  0.8402  0.7418 -1.5082
 8981SOL     OW37621   0.188   8.039   2.345 -0.2611 -0.4608 -0.8540
 8981SOL    HW137622   0.114   8.031   2.411  0.8256 -0.2191  0.4148
 8981SOL    HW237623   0.214   7.948   2.313 -0.1562 -0.6421 -0.2450
 8982SOL     OW37624   6.323   9.650   1.801  0.3619 -0.2954  0.2740
 8982SOL    HW137625   6.253   9.716   1.827  0.8050  0.2501  0.0987
 8982SOL    HW237626   6.387   9.693   1.736  1.3296 -0.5288  1.0621
 8983SOL     OW37627   8.436   8.158   0.916  0.0988 -0.8523  0.2125
 8983SOL    HW137628   8.511   8.141   0.851  0.3411  0.6789  0.0696
 8983SOL    HW237629   8.417   8.256   0.919 -1.1403 -1.1166  1.1103
 8984SOL     OW37630   9.509   8.247   3.739 -0.1302 -0.2228 -0.4349
 8984SOL    HW137631   9.541   8.267   3.647 -0.6797 -2.2336 -1.1090
 8984SOL    HW237632   9.461   8.159   3.738  0.0444 -0.3653  1.8067
 8985SOL     OW37633   7.182   7.337   2.478 -0.1774  0.2023  0.0883
 8985SOL    HW137634   7.221   7.419   2.436  1.8123 -1.3011 -1.0997
 8985SOL    HW237635   7.222   7.324   2.568 -1.7138  1.4051  0.9685
 8986SOL     OW37636   1.763   6.735   3.296 -0.0305 -0.2814  0.0586
 8986SOL    HW137637   1.675   6.756   3.339  0.6477 -0.9913  1.8458
 8986SOL    HW237638   1.831   6.803   3.323  0.1934 -0.2464 -0.5801
 8987SOL     OW37639   9.453   8.068   4.180  0.3495 -0.5635 -0.1379
 8987SOL    HW137640   9.497   8.106   4.099 -2.4103  1.4282 -0.7682
 8987SOL    HW237641   9.478   8.122   4.260 -0.5216  0.2535 -0.4123
 8988SOL     OW37642   7.865   0.811   4.078  0.1209  0.0452 -0.7110
 8988SOL    HW137643   7.776   0.816   4.033  0.2778 -0.3759 -1.0749
 8988SOL    HW237644   7.861   0.746   4.154  0.3704 -0.6786 -1.3167
 8989SOL     OW37645   3.740   0.409   0.097 -0.0673  0.3137  0.1550
 8989SOL    HW137646   3.773   0.489   0.047  1.8933 -0.9601 -0.6597
 8989SOL    HW237647   3.758   0.421   0.195  2.2951 -0.0602 -0.1990
 8990SOL     OW37648   7.670   8.974   1.117  0.0803 -0.0159 -0.1426
 8990SOL    HW137649   7.744   9.008   1.059  0.4213 -0.6974 -0.1181
 8990SOL    HW237650   7.591   8.951   1.060 -0.0417  0.5249 -0.1911
 8991SOL     OW37651   8.163   3.053   3.430  0.3179 -0.5114  0.2547
 8991SOL    HW137652   8.092   3.008   3.376 -0.1165  0.1754  0.2474
 8991SOL    HW237653   8.176   3.146   3.396 -1.3338  0.6091  2.5811
 8992SOL     OW37654   9.200   2.542   1.968 -0.6406  0.1997  0.0423
 8992SOL    HW137655   9.124   2.482   1.946 -1.7041  1.5100  0.1160
 8992SOL    HW237656   9.195   2.569   2.064 -0.4222  0.7663 -0.1017
 8993SOL     OW37657   8.495   7.644   3.051 -0.2642  0.1373  0.2710
 8993SOL    HW137658   8.485   7.550   3.084  0.9981  0.3090  1.1838
 8993SOL    HW237659   8.471   7.648   2.954 -2.7416 -0.6229  0.8110
 8994SOL     OW37660   0.884   9.513   1.339  0.0634  0.0623  0.1108
 8994SOL    HW137661   0.850   9.607   1.346  0.0782  0.1646 -1.0598
 8994SOL    HW237662   0.958   9.500   1.405 -1.6530  0.0811  2.0923
 8995SOL     OW37663   6.002   0.401   2.044  0.0702 -0.4403 -0.3801
 8995SOL    HW137664   5.920   0.351   2.015 -0.1182 -0.2605 -0.1632
 8995SOL    HW237665   6.048   0.350   2.117  0.5273 -0.8760 -0.9746
 8996SOL     OW37666   4.529   8.654   1.434  0.1046  0.8524 -0.5610
 8996SOL    HW137667   4.474   8.582   1.477 -1.5523  0.6947 -2.8693
 8996SOL    HW237668   4.574   8.708   1.505 -1.6972 -0.0753  1.3415
 8997SOL     OW37669   7.483   6.462   3.050 -0.3744 -0.3036  0.3804
 8997SOL    HW137670   7.452   6.554   3.023  1.3806  0.9794  2.6222
 8997SOL    HW237671   7.431   6.432   3.130 -0.1679 -0.8229  0.3206
 8998SOL     OW37672   5.158   9.739   2.299 -0.4146 -0.3090 -0.0982
 8998SOL    HW137673   5.199   9.790   2.375 -0.1237 -0.8623  0.1111
 8998SOL    HW237674   5.230   9.710   2.236 -0.5742 -0.5787 -0.1539
 8999SOL     OW37675   9.617   2.260   1.762 -0.3522  0.8308 -0.3381
 8999SOL    HW137676   9.600   2.329   1.692 -1.4536 -0.0209 -0.9358
 8999SOL    HW237677   9.565   2.177   1.740  0.3582  0.0807  0.7658
 9000SOL     OW37678   0.391   6.873   1.274  0.3416  0.0864 -0.1302
 9000SOL    HW137679   0.419   6.867   1.369  0.5434 -0.4408 -0.2225
 9000SOL    HW237680   0.304   6.923   1.267 -1.0521 -2.1866  0.5822
 9001SOL     OW37681   3.400   3.018   3.571 -0.8452 -0.1438  0.1858
 9001SOL    HW137682   3.382   3.061   3.483  1.5489 -0.3931 -0.4656
 9001SOL    HW237683   3.408   2.919   3.558  1.9834  0.0234  0.1791
 9002SOL     OW37684   6.487   1.028   2.706 -0.1931  0.2434 -0.2080
 9002SOL    HW137685   6.450   0.972   2.780  0.9789 -0.9148 -0.4896
 9002SOL    HW237686   6.482   1.125   2.732 -1.1453 -0.0537  0.7598
 9003SOL     OW37687   4.989   4.165   0.913 -0.6953  0.9128  0.1402
 9003SOL    HW137688   4.941   4.183   0.999 -1.7615  1.3872 -0.5404
 9003SOL    HW237689   4.942   4.091   0.864 -1.6961  2.4295 -1.2577
 9004SOL     OW37690   9.667   9.946   1.284 -0.1329 -0.1381 -0.1239
 9004SOL    HW137691   9.714   9.873   1.333 -0.8509 -1.2083 -1.0197
 9004SOL    HW237692   9.583   9.911   1.243 -0.3162  1.1052 -0.8538
 9005SOL     OW37693   3.891   0.107   3.242 -0.8069  0.1982  0.0705
 9005SOL    HW137694   3.839   0.051   3.178  1.6526 -2.0952 -0.0166
 9005SOL    HW237695   3.881   0.070   3.335 -0.7293  0.7733  0.3130
 9006SOL     OW37696   1.392   5.601   1.810 -0.0116  0.1115 -0.3857
 9006SOL    HW137697   1.414   5.698   1.798  1.2013 -0.3945 -2.5228
 9006SOL    HW237698   1.309   5.580   1.758  0.7564 -0.3838 -1.4137
 9007SOL     OW37699   0.020   5.132   1.094  0.3949 -0.1555 -0.1702
 9007SOL    HW137700   0.018   5.049   1.150  0.8098 -0.0427  0.0095
 9007SOL    HW237701   0.005   5.108   0.999 -0.8283 -0.2982  0.0464
 9008SOL     OW37702   0.560   0.116   0.630  0.9855  0.2412 -1.2714
 9008SOL    HW137703   0.495   0.046   0.599 -0.5057  2.4467 -3.3199
 9008SOL    HW237704   0.512   0.185   0.684  2.2938  0.1272  0.0703
 9009SOL     OW37705   1.499   5.786   4.578  0.2883 -0.0596 -0.5158
 9009SOL    HW137706   1.541   5.746   4.660  1.0250  1.2353 -0.2526
 9009SOL    HW237707   1.533   5.738   4.497  0.2993 -0.7149 -0.1265
 9010SOL     OW37708   5.317   8.501   3.248 -0.0506  0.1955  0.0844
 9010SOL    HW137709   5.274   8.418   3.214  0.2965  0.1203 -0.1682
 9010SOL    HW237710   5.305   8.507   3.347 -0.7128  0.2169  0.0057
 9011SOL     OW37711   3.865   7.748   2.837 -0.0907  0.3148  0.1443
 9011SOL    HW137712   3.814   7.820   2.884  0.5089  1.1461 -0.4619
 9011SOL    HW237713   3.844   7.751   2.739 -1.8063 -1.7925  0.3981
 9012SOL     OW37714   2.564   5.910   2.766 -0.5343 -0.0005  0.3876
 9012SOL    HW137715   2.563   6.009   2.750 -2.6748 -0.2112 -1.1076
 9012SOL    HW237716   2.505   5.888   2.844  0.3633 -0.0568  1.0542
 9013SOL     OW37717   8.840   8.606   0.355 -0.0223  0.4721 -0.5824
 9013SOL    HW137718   8.763   8.549   0.328  0.0842  0.3409 -0.6104
 9013SOL    HW237719   8.924   8.552   0.352  0.2571  0.9599 -1.8487
 9014SOL     OW37720   9.630   8.884   0.813 -0.0426 -0.3042  0.1238
 9014SOL    HW137721   9.581   8.962   0.854  0.7908  0.2455  0.0920
 9014SOL    HW237722   9.692   8.918   0.742 -1.2911 -1.2305 -1.4224
 9015SOL     OW37723   1.470   1.782   3.197  0.2119 -0.1787  0.4037
 9015SOL    HW137724   1.414   1.702   3.176  0.2850 -0.0732 -0.1956
 9015SOL    HW237725   1.456   1.853   3.128  1.3943 -0.3054  0.0242
 9016SOL     OW37726   8.526   5.942   3.049 -0.5999 -0.0296 -0.1281
 9016SOL    HW137727   8.621   5.961   3.022 -1.1222 -1.0653 -2.7236
 9016SOL    HW237728   8.517   5.845   3.072 -1.0873  0.0389 -0.0338
 9017SOL     OW37729   4.264   8.155   1.343 -0.2556  0.5381  0.0435
 9017SOL    HW137730   4.281   8.072   1.397  0.2845  1.0298  0.6390
 9017SOL    HW237731   4.350   8.204   1.331 -0.2783  0.1918 -1.6793
 9018SOL     OW37732   9.446   0.609   0.789  0.0335  0.7429 -0.2411
 9018SOL    HW137733   9.476   0.565   0.874  0.7148  0.5463 -0.5754
 9018SOL    HW237734   9.524   0.616   0.727 -0.1641  2.0758 -0.3498
 9019SOL     OW37735   3.064   0.702   0.659 -0.5351  0.1883  0.2536
 9019SOL    HW137736   2.982   0.668   0.705  0.0936 -0.0495  1.2011
 9019SOL    HW237737   3.057   0.682   0.561 -0.4635 -2.1216  0.6936
 9020SOL     OW37738   0.532   6.406   0.596 -0.3257  0.1541  0.0526
 9020SOL    HW137739   0.601   6.351   0.643 -0.6995 -1.0144 -0.7355
 9020SOL    HW237740   0.552   6.503   0.610 -0.8170 -0.1420  3.1737
 9021SOL     OW37741   9.763   1.904   1.629  0.8702 -0.0373  0.2134
 9021SOL    HW137742   9.848   1.852   1.624  1.2418  0.5361  0.5548
 9021SOL    HW237743   9.759   1.953   1.716  0.6805  0.7994 -0.2642
 9022SOL     OW37744   3.308   2.206   1.500  0.0882 -0.3777  0.0603
 9022SOL    HW137745   3.316   2.112   1.534  0.8932 -0.1086  0.6298
 9022SOL    HW237746   3.375   2.264   1.547  0.4723  0.2187 -1.2180
 9023SOL     OW37747   0.230   8.586   0.644  0.2795  0.2850 -0.1528
 9023SOL    HW137748   0.307   8.617   0.699  0.2944  1.4369 -0.8164
 9023SOL    HW237749   0.161   8.658   0.639 -0.4021 -0.3757 -0.3853
 9024SOL     OW37750   5.401   7.306   3.186 -0.0205  0.0951  0.2176
 9024SOL    HW137751   5.405   7.214   3.148 -0.1204  0.4645 -0.7071
 9024SOL    HW237752   5.306   7.337   3.189  0.1382  0.7002 -0.7866
 9025SOL     OW37753   1.980   7.450   4.513  0.2261  0.2032  0.1824
 9025SOL    HW137754   2.020   7.374   4.565  0.0978  1.1282  1.6357
 9025SOL    HW237755   1.960   7.526   4.574 -0.7000  0.9995 -1.0917
 9026SOL     OW37756   2.186   1.326   4.397  0.1770 -0.1774  0.0983
 9026SOL    HW137757   2.105   1.293   4.445 -0.2946  0.3917 -0.3072
 9026SOL    HW237758   2.168   1.327   4.298  0.2147  1.2120  0.0982
 9027SOL     OW37759   0.724   3.887   4.408 -0.1751 -0.0314 -0.2296
 9027SOL    HW137760   0.751   3.964   4.466  0.6586  0.3444 -1.1093
 9027SOL    HW237761   0.796   3.868   4.342 -0.2782 -1.7158  0.1085
 9028SOL     OW37762   3.988   9.082   1.024  0.2067  0.0168 -0.1092
 9028SOL    HW137763   3.922   9.149   1.059  0.8330  0.4275  0.3017
 9028SOL    HW237764   4.016   9.022   1.098  0.5926  0.0912 -0.1951
 9029SOL     OW37765   5.021   7.767   0.755  0.2710 -0.0491  0.1453
 9029SOL    HW137766   5.093   7.816   0.706 -0.8358  0.4082 -1.0499
 9029SOL    HW237767   4.992   7.821   0.835  0.9702 -0.0553  0.4043
 9030SOL     OW37768   2.671   5.646   4.584  0.2127 -0.3519  0.3582
 9030SOL    HW137769   2.706   5.552   4.582  0.3561 -0.3241  1.5728
 9030SOL    HW237770   2.572   5.643   4.600  0.5468 -0.2214  2.4909
 9031SOL     OW37771   2.777   2.972   0.237 -0.3209  0.1675  0.0054
 9031SOL    HW137772   2.688   2.979   0.192 -0.1414  0.3400 -0.3267
 9031SOL    HW237773   2.815   3.064   0.249  0.2381  0.0288 -0.7099
 9032SOL     OW37774   4.934   2.591   1.938  0.6033 -0.0730  0.0154
 9032SOL    HW137775   4.860   2.652   1.967  0.3439 -0.8689  1.0187
 9032SOL    HW237776   4.904   2.496   1.945  1.4492 -0.3679 -0.3473
 9033SOL     OW37777   0.900   4.154   2.127  0.6048 -0.1695  0.1390
 9033SOL    HW137778   0.916   4.202   2.040 -0.4315 -1.4242 -0.7566
 9033SOL    HW237779   0.880   4.222   2.198 -1.4443  0.7517 -1.2475
 9034SOL     OW37780   8.797   0.525   3.128 -0.0543  0.4219 -0.4121
 9034SOL    HW137781   8.738   0.549   3.050 -0.9340  0.2611  0.1887
 9034SOL    HW237782   8.869   0.594   3.139 -1.5818  1.9475  0.3178
 9035SOL     OW37783   1.598   5.172   1.883  0.3300  0.1535  0.3860
 9035SOL    HW137784   1.584   5.175   1.982 -0.5272 -0.1490  0.2719
 9035SOL    HW237785   1.583   5.264   1.845 -1.3746 -0.1597  0.2647
 9036SOL     OW37786   2.103   7.455   0.786  0.4045  0.0508 -0.7276
 9036SOL    HW137787   2.086   7.437   0.689 -0.7443  0.3688 -0.5957
 9036SOL    HW237788   2.015   7.460   0.834  0.9752 -0.3042  0.3614
 9037SOL     OW37789   7.704   1.447   3.429  0.4385  0.4286  0.8254
 9037SOL    HW137790   7.702   1.407   3.521  2.4268 -0.2773  0.5932
 9037SOL    HW237791   7.707   1.373   3.361 -1.3617  0.9376  0.1593
 9038SOL     OW37792   9.321   5.477   2.473  0.6657  0.0999 -0.4345
 9038SOL    HW137793   9.389   5.406   2.455  1.7482  0.2820  2.5980
 9038SOL    HW237794   9.359   5.566   2.448  0.4906 -0.0730 -1.3244
 9039SOL     OW37795   8.474   2.024   1.173 -0.1893  0.0578  0.0467
 9039SOL    HW137796   8.406   1.963   1.214 -1.2058  1.5411  0.6141
 9039SOL    HW237797   8.556   2.026   1.231 -0.7218  0.3469  0.8034
 9040SOL     OW37798   1.705   9.466   3.399 -0.1212 -0.3025  0.2537
 9040SOL    HW137799   1.766   9.454   3.478 -0.2423  1.6795  0.6688
 9040SOL    HW237800   1.756   9.449   3.315  0.1088 -2.0553  0.7341
 9041SOL     OW37801   2.608   8.166   1.584  0.3868  0.3286 -0.3267
 9041SOL    HW137802   2.540   8.108   1.629 -0.2601  0.2067 -1.4529
 9041SOL    HW237803   2.691   8.113   1.565  0.9039  0.5400  1.2601
 9042SOL     OW37804   4.247   8.523   3.076 -0.0390  0.3112 -0.5076
 9042SOL    HW137805   4.155   8.505   3.041 -0.1766 -0.0613  0.0177
 9042SOL    HW237806   4.281   8.440   3.122 -0.4867  1.2382  1.5767
 9043SOL     OW37807   8.037   9.919   1.285 -0.2148 -0.1137  0.2178
 9043SOL    HW137808   8.093   9.919   1.202 -1.2393  1.3205 -0.4942
 9043SOL    HW237809   7.969   9.846   1.279 -0.1530 -0.1463 -0.1246
 9044SOL     OW37810   2.009   6.212   0.033  0.2831  0.0358 -0.0243
 9044SOL    HW137811   2.031   6.290   0.090  2.5590  0.3725 -1.2864
 9044SOL    HW237812   2.044   6.227  -0.060  0.8683 -2.4904 -0.2668
 9045SOL     OW37813   8.658   7.635   2.336  0.4380  0.0135  0.3345
 9045SOL    HW137814   8.621   7.542   2.327  0.8213 -0.2443  1.3784
 9045SOL    HW237815   8.737   7.646   2.275 -1.4264  0.6185 -2.0246
 9046SOL     OW37816   6.008   8.222   2.311 -0.2738  0.2214 -0.3595
 9046SOL    HW137817   5.967   8.303   2.353 -0.3463  0.4886 -0.9511
 9046SOL    HW237818   6.105   8.240   2.292 -0.2644  0.1318 -0.3981
 9047SOL     OW37819   6.526   0.732   2.006 -0.9033  0.0848  0.2931
 9047SOL    HW137820   6.601   0.667   2.020  0.4091  1.7738  1.1864
 9047SOL    HW237821   6.446   0.682   1.971 -0.1885 -2.1534  1.7142
 9048SOL     OW37822   1.411   7.619   0.896  0.6107  0.0801 -0.0744
 9048SOL    HW137823   1.409   7.712   0.858 -1.6177  0.0780 -0.0372
 9048SOL    HW237824   1.318   7.583   0.899  1.2101 -1.3376  1.9482
 9049SOL     OW37825   7.735   0.255   0.451  0.8321 -0.0944 -0.9147
 9049SOL    HW137826   7.711   0.290   0.360 -2.2286  2.3803  0.7602
 9049SOL    HW237827   7.808   0.311   0.489 -1.3730  2.1506  0.1571
 9050SOL     OW37828   8.904   5.680   1.449  0.3010 -0.4237 -0.0819
 9050SOL    HW137829   8.993   5.712   1.482 -0.9216  2.1588  0.8234
 9050SOL    HW237830   8.913   5.656   1.352  2.1321 -0.7691  0.1460
 9051SOL     OW37831   2.002   0.693   3.881  0.7565  0.8766  0.1098
 9051SOL    HW137832   2.054   0.748   3.816  2.4817 -0.5860  0.2064
 9051SOL    HW237833   1.910   0.731   3.891 -0.4176 -0.2806 -5.0242
 9052SOL     OW37834   3.200   9.396   1.957 -0.1661 -0.0091 -0.4702
 9052SOL    HW137835   3.152   9.326   1.904  0.5421 -0.3167 -0.7106
 9052SOL    HW237836   3.254   9.351   2.029  2.0923  0.1269 -2.0505
 9053SOL     OW37837   8.594   5.654   2.784 -0.5793 -0.1766  0.0148
 9053SOL    HW137838   8.672   5.600   2.755  0.6233  1.0063  0.9829
 9053SOL    HW237839   8.566   5.627   2.877 -1.4265 -0.7133 -0.3928
 9054SOL     OW37840   1.756   8.143   3.718  0.2534  0.1635  0.3442
 9054SOL    HW137841   1.752   8.190   3.806 -1.0772 -0.0588  0.4067
 9054SOL    HW237842   1.806   8.057   3.727  0.2681  0.2278  0.8448
 9055SOL     OW37843   1.391   0.430   1.556 -0.5512 -0.6099 -0.2471
 9055SOL    HW137844   1.483   0.467   1.545 -0.8970  0.9264  1.7421
 9055SOL    HW237845   1.387   0.337   1.520  1.4795 -0.2800 -1.3582
 9056SOL     OW37846   3.661   7.008   3.556 -0.0116 -0.3378 -0.4211
 9056SOL    HW137847   3.601   6.954   3.496  0.5952  0.6469 -1.9502
 9056SOL    HW237848   3.644   6.984   3.651 -1.4947 -1.4398 -0.9521
 9057SOL     OW37849   1.275   6.260   3.572 -0.7507 -0.0757  0.3358
 9057SOL    HW137850   1.310   6.262   3.665  0.8163 -0.4585 -0.2179
 9057SOL    HW237851   1.344   6.298   3.510 -0.2568 -3.1230 -1.1019
 9058SOL     OW37852   4.785   4.382   0.549 -0.2183 -0.4446 -0.4482
 9058SOL    HW137853   4.856   4.454   0.546  0.2239 -0.9288 -2.3002
 9058SOL    HW237854   4.792   4.332   0.635 -0.1752  1.3727  0.6383
 9059SOL     OW37855   0.135   5.220   3.372  0.2128 -0.5085 -0.4775
 9059SOL    HW137856   0.235   5.224   3.364  0.3010 -0.0866  0.7541
 9059SOL    HW237857   0.106   5.273   3.451 -0.7984 -2.4650  0.5139
 9060SOL     OW37858   2.459   8.263   2.533  0.2536  0.1776  0.1558
 9060SOL    HW137859   2.460   8.175   2.485  0.3748  0.3036 -0.0704
 9060SOL    HW237860   2.387   8.262   2.603 -0.5101  0.3252 -0.6289
 9061SOL     OW37861   7.812   9.962   1.936  0.4099 -0.8020 -0.4653
 9061SOL    HW137862   7.739  10.026   1.961 -0.0936 -1.1663 -0.9880
 9061SOL    HW237863   7.849   9.987   1.847  1.4179 -0.1931  0.1166
 9062SOL     OW37864   0.094   8.737   2.764  0.0864 -0.3344  0.5802
 9062SOL    HW137865   0.181   8.769   2.801 -1.3478  1.3998  2.5712
 9062SOL    HW237866   0.082   8.772   2.671  0.7677  0.7872  0.9057
 9063SOL     OW37867   2.456   2.462   2.128 -0.0689  0.1473 -0.2545
 9063SOL    HW137868   2.452   2.516   2.212 -2.5087  2.0840 -1.5694
 9063SOL    HW237869   2.409   2.375   2.143 -0.5243  0.4930  0.3835
 9064SOL     OW37870   2.135   6.204   2.096 -0.7453 -0.1355 -0.1469
 9064SOL    HW137871   2.141   6.173   2.001 -0.7831 -1.1028  0.1657
 9064SOL    HW237872   2.225   6.239   2.124 -0.4595 -0.8041 -0.2135
 9065SOL     OW37873   2.639   1.582   2.281 -0.1806  0.2724  0.2084
 9065SOL    HW137874   2.657   1.489   2.248  0.1561 -0.3278  2.0711
 9065SOL    HW237875   2.635   1.644   2.202  1.1628 -1.0447 -0.9363
 9066SOL     OW37876   3.579   1.531   0.240 -0.1253 -0.0925  0.3352
 9066SOL    HW137877   3.634   1.448   0.255  0.5646  0.2740 -0.1408
 9066SOL    HW237878   3.487   1.516   0.275  0.3943 -0.5692  1.5240
 9067SOL     OW37879   1.976   2.652   2.418  0.0931 -0.5977 -0.5739
 9067SOL    HW137880   1.913   2.726   2.440  1.0741  0.0472  0.1003
 9067SOL    HW237881   1.959   2.574   2.478 -1.3587 -1.1636 -1.7028
 9068SOL     OW37882   3.281   7.434   2.981  0.3686 -0.1024 -0.0118
 9068SOL    HW137883   3.264   7.474   3.071 -1.2383 -0.1846 -0.2667
 9068SOL    HW237884   3.291   7.335   2.990  2.6428  0.1441  0.3891
 9069SOL     OW37885   1.730   0.736   0.822 -0.3817  0.2226  0.3489
 9069SOL    HW137886   1.636   0.765   0.843 -0.2599  0.5449  0.4465
 9069SOL    HW237887   1.773   0.804   0.763 -0.9336 -0.9895 -1.4819
 9070SOL     OW37888   2.730   4.189   1.869  0.0197 -0.3649  0.1123
 9070SOL    HW137889   2.731   4.136   1.784 -1.6546 -2.4052  1.3015
 9070SOL    HW237890   2.800   4.153   1.930 -1.0002 -1.1265  0.8540
 9071SOL     OW37891   0.650   3.367   1.249 -0.5368 -0.1228  0.9276
 9071SOL    HW137892   0.695   3.322   1.326 -0.6643 -0.2894  0.9070
 9071SOL    HW237893   0.667   3.465   1.253 -0.0412 -0.2032  0.8287
 9072SOL     OW37894   7.940   6.409   3.119  0.7939  0.3769  0.6847
 9072SOL    HW137895   7.924   6.311   3.106 -1.0798  0.7534  0.1098
 9072SOL    HW237896   8.008   6.421   3.192 -1.2446 -1.2912  2.9763
 9073SOL     OW37897   4.428   9.885   0.036 -0.2364 -0.2352 -0.7140
 9073SOL    HW137898   4.420   9.789   0.064 -0.7248 -1.3178 -4.3161
 9073SOL    HW237899   4.493   9.892  -0.039 -0.5923  2.1931 -0.8194
 9074SOL     OW37900   9.912   1.666   3.585  0.3768  0.1891  0.1151
 9074SOL    HW137901   9.853   1.744   3.607  2.8469  1.3944  2.8301
 9074SOL    HW237902   9.969   1.689   3.506  0.0484  0.5602 -0.0164
 9075SOL     OW37903   1.575   9.774   1.448  0.1834  0.1247  0.1564
 9075SOL    HW137904   1.511   9.761   1.525 -0.2452 -0.4516 -0.2932
 9075SOL    HW237905   1.529   9.750   1.363  0.6519  0.8042 -0.2903
 9076SOL     OW37906   2.274   3.919   3.306 -0.6743 -0.2221  0.3176
 9076SOL    HW137907   2.290   3.883   3.398 -2.3559 -0.0654  0.6855
 9076SOL    HW237908   2.204   3.990   3.310  0.2980  0.8152 -0.8799
 9077SOL     OW37909   9.200   8.932   4.605 -0.5815 -0.5006 -0.0649
 9077SOL    HW137910   9.241   9.019   4.576  0.0299 -1.4686 -2.2442
 9077SOL    HW237911   9.174   8.879   4.524 -1.0220 -2.3123  1.2277
 9078SOL     OW37912   4.129   6.901   2.084 -0.1245  0.4117  0.0628
 9078SOL    HW137913   4.038   6.874   2.118 -0.3740  0.5095 -0.5185
 9078SOL    HW237914   4.130   6.999   2.064 -0.0945  0.2863 -0.5599
 9079SOL     OW37915   9.394   0.211   2.858 -0.1753  0.0648  0.1941
 9079SOL    HW137916   9.357   0.190   2.949  0.2406 -0.4006  0.2600
 9079SOL    HW237917   9.492   0.228   2.866  0.1401 -1.4011 -0.3785
 9080SOL     OW37918   7.861   9.363   3.136 -0.3369  0.0674 -0.6001
 9080SOL    HW137919   7.829   9.452   3.169  0.7998 -0.0719  0.8955
 9080SOL    HW237920   7.958   9.353   3.155 -0.7785 -2.1289  0.6424
 9081SOL     OW37921   0.233   1.356   1.237  0.5703 -0.2113  0.2709
 9081SOL    HW137922   0.185   1.443   1.246 -1.6479 -1.2039 -1.1939
 9081SOL    HW237923   0.278   1.352   1.147 -1.4716 -1.5066 -0.7524
 9082SOL     OW37924   2.596   7.799   3.946 -0.0822 -0.0785  0.0454
 9082SOL    HW137925   2.627   7.880   3.898  1.2176  0.0767  1.1282
 9082SOL    HW237926   2.527   7.824   4.014  1.6059  0.4151  1.6342
 9083SOL     OW37927   2.527   9.259   0.762  0.2627  0.0472  0.4150
 9083SOL    HW137928   2.572   9.262   0.673 -1.0172 -1.5816 -0.3139
 9083SOL    HW237929   2.594   9.235   0.832  1.5336  2.5518  0.1090
 9084SOL     OW37930   4.887   9.523   1.507 -0.6310  0.0904 -0.0969
 9084SOL    HW137931   4.803   9.532   1.453  1.0731  1.9442 -2.5414
 9084SOL    HW237932   4.949   9.460   1.460 -1.1705 -2.4181  2.4426
 9085SOL     OW37933   4.835   1.787   0.489 -0.3691 -0.0519 -0.5000
 9085SOL    HW137934   4.789   1.712   0.442  0.2153 -1.3489  0.9458
 9085SOL    HW237935   4.820   1.779   0.587 -0.9449  2.1836 -0.3717
 9086SOL     OW37936   3.838   3.292   2.115  0.2962 -0.1423 -0.0017
 9086SOL    HW137937   3.938   3.287   2.117  0.3557  0.8147 -0.3084
 9086SOL    HW237938   3.799   3.202   2.138  1.2291 -0.8530 -1.1252
 9087SOL     OW37939   0.654   2.280   0.691  0.0642 -0.3660 -0.0019
 9087SOL    HW137940   0.715   2.216   0.644  0.3918 -0.7080  0.8765
 9087SOL    HW237941   0.678   2.374   0.664  1.7317 -0.4214  1.1736
 9088SOL     OW37942   5.641   7.501   2.437 -0.3040 -0.1010  0.2043
 9088SOL    HW137943   5.645   7.408   2.399 -2.3717 -0.1238  0.0122
 9088SOL    HW237944   5.664   7.567   2.366  1.0178 -0.4446  0.2994
 9089SOL     OW37945   6.610   0.034   3.988 -0.0084  0.5414 -0.0927
 9089SOL    HW137946   6.562  -0.007   4.065  1.0552  2.5936  1.7235
 9089SOL    HW237947   6.551   0.033   3.907 -1.5095 -0.7417  0.9895
 9090SOL     OW37948   1.572   2.969   0.250  0.1110  0.3358 -0.3463
 9090SOL    HW137949   1.568   3.066   0.228 -0.2285  0.8821  1.9984
 9090SOL    HW237950   1.661   2.947   0.291  1.1565 -0.8740 -3.1831
 9091SOL     OW37951   8.388   5.817   4.691 -0.4818  0.1499  0.1545
 9091SOL    HW137952   8.345   5.894   4.644 -0.4526 -0.3294 -0.6684
 9091SOL    HW237953   8.396   5.740   4.628  2.6952  0.6105 -0.0830
 9092SOL     OW37954   1.593   5.002   3.207 -0.4708  0.2513 -0.2634
 9092SOL    HW137955   1.603   4.907   3.177  1.8306  0.2000  0.5874
 9092SOL    HW237956   1.548   5.055   3.135 -1.8360 -1.4648 -0.7303
 9093SOL     OW37957   4.242   9.912   2.931  0.1875 -0.1782 -0.0860
 9093SOL    HW137958   4.243   9.886   2.834 -1.7132 -1.3290  0.1766
 9093SOL    HW237959   4.317   9.976   2.949  1.9455 -1.6759 -1.8247
 9094SOL     OW37960   8.442   5.202   0.714  0.6500  0.1441 -0.7850
 9094SOL    HW137961   8.360   5.151   0.687  0.5577 -0.7404  1.0464
 9094SOL    HW237962   8.415   5.281   0.768  1.0082 -0.6010  0.5236
 9095SOL     OW37963   2.735   4.987   4.061  0.4070  0.3166 -0.4246
 9095SOL    HW137964   2.663   4.957   3.999  0.4508 -0.7652  0.0286
 9095SOL    HW237965   2.782   5.066   4.023  0.4023 -0.3109 -1.7398
 9096SOL     OW37966   4.459   0.212   3.636  0.0796 -0.1035  0.0622
 9096SOL    HW137967   4.420   0.223   3.727 -0.3188 -0.8974 -0.0124
 9096SOL    HW237968   4.498   0.120   3.627 -0.0840 -0.1039 -0.6466
 9097SOL     OW37969   5.392   7.220   2.495 -0.4170  0.0827 -0.1528
 9097SOL    HW137970   5.490   7.199   2.494 -0.4321 -0.0430  0.9713
 9097SOL    HW237971   5.362   7.243   2.402  1.0890  2.0108 -0.1953
 9098SOL     OW37972   8.507   5.549   1.430  0.4805  0.8204  0.1932
 9098SOL    HW137973   8.541   5.544   1.336  1.0397  1.1008  0.3819
 9098SOL    HW237974   8.511   5.459   1.472 -0.1981  0.6010 -0.2001
 9099SOL     OW37975   8.945   3.918   1.869  0.4093 -0.1931 -0.0989
 9099SOL    HW137976   9.015   3.981   1.836  3.3320 -2.1979  1.9307
 9099SOL    HW237977   8.909   3.951   1.957  1.0815 -0.7138  0.3800
 9100SOL     OW37978   2.693   2.653   4.109 -0.0405 -0.0610  0.7070
 9100SOL    HW137979   2.753   2.577   4.132  2.2745  1.3258 -0.4818
 9100SOL    HW237980   2.660   2.642   4.015 -0.8741 -0.3335  1.0313
 9101SOL     OW37981   8.806   1.643   2.184 -0.1741 -0.3165 -0.1049
 9101SOL    HW137982   8.742   1.626   2.109  0.1723  1.8212 -0.9124
 9101SOL    HW237983   8.899   1.647   2.149  0.0957 -0.2791  0.5997
 9102SOL     OW37984   0.223   7.279   3.532  0.0340 -0.2412  0.3298
 9102SOL    HW137985   0.303   7.254   3.477 -0.9265 -0.0516 -1.2074
 9102SOL    HW237986   0.178   7.196   3.565 -0.3681 -0.4313 -0.6578
 9103SOL     OW37987   9.771   2.591   0.113  0.0107 -0.0562 -0.1572
 9103SOL    HW137988   9.863   2.552   0.120  0.2779  0.1321 -2.2586
 9103SOL    HW237989   9.755   2.653   0.190  1.5316 -0.3168  0.3830
 9104SOL     OW37990   3.265   0.368   4.505 -0.2847 -0.0436  0.2708
 9104SOL    HW137991   3.335   0.297   4.514  0.3767  0.6270  0.4517
 9104SOL    HW237992   3.248   0.411   4.594 -0.4953  0.2021  0.1138
 9105SOL     OW37993   0.057   6.215   2.098 -0.1239  0.0585 -0.1254
 9105SOL    HW137994   0.113   6.204   2.180 -0.3270  0.4250  0.0642
 9105SOL    HW237995   0.032   6.126   2.061 -0.8797 -0.1123  0.7868
 9106SOL     OW37996   2.364   6.929   1.026 -0.4780  0.0927  0.0456
 9106SOL    HW137997   2.409   6.844   0.998  0.7053  0.6799  0.1584
 9106SOL    HW237998   2.335   6.979   0.945  0.3857  0.4184 -0.0631
 9107SOL     OW37999   4.071   0.522   0.691 -0.2698 -0.5034 -0.2691
 9107SOL    HW138000   4.067   0.422   0.689  0.3168 -0.5636  1.3913
 9107SOL    HW238001   4.010   0.559   0.620 -2.0328 -2.0048  0.4348
 9108SOL     OW38002   9.127   7.785   1.328  0.5663 -0.5573 -0.3064
 9108SOL    HW138003   9.199   7.839   1.371  2.1515 -1.0035 -2.3065
 9108SOL    HW238004   9.041   7.797   1.378  1.7539  0.8919  1.4305
 9109SOL     OW38005   9.098   6.283   4.717 -0.1675 -0.0571  0.2033
 9109SOL    HW138006   9.024   6.233   4.673  0.2974 -0.7834  0.2262
 9109SOL    HW238007   9.131   6.231   4.796  0.3603  0.2583  0.1974
 9110SOL     OW38008   2.965   5.154   1.350 -0.3906 -0.4656  0.6439
 9110SOL    HW138009   2.867   5.152   1.330 -0.6095 -1.6938  1.7374
 9110SOL    HW238010   2.983   5.100   1.433  1.2768 -0.6517  0.1783
 9111SOL     OW38011   0.610   9.486   2.388 -0.4354 -0.0004  0.1783
 9111SOL    HW138012   0.685   9.550   2.403 -0.2846  0.2886 -1.6780
 9111SOL    HW238013   0.634   9.424   2.313 -2.3312  0.5815 -0.9526
 9112SOL     OW38014   2.392   0.610   2.560 -0.2399 -0.4265 -0.0563
 9112SOL    HW138015   2.459   0.645   2.626 -1.8220  0.7499  0.9529
 9112SOL    HW238016   2.325   0.681   2.540 -1.1012 -1.5401 -1.1939
 9113SOL     OW38017   7.976   2.898   3.275  0.6347 -0.2125 -0.5173
 9113SOL    HW138018   7.977   2.916   3.176 -2.1580 -2.9985 -1.1303
 9113SOL    HW238019   8.021   2.811   3.293 -0.6371 -0.6887  0.4048
 9114SOL     OW38020   3.586   1.832   2.328  0.0915  0.0294 -0.2754
 9114SOL    HW138021   3.613   1.809   2.234  2.8888 -0.8851  0.6885
 9114SOL    HW238022   3.544   1.751   2.371  1.7882 -0.5952  0.2624
 9115SOL     OW38023   3.564   7.078   0.711 -0.4998  0.0061 -0.0917
 9115SOL    HW138024   3.507   7.005   0.672 -0.8714 -0.1350  0.7140
 9115SOL    HW238025   3.547   7.085   0.809  1.0758 -0.2051  0.1994
 9116SOL     OW38026   2.788   4.017   2.243 -0.0963  0.2617  0.6538
 9116SOL    HW138027   2.797   3.926   2.283  0.2674  0.1359  0.2952
 9116SOL    HW238028   2.791   4.086   2.315  1.9239  0.1165  0.7450
 9117SOL     OW38029   1.551   1.280   3.746  0.2777  0.0454  0.1036
 9117SOL    HW138030   1.557   1.315   3.652  2.8225 -0.2576  0.1193
 9117SOL    HW238031   1.505   1.348   3.803  0.8717  1.3006 -0.8676
 9118SOL     OW38032   9.399   6.566   3.694 -0.6528 -0.3219  0.7171
 9118SOL    HW138033   9.381   6.591   3.598 -1.0396  0.2865  0.9486
 9118SOL    HW238034   9.420   6.468   3.699 -0.7245 -0.3780  0.0203
 9119SOL     OW38035   2.490   7.886   0.737  0.0206  0.0011  0.1587
 9119SOL    HW138036   2.587   7.896   0.717 -0.0949 -0.3202 -0.5864
 9119SOL    HW238037   2.440   7.966   0.704  0.3912  1.4913  3.0837
 9120SOL     OW38038   2.810   5.394   4.596  0.3859 -0.2039 -0.0582
 9120SOL    HW138039   2.800   5.313   4.538  0.3392 -1.8283  2.1766
 9120SOL    HW238040   2.905   5.424   4.596  1.1336 -2.4493  1.9292
 9121SOL     OW38041   9.533   4.389   4.195  0.1091  0.6111  0.0665
 9121SOL    HW138042   9.483   4.344   4.121  1.0821 -1.1982  0.4726
 9121SOL    HW238043   9.470   4.444   4.249 -1.5648 -1.8566  0.7509
 9122SOL     OW38044   9.195   3.750   4.614  0.4767 -0.3495 -0.2980
 9122SOL    HW138045   9.131   3.679   4.645 -0.5800  0.4337 -0.6692
 9122SOL    HW238046   9.288   3.714   4.617  0.1712 -1.0545  1.5874
 9123SOL     OW38047   9.274   4.920   0.670  0.0222  0.3672 -0.3715
 9123SOL    HW138048   9.284   5.009   0.626  1.9325 -0.7139 -2.2313
 9123SOL    HW238049   9.282   4.931   0.769  0.3931  2.2424 -0.5903
 9124SOL     OW38050   3.742   4.225   2.481 -0.4050 -0.7222  0.3678
 9124SOL    HW138051   3.756   4.172   2.397 -1.0963  0.0052 -0.2157
 9124SOL    HW238052   3.644   4.230   2.501 -0.2932 -0.2903  0.8243
 9125SOL     OW38053   1.139   1.554   1.916 -0.0067  0.0979  0.0697
 9125SOL    HW138054   1.084   1.559   1.999  1.0159  0.1788  0.7559
 9125SOL    HW238055   1.132   1.462   1.877  0.2490 -0.2260  0.7695
 9126SOL     OW38056   0.566   5.034   3.738 -0.2820 -0.4338 -0.7672
 9126SOL    HW138057   0.488   4.976   3.715 -1.0995  0.3030  0.1168
 9126SOL    HW238058   0.605   5.004   3.826 -0.9675  0.6036 -0.0989
 9127SOL     OW38059   8.155   3.699   3.367 -0.0525  0.0824 -0.0765
 9127SOL    HW138060   8.144   3.680   3.269 -0.0551  0.4184 -0.1417
 9127SOL    HW238061   8.111   3.786   3.389 -0.0503  0.0078  0.2244
 9128SOL     OW38062   1.464   2.950   2.223  0.4023 -0.3109  0.2213
 9128SOL    HW138063   1.411   2.943   2.138  3.0483 -0.3954 -1.4768
 9128SOL    HW238064   1.528   2.874   2.229  2.6248  1.5340  0.5820
 9129SOL     OW38065   8.873   0.998   3.599 -0.0759 -0.2241  0.0576
 9129SOL    HW138066   8.826   1.031   3.517 -0.0390  0.0211  0.1350
 9129SOL    HW238067   8.971   0.988   3.579 -0.1779 -0.8624 -0.1423
 9130SOL     OW38068   6.509   9.049   1.412 -0.0535  0.5018 -0.0193
 9130SOL    HW138069   6.559   9.134   1.394 -0.2119  0.5344 -0.3127
 9130SOL    HW238070   6.567   8.971   1.388 -0.9028  0.5596 -2.4436
 9131SOL     OW38071   9.014   9.001   0.504 -0.6047 -0.0008  0.2245
 9131SOL    HW138072   8.930   9.043   0.472 -0.9544 -0.4337  0.5585
 9131SOL    HW238073   8.998   8.957   0.593  0.1856  0.6342  0.6891
 9132SOL     OW38074   0.930   6.254   2.706  0.2414  0.5127 -0.5077
 9132SOL    HW138075   0.945   6.291   2.614 -0.4300 -0.7412 -1.1203
 9132SOL    HW238076   0.862   6.310   2.753  1.3216  1.7716 -0.3870
 9133SOL     OW38077   0.343   8.885   1.913 -0.0353 -0.7445 -0.2453
 9133SOL    HW138078   0.425   8.904   1.968 -0.6673  1.8268 -0.1260
 9133SOL    HW238079   0.300   8.800   1.945  0.0198  0.3028  2.7499
 9134SOL     OW38080   5.976   9.700   1.745 -0.3263 -0.4801  0.0514
 9134SOL    HW138081   5.985   9.793   1.710  1.7026 -0.2884  0.9764
 9134SOL    HW238082   6.037   9.639   1.695 -1.5922 -1.3152 -0.5031
 9135SOL     OW38083   8.357   7.796   4.503  0.0041  0.4950  0.3684
 9135SOL    HW138084   8.338   7.713   4.451  3.7617  0.4121 -1.0340
 9135SOL    HW238085   8.291   7.867   4.478 -1.3871 -1.1143 -0.6449
 9136SOL     OW38086   8.098   4.399   0.079  0.0800 -0.2970 -0.0988
 9136SOL    HW138087   8.086   4.497   0.092  0.2840 -0.1150 -1.2342
 9136SOL    HW238088   8.112   4.355   0.168  0.4294  0.7565  0.3783
 9137SOL     OW38089   0.248   9.698   0.573 -0.3244 -0.7706  0.2871
 9137SOL    HW138090   0.217   9.760   0.502 -1.7034 -1.3015  0.4088
 9137SOL    HW238091   0.212   9.728   0.662  2.3877  0.6050  0.9855
 9138SOL     OW38092   7.323   0.324   1.074  0.0012  0.2139  0.2846
 9138SOL    HW138093   7.290   0.329   0.980  0.5509  0.5161  0.1038
 9138SOL    HW238094   7.406   0.268   1.078  0.4009  0.8088  0.4675
 9139SOL     OW38095   9.033   7.937   3.929  0.2269 -0.4384  0.4634
 9139SOL    HW138096   8.937   7.944   3.955  0.1829 -1.2127  0.5435
 9139SOL    HW238097   9.044   7.863   3.863  0.5727  0.5500 -0.5886
 9140SOL     OW38098   9.714   3.565   3.040 -0.2410 -0.0726  0.1656
 9140SOL    HW138099   9.694   3.468   3.022  1.2287 -0.6316  1.4812
 9140SOL    HW238100   9.755   3.575   3.131 -0.9388  1.8674  0.2890
 9141SOL     OW38101   1.613   1.068   2.485  0.2875  0.4758 -0.3097
 9141SOL    HW138102   1.694   1.109   2.443 -0.4832  3.4874  1.0303
 9141SOL    HW238103   1.536   1.075   2.422  0.6587 -0.9046 -0.9330
 9142SOL     OW38104   7.674   9.637   4.368 -0.3383 -0.2399 -0.0211
 9142SOL    HW138105   7.715   9.616   4.279  0.4943  1.4634 -0.0472
 9142SOL    HW238106   7.698   9.565   4.434 -0.0433 -0.9300 -0.8750
 9143SOL     OW38107   2.474   9.140   4.623 -0.1273 -0.4785  0.4036
 9143SOL    HW138108   2.573   9.131   4.632 -0.2581 -1.0159  1.3737
 9143SOL    HW238109   2.441   9.208   4.688 -0.4563 -0.6304  0.3958
 9144SOL     OW38110   9.820   3.750   0.283 -0.1056  0.4820 -0.5579
 9144SOL    HW138111   9.857   3.764   0.375  0.1822 -1.6959 -0.3254
 9144SOL    HW238112   9.727   3.713   0.289  0.0946 -0.1191 -1.1577
 9145SOL     OW38113   3.217   4.302   2.893  0.4390  0.3801  0.4582
 9145SOL    HW138114   3.303   4.264   2.861  0.4258  1.1268 -0.4936
 9145SOL    HW238115   3.228   4.401   2.907 -0.1502  0.4115  0.6978
 9146SOL     OW38116   4.899   2.958   1.949  0.0930 -0.1836 -0.1604
 9146SOL    HW138117   4.835   2.998   1.884  1.3321  1.1355 -0.5880
 9146SOL    HW238118   4.862   2.871   1.982 -1.2390 -0.1555 -1.4923
 9147SOL     OW38119   2.295   2.579   3.694  0.7446  0.3112 -0.2566
 9147SOL    HW138120   2.281   2.672   3.660  0.9298  0.2681 -0.4510
 9147SOL    HW238121   2.218   2.554   3.753  0.3162  0.3116 -0.8060
 9148SOL     OW38122   9.948   3.048   2.550 -0.0281  0.2253 -0.3555
 9148SOL    HW138123   9.856   3.020   2.522 -0.3476  1.2410 -0.3575
 9148SOL    HW238124   9.944   3.094   2.638  0.3487  1.0566 -0.7605
 9149SOL     OW38125   2.301   4.352   1.413 -0.5302 -0.2864 -0.5485
 9149SOL    HW138126   2.357   4.294   1.472 -2.2910 -0.8192  0.6443
 9149SOL    HW238127   2.303   4.317   1.320 -0.9313 -1.7951  0.0012
 9150SOL     OW38128   0.586   8.366   3.163  0.1434  0.0008  0.1937
 9150SOL    HW138129   0.516   8.377   3.233  0.1400 -0.2612  0.2321
 9150SOL    HW238130   0.674   8.395   3.199 -0.4332  3.1627 -0.8010
 9151SOL     OW38131   5.213   8.930   2.230 -0.5058  0.1317  0.3903
 9151SOL    HW138132   5.146   9.003   2.244 -0.3495  0.9063 -2.5017
 9151SOL    HW238133   5.256   8.906   2.317 -1.9257  2.1428  1.6828
 9152SOL     OW38134   3.131   0.797   2.239  0.3020 -0.1344 -0.4504
 9152SOL    HW138135   3.150   0.869   2.305  1.4857 -0.2120 -0.6887
 9152SOL    HW238136   3.061   0.736   2.275 -1.6671  1.8640 -0.7907
 9153SOL     OW38137   8.100   0.478   3.329 -0.2389  0.0896 -0.4223
 9153SOL    HW138138   8.093   0.479   3.230  2.0185  0.3479 -0.5905
 9153SOL    HW238139   8.166   0.408   3.357 -0.2536  0.5742  0.8499
 9154SOL     OW38140   7.953   5.010   4.564  0.1636 -0.5472 -0.5273
 9154SOL    HW138141   8.007   4.926   4.562  0.5907 -0.2676 -0.8516
 9154SOL    HW238142   8.007   5.083   4.606 -0.0312 -0.3174 -0.6755
 9155SOL     OW38143   3.838   3.535   3.500  0.2640  0.1117  0.2858
 9155SOL    HW138144   3.864   3.469   3.570  1.2914 -0.6732 -0.8224
 9155SOL    HW238145   3.776   3.491   3.434 -0.7718  0.8693  0.7473
 9156SOL     OW38146   0.366   8.195   1.825 -0.0147 -0.2094 -0.1615
 9156SOL    HW138147   0.463   8.213   1.836  0.0263 -1.4372  1.5819
 9156SOL    HW238148   0.329   8.154   1.908 -1.9427 -0.1307 -0.9418
 9157SOL     OW38149   1.986   0.228   0.476 -0.1394 -0.4390 -0.2073
 9157SOL    HW138150   1.902   0.240   0.423 -0.0718 -1.3979 -0.5537
 9157SOL    HW238151   1.989   0.134   0.512 -0.4108  0.3302  1.9002
 9158SOL     OW38152   4.490   6.612   3.180 -0.4107 -1.4627 -0.0694
 9158SOL    HW138153   4.417   6.582   3.118 -1.5027  0.7305  0.1120
 9158SOL    HW238154   4.450   6.645   3.265  0.7685 -0.1208 -0.0113
 9159SOL     OW38155   5.584   3.587   4.543  0.1605 -0.0510 -0.2095
 9159SOL    HW138156   5.528   3.512   4.580  0.8290 -1.4845 -2.0260
 9159SOL    HW238157   5.524   3.661   4.513 -0.5767 -0.2677  0.6759
 9160SOL     OW38158   4.268   8.639   4.085 -0.0741  0.0744  0.4455
 9160SOL    HW138159   4.299   8.711   4.023 -1.1957  0.5689  0.4512
 9160SOL    HW238160   4.187   8.670   4.135  0.4877 -0.5349  1.7495
 9161SOL     OW38161   5.308   8.488   2.842 -0.2675 -0.4010 -0.5337
 9161SOL    HW138162   5.332   8.493   2.745  0.1108  0.0916 -0.4136
 9161SOL    HW238163   5.230   8.548   2.861 -0.8228 -1.0732 -0.6823
 9162SOL     OW38164   9.098   2.333   1.086  0.2721  0.2212 -0.3939
 9162SOL    HW138165   9.130   2.257   1.029  0.5545 -0.0322  0.1022
 9162SOL    HW238166   9.065   2.298   1.173 -1.2215  0.4996 -0.8473
 9163SOL     OW38167   9.736   6.960   0.720  0.1073 -0.1364  0.5741
 9163SOL    HW138168   9.832   6.973   0.744  0.6536  2.2538 -2.5523
 9163SOL    HW238169   9.723   6.981   0.623 -3.4198 -1.3114  0.7311
 9164SOL     OW38170   3.570   7.575   3.374  0.1345 -0.1122  0.0570
 9164SOL    HW138171   3.491   7.634   3.385  0.0151 -0.0871 -0.8807
 9164SOL    HW238172   3.550   7.485   3.413 -0.6818 -0.3748 -0.9196
 9165SOL     OW38173   1.746   2.270   2.380 -0.1067  0.5043 -0.0046
 9165SOL    HW138174   1.778   2.232   2.467  1.2404 -2.4204 -1.7131
 9165SOL    HW238175   1.684   2.204   2.337 -0.1872  1.6304 -1.6200
 9166SOL     OW38176   1.027   4.552   4.255  0.0615 -0.0963  0.5975
 9166SOL    HW138177   1.127   4.557   4.262  0.1560  0.6358 -1.0986
 9166SOL    HW238178   0.986   4.622   4.315  0.6892  2.2602 -1.6347
 9167SOL     OW38179   3.267   8.811   2.494  0.0552 -0.1463  0.3105
 9167SOL    HW138180   3.182   8.827   2.445 -0.4970 -1.6621  0.7310
 9167SOL    HW238181   3.263   8.722   2.539  1.8344 -0.2014  0.3998
 9168SOL     OW38182   8.473   0.602   3.990 -0.5003 -0.3643  0.2959
 9168SOL    HW138183   8.459   0.550   3.905  0.2111 -0.2463  0.1030
 9168SOL    HW238184   8.489   0.698   3.967 -0.8406 -0.2350  0.5979
 9169SOL     OW38185   7.087   0.156   4.245 -0.0186  0.3220 -0.2245
 9169SOL    HW138186   6.987   0.155   4.233  0.1114 -0.1160 -1.3914
 9169SOL    HW238187   7.117   0.248   4.267 -0.6848  0.4657  0.0820
 9170SOL     OW38188   8.311   3.373   1.328  1.1047  0.4841  0.3652
 9170SOL    HW138189   8.395   3.380   1.383 -0.6252  0.9788  3.0550
 9170SOL    HW238190   8.249   3.308   1.372  0.2508 -0.2576 -1.8688
 9171SOL     OW38191   2.594   9.845   3.179  0.3444  0.1669 -0.1757
 9171SOL    HW138192   2.515   9.808   3.130  0.6619 -0.1393 -0.4616
 9171SOL    HW238193   2.617   9.935   3.141 -0.2988  0.5724  0.3795
 9172SOL     OW38194   4.661   6.581   2.090 -0.0140  0.0950 -0.1828
 9172SOL    HW138195   4.655   6.680   2.096  1.5367  0.1205  1.1718
 9172SOL    HW238196   4.571   6.540   2.106 -0.3020  1.2005  1.0614
 9173SOL     OW38197   6.722   8.040   1.918 -0.4464 -0.2369  0.0324
 9173SOL    HW138198   6.686   8.115   1.973  0.4032  0.9066 -0.9463
 9173SOL    HW238199   6.743   7.962   1.977 -0.0822  0.7594  1.2421
 9174SOL     OW38200   2.417   1.173   1.873  0.1954 -0.4198  0.0333
 9174SOL    HW138201   2.517   1.174   1.866  0.2074  0.0887  0.2223
 9174SOL    HW238202   2.391   1.180   1.969 -0.0201 -0.9636  0.0150
 9175SOL     OW38203   4.290   8.696   3.626 -0.2738  0.0871 -0.2305
 9175SOL    HW138204   4.298   8.612   3.679  3.3038 -0.4559 -1.4912
 9175SOL    HW238205   4.229   8.681   3.548 -1.0828 -0.7776  0.5519
 9176SOL     OW38206   2.556   0.360   3.585 -0.4875 -0.1101  0.8356
 9176SOL    HW138207   2.628   0.421   3.620 -0.1245  0.4239 -0.7812
 9176SOL    HW238208   2.576   0.266   3.611  1.8074 -0.2203 -1.1284
 9177SOL     OW38209   7.993   0.308   0.209 -0.1500 -0.1662  0.4933
 9177SOL    HW138210   7.939   0.223   0.213  0.1919 -0.3510  1.3190
 9177SOL    HW238211   8.001   0.346   0.301  0.1788  0.4647  0.2022
 9178SOL     OW38212   9.752   0.553   0.241 -0.4861  0.1829  0.3933
 9178SOL    HW138213   9.706   0.625   0.293 -1.5121  0.2346 -0.5574
 9178SOL    HW238214   9.709   0.546   0.150  1.9839  0.8814 -0.8764
 9179SOL     OW38215   1.765   7.228   3.532  0.1391 -0.1832  0.8229
 9179SOL    HW138216   1.720   7.149   3.572 -0.1460 -0.1150  0.6404
 9179SOL    HW238217   1.854   7.202   3.496 -0.6572 -0.7878 -0.7464
 9180SOL     OW38218   8.046   5.347   3.197 -0.4779 -0.1907  0.2125
 9180SOL    HW138219   8.087   5.434   3.169  0.5096 -0.6548  0.1731
 9180SOL    HW238220   7.956   5.337   3.155 -0.5274  0.7327  0.0841
 9181SOL     OW38221   2.413   5.507   3.709 -0.3642  0.1803  0.1488
 9181SOL    HW138222   2.345   5.553   3.765 -0.7309 -1.4382  1.0578
 9181SOL    HW238223   2.388   5.515   3.612 -2.9237 -2.0406  0.5705
 9182SOL     OW38224   1.205   9.991   4.358  0.4788 -0.3082  0.3527
 9182SOL    HW138225   1.186  10.057   4.431  0.1296 -1.0073  0.8886
 9182SOL    HW238226   1.140   9.915   4.363  1.7895 -1.4381  0.6612
 9183SOL     OW38227   9.877   6.140   0.011  0.1221 -0.1235  0.1417
 9183SOL    HW138228   9.833   6.060  -0.030 -1.8198  1.6655 -1.3902
 9183SOL    HW238229   9.888   6.125   0.109 -3.0220 -1.0771  0.4080
 9184SOL     OW38230   7.709   5.513   2.725 -0.0443  0.4450 -0.0633
 9184SOL    HW138231   7.677   5.510   2.631  1.5594 -1.0446 -0.6066
 9184SOL    HW238232   7.708   5.607   2.759  0.0248  1.0818 -1.8069
 9185SOL     OW38233   9.483   2.031   4.138 -0.1499 -0.3227  0.2522
 9185SOL    HW138234   9.432   1.956   4.180 -0.9732 -0.4176 -0.8895
 9185SOL    HW238235   9.484   2.018   4.038  1.6307 -0.0288  0.2066
 9186SOL     OW38236   2.786   2.305   4.167  0.2044  0.3216 -0.0955
 9186SOL    HW138237   2.882   2.321   4.189 -0.1526  0.4466  1.4391
 9186SOL    HW238238   2.730   2.325   4.247 -1.0052 -0.7690 -0.6547
 9187SOL     OW38239   9.063   0.540   4.328 -0.4052 -0.3471  0.1652
 9187SOL    HW138240   9.108   0.524   4.240  0.6870 -0.5605  0.7523
 9187SOL    HW238241   8.964   0.528   4.317 -0.1970 -1.3045 -0.8121
 9188SOL     OW38242   9.076   4.894   3.270 -0.7935  0.4308  0.1638
 9188SOL    HW138243   9.129   4.976   3.293 -0.7373  0.7297 -1.0017
 9188SOL    HW238244   9.045   4.900   3.175  1.0881 -1.9357 -0.6380
 9189SOL     OW38245   1.694   3.235   0.552 -0.1948  0.3112  0.0769
 9189SOL    HW138246   1.739   3.173   0.488 -0.1975  0.8550 -0.4561
 9189SOL    HW238247   1.632   3.182   0.611  1.3478 -0.4737  1.0189
 9190SOL     OW38248   1.510   6.793   0.371  0.4084  0.1854 -0.0436
 9190SOL    HW138249   1.476   6.860   0.305 -0.4381 -0.1411  0.0513
 9190SOL    HW238250   1.549   6.841   0.450 -0.7058  0.5797  0.2865
 9191SOL     OW38251   5.137   8.893   4.037 -0.6143 -0.1802  0.3236
 9191SOL    HW138252   5.198   8.856   4.107 -0.9395  0.6583  1.0566
 9191SOL    HW238253   5.170   8.864   3.947  1.7191  1.4500  0.6031
 9192SOL     OW38254   1.843   0.864   4.284 -0.1213 -0.8208  0.2096
 9192SOL    HW138255   1.848   0.954   4.239 -0.5287 -0.8924  0.0142
 9192SOL    HW238256   1.824   0.794   4.215 -1.1727 -0.8739  0.5475
 9193SOL     OW38257   2.625   7.831   1.252 -0.0372 -0.3662  0.6555
 9193SOL    HW138258   2.650   7.753   1.195  1.2474  0.8690 -0.5108
 9193SOL    HW238259   2.614   7.801   1.347 -1.8108 -2.3678 -0.1426
 9194SOL     OW38260   0.064   0.141   3.212  0.3665 -0.6553  0.1306
 9194SOL    HW138261  -0.028   0.169   3.237  0.1260  0.3207 -1.7257
 9194SOL    HW238262   0.065   0.043   3.191 -0.3343 -0.6025 -0.1729
 9195SOL     OW38263   7.067   8.218   1.549  0.5365 -0.3651 -0.1813
 9195SOL    HW138264   7.130   8.285   1.587 -1.1010  0.6098  0.8699
 9195SOL    HW238265   6.984   8.214   1.605 -0.5536 -1.2781 -1.7985
 9196SOL     OW38266   9.368   7.879   1.487  0.1013  0.0348  0.1741
 9196SOL    HW138267   9.370   7.837   1.577 -0.4053  1.4024  0.8448
 9196SOL    HW238268   9.461   7.909   1.462  0.3995 -1.1501 -0.1602
 9197SOL     OW38269   8.520   7.225   3.826 -0.1926 -0.1037 -0.2065
 9197SOL    HW138270   8.425   7.205   3.804 -0.6894  1.2456  0.6603
 9197SOL    HW238271   8.547   7.172   3.907 -0.2864 -0.2835 -0.2933
 9198SOL     OW38272   2.089   3.289   2.341 -0.2956 -0.4781  0.3786
 9198SOL    HW138273   2.055   3.196   2.326 -0.6637 -0.0900 -1.3170
 9198SOL    HW238274   2.163   3.308   2.276 -0.8706  0.7472  0.0601
 9199SOL     OW38275   7.842   3.224   0.101 -0.7728 -0.3964  0.0564
 9199SOL    HW138276   7.897   3.192   0.178  0.7948 -1.3196 -1.4140
 9199SOL    HW238277   7.856   3.322   0.088 -0.0731 -0.4782  0.1702
 9200SOL     OW38278   2.304   7.509   2.974  0.4541 -0.4564  0.5522
 9200SOL    HW138279   2.267   7.548   3.057 -1.3971 -1.9018  0.4309
 9200SOL    HW238280   2.290   7.410   2.974 -0.1660 -0.4089 -1.7593
 9201SOL     OW38281   1.304   2.534   1.970 -0.0705  0.7725  0.6167
 9201SOL    HW138282   1.384   2.560   1.915  0.9945 -0.7562  1.4156
 9201SOL    HW238283   1.247   2.471   1.918  1.0412 -0.8315  1.3106
 9202SOL     OW38284   8.792   9.185   4.216 -0.0011 -0.2012  0.6118
 9202SOL    HW138285   8.770   9.159   4.122  0.3222 -2.0881  1.0372
 9202SOL    HW238286   8.752   9.274   4.236  0.3566  0.4691 -1.4684
 9203SOL     OW38287   4.937   8.486   1.848  0.4700 -0.0151  0.5779
 9203SOL    HW138288   4.862   8.451   1.905  0.5222  1.0223  1.2876
 9203SOL    HW238289   5.025   8.456   1.887  0.4839  0.2055  0.7173
 9204SOL     OW38290   0.108   4.008   3.322 -0.0101 -0.0975  0.2119
 9204SOL    HW138291   0.029   3.946   3.327  1.7176 -2.3094  1.2999
 9204SOL    HW238292   0.120   4.053   3.410  0.3966 -0.3473  0.2839
 9205SOL     OW38293   2.955   4.889   3.334 -0.0224  0.1154 -0.4469
 9205SOL    HW138294   3.051   4.905   3.358  0.0551  2.8962 -2.2835
 9205SOL    HW238295   2.908   4.978   3.329 -3.6913 -1.3355  4.1568
 9206SOL     OW38296   2.397   9.115   2.617 -0.3920 -0.2591  0.7452
 9206SOL    HW138297   2.333   9.155   2.682  2.2213  1.9292  2.0732
 9206SOL    HW238298   2.369   9.139   2.524 -0.5839  2.1811  1.3827
 9207SOL     OW38299   2.093   1.407   2.458  0.1638 -0.5587 -0.1481
 9207SOL    HW138300   2.151   1.351   2.517 -0.3215 -0.6298  0.2516
 9207SOL    HW238301   2.151   1.454   2.391  0.7565 -0.1447  0.6438
 9208SOL     OW38302   0.945   0.990   3.078 -0.5072  0.6451  0.3951
 9208SOL    HW138303   0.892   1.071   3.053 -1.1551 -0.0381 -0.4443
 9208SOL    HW238304   0.909   0.910   3.031  0.6724  0.0053  0.5573
 9209SOL     OW38305   3.882   4.554   4.355 -0.1418 -0.4113 -0.4366
 9209SOL    HW138306   3.788   4.589   4.355  0.1815  0.5064  0.4034
 9209SOL    HW238307   3.937   4.608   4.419  1.0499 -0.7079 -1.2015
 9210SOL     OW38308   0.198   6.207   2.323 -0.2157 -0.2005 -0.5355
 9210SOL    HW138309   0.155   6.242   2.406 -0.8529  0.7724 -1.2769
 9210SOL    HW238310   0.221   6.110   2.336 -0.3288 -0.0588  0.7642
 9211SOL     OW38311   4.102   8.368   1.043 -0.0820  0.7201 -0.1411
 9211SOL    HW138312   4.083   8.428   1.121 -2.8079 -2.4825  1.7871
 9211SOL    HW238313   4.151   8.287   1.073 -0.0288  0.0265 -1.9871
 9212SOL     OW38314   0.494   1.999   0.467  0.8060  0.1075 -0.6164
 9212SOL    HW138315   0.440   1.915   0.464  0.7054  0.0943  0.9428
 9212SOL    HW238316   0.590   1.977   0.483  0.6891  0.3038  0.4106
 9213SOL     OW38317   1.376   4.983   0.918 -0.1371 -0.2580 -0.0756
 9213SOL    HW138318   1.293   4.928   0.905  0.3653 -1.0606  0.1170
 9213SOL    HW238319   1.453   4.938   0.874  0.3161  0.1902  0.2605
 9214SOL     OW38320   3.998   9.357   2.003 -0.8439 -0.5201  0.4127
 9214SOL    HW138321   3.929   9.390   1.939 -0.3066  0.6831  0.4364
 9214SOL    HW238322   4.027   9.265   1.977 -0.5083  0.0219 -1.1841
 9215SOL     OW38323   0.529   9.595   2.952 -0.2406  0.3306 -0.3709
 9215SOL    HW138324   0.487   9.686   2.951 -0.3735  0.2641 -0.8745
 9215SOL    HW238325   0.605   9.593   2.887 -0.0134  0.1865 -0.1013
 9216SOL     OW38326   1.652   3.551   2.694  0.0211  0.2006  0.1492
 9216SOL    HW138327   1.688   3.462   2.668 -0.0148  0.1609  0.2348
 9216SOL    HW238328   1.679   3.572   2.788  0.9640  0.7749 -0.2467
 9217SOL     OW38329   3.673   9.490   3.125  0.5284  0.1035  0.4659
 9217SOL    HW138330   3.770   9.474   3.147  1.2628  1.4146 -1.7117
 9217SOL    HW238331   3.645   9.578   3.161 -0.4678 -1.1242  2.8456
 9218SOL     OW38332   2.246   9.413   2.999 -0.2502  0.1945  0.2024
 9218SOL    HW138333   2.342   9.427   2.973 -0.4478  0.5506 -0.3646
 9218SOL    HW238334   2.191   9.489   2.964 -0.4340  1.0504  2.2679
 9219SOL     OW38335   4.212   2.961   3.828 -0.1321  0.1756 -0.7514
 9219SOL    HW138336   4.129   2.997   3.785 -0.0829  0.3610 -0.6944
 9219SOL    HW238337   4.291   3.012   3.794 -0.0945  0.3299 -0.4273
 9220SOL     OW38338   2.919   9.086   0.694 -0.5270 -0.1476 -0.2114
 9220SOL    HW138339   2.999   9.119   0.744 -0.0547  0.7710 -1.5473
 9220SOL    HW238340   2.935   9.095   0.595 -1.5385 -1.7024 -0.5294
 9221SOL     OW38341   9.779   9.467   0.020 -0.1781 -0.0848  0.2537
 9221SOL    HW138342   9.769   9.395   0.089  2.1370 -0.0017  0.7365
 9221SOL    HW238343   9.781   9.426  -0.071  0.3383 -0.5687  0.4777
 9222SOL     OW38344   1.990   2.671   4.694 -0.8266 -0.3184  0.2131
 9222SOL    HW138345   1.906   2.698   4.649 -1.4261 -2.1172  0.2062
 9222SOL    HW238346   1.971   2.597   4.759  0.2126  1.3807  2.5405
 9223SOL     OW38347   3.151   2.846   0.874 -0.4866  0.6424  0.0516
 9223SOL    HW138348   3.215   2.889   0.937 -1.2148  2.1862 -0.2479
 9223SOL    HW238349   3.200   2.811   0.794 -0.1375  2.7420 -0.6711
 9224SOL     OW38350   7.947   1.669   0.390 -0.0687  0.3965  0.2600
 9224SOL    HW138351   7.999   1.611   0.327 -1.5952 -1.2768  0.4842
 9224SOL    HW238352   7.864   1.700   0.345 -1.1673 -0.8054  1.4280
 9225SOL     OW38353   2.723   0.827   0.562 -0.0997  0.3096 -0.0388
 9225SOL    HW138354   2.777   0.835   0.645  0.0407  1.6836 -0.2425
 9225SOL    HW238355   2.654   0.900   0.561  0.6154  0.9973 -1.6304
 9226SOL     OW38356   0.835   3.128   4.079  0.6407 -0.9732 -0.3491
 9226SOL    HW138357   0.884   3.156   4.162  0.1276 -1.1609  0.0227
 9226SOL    HW238358   0.771   3.054   4.102  1.5166 -2.0024 -1.1883
 9227SOL     OW38359   7.797   7.194   2.995  0.1460  0.5604 -0.1883
 9227SOL    HW138360   7.767   7.285   3.025  1.1598  0.7474  0.2878
 9227SOL    HW238361   7.800   7.133   3.074 -1.0578 -0.0387 -0.5992
 9228SOL     OW38362   8.565   8.990   1.996 -0.2686 -0.4690  0.2436
 9228SOL    HW138363   8.611   9.072   2.030  0.0482  0.0838 -1.4741
 9228SOL    HW238364   8.628   8.913   1.996  0.4139  0.0849 -1.2944
 9229SOL     OW38365   0.676   6.227   1.552  0.2937 -0.1750 -0.2172
 9229SOL    HW138366   0.676   6.308   1.611  0.2499 -0.0207 -0.4272
 9229SOL    HW238367   0.583   6.210   1.519  0.4770  0.2924 -0.9895
 9230SOL     OW38368   2.234   2.075   0.373 -0.7605  0.1714 -0.2793
 9230SOL    HW138369   2.222   1.994   0.316 -1.2171  0.0385  0.0041
 9230SOL    HW238370   2.321   2.119   0.350  0.6168 -1.6867  1.2136
 9231SOL     OW38371   3.408   7.657   1.005  0.1489 -0.0867 -0.0828
 9231SOL    HW138372   3.311   7.639   1.022 -0.3385  3.3809  1.1928
 9231SOL    HW238373   3.462   7.621   1.081 -0.3780  0.1306  0.4006
 9232SOL     OW38374   9.063   2.491   4.073 -0.0998  0.0691  0.1404
 9232SOL    HW138375   9.045   2.552   3.996  0.6478 -1.0051 -0.9158
 9232SOL    HW238376   9.105   2.542   4.148  1.7478  0.5988 -1.2279
 9233SOL     OW38377   9.422   4.472   2.477  0.1545 -0.1210  0.9238
 9233SOL    HW138378   9.413   4.412   2.557  0.0300 -0.6157  0.5441
 9233SOL    HW238379   9.342   4.461   2.418  0.9826 -0.9543 -0.0716
 9234SOL     OW38380   3.683   1.132   0.010 -0.2079  0.1913  0.1335
 9234SOL    HW138381   3.735   1.047   0.005 -0.0306  0.2844  0.4153
 9234SOL    HW238382   3.709   1.191  -0.067 -1.8081 -0.8397 -1.2144
 9235SOL     OW38383   5.161   2.990   0.383  0.5687 -0.2628  0.6743
 9235SOL    HW138384   5.139   3.047   0.304  0.9732 -2.8792 -1.3981
 9235SOL    HW238385   5.077   2.967   0.432 -0.2985 -2.3522 -1.6693
 9236SOL     OW38386   4.722   1.350   2.077 -0.7884  0.0879  0.1095
 9236SOL    HW138387   4.737   1.399   1.991 -1.4866 -1.5116 -0.9412
 9236SOL    HW238388   4.755   1.256   2.068 -0.3714  0.0567  1.7727
 9237SOL     OW38389   8.737   1.174   1.160 -0.1216 -0.1203  0.8860
 9237SOL    HW138390   8.718   1.137   1.251  1.1008  0.2774  1.3124
 9237SOL    HW238391   8.822   1.227   1.163 -1.0006  1.3841 -0.0645
 9238SOL     OW38392   1.478   9.905   3.942  0.7077 -0.0155  0.7445
 9238SOL    HW138393   1.495   9.989   3.891  1.6399  0.2107  1.4145
 9238SOL    HW238394   1.556   9.885   4.000  0.3144 -1.1270  0.9064
 9239SOL     OW38395   3.459   1.723   1.997 -0.1274  0.0065 -0.3978
 9239SOL    HW138396   3.375   1.778   1.989  0.1119  0.2700 -1.1896
 9239SOL    HW238397   3.435   1.630   2.025 -0.8764 -0.4285 -2.4039
 9240SOL     OW38398   1.110   6.183   0.383  0.2850 -0.7887  0.1770
 9240SOL    HW138399   1.058   6.131   0.315  0.0729 -0.5605  0.1623
 9240SOL    HW238400   1.198   6.211   0.343 -0.0673 -0.1971 -0.1831
 9241SOL     OW38401   4.677   8.515   2.067 -0.1067 -0.2872  0.0680
 9241SOL    HW138402   4.587   8.475   2.080 -0.4871  0.0894 -1.3002
 9241SOL    HW238403   4.670   8.598   2.011  1.0790 -0.2333 -0.0336
 9242SOL     OW38404   3.915   3.065   2.818 -0.0169 -0.2257  0.6803
 9242SOL    HW138405   3.828   3.061   2.770 -1.0709  1.4767  2.3940
 9242SOL    HW238406   3.987   3.029   2.758 -1.4512  0.8121 -1.7688
 9243SOL     OW38407   5.385   9.536   2.603  0.2537  0.0453  0.4346
 9243SOL    HW138408   5.320   9.505   2.672 -1.2373 -0.8765 -1.3490
 9243SOL    HW238409   5.469   9.482   2.610 -1.1078 -2.2668 -0.5382
 9244SOL     OW38410   0.483   3.347   4.507  0.2137 -0.0304 -0.1274
 9244SOL    HW138411   0.541   3.269   4.531  1.2407  0.7796 -0.0046
 9244SOL    HW238412   0.522   3.431   4.544 -0.4435  0.6613 -1.0002
 9245SOL     OW38413   3.505   4.109   1.780 -0.2040 -0.5538  0.3624
 9245SOL    HW138414   3.425   4.096   1.722 -0.3823 -0.6342  0.6242
 9245SOL    HW238415   3.534   4.205   1.776 -1.5768 -0.0474  1.8850
 9246SOL     OW38416   2.343   8.877   2.283 -0.4591 -0.2350  0.5563
 9246SOL    HW138417   2.347   8.838   2.191 -0.2171 -3.5362  1.9196
 9246SOL    HW238418   2.434   8.905   2.311 -0.8803  2.9922 -1.0661
 9247SOL     OW38419   0.830   9.278   0.102 -0.4942 -0.0253  0.1845
 9247SOL    HW138420   0.816   9.315   0.194 -1.3410 -1.9325  0.8567
 9247SOL    HW238421   0.746   9.233   0.071  0.1708 -0.4554 -1.0243
 9248SOL     OW38422   2.963   6.040   0.646  0.6150 -0.0522  0.4824
 9248SOL    HW138423   2.970   5.942   0.628 -1.6913  0.0008 -0.9940
 9248SOL    HW238424   2.980   6.090   0.561 -2.3066  0.6037  0.2336
 9249SOL     OW38425   3.653   9.205   2.016  0.0074 -0.7258  0.3702
 9249SOL    HW138426   3.558   9.232   2.030 -0.0729 -1.5709  1.5102
 9249SOL    HW238427   3.699   9.195   2.104  0.9382 -1.0846 -0.1445
 9250SOL     OW38428   3.571   7.510   1.561 -0.6366  0.1088  0.3074
 9250SOL    HW138429   3.572   7.511   1.461  0.1620  0.4746  0.3129
 9250SOL    HW238430   3.544   7.419   1.593 -2.3233  0.4037 -0.2353
 9251SOL     OW38431   9.205   5.586   1.979  0.0698  0.0770  0.6375
 9251SOL    HW138432   9.228   5.559   1.886 -1.4834 -0.9514  0.5426
 9251SOL    HW238433   9.178   5.506   2.032 -3.3095  1.1625  0.7145
 9252SOL     OW38434   0.362   5.409   3.693  0.1806  0.0357  0.0499
 9252SOL    HW138435   0.300   5.487   3.701  0.8471  0.5280  0.4946
 9252SOL    HW238436   0.353   5.351   3.774  0.9559  0.6019  0.5550
 9253SOL     OW38437   4.425   6.895   2.814  0.3442 -0.2648 -0.0183
 9253SOL    HW138438   4.448   6.798   2.819  0.3303 -0.2696 -0.0399
 9253SOL    HW238439   4.505   6.947   2.784  0.1148 -0.3787 -0.8638
 9254SOL     OW38440   8.302   5.907   3.605 -0.1343 -0.4868  0.0235
 9254SOL    HW138441   8.274   5.997   3.570  0.4229  0.1200  1.1088
 9254SOL    HW238442   8.378   5.872   3.550  1.3036  0.8449  1.1329
 9255SOL     OW38443   1.694   1.414   4.056 -0.3365 -0.2579 -1.0966
 9255SOL    HW138444   1.709   1.507   4.088  0.1127 -0.3984 -0.8998
 9255SOL    HW238445   1.602   1.407   4.018 -1.9743 -0.8450  2.7970
 9256SOL     OW38446   4.571   9.574   2.078 -0.2042  0.4823  1.3548
 9256SOL    HW138447   4.556   9.635   2.000 -1.1691  1.0531  1.9717
 9256SOL    HW238448   4.565   9.479   2.047 -2.2344  0.6896  1.0057
 9257SOL     OW38449   3.913   0.437   1.558 -0.4804  0.7160 -0.3907
 9257SOL    HW138450   3.886   0.483   1.642 -1.9440 -0.4065 -0.2355
 9257SOL    HW238451   3.951   0.347   1.580  0.3491  0.9414 -0.8502
 9258SOL     OW38452   9.847   9.411   0.479  0.0232  0.8130 -0.6715
 9258SOL    HW138453   9.790   9.490   0.457 -0.3505  0.1929 -1.9510
 9258SOL    HW238454   9.923   9.440   0.537 -0.8689  1.8667 -0.0130
 9259SOL     OW38455   8.189   4.538   4.015  0.3490 -0.0216  0.4216
 9259SOL    HW138456   8.132   4.619   4.020 -2.1948 -1.7724  1.0324
 9259SOL    HW238457   8.275   4.560   3.970  0.7127  3.5220  2.6639
 9260SOL     OW38458   4.905   8.007   4.268  0.3441  0.7006  0.5323
 9260SOL    HW138459   4.806   7.993   4.275  0.7472 -3.6646 -1.0274
 9260SOL    HW238460   4.925   8.056   4.183 -0.4816  1.8552  0.9905
 9261SOL     OW38461   1.255   6.111   1.464  0.1079 -0.2245 -0.3866
 9261SOL    HW138462   1.201   6.037   1.504 -0.2873 -0.7957 -1.9425
 9261SOL    HW238463   1.200   6.194   1.459 -0.3039 -0.5301 -1.0183
 9262SOL     OW38464   1.108   8.718   3.102  0.1358  0.4444  0.0282
 9262SOL    HW138465   1.157   8.685   3.183 -0.2516  0.8492  0.4280
 9262SOL    HW238466   1.050   8.645   3.066  0.7904  0.0621 -0.2647
 9263SOL     OW38467   7.928   1.064   4.160 -0.2790 -0.3948 -0.8411
 9263SOL    HW138468   7.989   1.074   4.238 -1.8514  0.2801  0.3345
 9263SOL    HW238469   7.909   0.967   4.146  0.8423 -0.5923 -1.0574
 9264SOL     OW38470   8.535   5.846   3.459 -0.0586  0.2412  0.5744
 9264SOL    HW138471   8.603   5.829   3.531  1.0379  0.8530 -0.3127
 9264SOL    HW238472   8.551   5.936   3.419  0.5064 -0.8468 -1.7203
 9265SOL     OW38473   4.666   0.740   4.181 -0.1742 -0.2151 -0.6105
 9265SOL    HW138474   4.742   0.752   4.116 -0.0770  0.5154 -0.3738
 9265SOL    HW238475   4.581   0.730   4.130 -0.1646  0.8702 -0.8533
 9266SOL     OW38476   7.943   7.932   2.530 -0.7449 -0.4907  0.3695
 9266SOL    HW138477   7.985   8.008   2.481 -1.4776 -0.2808  0.0537
 9266SOL    HW238478   7.983   7.846   2.500 -0.2087 -0.2559  0.4175
 9267SOL     OW38479   6.257   9.955   2.761  0.6485 -0.2888 -0.3487
 9267SOL    HW138480   6.304  10.006   2.689  1.8595  3.4579  2.8885
 9267SOL    HW238481   6.324   9.902   2.814  0.5654  1.0380  1.1303
 9268SOL     OW38482   7.628   9.743   2.350 -0.3774 -0.1338 -0.4355
 9268SOL    HW138483   7.708   9.722   2.295 -0.0706 -1.1565  0.3699
 9268SOL    HW238484   7.619   9.675   2.423 -1.7912  0.1564 -0.3161
 9269SOL     OW38485   7.603   4.125   4.274 -0.5664  0.4312  0.0773
 9269SOL    HW138486   7.694   4.090   4.254 -0.7244 -0.8417  1.5093
 9269SOL    HW238487   7.611   4.211   4.325 -0.1812  1.8695 -2.3557
 9270SOL     OW38488   0.157   6.348   0.448 -0.2460  0.6390  0.1452
 9270SOL    HW138489   0.111   6.357   0.359 -2.4432  2.3148  1.3958
 9270SOL    HW238490   0.214   6.428   0.464  2.1893 -0.8319 -0.8149
 9271SOL     OW38491   8.605   7.060   1.097 -0.1249  0.4321 -0.0881
 9271SOL    HW138492   8.692   7.032   1.139 -1.2520 -2.4242  0.3966
 9271SOL    HW238493   8.529   7.026   1.151 -1.6001  0.8799 -1.8299
 9272SOL     OW38494   9.795   3.343   1.909  0.4341  0.2846  0.3159
 9272SOL    HW138495   9.812   3.277   1.836  0.4158 -0.1126  0.6733
 9272SOL    HW238496   9.882   3.366   1.954  0.6154  1.3642 -0.5460
 9273SOL     OW38497   9.053   4.752   2.010  0.1611 -0.2378 -0.4901
 9273SOL    HW138498   8.980   4.740   2.076 -0.7279  2.6653 -0.8818
 9273SOL    HW238499   9.034   4.697   1.928 -0.0039 -1.8579  0.6249
 9274SOL     OW38500   8.083   2.242   3.309 -0.5145 -0.3394  0.4975
 9274SOL    HW138501   7.985   2.262   3.309 -0.6514 -0.9040 -1.3863
 9274SOL    HW238502   8.100   2.155   3.263  0.8895 -0.1490  0.6264
 9275SOL     OW38503   6.070   8.550   3.695  0.7023  0.5466  0.1766
 9275SOL    HW138504   6.049   8.484   3.623 -0.1961 -0.3880  1.2930
 9275SOL    HW238505   6.131   8.508   3.763 -0.3738  0.6631  1.2220
 9276SOL     OW38506   5.377   7.098   2.980 -0.4140 -0.7781  0.0703
 9276SOL    HW138507   5.384   7.088   2.881 -2.2968 -1.4153 -0.0173
 9276SOL    HW238508   5.467   7.089   3.021  0.4732  0.0838 -1.6366
 9277SOL     OW38509   3.884   8.942   4.420 -0.3750 -0.0846 -0.6082
 9277SOL    HW138510   3.867   8.920   4.516  1.4903  1.7881  0.1980
 9277SOL    HW238511   3.815   9.007   4.387 -0.8979 -0.5768 -0.4901
 9278SOL     OW38512   2.205   5.679   4.172  0.0919  0.2811 -0.6540
 9278SOL    HW138513   2.111   5.648   4.158 -0.4750  1.7259 -0.1978
 9278SOL    HW238514   2.205   5.755   4.238  1.4853  0.8076 -1.2471
 9279SOL     OW38515   3.682   7.043   3.853 -0.3225 -0.1707 -0.7398
 9279SOL    HW138516   3.762   6.984   3.849 -0.2843 -0.1776 -0.0597
 9279SOL    HW238517   3.642   7.038   3.945  1.8505  3.7081  0.5081
 9280SOL     OW38518   5.244   8.102   4.131  0.0808  0.3100  0.7090
 9280SOL    HW138519   5.167   8.111   4.068  1.2974  0.3675 -0.8230
 9280SOL    HW238520   5.294   8.189   4.135  2.4787 -0.8796 -1.5900
 9281SOL     OW38521   0.871   7.763   4.190 -0.0420  0.1211  0.3022
 9281SOL    HW138522   0.783   7.806   4.207 -0.7604 -1.1562 -0.1084
 9281SOL    HW238523   0.858   7.664   4.180  1.5264 -0.1559  0.9211
 9282SOL     OW38524   3.640   8.334   1.505 -0.2349  0.1978 -0.0467
 9282SOL    HW138525   3.676   8.363   1.416 -3.6590 -0.0039 -1.5668
 9282SOL    HW238526   3.613   8.414   1.558 -3.2366  0.1910 -1.4508
 9283SOL     OW38527   0.331   1.388   0.978 -0.0744  0.1530  0.2326
 9283SOL    HW138528   0.237   1.420   0.966  0.3161  1.0421 -0.4754
 9283SOL    HW238529   0.392   1.440   0.919  1.5520  2.7956  4.0751
 9284SOL     OW38530   4.005   7.724   3.587 -0.6481  0.5510  0.5935
 9284SOL    HW138531   4.091   7.704   3.540 -0.3981  2.6000  0.1523
 9284SOL    HW238532   3.933   7.740   3.520 -1.0472  0.2544  0.9479
 9285SOL     OW38533   4.588   1.099   3.384  0.4041  0.1599  0.0566
 9285SOL    HW138534   4.497   1.068   3.414  0.3949 -0.2822 -0.4231
 9285SOL    HW238535   4.653   1.087   3.459  0.0722  0.4660  0.3999
 9286SOL     OW38536   2.449   3.068   0.970 -0.1594 -0.3177 -0.2036
 9286SOL    HW138537   2.418   2.975   0.986  0.9978 -0.5105  1.0157
 9286SOL    HW238538   2.388   3.113   0.905  0.3619 -2.5214 -2.2980
 9287SOL     OW38539   2.037   9.644   3.963 -0.7068 -0.6630  0.0567
 9287SOL    HW138540   1.968   9.574   3.982 -1.5964  0.6104  1.7061
 9287SOL    HW238541   2.128   9.605   3.977 -1.2020 -1.3701  1.4737
 9288SOL     OW38542   2.080   1.230   1.034 -0.3723 -0.2139  0.4675
 9288SOL    HW138543   2.145   1.203   0.964  0.2079  3.1530 -0.3889
 9288SOL    HW238544   2.042   1.149   1.078  2.3984 -2.2842 -0.8336
 9289SOL     OW38545   5.437   6.609   2.591  0.2068  0.1584  0.0005
 9289SOL    HW138546   5.448   6.691   2.534  0.4326 -1.4966 -2.4225
 9289SOL    HW238547   5.340   6.588   2.600  0.2060 -0.1359 -0.6375
 9290SOL     OW38548   2.320   5.674   0.192 -0.3501 -0.4220  0.0350
 9290SOL    HW138549   2.254   5.691   0.118  2.5484  0.6859 -2.3931
 9290SOL    HW238550   2.348   5.578   0.190  1.1426  0.0243 -1.5705
 9291SOL     OW38551   2.641   7.668   4.174  0.1291  0.2824 -0.1068
 9291SOL    HW138552   2.626   7.731   4.250  2.8811  0.8213  0.0198
 9291SOL    HW238553   2.611   7.711   4.088  0.4331  1.0965  0.1972
 9292SOL     OW38554   0.350   6.378   3.189 -0.3748 -0.4476 -0.2043
 9292SOL    HW138555   0.317   6.440   3.118 -1.8897 -1.1278 -0.1033
 9292SOL    HW238556   0.429   6.419   3.234 -0.5504  0.8243 -1.0138
 9293SOL     OW38557   1.188   4.264   4.017  0.3363  0.4183  0.6611
 9293SOL    HW138558   1.251   4.186   4.020  0.8314  0.8000  0.1877
 9293SOL    HW238559   1.238   4.348   4.035  0.0647  0.7892 -0.3124
 9294SOL     OW38560   1.867   5.886   4.290 -0.4909 -0.1473 -0.3835
 9294SOL    HW138561   1.902   5.795   4.268 -1.1554 -0.1640 -1.4351
 9294SOL    HW238562   1.927   5.931   4.356  0.6683 -0.7565 -1.0173
 9295SOL     OW38563   5.127   8.579   2.384  0.2316  0.2052  0.3446
 9295SOL    HW138564   5.117   8.525   2.300 -0.1986  0.0448  0.4957
 9295SOL    HW238565   5.066   8.658   2.379  0.3854  0.3268  0.4024
 9296SOL     OW38566   4.442   2.370   1.021  0.0879  0.4891  0.0129
 9296SOL    HW138567   4.424   2.462   0.987  0.8901  0.2523 -1.0615
 9296SOL    HW238568   4.356   2.329   1.053 -0.0523  2.1056  1.8029
 9297SOL     OW38569   7.722   7.690   2.816  0.6767  0.5048 -0.1485
 9297SOL    HW138570   7.721   7.785   2.785 -0.5924  0.8599  0.9267
 9297SOL    HW238571   7.724   7.688   2.916  0.3809 -0.5988 -0.1587
 9298SOL     OW38572   9.586   1.313   2.677 -0.1690 -0.1030  0.8911
 9298SOL    HW138573   9.660   1.279   2.619  1.3033  1.0402  2.0734
 9298SOL    HW238574   9.615   1.398   2.722 -1.6717 -0.3954  2.4521
 9299SOL     OW38575   8.193   8.301   2.362 -0.2459 -0.2655  0.0323
 9299SOL    HW138576   8.173   8.366   2.435 -1.4114  0.2159 -0.6931
 9299SOL    HW238577   8.214   8.351   2.278 -1.0956 -0.8291 -0.5196
 9300SOL     OW38578   0.020   1.820   1.221  0.0392 -0.3137  0.3295
 9300SOL    HW138579  -0.018   1.810   1.129  0.5004 -1.1790  0.2298
 9300SOL    HW238580   0.015   1.732   1.269  0.5752 -0.0742  0.8278
 9301SOL     OW38581   4.783   7.919   3.427 -0.0818  0.2324 -0.4482
 9301SOL    HW138582   4.805   7.921   3.329  0.9036  1.2439 -0.2265
 9301SOL    HW238583   4.839   7.987   3.474  0.2935 -1.0551  1.0000
 9302SOL     OW38584   2.032   5.395   3.561 -0.3887 -0.3047 -0.1257
 9302SOL    HW138585   2.083   5.381   3.476 -2.4003 -0.3667 -1.3582
 9302SOL    HW238586   2.088   5.367   3.639  1.2796 -0.7722 -1.4684
 9303SOL     OW38587   7.368   0.978   2.198 -0.1313 -0.1589  0.1000
 9303SOL    HW138588   7.408   0.910   2.259 -0.7013 -1.3443 -0.8286
 9303SOL    HW238589   7.365   0.941   2.105 -1.6673  0.6200 -0.1743
 9304SOL     OW38590   3.165   8.638   1.944 -0.1234  0.2558 -0.1937
 9304SOL    HW138591   3.114   8.643   1.858 -0.6057  1.6056  0.1633
 9304SOL    HW238592   3.105   8.664   2.020  0.6120  0.1283  0.4350
 9305SOL     OW38593   2.678   6.258   4.036 -0.2036 -0.0952 -0.6561
 9305SOL    HW138594   2.668   6.317   3.955  0.1565 -1.2275 -1.5312
 9305SOL    HW238595   2.587   6.228   4.066 -0.4388  1.3472  0.1431
 9306SOL     OW38596   9.407   0.050   1.844  0.5714 -0.0296 -0.1917
 9306SOL    HW138597   9.441   0.005   1.762  3.0647  2.3174 -0.4884
 9306SOL    HW238598   9.382   0.144   1.824  0.2546  0.2770  1.5087
 9307SOL     OW38599   8.796   9.103   1.682  0.5998  0.6175  0.2882
 9307SOL    HW138600   8.715   9.072   1.732  0.5924 -0.9140 -0.6374
 9307SOL    HW238601   8.780   9.194   1.645 -0.0796  1.0089  1.5156
 9308SOL     OW38602   2.198   7.178   2.704 -0.1027 -0.2107  0.3029
 9308SOL    HW138603   2.197   7.175   2.604  1.1278 -0.4277  0.3006
 9308SOL    HW238604   2.198   7.085   2.740  1.0285 -0.1294  0.4985
 9309SOL     OW38605   2.546   3.885   2.146 -0.0158 -0.0460 -0.1955
 9309SOL    HW138606   2.495   3.954   2.096 -1.7142  0.7522  2.5258
 9309SOL    HW238607   2.621   3.928   2.196 -1.2043 -0.0529  1.6761
 9310SOL     OW38608   5.526   8.352   1.835  0.7463 -0.2245  0.6083
 9310SOL    HW138609   5.543   8.447   1.861  0.1754 -0.0875  0.4819
 9310SOL    HW238610   5.450   8.316   1.889 -1.7233  0.6515 -2.2117
 9311SOL     OW38611   2.549   2.691   1.976 -0.1518 -0.8081  0.4027
 9311SOL    HW138612   2.511   2.613   2.027 -1.5158 -0.9796 -0.8456
 9311SOL    HW238613   2.601   2.657   1.898 -0.0107 -0.4853  0.3581
 9312SOL     OW38614   7.845   6.417   1.552 -0.0835  0.6682  0.4669
 9312SOL    HW138615   7.854   6.444   1.457  0.8529 -0.4379  0.2202
 9312SOL    HW238616   7.890   6.484   1.611 -0.7561  1.4063  0.1474
 9313SOL     OW38617   8.854   1.315   2.422 -0.1210 -0.0832  0.0229
 9313SOL    HW138618   8.911   1.291   2.344  3.5785  1.9597  1.9703
 9313SOL    HW238619   8.872   1.253   2.498 -0.4425  0.5974  0.6662
 9314SOL     OW38620   3.755   4.514   0.697  0.3763  0.9483  0.2132
 9314SOL    HW138621   3.692   4.567   0.754 -0.6091  1.0285 -0.9271
 9314SOL    HW238622   3.846   4.515   0.738  0.0791  2.4637  0.8533
 9315SOL     OW38623   0.516   6.977   4.601  0.1374  0.0364  0.0738
 9315SOL    HW138624   0.492   6.883   4.577 -0.8883  0.4960 -0.7400
 9315SOL    HW238625   0.570   7.018   4.527 -2.2896  1.1713 -1.1358
 9316SOL     OW38626   1.713   5.003   1.635 -0.3856 -0.2681 -0.0208
 9316SOL    HW138627   1.679   5.046   1.551 -0.7956  0.4906  0.5275
 9316SOL    HW238628   1.684   5.057   1.714 -0.0480 -1.0111  0.6141
 9317SOL     OW38629   6.352   0.868   2.884 -0.1809 -0.4325  0.8196
 9317SOL    HW138630   6.279   0.920   2.839  0.0054 -0.9352 -0.0834
 9317SOL    HW238631   6.317   0.779   2.912 -0.3656 -0.0167  1.9131
 9318SOL     OW38632   1.726   6.443   0.459 -0.0840  0.4956 -0.0879
 9318SOL    HW138633   1.750   6.355   0.418  0.3785  0.2723  0.6526
 9318SOL    HW238634   1.641   6.477   0.417 -0.3907 -0.4077 -0.2212
 9319SOL     OW38635   0.401   2.059   0.185 -0.3241 -0.0027 -0.4254
 9319SOL    HW138636   0.432   2.054   0.281 -1.1937  0.0436 -0.1413
 9319SOL    HW238637   0.418   1.971   0.141  0.1959  0.0137 -0.2620
 9320SOL     OW38638   0.391   8.557   3.734 -0.2984 -0.6098  0.0750
 9320SOL    HW138639   0.350   8.507   3.810  0.9473  1.5959  2.2457
 9320SOL    HW238640   0.490   8.551   3.740 -0.1911 -0.4796 -1.4342
 9321SOL     OW38641   9.118   0.859   0.343 -0.7098  0.5284  0.0315
 9321SOL    HW138642   9.089   0.806   0.263  0.6907  0.2242 -0.2825
 9321SOL    HW238643   9.080   0.818   0.426  0.7279 -1.2683 -0.1609
 9322SOL     OW38644   8.991   2.286   1.635 -0.3617  0.1573 -0.0856
 9322SOL    HW138645   9.035   2.359   1.583  2.0733 -0.3741  1.1358
 9322SOL    HW238646   8.901   2.266   1.595  0.5262  1.2113 -2.7348
 9323SOL     OW38647   3.524   7.662   2.634  0.2489 -0.0240  0.4087
 9323SOL    HW138648   3.492   7.757   2.633  2.2408  0.6759  0.5847
 9323SOL    HW238649   3.526   7.629   2.728 -0.2697 -0.1929  0.3639
 9324SOL     OW38650   5.793   9.762   0.761 -0.0496  0.1864  0.6178
 9324SOL    HW138651   5.839   9.776   0.848  1.3854 -1.2842  0.1130
 9324SOL    HW238652   5.858   9.727   0.693 -1.6406 -0.8258 -0.4265
 9325SOL     OW38653   9.493   3.119   2.429  0.5538 -0.2441  0.4293
 9325SOL    HW138654   9.498   3.120   2.329  1.3851  1.1160  0.4834
 9325SOL    HW238655   9.471   3.211   2.462  1.4691 -0.4334  1.5645
 9326SOL     OW38656   2.642   7.420   1.385 -0.2947 -0.4653  0.0599
 9326SOL    HW138657   2.666   7.434   1.288  0.3903 -1.5971  0.0658
 9326SOL    HW238658   2.624   7.509   1.427  0.3050  0.1138 -0.8778
 9327SOL     OW38659   1.580   6.941   0.583  0.3155  0.5682  0.1826
 9327SOL    HW138660   1.631   6.873   0.635 -0.5694 -0.9326 -0.8922
 9327SOL    HW238661   1.489   6.953   0.623 -0.1028 -0.0549 -0.5630
 9328SOL     OW38662   9.066   0.950   0.008  0.1438  0.0794 -0.1971
 9328SOL    HW138663   8.970   0.963   0.033  0.5920  1.2861  0.9356
 9328SOL    HW238664   9.092   0.855   0.023 -0.3159  0.1984  1.4590
 9329SOL     OW38665   2.337   6.786   2.310  0.2418  0.4327 -0.0138
 9329SOL    HW138666   2.250   6.802   2.357  0.4445  0.4807  0.3471
 9329SOL    HW238667   2.379   6.703   2.346  0.0163  0.0243 -0.6735
 9330SOL     OW38668   8.887   1.858   4.485  0.4129 -0.1368  0.1961
 9330SOL    HW138669   8.830   1.796   4.430 -2.0899  1.1564  1.2484
 9330SOL    HW238670   8.900   1.943   4.435  0.9003 -0.1875  0.2369
 9331SOL     OW38671   7.378   4.410   4.318 -0.0325  0.1358  0.1882
 9331SOL    HW138672   7.400   4.460   4.235 -1.8274  1.0762  0.2390
 9331SOL    HW238673   7.462   4.376   4.360  1.1066  1.8807 -0.6105
 9332SOL     OW38674   2.110   6.673   3.849  0.4262 -0.2402  0.0564
 9332SOL    HW138675   2.114   6.653   3.752 -1.8743  2.1131 -0.6015
 9332SOL    HW238676   2.061   6.600   3.896 -2.8393  0.9200 -1.3851
 9333SOL     OW38677   9.315   3.354   1.389 -0.4576  0.2037  0.2984
 9333SOL    HW138678   9.382   3.290   1.351 -0.6880  0.0075  0.2173
 9333SOL    HW238679   9.355   3.445   1.394  0.5568 -0.3169  2.2573
 9334SOL     OW38680   1.807   5.260   0.329  0.4717 -0.5755 -0.5600
 9334SOL    HW138681   1.849   5.170   0.314 -0.6855 -1.1923 -0.1751
 9334SOL    HW238682   1.801   5.278   0.427  1.8457  0.4872 -0.6551
 9335SOL     OW38683   4.703   2.879   2.954 -0.7277 -0.1059  0.0175
 9335SOL    HW138684   4.736   2.964   2.912 -1.5885 -0.1352 -0.7073
 9335SOL    HW238685   4.635   2.901   3.024 -0.0401 -0.1248  0.6995
 9336SOL     OW38686   3.668   8.106   4.168  0.1157 -0.6887 -0.0536
 9336SOL    HW138687   3.595   8.087   4.233  0.6756 -1.8896  0.2306
 9336SOL    HW238688   3.629   8.150   4.086 -0.4479  1.8072  1.4983
 9337SOL     OW38689   7.744   2.229   0.076 -0.0181 -0.1526 -0.0824
 9337SOL    HW138690   7.798   2.242  -0.008  0.5006 -0.0883  0.2544
 9337SOL    HW238691   7.687   2.309   0.092 -0.4425 -0.3517 -0.6113
 9338SOL     OW38692   4.519   8.107   3.751  0.0160  0.0794 -0.0414
 9338SOL    HW138693   4.568   8.100   3.838 -0.6617  1.9202  0.5087
 9338SOL    HW238694   4.424   8.079   3.764  0.5556 -2.1922 -0.8041
 9339SOL     OW38695   8.010   1.140   1.374  0.0071  0.4280  0.0870
 9339SOL    HW138696   7.943   1.096   1.314  0.4086  1.3125 -1.0308
 9339SOL    HW238697   8.100   1.097   1.360  0.3141  1.2906 -0.7095
 9340SOL     OW38698   1.310   5.396   1.323  0.1872 -0.3037  0.5630
 9340SOL    HW138699   1.269   5.306   1.304 -0.4123 -0.2542  1.6317
 9340SOL    HW238700   1.365   5.391   1.406 -1.0710  0.6890  1.4800
 9341SOL     OW38701   8.610   5.536   1.169 -0.1843  0.2618  0.1111
 9341SOL    HW138702   8.578   5.548   1.075  0.4044 -1.3200 -0.2996
 9341SOL    HW238703   8.710   5.545   1.171 -0.2806  1.2643  0.7496
 9342SOL     OW38704   8.794   0.741   3.756 -0.2703  0.0970 -0.1095
 9342SOL    HW138705   8.786   0.826   3.705 -1.7839  0.1106  0.1266
 9342SOL    HW238706   8.734   0.672   3.715 -0.9227 -0.1208  1.1619
 9343SOL     OW38707   7.004   9.829   2.731  0.1832 -0.3327  0.1985
 9343SOL    HW138708   7.033   9.777   2.812  0.9311  2.1376  1.5528
 9343SOL    HW238709   6.966   9.917   2.760  0.1786  0.4461 -2.1385
 9344SOL     OW38710   9.460   4.461   2.043  0.4175 -0.5186 -0.1944
 9344SOL    HW138711   9.502   4.531   2.102  1.3875  0.1736 -1.6889
 9344SOL    HW238712   9.515   4.450   1.960 -0.5511 -2.0032 -0.6503
 9345SOL     OW38713   3.513   6.494   1.377  0.3134  0.0592 -0.4130
 9345SOL    HW138714   3.425   6.471   1.336 -0.6445  0.5996  1.2987
 9345SOL    HW238715   3.586   6.472   1.312 -1.0119 -1.1441 -1.5405
 9346SOL     OW38716   1.985   1.759   4.710  0.0145 -0.0463  0.1164
 9346SOL    HW138717   1.944   1.850   4.720 -0.4095 -0.1333 -0.7449
 9346SOL    HW238718   2.081   1.763   4.738 -0.3901  0.3273  1.4651
 9347SOL     OW38719   4.469   8.729   1.183 -0.0250 -0.3021 -0.7202
 9347SOL    HW138720   4.445   8.824   1.205  1.1013  0.3779 -2.3031
 9347SOL    HW238721   4.503   8.683   1.265 -1.9298  0.2248  0.3833
 9348SOL     OW38722   6.929   8.379   1.795  0.1358 -0.0914 -0.1463
 9348SOL    HW138723   6.839   8.354   1.759 -0.0007 -0.2578  0.3110
 9348SOL    HW238724   6.988   8.298   1.796 -0.0705 -0.2281  0.6344
 9349SOL     OW38725   2.068   9.741   4.462  0.0052 -0.5703  0.0371
 9349SOL    HW138726   1.990   9.774   4.408 -1.8988 -1.7521  1.9745
 9349SOL    HW238727   2.104   9.815   4.518  0.6474  0.1233 -1.2712
 9350SOL     OW38728   2.754   9.592   0.158 -0.2807 -0.9516  0.3877
 9350SOL    HW138729   2.722   9.681   0.127  0.0413 -0.7052  0.7431
 9350SOL    HW238730   2.838   9.567   0.109 -0.2858 -0.9845  0.3959
 9351SOL     OW38731   8.743   9.118   0.144 -0.0040 -0.4087 -1.0451
 9351SOL    HW138732   8.741   9.041   0.208  0.3218 -1.5985 -2.4499
 9351SOL    HW238733   8.806   9.188   0.179 -1.3441 -0.1261  0.9356
 9352SOL     OW38734   6.877   7.847   1.510 -0.3565  0.1743 -0.2308
 9352SOL    HW138735   6.916   7.916   1.449  2.6279 -0.8883  0.3787
 9352SOL    HW238736   6.845   7.769   1.455 -1.8825  1.1576 -0.7614
 9353SOL     OW38737   5.891   7.344   1.540 -0.1812 -0.1688  0.4262
 9353SOL    HW138738   5.983   7.365   1.574  0.0665 -2.0944  0.9708
 9353SOL    HW238739   5.851   7.427   1.500  1.9071  0.6149 -0.1122
 9354SOL     OW38740   0.187   7.292   4.748 -0.0401  0.1536  0.2051
 9354SOL    HW138741   0.208   7.255   4.838 -2.4913 -0.3646  0.6020
 9354SOL    HW238742   0.217   7.227   4.677 -1.6729 -1.3095  0.8077
 9355SOL     OW38743   3.371   5.487   3.706 -0.2583  0.5105 -0.2618
 9355SOL    HW138744   3.400   5.393   3.724  1.3823  1.2018  0.7841
 9355SOL    HW238745   3.444   5.536   3.658 -2.2043  0.4654 -3.3933
 9356SOL     OW38746   4.078   9.909   4.084  0.1876 -0.6560 -0.2641
 9356SOL    HW138747   4.073   9.904   3.984 -0.3012  0.8819 -0.3231
 9356SOL    HW238748   3.987   9.927   4.121  0.8521  1.7071  0.2677
 9357SOL     OW38749   3.663   9.129   3.863 -0.4654  0.1573  0.7852
 9357SOL    HW138750   3.587   9.085   3.910 -0.3007  0.7726  1.6423
 9357SOL    HW238751   3.700   9.067   3.793 -0.2581 -1.0441  1.9487
 9358SOL     OW38752   0.141   8.663   1.709 -0.1115  0.4778 -0.5800
 9358SOL    HW138753   0.168   8.655   1.804 -0.2954  0.3571 -0.5364
 9358SOL    HW238754   0.217   8.636   1.650 -0.7266 -1.6813 -0.4365
 9359SOL     OW38755   2.504   2.132   0.401  0.2418 -0.3156 -0.2969
 9359SOL    HW138756   2.532   2.036   0.394  2.2315  0.1225  1.1723
 9359SOL    HW238757   2.471   2.149   0.494  1.0553  0.7219 -0.1958
 9360SOL     OW38758   4.958   2.917   1.209  0.7612  0.3385 -0.0646
 9360SOL    HW138759   5.026   2.976   1.254  1.4019  0.3700 -1.0580
 9360SOL    HW238760   4.984   2.821   1.222  0.6100  0.3255  0.1513
 9361SOL     OW38761   6.338   8.325   2.436 -0.0431 -0.3290 -0.3521
 9361SOL    HW138762   6.433   8.315   2.464  0.1480 -1.0104 -1.2315
 9361SOL    HW238763   6.320   8.268   2.356 -1.1077  0.0416 -0.3918
 9362SOL     OW38764   1.642   8.840   0.107  0.4219 -0.7915 -0.3100
 9362SOL    HW138765   1.619   8.751   0.146 -0.1466 -0.5391 -0.0554
 9362SOL    HW238766   1.569   8.869   0.044  1.4723 -1.3222 -1.7805
 9363SOL     OW38767   1.518   3.148   2.417  0.3010  0.0770  0.4691
 9363SOL    HW138768   1.469   3.076   2.369 -0.1177  0.2809  0.5899
 9363SOL    HW238769   1.555   3.213   2.351  2.2504 -1.2246  0.2333
 9364SOL     OW38770   5.303   4.983   0.881  0.5010 -0.2350  0.7312
 9364SOL    HW138771   5.308   4.992   0.980 -1.5457 -1.5175  0.9811
 9364SOL    HW238772   5.218   5.023   0.848  1.1493  0.1505 -0.5164
 9365SOL     OW38773   3.180   5.858   1.019 -0.4523  0.3045  0.3211
 9365SOL    HW138774   3.260   5.917   1.005 -1.0943  1.3618  1.0269
 9365SOL    HW238775   3.210   5.765   1.041  0.5723  0.4148 -0.5712
 9366SOL     OW38776   3.316   4.039   1.056 -0.2903 -0.3165 -0.0233
 9366SOL    HW138777   3.406   4.081   1.046 -0.8414  0.9254  0.1944
 9366SOL    HW238778   3.284   4.050   1.150 -0.4709 -1.1812  0.0222
 9367SOL     OW38779   1.279   6.429   0.926  0.4435 -0.3973  0.3405
 9367SOL    HW138780   1.244   6.350   0.976 -2.0956  0.6342  0.2594
 9367SOL    HW238781   1.275   6.510   0.985  0.3984  0.2109 -0.4841
 9368SOL     OW38782   2.301   8.932   3.622 -0.2702 -0.2311  0.2921
 9368SOL    HW138783   2.228   8.998   3.637  0.4290  0.6696 -0.2311
 9368SOL    HW238784   2.265   8.853   3.572 -1.6184 -1.2935  2.8433
 9369SOL     OW38785   7.434   3.035   4.570 -0.1093  0.4705  0.2955
 9369SOL    HW138786   7.349   3.040   4.623 -0.7161  2.8132 -0.8412
 9369SOL    HW238787   7.512   3.052   4.630 -0.6071  0.6151  0.9073
 9370SOL     OW38788   8.402   4.609   2.195 -0.1568 -0.9688 -0.1254
 9370SOL    HW138789   8.382   4.512   2.209 -0.5287 -0.8408  0.2589
 9370SOL    HW238790   8.367   4.662   2.273 -0.0017 -0.5216 -0.3542
 9371SOL     OW38791   3.762   8.515   0.812  0.4368 -0.1662  0.1970
 9371SOL    HW138792   3.707   8.432   0.804  2.1254 -1.5471  2.4741
 9371SOL    HW238793   3.714   8.583   0.867 -0.6047  0.0737 -1.0019
 9372SOL     OW38794   0.438   4.308   3.024  0.2068 -0.0654  0.6011
 9372SOL    HW138795   0.512   4.329   3.088 -0.9447 -1.0635  2.2976
 9372SOL    HW238796   0.368   4.254   3.071 -0.7574 -0.6424 -1.4632
 9373SOL     OW38797   8.520   7.396   2.305 -0.0381 -0.0080  0.8989
 9373SOL    HW138798   8.428   7.424   2.277  0.3794 -0.3336 -0.8551
 9373SOL    HW238799   8.534   7.300   2.281  0.7369  0.0186  1.2355
 9374SOL     OW38800   8.174   4.649   1.291 -0.0215 -0.0245  0.0076
 9374SOL    HW138801   8.164   4.685   1.384 -1.3072 -1.0631  0.2888
 9374SOL    HW238802   8.160   4.723   1.225 -2.6513  0.0093  0.5721
 9375SOL     OW38803   3.662   1.010   2.267  0.5145 -0.2596 -0.2546
 9375SOL    HW138804   3.704   1.100   2.260  0.2434 -0.1470 -0.4393
 9375SOL    HW238805   3.709   0.947   2.204  2.1865 -0.8241  1.5159
 9376SOL     OW38806   8.035   8.765   3.193  0.3560  0.1852 -0.1611
 9376SOL    HW138807   8.059   8.766   3.290  3.5327  1.6146 -0.8830
 9376SOL    HW238808   7.952   8.818   3.178 -0.2836 -0.2595  1.8239
 9377SOL     OW38809   2.356   1.305   3.990 -0.5793  0.6154  0.5496
 9377SOL    HW138810   2.337   1.305   3.892 -1.5018  0.7487  0.7232
 9377SOL    HW238811   2.408   1.387   4.014 -1.2996  1.1344  0.3477
 9378SOL     OW38812   1.433   5.361   1.572 -0.1703  0.2976  0.2913
 9378SOL    HW138813   1.533   5.359   1.574 -0.1383 -1.4479 -1.7806
 9378SOL    HW238814   1.397   5.275   1.608 -0.8772  0.2494 -0.5128
 9379SOL     OW38815   9.286   7.743   0.842 -0.2406 -0.1318  0.3655
 9379SOL    HW138816   9.188   7.748   0.858 -0.2067 -0.3100  0.6289
 9379SOL    HW238817   9.314   7.648   0.830 -0.5171  0.1134 -2.3838
 9380SOL     OW38818   2.418   9.244   1.643  0.7221 -0.4478  0.5263
 9380SOL    HW138819   2.366   9.243   1.728 -0.8497 -0.3041 -0.4016
 9380SOL    HW238820   2.390   9.167   1.586 -1.5645  1.9441 -1.7507
 9381SOL     OW38821   9.759   7.939   3.721 -0.0382  0.2727 -0.0544
 9381SOL    HW138822   9.825   7.864   3.725 -1.9895 -1.5169 -0.5013
 9381SOL    HW238823   9.808   8.025   3.707  2.3586 -0.6662  2.1112
 9382SOL     OW38824   3.565   6.100   3.025  0.1138  0.4751  0.5084
 9382SOL    HW138825   3.491   6.048   2.981  1.5318 -0.7152 -0.5007
 9382SOL    HW238826   3.607   6.161   2.958  0.3000  0.8798  0.9923
 9383SOL     OW38827   3.246   3.890   2.718 -0.1454 -0.5002 -0.0617
 9383SOL    HW138828   3.210   3.851   2.634 -1.4907  1.0621 -0.2518
 9383SOL    HW238829   3.344   3.873   2.724  0.0072 -0.4409 -2.0581
 9384SOL     OW38830   6.946   0.353   0.609 -0.6470  0.5498 -0.0458
 9384SOL    HW138831   6.933   0.338   0.707  1.1757 -0.0174  0.1189
 9384SOL    HW238832   7.036   0.393   0.592 -1.1500  1.1304 -1.4527
 9385SOL     OW38833   4.042   2.356   0.037  0.4229  0.5896 -0.2286
 9385SOL    HW138834   4.133   2.354  -0.004  0.0199  0.5583 -1.1256
 9385SOL    HW238835   4.019   2.449   0.064  0.1530  0.8300 -1.2786
 9386SOL     OW38836   1.989   7.168   3.368 -0.0158 -0.5132  0.5405
 9386SOL    HW138837   2.000   7.213   3.279 -1.4003  0.5205  0.8684
 9386SOL    HW238838   2.052   7.208   3.434 -1.6728  1.4768  0.9951
 9387SOL     OW38839   0.209   9.122   3.565 -0.4954  0.2340 -0.4649
 9387SOL    HW138840   0.235   9.161   3.476 -0.0507  1.3741  0.1535
 9387SOL    HW238841   0.283   9.137   3.630  0.0454 -2.4346 -0.4303
 9388SOL     OW38842   0.744   3.652   0.300 -0.3719 -0.5225 -0.4130
 9388SOL    HW138843   0.801   3.629   0.378 -0.9972 -2.1104 -0.4155
 9388SOL    HW238844   0.789   3.625   0.216  0.5967  1.7879 -0.6738
 9389SOL     OW38845   4.547   2.034   1.311 -0.0494  0.6155 -0.7698
 9389SOL    HW138846   4.642   2.048   1.283  0.1421  0.3448 -0.2529
 9389SOL    HW238847   4.528   1.936   1.318 -0.8140  0.6420 -2.3986
 9390SOL     OW38848   3.236   0.517   0.032 -0.3021  0.4291  0.1188
 9390SOL    HW138849   3.168   0.590   0.039  0.2692  0.7672  2.3652
 9390SOL    HW238850   3.324   0.549   0.067  0.1851 -1.0320  0.2712
 9391SOL     OW38851   2.463   3.435   2.308  0.0081  0.2152  0.5377
 9391SOL    HW138852   2.452   3.533   2.289  0.9065  0.3596  0.7347
 9391SOL    HW238853   2.392   3.384   2.261  0.6680  0.7977 -1.1337
 9392SOL     OW38854   2.002   1.268   0.397 -0.2317 -0.2429 -0.0830
 9392SOL    HW138855   2.075   1.321   0.440  0.6186 -0.8203 -0.8186
 9392SOL    HW238856   1.928   1.330   0.370  0.4080  0.4731 -0.2201
 9393SOL     OW38857   0.669   5.976   3.127 -0.3304 -0.1021 -0.1622
 9393SOL    HW138858   0.685   5.879   3.145  2.5285  0.3968  0.1825
 9393SOL    HW238859   0.631   6.019   3.210 -0.4410 -0.6693  0.0817
 9394SOL     OW38860   1.818   1.141   1.353  0.3251  1.0330 -0.0861
 9394SOL    HW138861   1.839   1.237   1.335  0.0470  1.0159 -0.5106
 9394SOL    HW238862   1.758   1.136   1.434  2.5105  1.0241  1.5713
 9395SOL     OW38863   0.500   7.011   2.650  0.1866 -0.1436 -0.0861
 9395SOL    HW138864   0.412   7.009   2.602 -0.1360  1.1467  0.4362
 9395SOL    HW238865   0.485   7.014   2.748  0.8481 -2.3968  0.0990
 9396SOL     OW38866   9.807   0.681   0.936  0.0966  0.6516 -0.8965
 9396SOL    HW138867   9.827   0.590   0.973  1.0364  1.1216 -0.2331
 9396SOL    HW238868   9.767   0.671   0.845 -1.1573 -0.4774 -0.2433
 9397SOL     OW38869   1.186   5.857   4.577 -0.2777  0.1487  0.2329
 9397SOL    HW138870   1.210   5.767   4.541 -0.1100  0.2439  0.1117
 9397SOL    HW238871   1.207   5.860   4.675 -1.8664 -0.5309  0.6132
 9398SOL     OW38872   9.315   8.969   0.563  0.0317  0.3178  0.1337
 9398SOL    HW138873   9.371   9.020   0.629 -0.2185 -0.2138  0.7672
 9398SOL    HW238874   9.251   8.910   0.613  0.0218 -0.2869 -0.5934
 9399SOL     OW38875   3.014   8.136   3.357 -0.1990 -0.1199 -0.1809
 9399SOL    HW138876   2.983   8.229   3.336  0.0715  0.1616  0.6522
 9399SOL    HW238877   3.111   8.136   3.379 -0.2073 -0.5913 -0.1235
 9400SOL     OW38878   1.453   0.705   4.740  0.6806 -0.4581 -0.4587
 9400SOL    HW138879   1.385   0.697   4.667 -0.8299 -1.7435  1.0525
 9400SOL    HW238880   1.424   0.651   4.819  2.0985  1.1885  1.2481
 9401SOL     OW38881   8.592   9.519   2.567 -0.0539 -0.5371 -0.8687
 9401SOL    HW138882   8.665   9.490   2.505  1.1208  0.8177 -0.1488
 9401SOL    HW238883   8.589   9.618   2.570 -1.9265 -0.5786 -0.8589
 9402SOL     OW38884   2.457   9.787   4.439 -0.1541  0.0870  0.3421
 9402SOL    HW138885   2.406   9.701   4.446 -1.2441  0.8253  1.5960
 9402SOL    HW238886   2.431   9.835   4.356 -0.1994 -0.3826  0.0854
 9403SOL     OW38887   9.714   4.166   4.164 -0.0577  0.9139  0.8639
 9403SOL    HW138888   9.665   4.087   4.126  2.0549  0.5259 -1.1521
 9403SOL    HW238889   9.660   4.249   4.149 -0.9440  0.2447  0.3002
 9404SOL     OW38890   9.531   2.085   4.686  0.0155 -0.0599  0.1224
 9404SOL    HW138891   9.565   2.081   4.780  2.1106  2.5567 -0.4619
 9404SOL    HW238892   9.559   2.002   4.637  1.4128 -0.1275  1.0051
 9405SOL     OW38893   1.698   0.968   0.626 -0.2368 -0.4181 -0.0076
 9405SOL    HW138894   1.749   1.039   0.674 -0.8887 -1.2853  2.0137
 9405SOL    HW238895   1.725   0.966   0.530  1.5538  0.9330  0.4566
 9406SOL     OW38896   9.811   6.567   1.913  0.1402 -0.2193  0.2255
 9406SOL    HW138897   9.760   6.647   1.946  0.1864 -0.6366  1.3231
 9406SOL    HW238898   9.810   6.496   1.983  0.8892 -0.8292 -0.3806
 9407SOL     OW38899   3.466   4.290   2.491  0.7699 -0.1995 -0.7462
 9407SOL    HW138900   3.375   4.259   2.466  0.8344  0.8547 -2.3310
 9407SOL    HW238901   3.460   4.379   2.537  1.0395  0.2773 -1.6079
 9408SOL     OW38902   8.281   6.772   1.865  0.5225 -0.1275  0.2186
 9408SOL    HW138903   8.342   6.800   1.791 -2.3142 -0.7237 -2.4164
 9408SOL    HW238904   8.244   6.681   1.846  0.3587 -0.6501  2.7962
 9409SOL     OW38905   3.481   0.610   1.788 -0.4878  0.5617 -0.2499
 9409SOL    HW138906   3.574   0.647   1.782 -0.8965  1.7902  0.6392
 9409SOL    HW238907   3.480   0.516   1.755  1.2252  0.2842  0.4139
 9410SOL     OW38908   8.793   3.022   2.661 -0.1490  0.5565 -0.4574
 9410SOL    HW138909   8.745   3.059   2.581  1.3638  1.1262 -1.1254
 9410SOL    HW238910   8.750   3.057   2.745 -0.5070  1.5629 -1.0450
 9411SOL     OW38911   7.857   9.927   3.238 -0.0581 -0.3949 -0.0866
 9411SOL    HW138912   7.940   9.877   3.216  0.3622 -1.0520  2.7376
 9411SOL    HW238913   7.869  10.024   3.216  1.3031 -0.5676 -0.1425
 9412SOL     OW38914   2.840   1.448   1.527 -0.1041 -0.3982 -0.4391
 9412SOL    HW138915   2.856   1.518   1.457 -0.1907  1.6580  1.5278
 9412SOL    HW238916   2.918   1.385   1.531  1.5340  1.6150  0.0401
 9413SOL     OW38917   4.359   4.127   3.954 -0.7130  0.4750 -0.3189
 9413SOL    HW138918   4.455   4.150   3.944 -0.8140  0.4994 -1.3736
 9413SOL    HW238919   4.329   4.074   3.874 -1.8227  1.3483 -0.5128
 9414SOL     OW38920   3.637   2.460   2.794 -0.1107  0.1029 -0.2474
 9414SOL    HW138921   3.720   2.430   2.841  0.6058  0.7048 -1.1301
 9414SOL    HW238922   3.636   2.422   2.701 -1.1914 -0.5217  0.0116
 9415SOL     OW38923   2.282   0.296   3.937  0.2385  0.1459  1.0819
 9415SOL    HW138924   2.363   0.285   3.994  0.5671 -1.2563  0.3509
 9415SOL    HW238925   2.200   0.271   3.989  0.5492 -1.2433  0.9015
 9416SOL     OW38926   7.654   3.466   3.952  0.4974 -0.2945 -0.0929
 9416SOL    HW138927   7.716   3.520   3.895  0.9778 -0.4110  0.3174
 9416SOL    HW238928   7.560   3.480   3.921  0.4117  2.2278  1.1842
 9417SOL     OW38929   7.178   9.508   3.004  0.2211 -0.2884 -0.1241
 9417SOL    HW138930   7.121   9.435   2.966  0.7130 -0.4656 -0.5326
 9417SOL    HW238931   7.274   9.478   3.005  0.3335  0.0878  0.3503
 9418SOL     OW38932   2.980   2.084   2.330  0.0349 -0.2007 -0.3147
 9418SOL    HW138933   3.065   2.117   2.289  1.3703 -1.0942  1.6391
 9418SOL    HW238934   2.945   2.152   2.394 -0.5369  0.0158 -0.8541
 9419SOL     OW38935   4.348   1.940   1.578 -0.2089  0.2796  0.3107
 9419SOL    HW138936   4.442   1.972   1.579 -0.6298  1.5650  0.4365
 9419SOL    HW238937   4.346   1.840   1.585  1.1227  0.2612  0.5190
 9420SOL     OW38938   0.075   6.276   4.164  0.5769  0.0098  0.1484
 9420SOL    HW138939   0.094   6.200   4.226 -0.8351  1.5072  2.4883
 9420SOL    HW238940   0.073   6.362   4.215  0.4593  1.4322 -2.1596
 9421SOL     OW38941   2.203   6.501   2.388 -0.1433 -0.4631 -0.2676
 9421SOL    HW138942   2.270   6.441   2.432 -1.6133 -2.3297 -0.5070
 9421SOL    HW238943   2.126   6.515   2.451 -1.6896 -2.1533 -1.7325
 9422SOL     OW38944   7.046   9.758   3.047 -0.4612  0.0129 -0.0975
 9422SOL    HW138945   7.090   9.671   3.022 -1.9078 -0.4659 -1.0329
 9422SOL    HW238946   7.095   9.799   3.124  2.6790  0.3506 -2.2084
 9423SOL     OW38947   8.971   9.512   0.477 -0.2456  0.5418 -0.4178
 9423SOL    HW138948   9.011   9.451   0.546 -0.5989  0.0569 -0.6336
 9423SOL    HW238949   8.922   9.457   0.409 -0.9594  1.1071 -0.3620
 9424SOL     OW38950   1.422   0.834   0.415 -0.0626  0.6432 -0.2369
 9424SOL    HW138951   1.433   0.797   0.507 -0.1085  0.1397 -0.4335
 9424SOL    HW238952   1.512   0.856   0.378  0.1174 -1.0681 -0.8528
 9425SOL     OW38953   5.353   5.002   1.144  0.2115  0.1142  0.0063
 9425SOL    HW138954   5.287   4.956   1.204 -0.4912  0.8319 -0.2047
 9425SOL    HW238955   5.378   5.090   1.185 -0.1488  0.5355 -0.6836
 9426SOL     OW38956   1.330   0.991   4.727  0.2114  0.1082  0.3868
 9426SOL    HW138957   1.353   0.896   4.751  0.0074 -0.2433 -0.7831
 9426SOL    HW238958   1.414   1.044   4.715  0.3345 -0.0761  0.4299
 9427SOL     OW38959   9.827   3.962   3.784 -0.1317  1.0320  0.1826
 9427SOL    HW138960   9.870   3.991   3.870 -1.2280  0.1792  1.0400
 9427SOL    HW238961   9.894   3.912   3.729 -0.0514 -0.4829  1.5989
 9428SOL     OW38962   0.041   6.466   4.532  0.3174  0.8628 -0.0069
 9428SOL    HW138963   0.113   6.535   4.532 -0.1220  1.3177 -0.0006
 9428SOL    HW238964  -0.009   6.470   4.619  1.3810 -0.5920  0.7089
 9429SOL     OW38965   2.399   1.484   0.124 -0.1064 -0.0256  0.3240
 9429SOL    HW138966   2.490   1.498   0.163  0.3029  2.6404 -1.4839
 9429SOL    HW238967   2.330   1.508   0.193  0.5966  1.7618  0.4360
 9430SOL     OW38968   2.352   1.780   0.282 -0.0650  0.6944  0.4363
 9430SOL    HW138969   2.278   1.713   0.290  1.2279 -0.5948  1.7981
 9430SOL    HW238970   2.415   1.770   0.359 -0.1081  3.8272  0.9253
 9431SOL     OW38971   9.359   3.462   3.608  0.1675  0.6503  0.2227
 9431SOL    HW138972   9.454   3.494   3.613  0.6889 -0.6808 -0.7808
 9431SOL    HW238973   9.356   3.365   3.633 -1.0553  0.8908  1.0600
 9432SOL     OW38974   3.762   2.231   1.802  0.8096  0.2676  0.0176
 9432SOL    HW138975   3.767   2.192   1.894  0.5092  0.3928  0.0886
 9432SOL    HW238976   3.699   2.177   1.747  0.7180  0.3990 -0.0079
 9433SOL     OW38977   3.535   7.162   0.144 -0.0253  0.2075  0.4508
 9433SOL    HW138978   3.512   7.097   0.216 -1.0142 -0.3652 -0.3601
 9433SOL    HW238979   3.558   7.250   0.185 -0.0032 -0.2750  1.4936
 9434SOL     OW38980   8.041   1.705   2.530 -0.2210  0.4664  0.0319
 9434SOL    HW138981   8.013   1.696   2.626 -0.1683  0.4500  0.0455
 9434SOL    HW238982   8.103   1.631   2.507 -0.0207  0.6259  0.0600
 9435SOL     OW38983   1.018   7.423   2.873  0.1805  0.2754  0.3628
 9435SOL    HW138984   1.071   7.507   2.861  0.7742 -0.0928  0.4071
 9435SOL    HW238985   1.034   7.387   2.965 -1.6631  1.2140  1.0764
 9436SOL     OW38986   7.802   9.764   1.269  0.1965 -0.1682 -0.3031
 9436SOL    HW138987   7.785   9.667   1.252 -1.8858  0.3494 -1.4506
 9436SOL    HW238988   7.783   9.786   1.364  1.1505 -0.9701  0.0770
 9437SOL     OW38989   4.395   3.629   0.187  0.2717 -0.0821 -0.0304
 9437SOL    HW138990   4.461   3.559   0.216 -0.5360 -0.9072 -0.1468
 9437SOL    HW238991   4.443   3.703   0.140  1.4922  0.8973  2.6943
 9438SOL     OW38992   1.338   7.918   3.691 -0.8315 -0.4054 -0.1666
 9438SOL    HW138993   1.307   7.960   3.776 -1.0299 -0.8652 -0.0120
 9438SOL    HW238994   1.437   7.929   3.683 -0.6916 -1.0817  0.5319
 9439SOL     OW38995   0.355   3.162   0.363  0.0569  0.0136  0.0776
 9439SOL    HW138996   0.424   3.224   0.326 -1.0131  0.7486 -0.7400
 9439SOL    HW238997   0.269   3.212   0.375 -0.6479 -1.1603  0.0093
 9440SOL     OW38998   6.764   9.917   1.933  0.2774  0.0004  0.1499
 9440SOL    HW138999   6.744   9.938   2.029 -1.3089 -1.7222  0.2324
 9440SOL    HW239000   6.752   9.998   1.877  0.4707  0.8324  1.3008
 9441SOL     OW39001   3.061   4.001   0.673  0.1285  0.1722 -0.2302
 9441SOL    HW139002   3.062   3.913   0.722  0.1205  1.1602  1.5793
 9441SOL    HW239003   3.095   4.073   0.733 -2.4854  1.9013 -0.7519
 9442SOL     OW39004   8.522   8.865   3.284 -0.7353 -0.4305 -0.3318
 9442SOL    HW139005   8.620   8.868   3.268 -0.4989  0.2465  1.1830
 9442SOL    HW239006   8.475   8.919   3.214  0.1329  1.0218  0.1757
 9443SOL     OW39007   9.370   8.320   2.257 -0.1651 -0.3783  0.1340
 9443SOL    HW139008   9.447   8.269   2.219  0.7824 -0.0775  1.6301
 9443SOL    HW239009   9.302   8.336   2.185  1.6825  0.3530 -1.4894
 9444SOL     OW39010   7.830   1.589   0.129 -0.4924 -0.6018  0.3754
 9444SOL    HW139011   7.916   1.546   0.156 -1.0067  0.3580  3.6913
 9444SOL    HW239012   7.841   1.632   0.039  1.6656 -2.7884 -0.4547
 9445SOL     OW39013   7.718   8.732   0.991 -0.2161 -0.1851  0.3012
 9445SOL    HW139014   7.772   8.775   1.063  0.6219  1.3544 -1.2232
 9445SOL    HW239015   7.717   8.791   0.910 -1.8065 -1.5219 -0.6854
 9446SOL     OW39016   9.618   4.072   0.561 -0.3325  0.4275  0.1912
 9446SOL    HW139017   9.569   3.985   0.556  0.9251 -0.3678  1.0925
 9446SOL    HW239018   9.616   4.118   0.472 -0.8237 -0.6355 -0.3475
 9447SOL     OW39019   3.500   8.443   0.999  0.2343 -0.2718  0.1961
 9447SOL    HW139020   3.409   8.437   1.039  0.4355  0.0226  0.6916
 9447SOL    HW239021   3.564   8.483   1.065  0.2793  1.4605 -0.8695
 9448SOL     OW39022   6.937   8.844   3.498 -0.1140  0.0843  0.1242
 9448SOL    HW139023   6.930   8.943   3.480  1.1300  0.5621  2.1160
 9448SOL    HW239024   7.021   8.826   3.549 -1.0439 -1.8418  1.0076
 9449SOL     OW39025   4.745   0.018   1.872  0.3647  0.0080 -0.4131
 9449SOL    HW139026   4.699  -0.068   1.851  1.8020 -0.5574 -1.3059
 9449SOL    HW239027   4.709   0.091   1.813 -1.6707  0.3035  1.1286
 9450SOL     OW39028   9.320   8.167   1.473  0.4602  0.7149  0.1677
 9450SOL    HW139029   9.334   8.084   1.528  0.2426  1.6704  1.6804
 9450SOL    HW239030   9.304   8.141   1.377  0.6907 -0.9725  0.5735
 9451SOL     OW39031   0.233   6.818   3.688  0.5243  0.3558  0.0543
 9451SOL    HW139032   0.318   6.783   3.728  1.3692 -0.7873 -2.6480
 9451SOL    HW239033   0.185   6.874   3.756  1.5147 -2.1016  2.9198
 9452SOL     OW39034   3.066   8.021   0.949  0.4208 -0.2936  0.0004
 9452SOL    HW139035   2.969   7.997   0.953  0.3265  0.0537 -0.1493
 9452SOL    HW239036   3.115   7.976   1.023  0.2354 -0.8854 -0.2398
 9453SOL     OW39037   7.862   2.607   0.186 -0.9260  0.0779 -0.0544
 9453SOL    HW139038   7.785   2.555   0.148 -1.0331  1.3731 -1.6496
 9453SOL    HW239039   7.939   2.601   0.124  0.1712 -0.8856  1.3576
 9454SOL     OW39040   2.149   9.302   3.869 -0.0346 -0.0413 -0.2533
 9454SOL    HW139041   2.060   9.320   3.910  0.1341 -1.2265  0.6614
 9454SOL    HW239042   2.216   9.281   3.941  0.1418 -2.7070 -1.1277
 9455SOL     OW39043   2.554   4.899   0.281 -0.0868  0.3726  0.0541
 9455SOL    HW139044   2.528   4.968   0.349  1.6962  0.0296  1.1024
 9455SOL    HW239045   2.645   4.863   0.302 -0.0501 -0.6836 -1.7787
 9456SOL     OW39046   8.790   4.135   3.498  0.5544  0.8600 -0.1230
 9456SOL    HW139047   8.720   4.093   3.441  0.9351 -1.6263  1.1317
 9456SOL    HW239048   8.877   4.138   3.449  0.6142 -0.2405 -0.1058
 9457SOL     OW39049   2.212   1.194   0.757  0.5661  0.3831  0.2363
 9457SOL    HW139050   2.207   1.257   0.679 -1.4780  0.0322  0.0433
 9457SOL    HW239051   2.307   1.168   0.773  1.2150  1.9825 -0.9192
 9458SOL     OW39052   9.283   2.925   4.327 -0.3015 -0.1361 -0.3505
 9458SOL    HW139053   9.231   3.007   4.350 -0.7414 -0.0859 -1.4908
 9458SOL    HW239054   9.327   2.937   4.238  2.7824  0.3522  1.1558
 9459SOL     OW39055   8.128   9.900   2.764 -0.0955 -0.3727 -0.1849
 9459SOL    HW139056   8.166   9.951   2.841 -1.0992 -0.8269  0.6262
 9459SOL    HW239057   8.202   9.854   2.715  0.4685 -0.7567  1.0026
 9460SOL     OW39058   0.561   0.178   4.612  0.2706 -0.1776 -0.3875
 9460SOL    HW139059   0.560   0.222   4.702 -0.7732 -1.2988  0.1703
 9460SOL    HW239060   0.475   0.195   4.565  0.3835 -0.5072 -0.7188
 9461SOL     OW39061   2.518   3.105   4.501  0.6600  0.4508 -0.5824
 9461SOL    HW139062   2.500   3.013   4.535  0.0068  0.6690 -0.3345
 9461SOL    HW239063   2.602   3.104   4.445  0.0994 -0.4918 -1.4309
 9462SOL     OW39064   9.059   7.224   1.234  0.4700  0.2651 -0.6766
 9462SOL    HW139065   9.008   7.305   1.263 -0.5395 -0.8060  0.5629
 9462SOL    HW239066   9.046   7.209   1.136 -1.5082  0.0717 -0.3869
 9463SOL     OW39067   4.703   9.237   3.726  0.6304 -0.3922  0.1537
 9463SOL    HW139068   4.703   9.313   3.661  0.0875  0.1181  0.7371
 9463SOL    HW239069   4.639   9.257   3.801  0.6542 -1.3221  0.4332
 9464SOL     OW39070   8.840   7.242   4.237  0.1431  0.3603 -0.4231
 9464SOL    HW139071   8.930   7.254   4.195 -0.0226 -0.4875 -1.0314
 9464SOL    HW239072   8.835   7.152   4.281 -0.1154  0.7384  0.3326
 9465SOL     OW39073   0.389   9.176   2.116 -0.1478 -0.4373 -0.2455
 9465SOL    HW139074   0.340   9.095   2.085  0.2948 -0.7134 -0.2130
 9465SOL    HW239075   0.322   9.246   2.144 -0.5455 -1.6426  1.9585
 9466SOL     OW39076   7.721   2.150   3.226  0.0178 -0.3469 -0.8310
 9466SOL    HW139077   7.777   2.083   3.275 -0.9710 -0.8763 -0.3968
 9466SOL    HW239078   7.747   2.242   3.255  0.4726 -0.5992 -0.4264
 9467SOL     OW39079   3.359   0.508   2.233  0.2242 -0.5236 -0.2630
 9467SOL    HW139080   3.265   0.539   2.222  0.1288 -1.0351 -0.8442
 9467SOL    HW239081   3.419   0.588   2.246 -0.2288 -0.1776 -0.3044
 9468SOL     OW39082   1.011   2.752   2.599  0.2544  0.2352 -0.5928
 9468SOL    HW139083   1.062   2.670   2.626 -0.1590 -0.0139 -0.5616
 9468SOL    HW239084   0.919   2.749   2.638 -0.4938 -0.3352 -2.3379
 9469SOL     OW39085   9.454   9.321   0.321  0.1564 -0.1842 -0.3015
 9469SOL    HW139086   9.402   9.254   0.269  0.7660  0.3868 -1.6502
 9469SOL    HW239087   9.550   9.319   0.293  0.2446  1.0197 -0.1111
 9470SOL     OW39088   5.221   9.774   4.025 -0.0529 -0.1048  0.3334
 9470SOL    HW139089   5.204   9.721   3.942 -0.8407  1.1802 -0.3624
 9470SOL    HW239090   5.295   9.733   4.078  0.0233 -1.2961 -0.6895
 9471SOL     OW39091   5.113   7.005   3.019 -0.4148  0.0211 -0.1250
 9471SOL    HW139092   5.204   7.028   2.985  0.0355 -0.4207  0.7932
 9471SOL    HW239093   5.069   6.941   2.956  0.1661 -0.2864 -0.2196
 9472SOL     OW39094   3.963   9.828   2.604  0.0449  0.3379 -0.2094
 9472SOL    HW139095   3.912   9.878   2.534 -2.9711 -2.7294 -0.3297
 9472SOL    HW239096   3.903   9.812   2.683  2.1577  0.2387  1.4056
 9473SOL     OW39097   9.396   0.490   2.685  0.3427  0.3394  1.0273
 9473SOL    HW139098   9.437   0.414   2.633 -1.6736 -0.6222  0.8022
 9473SOL    HW239099   9.457   0.569   2.682  1.6881 -0.7188 -0.1953
 9474SOL     OW39100   2.094   6.911   4.667 -0.4229  0.5029 -0.1406
 9474SOL    HW139101   2.174   6.966   4.643 -0.2658 -0.0125 -0.8145
 9474SOL    HW239102   2.019   6.972   4.696 -0.0267  1.0271 -0.2108
 9475SOL     OW39103   9.295   5.185   2.313 -0.0749  0.0973 -0.5279
 9475SOL    HW139104   9.329   5.219   2.225 -0.1393 -0.3554 -0.7269
 9475SOL    HW239105   9.203   5.220   2.329  0.5647  1.5358  0.1283
 9476SOL     OW39106   2.703   3.365   4.285 -0.2531 -0.1192 -0.1371
 9476SOL    HW139107   2.615   3.402   4.314 -0.0061  1.0999 -0.8632
 9476SOL    HW239108   2.748   3.432   4.225  1.2958 -0.5926  0.4830
 9477SOL     OW39109   3.302   5.313   3.080 -0.2492  0.0933  0.2892
 9477SOL    HW139110   3.234   5.345   3.015 -0.3613  0.4979  0.6019
 9477SOL    HW239111   3.346   5.391   3.124  1.4621 -0.1435 -0.9775
 9478SOL     OW39112   1.928   0.197   0.758 -0.0154  0.3684 -0.4314
 9478SOL    HW139113   1.979   0.267   0.808  1.0778  0.0351 -1.0483
 9478SOL    HW239114   1.992   0.143   0.702 -0.8457 -1.1405  0.0581
 9479SOL     OW39115   1.513   8.142   3.442  0.2587  0.0993 -0.5167
 9479SOL    HW139116   1.605   8.180   3.431  0.7179 -0.9512 -0.3227
 9479SOL    HW239117   1.511   8.048   3.407 -0.3136 -0.4560  0.9884
 9480SOL     OW39118   4.185   7.365   1.377  0.8691 -0.4628  0.3845
 9480SOL    HW139119   4.108   7.420   1.346 -0.2675 -1.1680  1.9310
 9480SOL    HW239120   4.222   7.403   1.461  0.5816 -1.6132  1.0393
 9481SOL     OW39121   8.918   1.901   4.742  0.4648 -0.1881 -0.1748
 9481SOL    HW139122   8.912   1.864   4.649 -2.0474 -2.0632  0.6739
 9481SOL    HW239123   8.830   1.939   4.768  1.0826  0.1140  1.5277
 9482SOL     OW39124   3.733   2.543   3.538  0.1898  0.2419 -0.1813
 9482SOL    HW139125   3.673   2.504   3.468 -0.6098  0.6791  0.2625
 9482SOL    HW239126   3.799   2.605   3.495  0.3149 -0.2263 -0.6659
 9483SOL     OW39127   8.285   7.503   1.519 -0.5158  0.6484  0.1265
 9483SOL    HW139128   8.289   7.456   1.431  0.4232  1.1594 -0.1126
 9483SOL    HW239129   8.250   7.440   1.589 -1.5690  0.3364 -0.6641
 9484SOL     OW39130   1.671   1.939   4.502  0.0574  0.2721 -0.6023
 9484SOL    HW139131   1.670   1.871   4.575  0.7973 -0.1845 -1.0148
 9484SOL    HW239132   1.668   1.893   4.413 -0.7935  0.8194 -0.8669
 9485SOL     OW39133   4.287   2.628   0.137 -0.1587 -0.4925  0.2592
 9485SOL    HW139134   4.361   2.604   0.074 -0.1840  0.6643 -0.2221
 9485SOL    HW239135   4.200   2.627   0.088 -0.2689 -0.3156  0.4542
 9486SOL     OW39136   2.666   0.038   0.560 -0.2412  0.6555  0.2416
 9486SOL    HW139137   2.683   0.011   0.655  1.0322  0.5996  0.0087
 9486SOL    HW239138   2.654  -0.044   0.504  0.6908  0.6372  0.0602
 9487SOL     OW39139   3.328   0.224   3.523 -0.0513 -0.5480  0.2213
 9487SOL    HW139140   3.387   0.295   3.485 -1.0707 -0.3155 -0.9258
 9487SOL    HW239141   3.321   0.148   3.459  1.5062 -1.9816  1.6849
 9488SOL     OW39142   7.460   9.729   2.845  1.1270 -0.1908 -0.2620
 9488SOL    HW139143   7.441   9.643   2.798 -0.6624 -0.5536  1.0477
 9488SOL    HW239144   7.432   9.806   2.787 -4.4912 -0.7094  1.5221
 9489SOL     OW39145   8.832   4.788   3.411 -0.1397 -0.2605  0.0105
 9489SOL    HW139146   8.822   4.800   3.510 -1.9043 -0.9987 -0.0700
 9489SOL    HW239147   8.929   4.798   3.386  0.5881 -1.8387  2.0653
 9490SOL     OW39148   2.550   5.823   0.244 -0.2022  0.3375  0.5838
 9490SOL    HW139149   2.463   5.786   0.211 -0.5581  2.7154 -1.2091
 9490SOL    HW239150   2.622   5.755   0.231 -1.2598 -0.5737 -0.5881
 9491SOL     OW39151   1.457   6.389   1.365 -0.2592 -0.4243 -0.0026
 9491SOL    HW139152   1.422   6.464   1.309 -2.2990 -2.5612 -1.6793
 9491SOL    HW239153   1.425   6.399   1.459 -1.0552  0.4666 -0.3632
 9492SOL     OW39154   9.209   0.971   3.281  0.0946  0.3411 -0.5207
 9492SOL    HW139155   9.228   1.069   3.272  0.7862  0.1612 -1.0532
 9492SOL    HW239156   9.249   0.922   3.204  1.7081 -0.6273  0.9066
 9493SOL     OW39157   9.012   9.705   1.227  0.1114 -0.5330 -0.6695
 9493SOL    HW139158   9.006   9.612   1.190 -1.4962 -1.0110  0.7249
 9493SOL    HW239159   9.096   9.714   1.280  0.8782 -0.8073 -1.8219
 9494SOL     OW39160   3.904   2.350   1.103  0.1187 -0.2158  0.6548
 9494SOL    HW139161   3.933   2.437   1.145  1.2111 -0.6886  0.9077
 9494SOL    HW239162   3.834   2.368   1.034 -0.9436  0.6937  1.9252
 9495SOL     OW39163   8.978   3.033   0.108  0.5458 -0.1108  0.7579
 9495SOL    HW139164   9.028   2.948   0.086  0.6111  0.1551 -0.1445
 9495SOL    HW239165   9.037   3.111   0.091 -0.5418  0.2651 -1.4303
 9496SOL     OW39166   8.579   6.159   3.963 -0.0592  0.1515  0.0771
 9496SOL    HW139167   8.669   6.137   4.001 -1.2409 -0.5161  2.5444
 9496SOL    HW239168   8.540   6.077   3.921 -1.4747 -0.8250  3.1399
 9497SOL     OW39169   8.986   6.416   4.339  0.1177  0.5024 -0.1781
 9497SOL    HW139170   9.077   6.405   4.378  0.8211 -1.4059 -2.2308
 9497SOL    HW239171   8.972   6.511   4.311  2.4652  0.3399 -2.0874
 9498SOL     OW39172   9.904   1.375   2.951  0.1665 -0.8219 -0.2677
 9498SOL    HW139173   9.866   1.415   3.035 -1.8057 -2.4419 -0.3395
 9498SOL    HW239174   9.948   1.446   2.898  3.0552 -0.0602  2.9703
 9499SOL     OW39175   2.284   2.891   1.363 -0.4712 -0.0518  0.5181
 9499SOL    HW139176   2.322   2.983   1.361  0.8906 -0.6180 -0.6751
 9499SOL    HW239177   2.205   2.887   1.302  0.2315  0.0160 -0.4119
 9500SOL     OW39178   2.984   8.319   1.615 -0.4046 -0.0486  0.5860
 9500SOL    HW139179   3.043   8.251   1.572  1.6073  2.1376 -0.2057
 9500SOL    HW239180   2.911   8.346   1.552 -0.5283 -0.6252  0.4849
 9501SOL     OW39181   2.935   0.399   0.128  0.1227 -0.0775 -0.0761
 9501SOL    HW139182   2.910   0.425   0.221  0.0927  1.0387 -0.3946
 9501SOL    HW239183   2.908   0.471   0.064 -0.3836 -1.0944 -1.0210
 9502SOL     OW39184   3.608   0.164   2.464 -0.7318  0.3321  0.2141
 9502SOL    HW139185   3.649   0.237   2.410  0.4778 -0.6727 -0.2547
 9502SOL    HW239186   3.648   0.165   2.556  0.3587 -0.6393 -0.2390
 9503SOL     OW39187   7.587   0.112   1.927  0.6105 -0.4142 -0.3413
 9503SOL    HW139188   7.622   0.142   2.016 -1.9496 -0.9171  0.8992
 9503SOL    HW239189   7.607   0.181   1.858 -0.1693  1.5152  1.2997
 9504SOL     OW39190   1.513   7.773   2.028  0.0887 -0.0796 -0.2766
 9504SOL    HW139191   1.509   7.863   1.984  0.4993  0.3431  0.5358
 9504SOL    HW239192   1.434   7.719   2.000 -1.3405  1.3312  0.9475
 9505SOL     OW39193   0.364   6.867   0.619  0.3730  0.4151  0.2510
 9505SOL    HW139194   0.297   6.936   0.594  0.4856  1.0590  1.6857
 9505SOL    HW239195   0.397   6.885   0.711  0.8267 -1.2319  0.4159
 9506SOL     OW39196   3.178   1.296   2.780 -0.3431 -0.4330  0.1634
 9506SOL    HW139197   3.204   1.258   2.869  2.0148 -1.8039 -1.0741
 9506SOL    HW239198   3.193   1.395   2.781 -0.3912 -0.4273  1.3019
 9507SOL     OW39199   2.416   3.967   1.237  0.1188  0.1856  0.0386
 9507SOL    HW139200   2.489   3.932   1.295  0.5812 -1.5804 -1.5707
 9507SOL    HW239201   2.389   3.897   1.171 -0.9383  1.8874 -1.3702
 9508SOL     OW39202   0.242   1.401   3.658  0.1227  0.4813 -0.2468
 9508SOL    HW139203   0.302   1.386   3.737  0.0941  1.5876 -0.0092
 9508SOL    HW239204   0.296   1.396   3.574  0.2144 -0.3601 -0.1362
 9509SOL     OW39205   9.713   2.928   2.471  0.0120  0.2135 -0.2858
 9509SOL    HW139206   9.730   2.860   2.399  1.3436  0.6638 -0.4219
 9509SOL    HW239207   9.633   2.982   2.447  0.2323  0.1270 -1.2676
 9510SOL     OW39208   8.686   4.545   1.150 -0.2180 -0.5736 -0.1426
 9510SOL    HW139209   8.712   4.448   1.144 -1.2220 -1.0983  3.2074
 9510SOL    HW239210   8.593   4.556   1.115  0.0738 -0.7387 -0.9765
 9511SOL     OW39211   1.893   6.805   2.884  0.0835  0.2791  0.1485
 9511SOL    HW139212   1.853   6.729   2.935  1.9016 -1.9579 -1.6387
 9511SOL    HW239213   1.833   6.830   2.808  0.6086 -1.0270 -0.7115
 9512SOL     OW39214   0.001   4.389   1.291  0.6757 -0.0815  0.0658
 9512SOL    HW139215   0.046   4.476   1.272 -0.1024  0.0529 -1.2477
 9512SOL    HW239216   0.056   4.336   1.356  1.5570  1.0419  0.2448
 9513SOL     OW39217   3.268   3.478   4.313 -0.6599 -0.2507  0.3964
 9513SOL    HW139218   3.254   3.494   4.216 -2.1306 -1.2212  0.4307
 9513SOL    HW239219   3.233   3.555   4.366  0.9111  0.6575  0.1239
 9514SOL     OW39220   8.552   8.966   0.333  0.0648  0.0258 -0.2874
 9514SOL    HW139221   8.611   9.008   0.402 -1.7325  0.4711  1.0152
 9514SOL    HW239222   8.505   9.038   0.282  0.1705 -0.3447 -0.9136
 9515SOL     OW39223   9.073   3.751   4.349  0.0491  0.8659  0.6034
 9515SOL    HW139224   9.015   3.832   4.356 -1.0563 -0.0279  2.0494
 9515SOL    HW239225   9.134   3.747   4.429  0.4084  0.5158  0.3145
 9516SOL     OW39226   8.906   8.376   4.510 -0.2590 -0.5159 -0.4801
 9516SOL    HW139227   8.839   8.311   4.475 -0.2868  0.5555 -2.4669
 9516SOL    HW239228   8.967   8.405   4.436  2.0136 -0.9723  1.1479
 9517SOL     OW39229   2.017   9.569   1.052  0.3252 -0.3230 -0.3519
 9517SOL    HW139230   2.099   9.606   1.095  0.2575 -1.7667  1.0842
 9517SOL    HW239231   1.968   9.642   1.004  0.5645  1.2889  1.7839
 9518SOL     OW39232   0.751   8.414   1.125 -0.1998 -0.0331  0.2092
 9518SOL    HW139233   0.731   8.470   1.205 -2.7670  1.3747 -1.3336
 9518SOL    HW239234   0.706   8.326   1.134  0.7794 -0.4632  0.9787
 9519SOL     OW39235   3.138   1.007   2.460 -0.1467 -0.2191  0.2848
 9519SOL    HW139236   3.075   1.080   2.436 -1.4510 -1.1274  0.8978
 9519SOL    HW239237   3.197   1.037   2.535  0.5756  0.8358 -0.6751
 9520SOL     OW39238   6.645   9.431   1.141  0.3239 -0.6597 -0.0484
 9520SOL    HW139239   6.641   9.531   1.149 -0.9876 -0.7121  0.1434
 9520SOL    HW239240   6.739   9.403   1.125  0.5423  0.7110 -1.3418
 9521SOL     OW39241   3.733   1.247   4.218 -0.6945  0.4443  0.0696
 9521SOL    HW139242   3.651   1.191   4.231 -0.5625 -0.1184 -1.4361
 9521SOL    HW239243   3.705   1.341   4.197 -0.9217  0.7901  1.8808
 9522SOL     OW39244   4.574   2.428   1.850 -0.2658  0.5332 -0.3533
 9522SOL    HW139245   4.603   2.506   1.795  1.5638  1.8004  2.2909
 9522SOL    HW239246   4.652   2.392   1.901 -1.7063 -1.1680  0.7197
 9523SOL     OW39247   3.565   3.744   0.865 -0.2573  0.3794  0.3224
 9523SOL    HW139248   3.568   3.695   0.951  1.4204 -0.7195 -0.3367
 9523SOL    HW239249   3.538   3.682   0.791 -0.8301  1.1042 -0.0889
 9524SOL     OW39250   4.859   7.524   2.690  0.5183 -0.1163  0.1559
 9524SOL    HW139251   4.812   7.445   2.729  0.6380 -0.1901  0.1522
 9524SOL    HW239252   4.812   7.554   2.607  1.4062 -1.1862 -0.7449
 9525SOL     OW39253   9.634   9.966   2.318  0.3178  0.2256  0.2512
 9525SOL    HW139254   9.649   9.904   2.394  0.9160  0.3726  0.2528
 9525SOL    HW239255   9.537   9.989   2.312  0.0195 -1.0543 -0.0148
 9526SOL     OW39256   0.053   2.285   2.036 -0.8234 -0.0623  0.0659
 9526SOL    HW139257  -0.019   2.351   2.055 -1.3075 -0.8982  1.2158
 9526SOL    HW239258   0.110   2.318   1.960 -0.2413  2.2873  1.4803
 9527SOL     OW39259   2.721   6.410   1.076 -0.0214  0.2627  0.3859
 9527SOL    HW139260   2.653   6.339   1.059  0.8591 -0.4561 -0.1486
 9527SOL    HW239261   2.681   6.481   1.135 -1.4095  0.1378 -0.3801
 9528SOL     OW39262   0.314   0.688   4.468  0.3180  0.9319 -0.5214
 9528SOL    HW139263   0.284   0.665   4.560  2.3271 -0.1736 -0.0970
 9528SOL    HW239264   0.244   0.662   4.402  0.2621 -1.4103  0.4273
 9529SOL     OW39265   0.777   1.732   2.543 -0.4529 -0.0597  0.3875
 9529SOL    HW139266   0.710   1.773   2.481 -0.9421  0.1814  1.0708
 9529SOL    HW239267   0.737   1.649   2.584  0.7376 -1.5588 -1.4393
 9530SOL     OW39268   3.657   0.446   2.243  0.4567  0.3285 -0.3011
 9530SOL    HW139269   3.683   0.450   2.339 -0.6702  0.5174  0.0051
 9530SOL    HW239270   3.558   0.436   2.236  0.5927 -0.2852 -1.4368
 9531SOL     OW39271   2.393   4.025   0.537  0.4628  0.4982 -0.4335
 9531SOL    HW139272   2.466   4.085   0.503 -0.2265  0.6451 -1.6808
 9531SOL    HW239273   2.314   4.032   0.477 -1.4814  2.1232  2.2274
 9532SOL     OW39274   9.579   5.985   2.444 -0.5005 -0.0170  0.2974
 9532SOL    HW139275   9.515   5.978   2.368 -1.9151 -0.6432  1.5109
 9532SOL    HW239276   9.578   5.900   2.496  1.5295 -0.1335  0.1980
 9533SOL     OW39277   0.792   9.811   3.573  0.4793  0.3884 -0.7403
 9533SOL    HW139278   0.739   9.728   3.555  1.3982 -0.1868 -0.7989
 9533SOL    HW239279   0.796   9.826   3.672 -0.2939  0.7644 -0.7628
 9534SOL     OW39280   2.856   2.964   3.320 -0.3604  0.5954 -0.1620
 9534SOL    HW139281   2.795   3.011   3.257  0.8442 -0.8051 -2.4289
 9534SOL    HW239282   2.870   2.870   3.290  2.4639  0.7008  0.6086
 9535SOL     OW39283   3.195   3.380   3.239 -1.1249  0.0519  0.1036
 9535SOL    HW139284   3.141   3.319   3.180 -0.0516  0.1775 -1.0167
 9535SOL    HW239285   3.170   3.364   3.334 -1.7111 -1.3114 -0.2666
 9536SOL     OW39286   8.501   4.955   2.381 -0.6704 -0.0299 -0.1642
 9536SOL    HW139287   8.422   4.988   2.331  0.9168  0.6261 -2.3284
 9536SOL    HW239288   8.574   4.931   2.316  1.7700  1.6495  1.8413
 9537SOL     OW39289   2.140   0.953   2.770  0.2248  0.3396  0.0111
 9537SOL    HW139290   2.052   0.970   2.813  0.0703  0.9850 -0.5413
 9537SOL    HW239291   2.190   0.883   2.821  0.4605  1.7760  1.8047
 9538SOL     OW39292   9.296   3.522   1.724  0.1264  0.4715  0.5857
 9538SOL    HW139293   9.360   3.448   1.703 -1.8767 -0.4313 -2.9332
 9538SOL    HW239294   9.229   3.489   1.791  1.7109  0.5305  2.2248
 9539SOL     OW39295   5.542   0.267   3.238  0.2158 -0.2671  0.5546
 9539SOL    HW139296   5.521   0.315   3.152  0.2575 -1.4901 -0.1506
 9539SOL    HW239297   5.520   0.326   3.315  2.9431  2.0165 -0.3057
 9540SOL     OW39298   8.200   7.565   0.094  0.4545  0.2488 -0.0856
 9540SOL    HW139299   8.228   7.510   0.015 -1.5145 -0.8287 -0.0590
 9540SOL    HW239300   8.144   7.642   0.063 -0.4527 -0.2640  0.2558
 9541SOL     OW39301   0.147   9.571   0.932 -0.0600  0.1257 -0.2339
 9541SOL    HW139302   0.054   9.557   0.898  0.5112 -0.8521 -1.4292
 9541SOL    HW239303   0.159   9.520   1.018 -0.3677 -0.4550 -0.5285
 9542SOL     OW39304   3.395   8.625   1.336 -0.2385  0.2497  0.0624
 9542SOL    HW139305   3.321   8.558   1.333 -0.6594  0.7957 -2.8671
 9542SOL    HW239306   3.483   8.577   1.339 -0.6155 -0.4079  0.8686
 9543SOL     OW39307   7.927   7.474   2.760 -0.1454 -0.0894  0.5891
 9543SOL    HW139308   7.847   7.423   2.727  0.1544  0.4156 -0.9864
 9543SOL    HW239309   7.898   7.565   2.790  0.0030  0.5858 -1.2481
 9544SOL     OW39310   1.639   4.195   3.671 -0.2406  0.1109 -0.3100
 9544SOL    HW139311   1.715   4.253   3.640 -0.9823  1.4380  0.3290
 9544SOL    HW239312   1.648   4.179   3.769 -0.8068  0.3011 -0.2265
 9545SOL     OW39313   7.750   9.039   1.423  0.6353  0.4825 -0.2101
 9545SOL    HW139314   7.734   8.941   1.418  0.8800  0.4861 -1.2468
 9545SOL    HW239315   7.748   9.078   1.331  3.0173  1.0393 -0.0677
 9546SOL     OW39316   2.669   5.930   4.547 -0.5914  0.4682  0.3115
 9546SOL    HW139317   2.645   5.942   4.451  0.1364  0.8881  0.1832
 9546SOL    HW239318   2.701   5.836   4.562  0.3892  0.7375 -0.0874
 9547SOL     OW39319   8.670   0.673   1.773 -0.0474  0.4988 -0.3153
 9547SOL    HW139320   8.719   0.604   1.828  0.1523 -0.1234 -1.2657
 9547SOL    HW239321   8.572   0.653   1.773 -0.0213  0.3785 -0.3692
 9548SOL     OW39322   9.456   4.703   1.095 -0.1113 -0.1447  0.0043
 9548SOL    HW139323   9.375   4.707   1.154 -1.6753 -2.0608 -1.9144
 9548SOL    HW239324   9.432   4.656   1.010  2.6682  0.5917 -1.2135
 9549SOL     OW39325   1.357   4.115   0.409  0.0202 -0.1925 -0.2408
 9549SOL    HW139326   1.306   4.096   0.325  1.0583  2.2119 -1.4505
 9549SOL    HW239327   1.392   4.209   0.407  3.8408 -1.4788  0.8401
 9550SOL     OW39328   2.923   1.368   2.733  0.1339  0.8746  0.0705
 9550SOL    HW139329   2.901   1.394   2.638 -2.3311 -2.1854 -0.2760
 9550SOL    HW239330   3.011   1.322   2.736 -0.7233 -0.9183 -1.1461
 9551SOL     OW39331   4.319   6.740   1.652  0.5283 -0.4298 -0.2130
 9551SOL    HW139332   4.348   6.694   1.735 -0.0090 -1.0166 -0.3416
 9551SOL    HW239333   4.225   6.773   1.663  1.1045  1.1382  0.0792
 9552SOL     OW39334   1.661   7.864   0.940 -0.0022 -0.0165 -0.7971
 9552SOL    HW139335   1.562   7.873   0.933  0.1015  0.8489 -1.2728
 9552SOL    HW239336   1.696   7.814   0.860  0.2566  2.3002 -2.1606
 9553SOL     OW39337   9.733   2.493   3.919  0.4999 -0.5426 -0.4768
 9553SOL    HW139338   9.665   2.435   3.963  0.7196 -0.6581 -0.2862
 9553SOL    HW239339   9.758   2.455   3.830 -0.6831  0.2260 -1.1500
 9554SOL     OW39340   1.537   0.136   2.030  0.3731 -0.4051  0.3130
 9554SOL    HW139341   1.560   0.116   1.934  1.6409 -0.3088  0.5887
 9554SOL    HW239342   1.534   0.050   2.082 -1.0054 -0.5290  0.0525
 9555SOL     OW39343   9.635   1.915   2.493  0.4408 -0.0253 -0.4109
 9555SOL    HW139344   9.668   1.906   2.399 -0.8355  2.1584 -1.1070
 9555SOL    HW239345   9.681   1.992   2.538  0.4534 -0.5441  0.4924
 9556SOL     OW39346   1.583   6.786   3.013 -0.3007 -0.1583  0.2889
 9556SOL    HW139347   1.585   6.831   2.924 -1.4943 -0.4580  0.0967
 9556SOL    HW239348   1.645   6.708   3.013 -0.3419 -0.1885 -0.2946
 9557SOL     OW39349   2.802   9.256   2.753 -0.2201  0.3302  0.1950
 9557SOL    HW139350   2.737   9.305   2.696 -0.6703 -1.8253 -1.2232
 9557SOL    HW239351   2.875   9.318   2.782 -0.8177  1.8250 -1.4399
 9558SOL     OW39352   8.721   4.153   0.261 -0.0042 -0.7051  0.0405
 9558SOL    HW139353   8.639   4.147   0.203  0.2638 -0.1560 -0.3984
 9558SOL    HW239354   8.694   4.164   0.356 -0.4598  2.0004 -0.3499
 9559SOL     OW39355   4.183   7.711   0.018 -0.2947  0.3062 -0.5832
 9559SOL    HW139356   4.232   7.792  -0.015  0.4419  1.1937  2.4909
 9559SOL    HW239357   4.092   7.739   0.051  0.5631  0.2126  1.9737
 9560SOL     OW39358   1.496   8.767   3.843  0.6243 -0.4370 -0.0093
 9560SOL    HW139359   1.500   8.667   3.846  2.2936 -0.4309 -1.5104
 9560SOL    HW239360   1.462   8.797   3.754  3.1252  0.3756 -0.7266
 9561SOL     OW39361   7.043   7.520   2.697 -0.6015  0.5323  0.0576
 9561SOL    HW139362   6.960   7.464   2.698  0.7243 -1.4745  0.3151
 9561SOL    HW239363   7.123   7.461   2.707  0.8878  2.4084 -0.5240
 9562SOL     OW39364   2.828   8.690   3.767  0.1406  0.0336 -0.1982
 9562SOL    HW139365   2.813   8.725   3.674 -1.0766  0.7092  0.2395
 9562SOL    HW239366   2.767   8.613   3.783  0.5203 -0.2317 -0.0386
 9563SOL     OW39367   2.375   1.621   3.123 -0.7552  0.3838 -0.5395
 9563SOL    HW139368   2.439   1.629   3.047  0.4582 -0.3890  0.3821
 9563SOL    HW239369   2.400   1.687   3.194  0.6528 -1.6818  0.9574
 9564SOL     OW39370   2.989   3.324   3.485  0.2482  0.1629 -0.4507
 9564SOL    HW139371   2.986   3.412   3.532  0.0673 -0.4607  0.7174
 9564SOL    HW239372   2.929   3.326   3.405 -2.1562  0.0930  1.3111
 9565SOL     OW39373   6.054   9.347   2.254  0.2259  0.2504 -0.1658
 9565SOL    HW139374   6.132   9.307   2.205  0.4964  0.7323 -0.1295
 9565SOL    HW239375   5.977   9.282   2.253  0.6376 -0.2394 -0.1657
 9566SOL     OW39376   2.357   1.425   3.330 -0.3656 -0.2471 -0.1881
 9566SOL    HW139377   2.306   1.473   3.402 -1.0414 -0.7548 -0.3248
 9566SOL    HW239378   2.351   1.477   3.245 -0.7785 -0.3747 -0.2392
 9567SOL     OW39379   0.186   8.168   2.845  0.1955 -0.2411 -0.2036
 9567SOL    HW139380   0.102   8.140   2.891  0.3980  1.9229  1.5307
 9567SOL    HW239381   0.258   8.100   2.863 -0.2436 -0.3575  1.1273
 9568SOL     OW39382   7.205   8.300   2.397  0.0841 -0.7108 -0.3339
 9568SOL    HW139383   7.108   8.285   2.377 -0.0509  0.0778 -0.2766
 9568SOL    HW239384   7.233   8.240   2.472 -0.8497  0.4413  0.9654
 9569SOL     OW39385   3.335   6.635   3.903  0.3450 -0.8875  0.5492
 9569SOL    HW139386   3.319   6.733   3.910 -2.1916 -1.3534  1.5961
 9569SOL    HW239387   3.336   6.608   3.807 -0.0243 -0.0284  0.3029
 9570SOL     OW39388   3.505   6.709   2.382  0.0363  0.0374 -0.4782
 9570SOL    HW139389   3.591   6.669   2.414 -1.0232 -1.0765  1.0221
 9570SOL    HW239390   3.431   6.642   2.390 -0.9860  0.9790 -1.7628
 9571SOL     OW39391   1.931   2.430   0.779 -0.3682 -0.5193  0.4390
 9571SOL    HW139392   1.981   2.513   0.755 -0.4741 -0.3095  0.9206
 9571SOL    HW239393   1.949   2.359   0.711 -0.8204  0.1137 -0.3414
 9572SOL     OW39394   2.586   8.180   1.060 -0.4758  0.0817 -0.1308
 9572SOL    HW139395   2.553   8.109   1.123 -0.2299  0.2520  0.1891
 9572SOL    HW239396   2.644   8.244   1.109 -1.1481  0.8248 -0.3061
 9573SOL     OW39397   6.076   0.343   1.633  0.3773 -0.2861 -0.6370
 9573SOL    HW139398   6.050   0.425   1.684  0.0617 -0.0748 -1.1374
 9573SOL    HW239399   6.011   0.270   1.651 -0.2251  0.0536 -1.4073
 9574SOL     OW39400   7.248   8.133   2.613 -0.2067  0.1254  0.1958
 9574SOL    HW139401   7.149   8.142   2.613 -0.1942  0.2604  0.3326
 9574SOL    HW239402   7.283   8.147   2.706  0.2034  3.0565 -0.3199
 9575SOL     OW39403   6.245   9.534   3.878  0.2105 -0.2982 -0.1237
 9575SOL    HW139404   6.177   9.497   3.815  1.2512 -0.6661 -1.0503
 9575SOL    HW239405   6.200   9.588   3.949 -1.0283 -0.4444 -0.7973
 9576SOL     OW39406   9.846   6.150   3.056  0.3235  0.1696  0.0918
 9576SOL    HW139407   9.834   6.245   3.028 -0.5994  0.0426  0.0511
 9576SOL    HW239408   9.881   6.097   2.979 -0.0227  0.2911 -0.1509
 9577SOL     OW39409   3.780   8.841   4.005 -0.3127  0.0536 -0.0665
 9577SOL    HW139410   3.812   8.934   4.023 -0.4572  0.5743 -2.4644
 9577SOL    HW239411   3.842   8.796   3.941 -0.7398 -1.2159  0.3940
 9578SOL     OW39412   2.006   2.460   2.149 -0.5940  0.7082  0.2735
 9578SOL    HW139413   2.100   2.487   2.168 -0.4483  0.7555 -0.4850
 9578SOL    HW239414   2.004   2.365   2.117 -0.6401  1.1544 -1.0822
 9579SOL     OW39415   2.947   2.367   2.354 -0.4015 -0.8031  0.2425
 9579SOL    HW139416   2.923   2.353   2.258 -2.2297  1.4434  0.3051
 9579SOL    HW239417   3.031   2.421   2.360 -1.7727  1.4897 -0.2071
 9580SOL     OW39418   1.683   1.089   3.891  0.2400 -0.4891  0.7887
 9580SOL    HW139419   1.682   1.136   3.980  0.3697 -0.5304  0.8117
 9580SOL    HW239420   1.658   1.154   3.819  3.8372  0.5212  0.3794
 9581SOL     OW39421   8.494   3.200   0.056 -0.2099 -0.0911 -0.0424
 9581SOL    HW139422   8.398   3.175   0.062 -0.4259  0.5157 -0.8820
 9581SOL    HW239423   8.502   3.296   0.028  0.6154  0.4533  1.9727
 9582SOL     OW39424   3.797   7.724   2.577  0.3711  0.1812 -0.0525
 9582SOL    HW139425   3.837   7.646   2.530 -0.1338  0.9533 -1.8386
 9582SOL    HW239426   3.701   7.704   2.599  0.2204  0.3079 -0.5771
 9583SOL     OW39427   3.372   5.762   0.576  0.5540  0.1584  0.7020
 9583SOL    HW139428   3.351   5.814   0.659 -2.0513 -0.7758  0.6806
 9583SOL    HW239429   3.420   5.678   0.601  1.3031  0.7012  1.0992
 9584SOL     OW39430   4.850   0.321   3.901 -0.2475  0.7734  0.0701
 9584SOL    HW139431   4.839   0.389   3.974  0.1559  0.5339  0.3584
 9584SOL    HW239432   4.796   0.348   3.821 -1.0910  0.7738  0.6393
 9585SOL     OW39433   6.148   9.539   1.595 -0.5524  0.1138  0.3145
 9585SOL    HW139434   6.222   9.596   1.630  0.2333 -0.3180 -0.6038
 9585SOL    HW239435   6.153   9.448   1.637  0.6812 -0.5574 -1.2228
 9586SOL     OW39436   0.287   3.588   0.311 -0.1067  0.0418  0.2247
 9586SOL    HW139437   0.378   3.610   0.347 -0.0478  1.2895 -0.6422
 9586SOL    HW239438   0.236   3.673   0.296 -1.7155 -0.6860  1.4623
 9587SOL     OW39439   2.992   1.775   2.399 -0.2409  0.5194  0.5904
 9587SOL    HW139440   3.019   1.759   2.494  0.2764  0.5267  0.4454
 9587SOL    HW239441   2.992   1.873   2.380 -0.4751  0.5258  0.6204
 9588SOL     OW39442   2.144   8.811   1.629  0.4866  0.2110  0.4840
 9588SOL    HW139443   2.182   8.731   1.676 -2.3639 -1.7183 -0.3697
 9588SOL    HW239444   2.053   8.789   1.593 -0.0542  3.6271 -0.4351
 9589SOL     OW39445   8.907   2.265   4.177  0.2495 -0.2220  0.2497
 9589SOL    HW139446   8.937   2.300   4.265  1.4040  0.9179 -0.5777
 9589SOL    HW239447   8.971   2.295   4.106  0.1985 -2.4016 -0.7567
 9590SOL     OW39448   8.949   0.011   2.837 -0.0619  0.2265  0.2966
 9590SOL    HW139449   9.000   0.020   2.751 -1.6104  0.2180 -0.6482
 9590SOL    HW239450   8.991  -0.059   2.894  1.1423  0.4257 -0.3398
 9591SOL     OW39451   8.417   6.014   4.201 -0.9170 -0.1878  0.2915
 9591SOL    HW139452   8.496   6.006   4.140 -0.3010  1.7534  0.8206
 9591SOL    HW239453   8.430   6.090   4.264 -2.2274 -1.2256  1.8655
 9592SOL     OW39454   3.669   4.888   2.384  0.3049 -0.6310  0.1452
 9592SOL    HW139455   3.602   4.955   2.417  1.8279  0.5551  0.9250
 9592SOL    HW239456   3.670   4.809   2.446 -0.7203 -0.9042 -0.1669
 9593SOL     OW39457   7.356   8.972   0.378 -0.0041  0.5683 -0.5082
 9593SOL    HW139458   7.408   9.047   0.337 -1.1501  0.7324 -1.6915
 9593SOL    HW239459   7.288   9.009   0.441  0.6637  0.4074  0.3188
 9594SOL     OW39460   0.123   6.462   2.539  0.0528 -0.1652 -0.0052
 9594SOL    HW139461   0.197   6.523   2.514  1.1529 -1.2070  0.6488
 9594SOL    HW239462   0.077   6.497   2.620 -0.0825  0.4048 -0.3243
 9595SOL     OW39463   1.127   2.204   2.146 -0.3881  0.3749  0.4712
 9595SOL    HW139464   1.178   2.283   2.179  1.1260 -0.8686  1.1250
 9595SOL    HW239465   1.041   2.197   2.197 -0.5934  1.6665  0.3223
 9596SOL     OW39466   2.503   0.211   2.188  0.1511 -0.7882 -0.1867
 9596SOL    HW139467   2.407   0.182   2.188  0.9382 -3.5326  0.6696
 9596SOL    HW239468   2.521   0.264   2.271 -0.3531 -1.2696  0.2370
 9597SOL     OW39469   9.086   9.778   2.106 -0.1013  0.1124 -0.0398
 9597SOL    HW139470   9.044   9.869   2.107  0.4247  0.4303 -2.4098
 9597SOL    HW239471   9.015   9.708   2.106 -0.5321  0.5414  0.6142
 9598SOL     OW39472   3.141   3.338   3.849  0.1639 -0.1745  0.3190
 9598SOL    HW139473   3.222   3.285   3.821  0.5435  0.3452  0.4407
 9598SOL    HW239474   3.072   3.275   3.886 -0.2141 -0.8503 -1.4455
 9599SOL     OW39475   2.321   0.003   3.938  0.2938 -0.2714 -0.2796
 9599SOL    HW139476   2.414  -0.033   3.930  0.1047 -0.8654  0.1611
 9599SOL    HW239477   2.318   0.097   3.902  1.0581 -0.2494 -0.2900
 9600SOL     OW39478   8.966   2.786   2.609 -0.1505 -0.0398 -0.3579
 9600SOL    HW139479   8.940   2.696   2.646 -0.0973 -0.2900 -0.9308
 9600SOL    HW239480   8.893   2.852   2.629  0.0261 -0.0896  0.4979
 9601SOL     OW39481   2.179   2.024   1.607 -0.5684  0.0089  0.4376
 9601SOL    HW139482   2.189   1.965   1.687 -0.8239 -0.1191  0.3758
 9601SOL    HW239483   2.222   1.979   1.528 -0.0056  0.2930  0.5772
 9602SOL     OW39484   0.453   3.330   3.873  0.5154  0.5706  0.0934
 9602SOL    HW139485   0.446   3.234   3.901  1.2125  0.0834 -1.3909
 9602SOL    HW239486   0.527   3.374   3.923  0.9382  0.0328 -0.0569
 9603SOL     OW39487   4.093   0.067   2.394  0.1223  0.8232 -0.3750
 9603SOL    HW139488   4.166   0.110   2.447  1.9511  0.0899 -2.2202
 9603SOL    HW239489   4.068   0.127   2.317 -1.6402  1.3191  0.5442
 9604SOL     OW39490   2.142   2.242   0.574  0.3066  0.0919  0.2847
 9604SOL    HW139491   2.060   2.197   0.610  0.1629 -0.2153 -0.4126
 9604SOL    HW239492   2.189   2.180   0.511  1.1611  0.2082  0.7954
 9605SOL     OW39493   9.274   2.318   2.452  0.2208 -0.2055 -0.2759
 9605SOL    HW139494   9.197   2.366   2.494  0.3665  0.3372 -0.6244
 9605SOL    HW239495   9.314   2.255   2.518 -1.0629 -1.1430 -0.3564
 9606SOL     OW39496   8.683   2.432   3.229  0.4598 -0.2835 -0.3837
 9606SOL    HW139497   8.671   2.333   3.224  0.2197 -0.2683 -0.0891
 9606SOL    HW239498   8.648   2.466   3.316  1.3830 -0.0529 -0.1030
 9607SOL     OW39499   8.753   7.955   0.035  0.3574  0.1960  0.4904
 9607SOL    HW139500   8.759   7.955  -0.065  1.6645 -1.4246  0.5449
 9607SOL    HW239501   8.844   7.961   0.075 -0.0419 -0.6606  1.5710
 9608SOL     OW39502   2.872   2.349   3.632 -0.5209 -0.2216 -0.1187
 9608SOL    HW139503   2.840   2.444   3.628  0.3764  0.0519 -1.0007
 9608SOL    HW239504   2.804   2.294   3.680 -2.1392  0.4234 -1.5856
 9609SOL     OW39505   1.778   5.344   3.474 -0.2972 -0.4746 -0.0812
 9609SOL    HW139506   1.862   5.357   3.527  0.4308  0.7391 -1.4901
 9609SOL    HW239507   1.794   5.274   3.404  0.4253  1.6503 -2.1044
 9610SOL     OW39508   3.307   2.721   3.800 -0.2548 -0.3326  0.0244
 9610SOL    HW139509   3.251   2.660   3.855 -0.2554 -1.5878 -1.3540
 9610SOL    HW239510   3.401   2.720   3.835 -0.8755  1.2146  1.8715
 9611SOL     OW39511   1.725   5.556   3.872 -0.2823 -0.1644 -0.2714
 9611SOL    HW139512   1.679   5.644   3.889 -1.6370 -0.9260  0.1007
 9611SOL    HW239513   1.658   5.489   3.840  0.6462 -1.2005 -0.0885
 9612SOL     OW39514   2.142   7.745   0.482 -0.4503 -0.4814 -0.2993
 9612SOL    HW139515   2.126   7.807   0.405 -0.1412  0.3779  0.3221
 9612SOL    HW239516   2.203   7.671   0.453 -1.8503 -1.2198 -1.3952
 9613SOL     OW39517   3.038   6.539   2.906 -0.1932 -0.8647 -0.2405
 9613SOL    HW139518   3.065   6.547   3.002  0.9323  0.1713 -0.6305
 9613SOL    HW239519   3.000   6.626   2.875 -1.8938 -1.6268 -0.3469
 9614SOL     OW39520   1.001   8.823   3.894 -0.1476  0.1532 -0.3280
 9614SOL    HW139521   0.990   8.919   3.919 -0.4850  0.1384 -0.4216
 9614SOL    HW239522   1.003   8.767   3.977 -0.9848  0.1317 -0.3249
 9615SOL     OW39523   3.078   7.746   2.718  0.1326 -0.2199  0.0119
 9615SOL    HW139524   3.071   7.795   2.631  0.1497 -0.7391 -0.2851
 9615SOL    HW239525   3.122   7.658   2.703 -0.1616 -0.4519  0.4949
 9616SOL     OW39526   0.572   7.241   0.378  0.0762  1.1076 -0.5967
 9616SOL    HW139527   0.566   7.154   0.429 -1.4934  1.2192 -0.5596
 9616SOL    HW239528   0.504   7.305   0.414  2.3069  2.9538  0.4648
 9617SOL     OW39529   8.797   0.266   2.650  0.1810 -0.0613  0.1815
 9617SOL    HW139530   8.788   0.328   2.727  0.5008  1.9182 -1.3230
 9617SOL    HW239531   8.885   0.218   2.655  0.8366  1.1382  0.2928
 9618SOL     OW39532   8.452   8.746   1.054 -0.0380  0.1583  0.5366
 9618SOL    HW139533   8.430   8.719   1.148  0.8341  0.8162  0.9347
 9618SOL    HW239534   8.486   8.666   1.004 -0.1022 -0.0991  0.8981
 9619SOL     OW39535   0.782   2.149   4.112 -0.1771 -0.2033 -0.3303
 9619SOL    HW139536   0.877   2.125   4.131 -0.1168  0.5664  0.4383
 9619SOL    HW239537   0.740   2.183   4.196 -1.4527 -1.5499 -0.4101
 9620SOL     OW39538   4.506   4.013   4.239  0.2915  0.0211  0.1884
 9620SOL    HW139539   4.427   4.070   4.218  0.1446 -0.9630 -2.0259
 9620SOL    HW239540   4.553   4.050   4.319 -1.2409  1.7879  0.2983
 9621SOL     OW39541   0.337   9.693   3.844  0.0659  0.7029  0.5830
 9621SOL    HW139542   0.385   9.634   3.910  1.3525  0.6857 -0.3545
 9621SOL    HW239543   0.244   9.658   3.830  1.3775 -2.2311 -1.3248
 9622SOL     OW39544   4.517   0.109   3.272  0.0351  0.3972  0.6477
 9622SOL    HW139545   4.504   0.015   3.305 -1.0175 -0.0951 -1.1101
 9622SOL    HW239546   4.462   0.172   3.327 -2.1095 -0.4719 -0.4477
 9623SOL     OW39547   3.963   8.715   3.822 -0.0987 -0.1797  0.3567
 9623SOL    HW139548   4.053   8.745   3.856 -0.2350  0.8068 -0.1312
 9623SOL    HW239549   3.974   8.635   3.764  0.4439 -0.1999  0.4852
 9624SOL     OW39550   1.611   9.689   3.852  0.8115  0.0680 -0.1347
 9624SOL    HW139551   1.665   9.759   3.804 -0.4453 -0.7395 -2.8671
 9624SOL    HW239552   1.540   9.733   3.906  0.0698  0.9332 -1.7813
 9625SOL     OW39553   3.059   3.564   1.510  0.8715 -0.0490 -0.5798
 9625SOL    HW139554   2.960   3.559   1.525  1.0180 -1.7740 -0.1096
 9625SOL    HW239555   3.107   3.555   1.597  1.4349  1.9942 -0.6512
 9626SOL     OW39556   0.472   8.114   2.435  0.0246  0.1109 -0.1989
 9626SOL    HW139557   0.469   8.091   2.338 -1.3749 -0.4358 -0.0328
 9626SOL    HW239558   0.413   8.193   2.452  0.9851  0.7919  0.0657
 9627SOL     OW39559   8.927   3.901   3.372 -0.4000  0.9277  0.4973
 9627SOL    HW139560   8.841   3.901   3.321 -2.0450 -0.5401  3.1763
 9627SOL    HW239561   8.960   3.808   3.382  0.4798  1.2989  1.1319
 9628SOL     OW39562   5.062   2.142   2.941  0.0254 -0.5364  0.3535
 9628SOL    HW139563   5.052   2.230   2.893 -1.2400 -1.2319 -0.6800
 9628SOL    HW239564   5.157   2.130   2.968  0.3561  0.8215 -0.1618
 9629SOL     OW39565   7.409   0.733   2.384  0.3304  0.8121 -0.3106
 9629SOL    HW139566   7.373   0.694   2.468 -0.6019 -0.0632 -1.1039
 9629SOL    HW239567   7.506   0.756   2.396  0.9893 -2.0506  0.0705
 9630SOL     OW39568   9.824   1.744   0.661  0.0358 -0.0725  0.6366
 9630SOL    HW139569   9.890   1.816   0.641 -0.0258  0.0474  0.8621
 9630SOL    HW239570   9.831   1.673   0.591  0.1303  0.1281  0.4387
 9631SOL     OW39571   4.505   7.341   1.522 -0.0880 -0.1503 -0.9136
 9631SOL    HW139572   4.557   7.414   1.478  1.6719  0.0102  1.3287
 9631SOL    HW239573   4.533   7.252   1.486  1.6784 -0.0555  0.2052
 9632SOL     OW39574   9.946   9.656   2.898  0.4093 -0.6832  0.0308
 9632SOL    HW139575   9.985   9.568   2.924  1.8553 -0.0789 -0.0644
 9632SOL    HW239576   9.951   9.667   2.799 -0.3072 -0.7291 -0.0181
 9633SOL     OW39577   2.177   1.005   3.164  0.3009 -0.1271  0.3208
 9633SOL    HW139578   2.248   1.034   3.100 -0.3936 -1.9769 -1.3396
 9633SOL    HW239579   2.218   0.983   3.252  1.3452  1.8848  0.3763
 9634SOL     OW39580   8.676   3.273   2.033  0.4078 -0.4458  0.2550
 9634SOL    HW139581   8.726   3.255   2.118 -0.0592  1.8623  1.0550
 9634SOL    HW239582   8.725   3.342   1.979 -1.9357  1.9988  1.1443
 9635SOL     OW39583   1.319   8.411   1.349 -0.4269 -0.5752  0.1589
 9635SOL    HW139584   1.382   8.355   1.295  0.5226 -0.2460  0.9050
 9635SOL    HW239585   1.232   8.418   1.302  0.2130 -0.7465 -1.0722
 9636SOL     OW39586   3.684   8.394   3.131 -0.1743  0.0824  0.1616
 9636SOL    HW139587   3.649   8.483   3.100  0.8929  1.3836  2.5303
 9636SOL    HW239588   3.713   8.402   3.227  2.6990 -2.0388 -0.4833
 9637SOL     OW39589   2.989   2.511   0.725  0.0037  0.5555 -0.1670
 9637SOL    HW139590   3.002   2.563   0.809 -1.0958  0.3873  0.1183
 9637SOL    HW239591   3.078   2.485   0.688  0.4991 -1.6184  2.3730
 9638SOL     OW39592   4.371   3.495   4.035  0.4811 -0.2230 -0.0057
 9638SOL    HW139593   4.384   3.571   3.972  1.3752 -0.0053  0.4358
 9638SOL    HW239594   4.425   3.510   4.118  0.0415 -0.9530  0.4226
 9639SOL     OW39595   6.273   9.461   2.012  0.1265 -0.1435  0.1679
 9639SOL    HW139596   6.304   9.547   1.972  0.1902 -1.5997 -2.9729
 9639SOL    HW239597   6.173   9.456   2.006  0.1203 -0.2980  0.3777
 9640SOL     OW39598   0.186   4.899   4.326 -0.2338 -0.1385  0.0823
 9640SOL    HW139599   0.090   4.926   4.340  0.5701  2.4082  0.9877
 9640SOL    HW239600   0.243   4.944   4.395  1.6929 -1.2185 -0.7743
 9641SOL     OW39601   0.271   6.466   0.800 -0.1516 -0.0648  0.1423
 9641SOL    HW139602   0.360   6.504   0.823 -0.2353 -1.3512  2.7355
 9641SOL    HW239603   0.281   6.369   0.776 -0.7003  0.1129 -0.8562
 9642SOL     OW39604   6.091   9.448   3.681 -0.6268  0.2698  0.2215
 9642SOL    HW139605   6.115   9.351   3.689 -0.3628  0.3058 -0.0800
 9642SOL    HW239606   5.993   9.460   3.696 -0.7210 -0.0889 -0.0937
 9643SOL     OW39607   0.821   7.100   1.002  0.0544  0.2710 -0.5422
 9643SOL    HW139608   0.794   7.006   0.977  0.4888 -0.4876  1.7266
 9643SOL    HW239609   0.915   7.100   1.036 -0.3138  1.3398  0.5124
 9644SOL     OW39610   1.644   5.139   2.937 -1.0375  0.6200 -0.3038
 9644SOL    HW139611   1.741   5.157   2.957 -0.5586 -0.1104 -1.8933
 9644SOL    HW239612   1.587   5.188   3.002  0.3694  3.0858 -0.8730
 9645SOL     OW39613   3.965   3.061   3.733  0.4195  1.0275 -0.1549
 9645SOL    HW139614   3.905   3.069   3.654 -0.0457 -0.0178  0.0961
 9645SOL    HW239615   4.013   3.148   3.746  1.5414  0.7687 -2.3995
 9646SOL     OW39616   6.078   9.928   2.183  0.3763  0.1348 -0.2711
 9646SOL    HW139617   6.106   9.927   2.088 -1.5558  1.5809 -0.8788
 9646SOL    HW239618   5.992   9.978   2.193 -0.4924 -1.6656  1.9344
 9647SOL     OW39619   1.097   8.856   0.545 -0.1394  0.3302  0.1647
 9647SOL    HW139620   1.061   8.942   0.510  0.7087 -0.0032 -1.5940
 9647SOL    HW239621   1.161   8.817   0.478  0.9835 -0.6844  1.8005
 9648SOL     OW39622   9.327   1.033   0.169 -0.1958  0.1023 -0.1885
 9648SOL    HW139623   9.265   1.058   0.095 -0.2070  2.3864  0.5548
 9648SOL    HW239624   9.274   0.995   0.246 -0.4517  0.1687 -0.3313
 9649SOL     OW39625   0.905   8.314   0.922 -0.5154  0.0769 -0.5631
 9649SOL    HW139626   0.827   8.334   0.982 -0.3859 -1.9854  0.3197
 9649SOL    HW239627   0.876   8.249   0.852  0.9509 -2.4664  1.1255
 9650SOL     OW39628   3.043   7.637   3.740 -0.1092 -0.4604  0.2533
 9650SOL    HW139629   3.024   7.688   3.824 -0.9820  1.0382 -0.8355
 9650SOL    HW239630   3.026   7.539   3.756 -3.3154  0.1582  0.9460
 9651SOL     OW39631   8.740   5.307   3.161  0.4034  0.1574 -0.1194
 9651SOL    HW139632   8.791   5.338   3.241 -0.0450  1.0509 -0.1796
 9651SOL    HW239633   8.742   5.207   3.158 -0.8036  0.0439  1.8150
 9652SOL     OW39634   2.514   9.090   3.617 -0.8582  0.0699 -0.1027
 9652SOL    HW139635   2.523   9.161   3.687  2.5694 -1.3746  1.0856
 9652SOL    HW239636   2.440   9.028   3.641 -0.2231  0.0507  1.8663
 9653SOL     OW39637   8.763   2.720   3.677  0.2936  0.0957  0.7007
 9653SOL    HW139638   8.707   2.803   3.685 -1.2996 -0.9920  0.9469
 9653SOL    HW239639   8.711   2.649   3.631  2.1478 -0.3444 -0.7835
 9654SOL     OW39640   9.386   3.741   1.604 -0.5235  0.2904  0.1301
 9654SOL    HW139641   9.472   3.759   1.650  0.4888  0.4499 -1.7670
 9654SOL    HW239642   9.350   3.652   1.631  0.4521  0.0503  0.6091
 9655SOL     OW39643   2.058   2.388   1.807  0.2372 -0.5839 -0.4048
 9655SOL    HW139644   2.095   2.334   1.732 -0.1625 -2.4124  0.6690
 9655SOL    HW239645   2.075   2.485   1.791  2.0908 -1.1137 -1.7671
 9656SOL     OW39646   0.167   5.231   4.193  0.1156 -0.1083  0.3793
 9656SOL    HW139647   0.105   5.265   4.264  0.8026 -0.9172  1.3907
 9656SOL    HW239648   0.131   5.145   4.156  0.7542 -0.7307  1.1717
 9657SOL     OW39649   9.501   6.990   3.807 -0.0622 -0.2534 -0.5692
 9657SOL    HW139650   9.436   6.948   3.870 -0.4228  0.8448 -0.1921
 9657SOL    HW239651   9.456   7.066   3.759  1.4432  1.7453  1.0605
 9658SOL     OW39652   1.902   7.996   0.236 -0.2093  0.0652 -0.0349
 9658SOL    HW139653   1.954   8.032   0.159 -1.0535  1.4663  0.0288
 9658SOL    HW239654   1.867   7.905   0.214  0.8283 -0.1752 -0.7154
 9659SOL     OW39655   3.356   0.484   4.285 -0.0446 -0.0748 -0.0685
 9659SOL    HW139656   3.293   0.472   4.209  0.4429  1.9686 -0.8361
 9659SOL    HW239657   3.326   0.429   4.363 -0.8389 -1.7698 -1.5393
 9660SOL     OW39658   0.253   1.399   2.121  0.0157  0.0388  0.3462
 9660SOL    HW139659   0.227   1.303   2.108  0.8941 -0.0568 -0.8313
 9660SOL    HW239660   0.204   1.437   2.199 -0.8376 -1.1819  0.4147
 9661SOL     OW39661   8.401   7.669   2.501  0.8342 -0.2901 -0.2013
 9661SOL    HW139662   8.327   7.666   2.434  2.1001 -0.8924 -1.6085
 9661SOL    HW239663   8.489   7.664   2.454  1.7808  0.3538  1.4491
 9662SOL     OW39664   9.826   1.443   2.268 -0.0861 -0.3288  0.2082
 9662SOL    HW139665   9.875   1.431   2.182  0.6802  1.0700  0.4438
 9662SOL    HW239666   9.741   1.493   2.252 -0.4091 -0.8976  0.1287
 9663SOL     OW39667   8.520   3.478   1.870  0.0749  0.4075 -0.0203
 9663SOL    HW139668   8.494   3.470   1.967  0.9845 -0.9771  0.1167
 9663SOL    HW239669   8.619   3.477   1.861  0.0656  2.6480 -0.8180
 9664SOL     OW39670   3.954   7.299   0.042 -0.6800  0.3776  0.0614
 9664SOL    HW139671   3.891   7.280  -0.034  0.4751  0.7004 -0.9935
 9664SOL    HW239672   4.037   7.342   0.007  1.0176 -1.8966  1.1795
 9665SOL     OW39673   1.257   4.605   3.628  0.1631 -0.0672  0.2920
 9665SOL    HW139674   1.261   4.698   3.592  2.2646  0.3732  1.5887
 9665SOL    HW239675   1.277   4.540   3.555 -0.1574  0.5673 -0.3626
 9666SOL     OW39676   4.956   7.962   3.222 -0.3134 -0.6453  0.9810
 9666SOL    HW139677   5.031   7.957   3.287  0.7898 -0.9256 -0.2857
 9666SOL    HW239678   4.982   7.916   3.137 -1.3169  0.5988 -0.0395
 9667SOL     OW39679   7.718   9.053   2.106  0.6830 -0.1982 -0.0347
 9667SOL    HW139680   7.650   9.028   2.175  0.3959  2.2247  0.6172
 9667SOL    HW239681   7.670   9.081   2.022  0.9525 -0.4315 -0.2681
 9668SOL     OW39682   2.960   6.965   3.673 -0.5205  0.5054 -0.1527
 9668SOL    HW139683   3.022   7.043   3.673 -0.9632  0.8540 -0.7861
 9668SOL    HW239684   2.870   6.993   3.705 -0.5810  0.1779 -0.0354
 9669SOL     OW39685   0.952   9.748   0.032  0.3951  0.0936 -0.4120
 9669SOL    HW139686   0.874   9.773  -0.026  0.6963  2.5709  0.2113
 9669SOL    HW239687   1.037   9.764  -0.018  0.6675  2.5898  0.8038
 9670SOL     OW39688   5.430   9.727   1.305 -0.3807  0.1423 -0.0871
 9670SOL    HW139689   5.415   9.786   1.226  0.0695 -0.8862 -0.9655
 9670SOL    HW239690   5.365   9.651   1.301 -0.7758  0.4273  0.8806
 9671SOL     OW39691   9.862   7.318   0.737  0.2390 -0.3375 -0.0992
 9671SOL    HW139692   9.959   7.322   0.763 -0.1408  0.7200  1.2165
 9671SOL    HW239693   9.852   7.345   0.641  1.2125  0.0214 -0.1062
 9672SOL     OW39694   3.124   5.165   2.573  0.5391  0.2628  0.2272
 9672SOL    HW139695   3.172   5.250   2.550  2.1974 -0.7470 -0.1688
 9672SOL    HW239696   3.109   5.160   2.672 -0.2754  1.3829  0.1552
 9673SOL     OW39697   7.284   9.856   2.643  0.2148 -0.0217 -0.5312
 9673SOL    HW139698   7.190   9.864   2.678  0.3873  1.9476 -0.4817
 9673SOL    HW239699   7.283   9.813   2.553 -0.8452  1.1540 -1.0809
 9674SOL     OW39700   9.022   4.084   2.362  0.1626 -0.1312  0.7004
 9674SOL    HW139701   8.995   4.146   2.289  0.8842 -1.5682 -0.8172
 9674SOL    HW239702   8.971   3.998   2.354  2.0636 -1.2560  0.3457
 9675SOL     OW39703   4.013   4.425   0.824  0.2102 -0.2366  0.3800
 9675SOL    HW139704   4.008   4.325   0.835 -0.4258 -0.0852  1.5918
 9675SOL    HW239705   4.103   4.457   0.852  0.7798 -0.5781 -1.0084
 9676SOL     OW39706   3.323   6.009   2.925  0.3086  0.2543  0.7336
 9676SOL    HW139707   3.261   6.071   2.974 -0.4815 -0.9320  1.2707
 9676SOL    HW239708   3.278   5.920   2.914  1.6699 -0.4180  0.5557
 9677SOL     OW39709   1.832   8.812   4.019  0.2499 -0.0831 -0.7060
 9677SOL    HW139710   1.807   8.819   4.116  0.1593  2.0589 -0.8632
 9677SOL    HW239711   1.828   8.716   3.991  1.3319 -0.8722  1.6861
 9678SOL     OW39712   0.770   9.420   3.957  0.2308  0.0468  0.9532
 9678SOL    HW139713   0.856   9.405   3.908  0.5488  0.5226  1.3579
 9678SOL    HW239714   0.693   9.415   3.893  0.7208  1.7563  0.2092
 9679SOL     OW39715   0.163   4.573   1.917 -0.1290 -0.4633  0.1310
 9679SOL    HW139716   0.120   4.537   1.834  3.4938  0.8866 -2.4876
 9679SOL    HW239717   0.127   4.665   1.935  0.6088  0.1332 -1.2800
 9680SOL     OW39718   6.193   0.725   3.295 -0.6357 -0.1464  0.0175
 9680SOL    HW139719   6.242   0.812   3.298  0.9024 -0.9089 -1.8470
 9680SOL    HW239720   6.211   0.680   3.207  0.2566 -3.2937  1.7301
 9681SOL     OW39721   6.230   0.056   0.828 -0.2793 -0.1092 -0.3936
 9681SOL    HW139722   6.273   0.146   0.821  0.3207 -0.3720 -0.1887
 9681SOL    HW239723   6.146   0.063   0.881 -0.0652  0.2741 -0.0982
 9682SOL     OW39724   8.766   8.274   0.429  0.3913  0.0632  0.5381
 9682SOL    HW139725   8.712   8.276   0.513  0.1426 -1.5939  0.4285
 9682SOL    HW239726   8.842   8.209   0.439  0.1305 -0.4404 -0.6428
 9683SOL     OW39727   7.612   5.777   3.329  0.3232  0.1565 -0.0943
 9683SOL    HW139728   7.686   5.794   3.264  0.2543  0.5740 -0.0698
 9683SOL    HW239729   7.644   5.795   3.422 -0.0222  1.0759 -0.1478
 9684SOL     OW39730   8.414   6.340   2.313  0.1984 -0.2013  0.1386
 9684SOL    HW139731   8.360   6.424   2.306  2.7437  1.4197 -0.8778
 9684SOL    HW239732   8.378   6.271   2.250 -1.6541  0.2603  0.6694
 9685SOL     OW39733   3.995   4.665   1.291 -0.2416  0.1378  0.2579
 9685SOL    HW139734   3.981   4.757   1.327  0.3935  0.0203  0.8204
 9685SOL    HW239735   4.058   4.615   1.351  0.1286 -0.3655 -0.5406
 9686SOL     OW39736   0.652   8.204   4.691  0.2022 -0.0435  0.5559
 9686SOL    HW139737   0.745   8.175   4.668  0.5623  1.2424  0.3668
 9686SOL    HW239738   0.598   8.124   4.717  1.7020 -0.6527  1.8585
 9687SOL     OW39739   3.397   7.588   0.505 -0.1748 -0.5963  0.5480
 9687SOL    HW139740   3.409   7.490   0.520 -1.4601 -0.6806  1.0590
 9687SOL    HW239741   3.307   7.616   0.537  0.0681  0.7010  0.1260
 9688SOL     OW39742   1.741   3.599   3.998 -0.1376  0.1637  0.2527
 9688SOL    HW139743   1.800   3.520   4.019 -1.7092 -0.4749  2.5562
 9688SOL    HW239744   1.647   3.568   3.989 -0.8314  1.8293  1.5452
 9689SOL     OW39745   1.881   8.621   3.212 -0.2872  0.6908 -0.4641
 9689SOL    HW139746   1.954   8.619   3.280 -0.4938 -0.4400 -0.2600
 9689SOL    HW239747   1.898   8.551   3.142 -1.6143 -0.1977  0.0702
 9690SOL     OW39748   1.117   1.542   2.579  0.3491 -0.0437 -0.1376
 9690SOL    HW139749   1.083   1.631   2.549 -0.3579 -0.1816  0.2367
 9690SOL    HW239750   1.055   1.470   2.546  0.7800 -0.3773 -0.2281
 9691SOL     OW39751   0.909   0.023   3.482  0.1654  0.0869  0.3637
 9691SOL    HW139752   0.878   0.111   3.519  0.0563  0.2999 -0.2227
 9691SOL    HW239753   0.865  -0.052   3.530 -2.5630  0.3973 -1.5598
 9692SOL     OW39754   4.061   9.091   2.778  0.1832 -0.1193  0.2116
 9692SOL    HW139755   3.992   9.020   2.760 -0.3480  0.5540 -0.4249
 9692SOL    HW239756   4.066   9.153   2.699  0.8286  0.4021  0.6623
 9693SOL     OW39757   0.636   4.218   4.169 -0.0109 -0.1097  0.0001
 9693SOL    HW139758   0.726   4.176   4.150 -0.6237 -0.6993 -1.6597
 9693SOL    HW239759   0.573   4.147   4.201 -0.3834 -0.0243 -0.5404
 9694SOL     OW39760   0.780   0.818   1.241 -0.4685  0.2103 -0.0591
 9694SOL    HW139761   0.828   0.822   1.329  2.0964  0.0887 -1.3982
 9694SOL    HW239762   0.796   0.728   1.199  0.4839  1.1658 -1.7972
 9695SOL     OW39763   3.155   6.132   0.395 -0.7087 -0.1931 -0.1722
 9695SOL    HW139764   3.135   6.177   0.308 -0.1466  2.1308  0.8702
 9695SOL    HW239765   3.176   6.035   0.379 -2.2491 -0.1895 -2.4199
 9696SOL     OW39766   9.633   3.285   4.341 -0.7440 -0.0844  0.3979
 9696SOL    HW139767   9.621   3.226   4.261 -0.7084  0.4418  0.0020
 9696SOL    HW239768   9.728   3.313   4.347 -0.9803  0.8328 -0.0533
 9697SOL     OW39769   1.241   1.431   4.515 -0.4372 -0.8111  0.1686
 9697SOL    HW139770   1.311   1.503   4.512 -0.4072 -0.7322  1.9490
 9697SOL    HW239771   1.155   1.466   4.477 -0.2467 -0.0286  0.4367
 9698SOL     OW39772   9.265   5.820   1.046  0.3113 -0.1828  0.0705
 9698SOL    HW139773   9.341   5.830   0.982 -0.9125 -0.8028 -1.5307
 9698SOL    HW239774   9.299   5.822   1.140  2.1510  0.7107 -0.6006
 9699SOL     OW39775   1.315   1.588   3.128  0.0090 -0.1174  0.2076
 9699SOL    HW139776   1.222   1.583   3.165 -0.9178  1.1009 -1.8997
 9699SOL    HW239777   1.314   1.561   3.032  1.8558 -0.0886  0.1632
 9700SOL     OW39778   9.450   9.830   1.156 -0.0211  0.5897  0.2856
 9700SOL    HW139779   9.406   9.740   1.153  0.9981  0.1158 -0.9675
 9700SOL    HW239780   9.389   9.898   1.117 -0.3366  0.2445  0.1746
 9701SOL     OW39781   3.932   1.924   1.406  0.1596  0.3333 -0.0392
 9701SOL    HW139782   3.890   1.967   1.326 -0.9226  0.1972  0.4585
 9701SOL    HW239783   3.862   1.897   1.471  1.0045 -0.0117  0.7444
 9702SOL     OW39784   9.662   7.631   2.003  0.2424  0.3249  0.2040
 9702SOL    HW139785   9.629   7.536   2.005 -0.2139  0.4465 -1.3367
 9702SOL    HW239786   9.702   7.651   1.914 -1.8931  2.3214 -0.3476
 9703SOL     OW39787   2.270   7.109   3.867 -0.2388  0.8498 -0.2881
 9703SOL    HW139788   2.315   7.021   3.847 -0.2994  1.1390 -1.7419
 9703SOL    HW239789   2.339   7.182   3.865 -0.0751  0.7705  1.5549
 9704SOL     OW39790   1.375   6.403   4.412  0.5505 -0.0136  0.0937
 9704SOL    HW139791   1.318   6.388   4.332 -0.1146  0.6885  0.4354
 9704SOL    HW239792   1.349   6.488   4.457 -0.2615 -1.2472  2.0318
 9705SOL     OW39793   3.827   0.204   0.638 -0.2091  0.6712  0.3036
 9705SOL    HW139794   3.855   0.157   0.555 -0.5117  0.4866  0.3055
 9705SOL    HW239795   3.734   0.239   0.628 -0.9948 -1.0418  1.2523
 9706SOL     OW39796   0.861   0.797   3.617 -0.1908  0.1730  0.0002
 9706SOL    HW139797   0.943   0.790   3.560 -0.2407 -0.3320 -0.0045
 9706SOL    HW239798   0.795   0.859   3.572  0.0630  0.3427 -0.1401
 9707SOL     OW39799   0.846   6.347   4.002  0.4440  0.4141  0.1947
 9707SOL    HW139800   0.752   6.315   3.988  0.0773  0.7452  1.7235
 9707SOL    HW239801   0.859   6.436   3.960 -0.5207  1.2485  1.6125
 9708SOL     OW39802   8.555   3.525   0.643  0.0738  0.1092 -0.0439
 9708SOL    HW139803   8.469   3.554   0.686  0.5337  1.1313  0.2065
 9708SOL    HW239804   8.626   3.593   0.662  0.5476  0.0505 -1.5486
 9709SOL     OW39805   7.759   5.275   3.686 -0.0863 -0.4837 -0.5557
 9709SOL    HW139806   7.694   5.235   3.621 -0.2287  0.2499 -0.8701
 9709SOL    HW239807   7.784   5.206   3.755 -1.5766 -0.6192 -0.1339
 9710SOL     OW39808   4.451   8.840   0.853 -0.4381 -0.5594 -0.0631
 9710SOL    HW139809   4.498   8.786   0.923  0.5460 -0.6285 -0.7705
 9710SOL    HW239810   4.364   8.797   0.830 -0.3445 -1.0284  0.4630
 9711SOL     OW39811   7.938   4.491   0.381 -0.1637 -0.0986  0.5752
 9711SOL    HW139812   7.921   4.567   0.444  1.1821  0.3176  0.4407
 9711SOL    HW239813   8.007   4.518   0.313  0.8557 -1.6831  0.9556
 9712SOL     OW39814   4.111   3.419   2.004  0.0845 -0.3115  1.0194
 9712SOL    HW139815   4.207   3.404   2.031  0.1026  1.0564  1.7304
 9712SOL    HW239816   4.064   3.469   2.077 -0.7989  0.2928  0.0340
 9713SOL     OW39817   3.241   7.535   0.292 -0.1190 -0.3190 -0.3845
 9713SOL    HW139818   3.279   7.490   0.210 -0.1646  1.5234 -1.4377
 9713SOL    HW239819   3.316   7.563   0.351  0.1292  1.8107 -1.6635
 9714SOL     OW39820   3.798   2.060   1.212  0.8106 -0.5581 -0.1312
 9714SOL    HW139821   3.838   2.150   1.193 -0.4094 -0.2898 -1.5142
 9714SOL    HW239822   3.835   1.993   1.148 -1.3538 -0.1800 -1.8596
 9715SOL     OW39823   8.083   5.660   2.460  0.0183  0.3766  0.2082
 9715SOL    HW139824   8.105   5.703   2.548 -0.1057 -0.1233  0.4881
 9715SOL    HW239825   8.148   5.690   2.391  0.6792  0.0736  0.6850
 9716SOL     OW39826   2.848   8.693   4.242  0.8446 -0.3615 -0.4902
 9716SOL    HW139827   2.902   8.630   4.186 -1.1270 -1.6149 -1.0072
 9716SOL    HW239828   2.829   8.776   4.189 -0.4708 -1.2777 -1.4811
 9717SOL     OW39829   5.504   8.375   2.335  0.0962 -0.2937 -0.0170
 9717SOL    HW139830   5.410   8.348   2.353  0.1847 -2.2728 -2.2524
 9717SOL    HW239831   5.543   8.315   2.265  3.3702 -0.2216  1.6513
 9718SOL     OW39832   3.360   4.701   1.576  0.3825  0.1902  0.2247
 9718SOL    HW139833   3.437   4.758   1.548  1.1275 -0.8446  0.1370
 9718SOL    HW239834   3.344   4.630   1.507  1.0498 -1.2350  1.5117
 9719SOL     OW39835   3.473   1.411   2.896  0.0419 -0.2628  0.0589
 9719SOL    HW139836   3.569   1.428   2.872  0.4057 -2.6068 -0.2740
 9719SOL    HW239837   3.450   1.462   2.979  2.0927 -1.0529  1.1461
 9720SOL     OW39838   0.273   7.028   2.538 -0.8281  0.5985  0.3689
 9720SOL    HW139839   0.277   7.051   2.441 -1.2873 -0.2187  0.1458
 9720SOL    HW239840   0.213   6.949   2.551  0.2841 -0.1307  1.1647
 9721SOL     OW39841   1.394   4.031   3.298 -0.0624  0.1103 -0.2914
 9721SOL    HW139842   1.458   4.018   3.373 -0.5195 -1.9992 -0.2136
 9721SOL    HW239843   1.335   4.110   3.316  2.0928  1.7054 -0.0890
 9722SOL     OW39844   4.730   7.846   0.871  0.4489 -0.4250 -0.0899
 9722SOL    HW139845   4.813   7.879   0.917  0.0501  0.7679 -0.2156
 9722SOL    HW239846   4.749   7.833   0.774  0.2205  0.8479 -0.3179
 9723SOL     OW39847   8.822   2.304   2.890  0.3851  0.3972  0.0778
 9723SOL    HW139848   8.752   2.341   2.951  1.0649  2.0458 -0.1026
 9723SOL    HW239849   8.780   2.240   2.826 -0.8794  1.0141  0.2684
 9724SOL     OW39850   1.700   5.249   1.368  0.5148  0.4973  0.4698
 9724SOL    HW139851   1.736   5.285   1.454 -0.8789  0.7297  0.9747
 9724SOL    HW239852   1.642   5.170   1.386 -1.7031  1.9785  0.0002
 9725SOL     OW39853   3.122   6.228   3.616  0.4336  0.5131 -0.5737
 9725SOL    HW139854   3.064   6.294   3.568  0.8935  0.5116 -1.1318
 9725SOL    HW239855   3.204   6.210   3.562  0.3544 -0.4434 -0.3767
 9726SOL     OW39856   0.196   7.803   0.114 -0.3504 -0.9317  0.1656
 9726SOL    HW139857   0.198   7.744   0.033 -1.2705  0.5016 -0.9215
 9726SOL    HW239858   0.220   7.896   0.088 -0.5371 -0.4752  1.5731
 9727SOL     OW39859   4.393   0.649   0.829 -0.5416  0.3897  0.3018
 9727SOL    HW139860   4.312   0.629   0.773  0.8164  0.2934 -1.6722
 9727SOL    HW239861   4.475   0.623   0.779  0.8257  2.4521  1.3980
 9728SOL     OW39862   2.833   9.984   3.259 -0.3664  0.0641  0.3001
 9728SOL    HW139863   2.925   9.981   3.220 -0.1901 -0.9810  0.7666
 9728SOL    HW239864   2.772   9.929   3.202 -0.7102  0.7555 -0.0069
 9729SOL     OW39865   3.146   5.196   3.662  0.4709 -0.3403 -0.0097
 9729SOL    HW139866   3.202   5.114   3.648  0.1062 -0.4920 -0.5710
 9729SOL    HW239867   3.205   5.273   3.685  0.9066 -0.5252 -0.4938
 9730SOL     OW39868   9.870   5.814   3.963 -0.2397 -0.2503 -0.0792
 9730SOL    HW139869   9.919   5.728   3.970 -1.7312 -1.2257 -1.3171
 9730SOL    HW239870   9.771   5.798   3.971 -0.5732  1.2574 -0.7694
 9731SOL     OW39871   2.642   2.585   3.840  0.2293 -0.1422 -0.2087
 9731SOL    HW139872   2.582   2.528   3.897  0.4144 -0.1494 -0.0180
 9731SOL    HW239873   2.628   2.562   3.744  0.6943 -0.9040 -0.0994
 9732SOL     OW39874   0.617   2.105   3.898  0.0848 -0.2660  0.2980
 9732SOL    HW139875   0.680   2.138   3.969  0.8436 -1.0181 -0.0135
 9732SOL    HW239876   0.556   2.036   3.938 -0.0051 -0.1319  0.3963
 9733SOL     OW39877   7.533   8.376   2.444  0.1685  0.3995 -0.0490
 9733SOL    HW139878   7.544   8.308   2.517  0.7408  0.3252 -0.2018
 9733SOL    HW239879   7.534   8.330   2.355  1.6706  0.7099 -0.2109
 9734SOL     OW39880   9.139   2.078   0.942 -0.2319 -0.0137  0.2156
 9734SOL    HW139881   9.094   2.102   0.856 -1.0286  0.8190  0.8502
 9734SOL    HW239882   9.071   2.042   1.006  0.4618 -1.2101  0.2850
 9735SOL     OW39883   1.733   3.463   1.340 -0.5307 -0.4891 -0.3711
 9735SOL    HW139884   1.650   3.518   1.333 -1.4523 -1.5399  1.8538
 9735SOL    HW239885   1.755   3.447   1.437  0.7131 -2.5121 -0.9480
 9736SOL     OW39886   4.685   9.329   2.630 -0.1683  0.4899  0.5952
 9736SOL    HW139887   4.668   9.384   2.712 -0.6119  1.1180  0.0902
 9736SOL    HW239888   4.710   9.389   2.554 -1.6425  0.0986 -0.2269
 9737SOL     OW39889   0.315   5.413   0.664  0.2300 -0.1174 -0.1849
 9737SOL    HW139890   0.408   5.397   0.629  0.1404 -0.7112 -0.1565
 9737SOL    HW239891   0.267   5.475   0.602  0.1394 -1.0002 -1.0250
 9738SOL     OW39892   4.807   0.661   1.436 -0.6779 -0.2021  0.0269
 9738SOL    HW139893   4.713   0.635   1.458 -0.0418 -0.9389  1.9511
 9738SOL    HW239894   4.854   0.583   1.394 -1.4502  0.7494 -2.7581
 9739SOL     OW39895   8.845   8.758   1.075  0.5214 -0.4924  0.0459
 9739SOL    HW139896   8.835   8.662   1.047 -0.0162  0.2230 -2.2905
 9739SOL    HW239897   8.942   8.780   1.081  0.6506 -0.5622 -1.6478
 9740SOL     OW39898   5.229   0.628   2.776  0.9468 -0.1022  0.1962
 9740SOL    HW139899   5.169   0.551   2.799  2.0290 -0.3398  2.3065
 9740SOL    HW239900   5.306   0.594   2.722  0.5762 -0.2200 -0.2676
 9741SOL     OW39901   3.958   7.958   3.952  0.1882  0.2929 -0.4616
 9741SOL    HW139902   3.971   8.053   3.981  2.7587 -0.3581  0.6639
 9741SOL    HW239903   3.861   7.934   3.959 -0.3365  2.5256  0.2155
 9742SOL     OW39904   2.676   8.083   2.988 -0.2168  0.0357 -0.2999
 9742SOL    HW139905   2.672   8.183   2.983 -1.0619  0.0112 -0.1942
 9742SOL    HW239906   2.752   8.055   3.046 -0.9194  0.6511  0.9391
 9743SOL     OW39907   7.636   9.373   3.738 -0.4661  1.1194  0.3098
 9743SOL    HW139908   7.722   9.372   3.789 -1.2117  0.8564  1.5863
 9743SOL    HW239909   7.653   9.402   3.644  1.6189 -2.3867 -0.4863
 9744SOL     OW39910   2.883   6.359   3.857  0.4417  0.4659 -0.5527
 9744SOL    HW139911   2.930   6.294   3.917 -2.2382  1.5894  2.9741
 9744SOL    HW239912   2.814   6.312   3.803 -0.4801  0.0853  0.9137
 9745SOL     OW39913   0.290   1.276   1.484 -0.6869 -0.5354  0.3124
 9745SOL    HW139914   0.265   1.308   1.392 -1.6954 -0.5489  0.5760
 9745SOL    HW239915   0.259   1.182   1.496  1.1184 -1.1919  0.0073
 9746SOL     OW39916   3.740   7.912   1.381  0.0390 -0.1038 -0.1139
 9746SOL    HW139917   3.808   7.961   1.326 -1.6901  1.9111 -0.5099
 9746SOL    HW239918   3.651   7.917   1.336 -0.7203 -1.3075  1.2142
 9747SOL     OW39919   3.759   8.219   2.929 -0.0588 -0.1239  0.3764
 9747SOL    HW139920   3.795   8.143   2.983 -0.2034 -0.3347  0.1718
 9747SOL    HW239921   3.740   8.296   2.990  1.0955  0.1282  0.4407
 9748SOL     OW39922   2.987   1.074   4.259 -0.0628 -0.9561  0.2728
 9748SOL    HW139923   2.982   1.148   4.326 -0.4207 -3.3245  2.9258
 9748SOL    HW239924   2.902   1.072   4.206 -0.5386 -0.2121  0.9853
 9749SOL     OW39925   8.631   8.297   3.248  0.4368 -0.3987  0.2234
 9749SOL    HW139926   8.534   8.320   3.259  0.8843  0.8148  1.7439
 9749SOL    HW239927   8.639   8.201   3.221 -1.2796  0.0660 -2.1648
 9750SOL     OW39928   1.823   6.313   2.623 -0.8706 -0.5868  0.7937
 9750SOL    HW139929   1.861   6.256   2.551 -0.2439  1.3675 -0.4709
 9750SOL    HW239930   1.767   6.386   2.582  1.9094  2.3844  2.0373
 9751SOL     OW39931   0.965   1.361   4.211  0.1564  0.0293 -0.2104
 9751SOL    HW139932   0.902   1.286   4.194 -0.4247  0.6117 -0.6202
 9751SOL    HW239933   0.961   1.386   4.308 -1.1696  0.9010 -0.4859
 9752SOL     OW39934   5.991   0.874   1.793  0.2553  0.2246 -0.3171
 9752SOL    HW139935   5.905   0.832   1.823  0.7520 -1.7298 -1.4873
 9752SOL    HW239936   6.059   0.869   1.867 -0.3402  0.9046  0.2791
 9753SOL     OW39937   8.727   0.378   1.027 -0.0966 -0.0996  0.4218
 9753SOL    HW139938   8.648   0.317   1.024 -0.4275  0.2975  1.1509
 9753SOL    HW239939   8.701   0.469   0.994  0.2275 -0.1540  0.0046
 9754SOL     OW39940   0.242   3.587   1.961 -0.0741 -0.0029  0.2400
 9754SOL    HW139941   0.273   3.648   1.888 -1.6050  0.6983  0.1679
 9754SOL    HW239942   0.197   3.641   2.032  0.9486 -0.7445  1.4751
 9755SOL     OW39943   3.222   6.521   4.124  1.2908  0.3951  0.3457
 9755SOL    HW139944   3.247   6.429   4.155 -1.5265 -0.4533  0.2019
 9755SOL    HW239945   3.252   6.534   4.030 -0.3794 -1.2643 -0.4395
 9756SOL     OW39946   2.965   9.144   2.283  0.1516 -0.0213  0.2221
 9756SOL    HW139947   2.882   9.170   2.234  0.1162 -1.1164 -0.3093
 9756SOL    HW239948   2.994   9.220   2.341  0.1386  1.2551 -1.4033
 9757SOL     OW39949   2.008   8.062   2.126  0.0790 -0.2068 -0.4737
 9757SOL    HW139950   2.057   7.975   2.128 -0.1047 -0.2964  0.1915
 9757SOL    HW239951   2.035   8.118   2.204 -0.7068 -0.1743 -0.2138
 9758SOL     OW39952   0.838   8.785   3.573  0.2545  0.0765  0.3930
 9758SOL    HW139953   0.902   8.725   3.621  0.2736 -1.2528 -1.2594
 9758SOL    HW239954   0.848   8.773   3.475 -0.9277  1.5622  0.0712
 9759SOL     OW39955   0.897   8.516   1.835  0.3478 -0.1535  0.5477
 9759SOL    HW139956   0.888   8.610   1.868  0.3209  0.0372  0.0056
 9759SOL    HW239957   0.912   8.517   1.736  0.1615 -0.7267  0.5135
 9760SOL     OW39958   3.863   6.839   3.854  0.2296  0.5206  0.4418
 9760SOL    HW139959   3.924   6.841   3.774 -1.8719  0.5967 -1.1970
 9760SOL    HW239960   3.815   6.752   3.858 -1.2896  1.3353  0.3640
 9761SOL     OW39961   9.595   2.447   1.241  0.0229 -0.0568  0.1027
 9761SOL    HW139962   9.638   2.399   1.165 -0.9306 -0.7001 -0.0344
 9761SOL    HW239963   9.507   2.405   1.262  0.0904  0.3730  1.2930
 9762SOL     OW39964   2.762   8.823   3.525  0.4003 -0.0842  0.2028
 9762SOL    HW139965   2.668   8.799   3.500  0.7416 -0.5895 -0.6099
 9762SOL    HW239966   2.772   8.922   3.529 -0.2549 -0.0358  0.6277
 9763SOL     OW39967   2.188   0.742   2.118 -0.0023  0.0178  0.6281
 9763SOL    HW139968   2.148   0.777   2.033 -0.9074 -0.3424  0.9066
 9763SOL    HW239969   2.264   0.681   2.096 -0.6405 -0.5838  0.0601
 9764SOL     OW39970   2.326   4.728   4.425 -0.6327 -0.1847  0.5740
 9764SOL    HW139971   2.377   4.770   4.500 -0.1620 -0.1358  0.2255
 9764SOL    HW239972   2.251   4.788   4.398 -0.4503  0.0596  0.6144
 9765SOL     OW39973   7.254   2.544   4.725 -0.3771 -0.0990  0.6767
 9765SOL    HW139974   7.222   2.639   4.722  1.0277  0.3362 -0.9897
 9765SOL    HW239975   7.259   2.508   4.632 -1.4266 -1.9917  1.3473
 9766SOL     OW39976   4.349   9.887   2.081  0.1176  0.0795  0.3361
 9766SOL    HW139977   4.300   9.832   2.149 -0.1584 -0.1707 -0.0612
 9766SOL    HW239978   4.395   9.963   2.126 -1.7710  1.1207  0.5587
 9767SOL     OW39979   5.343   9.949   3.480  0.3255  0.0375 -0.0965
 9767SOL    HW139980   5.421  10.002   3.514  1.0897  0.3346 -2.2148
 9767SOL    HW239981   5.259   9.983   3.522  1.0048  1.7993 -0.1115
 9768SOL     OW39982   0.325   7.533   1.925  0.0335 -0.2121  0.3557
 9768SOL    HW139983   0.317   7.487   2.014 -0.1429  0.3147  0.6135
 9768SOL    HW239984   0.241   7.517   1.873  0.1957 -0.6428  0.2252
 9769SOL     OW39985   9.520   6.328   0.210 -0.6460  0.5509  0.1765
 9769SOL    HW139986   9.516   6.427   0.227 -1.9514  0.1591  2.4195
 9769SOL    HW239987   9.560   6.311   0.120  1.1528  3.0592  0.4372
 9770SOL     OW39988   8.562   1.575   1.660  0.9053  0.4662  0.2495
 9770SOL    HW139989   8.474   1.578   1.708  1.7138  0.1940  1.7781
 9770SOL    HW239990   8.597   1.668   1.650  0.5405  0.5589 -0.1943
 9771SOL     OW39991   7.336   8.876   2.891  0.5406 -0.2661  0.3551
 9771SOL    HW139992   7.240   8.847   2.893 -0.7904  3.5807 -0.9462
 9771SOL    HW239993   7.358   8.923   2.977  0.2040  1.6391 -0.5527
 9772SOL     OW39994   1.181   8.081   2.354  0.0857 -0.5070  0.3614
 9772SOL    HW139995   1.212   8.086   2.449 -0.3627 -1.4804  0.5646
 9772SOL    HW239996   1.260   8.086   2.292  0.2645  1.8199  0.7128
 9773SOL     OW39997   1.185   3.931   2.783 -0.1616  0.4153 -0.0282
 9773SOL    HW139998   1.218   3.855   2.726  0.1033  0.1207  0.5098
 9773SOL    HW239999   1.086   3.930   2.786 -0.2366  1.2690 -1.6181
 9774SOL     OW40000   9.613   8.891   2.885  0.0521  0.2119  0.2821
 9774SOL    HW140001   9.701   8.907   2.929 -0.0861 -1.6787  1.2806
 9774SOL    HW240002   9.551   8.845   2.949 -0.3129 -2.1451 -1.6840
 9775SOL     OW40003   0.173   2.656   4.583  0.1168 -0.2326  0.1201
 9775SOL    HW140004   0.124   2.597   4.647  1.5867  0.4245  1.8800
 9775SOL    HW240005   0.210   2.601   4.508 -1.2998 -1.0583  0.0223
 9776SOL     OW40006   8.492   9.801   2.967  0.1536 -0.0011  0.3632
 9776SOL    HW140007   8.561   9.870   2.946  0.2190 -0.2863 -0.3998
 9776SOL    HW240008   8.412   9.845   3.006 -0.0572  0.5927 -0.7074
 9777SOL     OW40009   5.607   6.871   2.679 -0.0456 -0.1165  0.2230
 9777SOL    HW140010   5.651   6.787   2.647 -0.2310 -0.2338  0.2711
 9777SOL    HW240011   5.673   6.926   2.730 -0.8450 -1.9524  3.3991
 9778SOL     OW40012   0.790   7.866   0.498 -0.2114  0.4077  0.1711
 9778SOL    HW140013   0.816   7.961   0.485 -1.4956  0.4512 -2.4558
 9778SOL    HW240014   0.847   7.808   0.441 -2.7356  0.1077 -2.1686
 9779SOL     OW40015   8.069   2.060   0.487  0.2585 -0.5960  0.5502
 9779SOL    HW140016   8.118   1.975   0.467  0.9790  0.1694 -1.0133
 9779SOL    HW240017   7.982   2.039   0.532  0.4081 -2.1521  0.1385
 9780SOL     OW40018   3.070   0.678   0.366  0.2608 -0.1493  0.1080
 9780SOL    HW140019   2.980   0.667   0.324 -0.5587 -0.0815  1.8128
 9780SOL    HW240020   3.122   0.746   0.314 -1.7395  1.9513  0.7322
 9781SOL     OW40021   0.369   6.246   1.457 -0.0996 -0.4585  0.1220
 9781SOL    HW140022   0.379   6.176   1.387  0.6113 -0.3937  0.1533
 9781SOL    HW240023   0.272   6.269   1.468 -0.4467 -2.2963  0.9769
 9782SOL     OW40024   1.908   4.111   0.380 -0.2499 -0.2793 -0.5257
 9782SOL    HW140025   1.810   4.099   0.394 -0.2333 -0.0719 -0.2206
 9782SOL    HW240026   1.939   4.049   0.309 -0.5946 -0.3761 -0.5943
 9783SOL     OW40027   7.405   9.829   0.755 -0.3471 -0.0224 -0.0685
 9783SOL    HW140028   7.476   9.890   0.790 -0.2214  0.2095 -0.7246
 9783SOL    HW240029   7.413   9.822   0.656 -0.1606 -1.3522  0.0230
 9784SOL     OW40030   3.743   9.379   3.747 -0.6073 -0.0234  0.9416
 9784SOL    HW140031   3.717   9.288   3.780 -1.0915 -0.2314 -0.0004
 9784SOL    HW240032   3.691   9.449   3.798 -0.6409 -0.3008  1.2876
 9785SOL     OW40033   4.572   0.727   3.737 -0.0235 -0.1449 -0.8402
 9785SOL    HW140034   4.640   0.707   3.666  0.4305 -0.7014 -0.2566
 9785SOL    HW240035   4.514   0.646   3.750  0.8617 -0.5751  0.4855
 9786SOL     OW40036   9.135   0.988   3.531 -0.0105  0.8994  0.0347
 9786SOL    HW140037   9.200   1.033   3.591  0.3158 -0.0039  0.3623
 9786SOL    HW240038   9.176   0.975   3.441  0.8783 -1.1528  0.7096
 9787SOL     OW40039   8.042   3.754   0.265  0.2747  0.2585 -0.0483
 9787SOL    HW140040   7.984   3.673   0.271  0.1879  0.3962  1.1065
 9787SOL    HW240041   8.129   3.730   0.221  0.7270 -0.7519  1.3479
 9788SOL     OW40042   0.812   3.898   2.102  0.0591 -0.2923 -0.1972
 9788SOL    HW140043   0.762   3.871   2.185  1.8005  0.2548  1.0666
 9788SOL    HW240044   0.834   3.996   2.108 -0.7151 -0.0074 -1.8108
 9789SOL     OW40045   9.022   2.868   0.868  0.0005 -0.1324  0.1427
 9789SOL    HW140046   8.933   2.900   0.835 -0.2165  0.9827  1.7449
 9789SOL    HW240047   9.048   2.786   0.818 -1.1063  0.5251 -1.5633
 9790SOL     OW40048   3.009   2.167   3.183 -0.0746  0.3323 -0.1143
 9790SOL    HW140049   3.093   2.204   3.143 -0.0075 -0.2740 -0.5402
 9790SOL    HW240050   2.981   2.224   3.260  0.5470  0.7291 -0.1784
 9791SOL     OW40051   5.164   4.316   0.742 -0.8972 -0.1966 -0.4717
 9791SOL    HW140052   5.187   4.381   0.815 -0.9642 -0.0951 -0.5410
 9791SOL    HW240053   5.115   4.237   0.781 -0.2346 -0.5188 -0.2928
 9792SOL     OW40054   2.217   7.443   3.844 -0.3524 -0.2880  0.4471
 9792SOL    HW140055   2.127   7.416   3.877 -0.0034  0.1102  1.7706
 9792SOL    HW240056   2.218   7.542   3.828 -0.6427 -0.5478 -1.1647
 9793SOL     OW40057   3.829   3.779   4.269  0.2836 -0.1921 -0.7160
 9793SOL    HW140058   3.916   3.768   4.222  0.4661 -0.9578 -0.2195
 9793SOL    HW240059   3.830   3.724   4.353 -0.1374  0.9160  0.0326
 9794SOL     OW40060   3.026   1.234   2.377  0.2904 -0.6380  0.1558
 9794SOL    HW140061   3.124   1.247   2.366  0.0552 -0.0264 -1.3539
 9794SOL    HW240062   2.987   1.310   2.429  0.4394 -0.3078 -0.2184
 9795SOL     OW40063   0.254   8.602   1.982  0.0974  0.3496  0.2930
 9795SOL    HW140064   0.351   8.578   1.984  0.0277  0.0157 -0.2515
 9795SOL    HW240065   0.226   8.637   2.072  1.0458  1.7502  0.0643
 9796SOL     OW40066   5.949   0.261   2.403 -0.0783 -0.0490 -0.5249
 9796SOL    HW140067   5.895   0.208   2.338 -0.2328  1.6279 -1.7922
 9796SOL    HW240068   5.953   0.356   2.374 -2.3937  1.3546  3.3261
 9797SOL     OW40069   3.791   9.691   3.548  0.1127  0.2043 -0.1359
 9797SOL    HW140070   3.873   9.635   3.556 -0.9723 -1.4935 -0.6993
 9797SOL    HW240071   3.799   9.752   3.469  1.1361  0.5684  0.2481
 9798SOL     OW40072   3.400   6.038   3.665 -0.0036  0.2012 -0.1440
 9798SOL    HW140073   3.426   5.953   3.619 -0.5397 -0.1276  0.1579
 9798SOL    HW240074   3.324   6.020   3.727  0.5575  0.6916  0.6929
 9799SOL     OW40075   8.830   6.361   2.146  0.1986  0.0256  0.3958
 9799SOL    HW140076   8.778   6.387   2.064  0.5611  1.3590  0.5798
 9799SOL    HW240077   8.924   6.339   2.121 -0.0838 -1.0915  0.2536
 9800SOL     OW40078   2.741   3.986   4.016  0.0780  0.5364 -0.3087
 9800SOL    HW140079   2.708   4.048   3.945  0.8922  2.3484  0.8897
 9800SOL    HW240080   2.785   3.907   3.972 -3.2829 -0.5379 -1.8705
 9801SOL     OW40081   0.071   3.928   2.047 -0.1944 -0.4021  0.2588
 9801SOL    HW140082   0.116   3.860   2.104 -0.6572 -0.8912  0.0442
 9801SOL    HW240083   0.052   3.889   1.957 -0.1442  0.1244  0.0206
 9802SOL     OW40084   3.798   6.338   2.212  0.0265  0.4397 -0.9530
 9802SOL    HW140085   3.754   6.349   2.123 -0.9600  0.5235 -0.4688
 9802SOL    HW240086   3.732   6.359   2.284  0.8264  0.4066 -0.2025
 9803SOL     OW40087   9.059   8.489   3.765 -0.1653  0.3927 -0.1508
 9803SOL    HW140088   9.104   8.550   3.700 -0.7401 -0.0327 -0.9476
 9803SOL    HW240089   9.111   8.404   3.772  0.4970  0.8605  0.7709
 9804SOL     OW40090   7.122   9.987   3.245 -0.3949 -0.0497  0.0425
 9804SOL    HW140091   7.072  10.055   3.192  1.2711  0.6934 -0.6161
 9804SOL    HW240092   7.217   9.982   3.212 -0.0552 -1.4895  1.1886
 9805SOL     OW40093   8.884   5.598   1.201 -0.3007  0.1213 -0.5827
 9805SOL    HW140094   8.939   5.667   1.153  0.6486  0.9008  1.5822
 9805SOL    HW240095   8.895   5.509   1.157 -0.2583  1.0187 -2.4261
 9806SOL     OW40096   9.338   4.039   2.031  0.3697 -0.2231  0.0634
 9806SOL    HW140097   9.376   4.062   2.120 -1.6311  1.7216  0.4425
 9806SOL    HW240098   9.338   3.939   2.020  0.9407 -0.4748  2.0874
 9807SOL     OW40099   6.936   9.135   3.432 -0.2413  0.4473  0.4952
 9807SOL    HW140100   7.006   9.182   3.378  0.8015 -1.0503  0.4969
 9807SOL    HW240101   6.846   9.152   3.392  0.5346 -0.9147 -1.9803
 9808SOL     OW40102   1.508   5.210   4.610 -0.0885 -0.1080  0.1389
 9808SOL    HW140103   1.432   5.274   4.605 -0.6760 -0.7523  0.7359
 9808SOL    HW240104   1.562   5.228   4.692  0.5476  0.5029 -0.4101
 9809SOL     OW40105   3.208   3.401   2.008 -0.1832 -0.1829 -0.7599
 9809SOL    HW140106   3.172   3.365   2.094 -1.0262 -0.6350 -1.3044
 9809SOL    HW240107   3.153   3.479   1.978 -0.5347 -0.6873 -1.4357
 9810SOL     OW40108   7.308   8.560   2.382  0.0072 -0.3582  0.1723
 9810SOL    HW140109   7.238   8.501   2.422 -0.8287  1.6800  1.8350
 9810SOL    HW240110   7.396   8.539   2.424  0.0823 -1.7673 -0.6861
 9811SOL     OW40111   3.605   9.606   3.867 -0.7612 -0.0302  0.1792
 9811SOL    HW140112   3.533   9.550   3.826 -1.4068  0.4641  0.6400
 9811SOL    HW240113   3.631   9.568   3.956 -3.1237  1.9178  1.7665
 9812SOL     OW40114   1.742   2.012   1.160  0.3195  0.5364  0.0798
 9812SOL    HW140115   1.808   1.946   1.196 -1.0690  0.2039  2.1008
 9812SOL    HW240116   1.765   2.103   1.193 -0.2298  0.4167  0.8076
 9813SOL     OW40117   9.570   6.617   3.881 -0.1933  0.1194 -0.0910
 9813SOL    HW140118   9.516   6.610   3.797 -2.2278  3.7669  0.7539
 9813SOL    HW240119   9.633   6.695   3.874 -1.2445  1.2290  2.1416
 9814SOL     OW40120   7.953   7.792   1.488 -0.1831  1.0812 -0.0159
 9814SOL    HW140121   7.967   7.693   1.484  0.3099  1.1850 -1.1847
 9814SOL    HW240122   7.889   7.814   1.561 -0.6747 -0.1430 -0.0640
 9815SOL     OW40123   0.192   4.641   4.268 -0.5969 -0.0237 -0.3525
 9815SOL    HW140124   0.210   4.737   4.289 -1.3533  0.2273 -0.8188
 9815SOL    HW240125   0.117   4.609   4.326 -0.5329 -0.2473 -0.3966
 9816SOL     OW40126   7.611   4.899   4.030  0.7671  0.4992 -0.4200
 9816SOL    HW140127   7.639   4.983   4.076 -1.2042  0.2525  1.2786
 9816SOL    HW240128   7.629   4.821   4.089 -0.7952  0.0724 -0.4851
 9817SOL     OW40129   0.542   4.904   0.960  0.1490 -0.5233 -0.1183
 9817SOL    HW140130   0.610   4.848   0.913  0.7294 -0.9084  1.1676
 9817SOL    HW240131   0.453   4.894   0.914  1.1019  0.6141 -2.3134
 9818SOL     OW40132   2.593   6.899   0.498  0.4089  0.0401  0.5139
 9818SOL    HW140133   2.658   6.828   0.470  0.8801  1.1061 -1.2173
 9818SOL    HW240134   2.500   6.872   0.472  0.8469  1.0241 -2.2132
 9819SOL     OW40135   1.920   2.553   2.832  0.9056 -0.2469  0.1056
 9819SOL    HW140136   1.866   2.593   2.907 -1.4607  2.5559 -2.9337
 9819SOL    HW240137   1.872   2.474   2.795  1.7535 -1.2379  1.1101
 9820SOL     OW40138   2.916   2.726   1.856  0.6177  0.2270  0.3241
 9820SOL    HW140139   2.842   2.792   1.868  1.3000  1.2163 -0.7248
 9820SOL    HW240140   2.989   2.768   1.802  1.6514 -0.9523  0.7757
 9821SOL     OW40141   3.801   4.012   3.649  0.2774 -0.4012  0.3016
 9821SOL    HW140142   3.737   4.038   3.721  0.3053  0.1159  0.1400
 9821SOL    HW240143   3.803   3.913   3.641  0.1292 -0.4530  0.8822
 9822SOL     OW40144   2.055   1.247   1.469  0.0269  0.0776  0.6899
 9822SOL    HW140145   2.132   1.241   1.533 -0.5309 -0.4135  1.3260
 9822SOL    HW240146   2.033   1.156   1.435  2.3974  0.6910 -2.7330
 9823SOL     OW40147   9.161   8.479   1.780  0.1778  0.1948 -0.0165
 9823SOL    HW140148   9.143   8.394   1.729 -0.4617  0.6052 -0.4860
 9823SOL    HW240149   9.157   8.556   1.717  0.2555  0.6234  0.5044
 9824SOL     OW40150   0.524   6.013   0.869 -0.3521 -0.4125  0.2199
 9824SOL    HW140151   0.473   5.930   0.849  3.4691 -2.4146 -1.6170
 9824SOL    HW240152   0.583   5.999   0.948  0.8519  0.2584 -0.5279
 9825SOL     OW40153   4.273   6.040   1.548  0.0602  0.5067 -0.0929
 9825SOL    HW140154   4.203   5.971   1.528  0.5711 -0.2892  0.8375
 9825SOL    HW240155   4.228   6.125   1.576 -0.6181  1.0040 -2.5274
 9826SOL     OW40156   8.955   3.451   4.325  0.4914 -0.5264  0.1200
 9826SOL    HW140157   8.876   3.392   4.317  0.1816 -0.3283  1.5802
 9826SOL    HW240158   8.927   3.547   4.316  0.3609 -0.3861  1.8373
 9827SOL     OW40159   0.195   4.482   2.947  0.9814  0.2070  0.0579
 9827SOL    HW140160   0.154   4.460   2.858 -0.0156 -1.0156  0.7820
 9827SOL    HW240161   0.245   4.402   2.981  3.0744  1.3364 -0.3093
 9828SOL     OW40162   2.984   8.463   2.666  0.2373 -0.4350 -0.6992
 9828SOL    HW140163   2.935   8.537   2.712 -0.5840 -0.8559 -0.8880
 9828SOL    HW240164   2.951   8.375   2.699  1.6961 -0.7144  0.0152
 9829SOL     OW40165   6.982   0.070   2.466 -0.1697 -0.0003  0.2091
 9829SOL    HW140166   7.025   0.145   2.415  0.8415  0.2911  1.4575
 9829SOL    HW240167   6.983  -0.013   2.410 -0.7503  0.7536 -0.9509
 9830SOL     OW40168   4.087   1.881   2.384  0.2301  0.2378 -0.3275
 9830SOL    HW140169   4.002   1.933   2.377 -0.2609 -0.3059  1.2213
 9830SOL    HW240170   4.156   1.921   2.324 -1.3890  0.1271 -2.3074
 9831SOL     OW40171   2.936   0.527   2.049 -0.2361  0.5574 -0.1867
 9831SOL    HW140172   3.019   0.581   2.032  0.4572 -0.4825 -0.0860
 9831SOL    HW240173   2.889   0.510   1.962  0.4406 -0.1153 -0.4212
 9832SOL     OW40174   4.183   9.542   1.596  0.0556 -0.8014 -0.0229
 9832SOL    HW140175   4.159   9.572   1.504  0.1622 -0.4685  0.0580
 9832SOL    HW240176   4.134   9.596   1.664 -1.4834 -2.2963  0.1003
 9833SOL     OW40177   9.988   8.258   1.984  0.4153 -0.2594 -0.1756
 9833SOL    HW140178   9.914   8.191   1.989  0.4177 -0.2216  0.3837
 9833SOL    HW240179   9.967   8.326   1.914  0.3869 -0.8078 -0.7069
 9834SOL     OW40180   9.724   2.756   2.282 -0.6258  0.2068  0.6630
 9834SOL    HW140181   9.814   2.731   2.245 -0.4793  0.9746  0.4699
 9834SOL    HW240182   9.652   2.721   2.222 -0.3617  2.2970 -0.9551
 9835SOL     OW40183   1.422   5.248   0.870 -0.4950 -0.0554  0.2652
 9835SOL    HW140184   1.466   5.294   0.948  1.5521 -1.3325 -0.0779
 9835SOL    HW240185   1.399   5.154   0.896  0.5692 -0.6185 -0.7616
 9836SOL     OW40186   8.037   0.736   0.860 -0.3666  0.0740  0.4641
 9836SOL    HW140187   8.104   0.810   0.869  0.8805 -1.0659  0.6560
 9836SOL    HW240188   7.976   0.736   0.939  0.2876  0.2629  0.9728
 9837SOL     OW40189   3.531   4.516   4.368 -0.0330  0.4320  0.3718
 9837SOL    HW140190   3.482   4.580   4.309 -0.4824 -1.9182 -1.9328
 9837SOL    HW240191   3.482   4.506   4.455  0.0780  3.1720  0.7897
 9838SOL     OW40192   9.802   1.115   2.888 -0.1264 -0.3101  0.1714
 9838SOL    HW140193   9.817   1.212   2.905  2.3693 -0.8687  1.5910
 9838SOL    HW240194   9.798   1.066   2.976 -0.4173 -1.6056 -0.5405
 9839SOL     OW40195   5.899   9.162   2.514  0.0675  0.7336  0.4884
 9839SOL    HW140196   5.995   9.190   2.521  0.5429 -1.0496  1.5294
 9839SOL    HW240197   5.866   9.175   2.421  1.2822  1.4789  0.1587
 9840SOL     OW40198   7.998   5.155   3.401 -0.2664 -0.0703  0.1875
 9840SOL    HW140199   8.061   5.182   3.328  1.1924 -0.4207  1.2803
 9840SOL    HW240200   7.967   5.236   3.451 -1.4220  0.1871 -0.9348
 9841SOL     OW40201   9.366   7.964   0.970  0.5116 -0.3312 -0.4813
 9841SOL    HW140202   9.349   8.014   0.885 -0.3891 -0.4094 -0.3585
 9841SOL    HW240203   9.335   7.869   0.960 -1.0554  0.0568  0.4294
 9842SOL     OW40204   2.170   7.710   4.306 -0.2062 -0.6923  0.3472
 9842SOL    HW140205   2.206   7.673   4.220  0.2076 -0.8484  0.5884
 9842SOL    HW240206   2.071   7.698   4.307 -0.1521 -1.1796  0.1228
 9843SOL     OW40207   8.414   8.517   1.730 -0.9187 -0.0426  0.4735
 9843SOL    HW140208   8.360   8.531   1.814  0.6740 -0.8142  1.6413
 9843SOL    HW240209   8.497   8.572   1.735 -0.4066 -0.7526 -0.2171
 9844SOL     OW40210   1.363   5.330   2.526  0.2017 -0.0298  0.4277
 9844SOL    HW140211   1.397   5.314   2.619  1.0389 -0.1874  0.1042
 9844SOL    HW240212   1.437   5.368   2.470  0.0881 -1.1901 -0.5238
 9845SOL     OW40213   8.905   6.993   3.222 -0.3138 -0.1262 -0.5184
 9845SOL    HW140214   8.856   7.078   3.242 -0.1731 -0.2567  0.4142
 9845SOL    HW240215   8.900   6.932   3.302  0.5105 -0.5497 -0.7831
 9846SOL     OW40216   1.496   1.190   3.234 -0.2649  0.3440  0.6495
 9846SOL    HW140217   1.434   1.163   3.308 -1.1036 -0.0726 -0.1954
 9846SOL    HW240218   1.450   1.178   3.146  1.7851 -2.1471 -0.1418
 9847SOL     OW40219   3.652   8.366   0.265 -0.1972 -0.0085  0.2760
 9847SOL    HW140220   3.698   8.327   0.185 -2.0540 -1.0859 -0.2980
 9847SOL    HW240221   3.553   8.369   0.248 -0.2805  3.2765  1.0293
 9848SOL     OW40222   4.737   9.130   2.463 -0.5253 -0.2887  0.3020
 9848SOL    HW140223   4.718   9.181   2.546 -2.8568  0.4706 -0.6517
 9848SOL    HW240224   4.821   9.165   2.420 -0.8042  1.1278  0.9106
 9849SOL     OW40225   4.355   2.854   1.078 -0.6496 -0.0375 -0.0526
 9849SOL    HW140226   4.325   2.842   1.172 -1.5482 -0.0687 -0.3410
 9849SOL    HW240227   4.455   2.859   1.075 -0.6584  0.8456  1.0002
 9850SOL     OW40228   4.271   2.309   1.461 -0.6520 -0.2874  0.1297
 9850SOL    HW140229   4.252   2.398   1.419  0.8317  0.1842  0.4640
 9850SOL    HW240230   4.243   2.236   1.398 -2.2755  0.3948  0.0344
 9851SOL     OW40231   7.748   0.039   3.563  0.0246  0.3501  0.4430
 9851SOL    HW140232   7.709   0.021   3.473 -2.6855  2.7313  1.0860
 9851SOL    HW240233   7.754  -0.047   3.614 -0.8691 -0.6253 -1.0586
 9852SOL     OW40234   0.675   6.433   1.698 -0.3350 -0.7400 -0.4552
 9852SOL    HW140235   0.616   6.491   1.754 -1.6294 -2.2742 -0.1919
 9852SOL    HW240236   0.759   6.482   1.676 -2.0599  1.8676 -1.5735
 9853SOL     OW40237   2.762   8.279   0.283  0.2113  0.4805  0.2581
 9853SOL    HW140238   2.758   8.269   0.382 -1.1524  0.5974  0.2129
 9853SOL    HW240239   2.673   8.308   0.248  0.0916 -1.5306 -1.2300
 9854SOL     OW40240   8.096   6.667   2.235 -0.3318  0.0804 -0.3596
 9854SOL    HW140241   8.037   6.706   2.163  0.1579 -1.0729 -1.4097
 9854SOL    HW240242   8.106   6.569   2.220 -0.2877 -0.1915  1.3614
 9855SOL     OW40243   3.190   9.447   0.386  0.0861  0.3442  0.0398
 9855SOL    HW140244   3.153   9.379   0.323  0.2982  0.4929 -0.2484
 9855SOL    HW240245   3.214   9.403   0.472  1.7582 -0.2761 -0.7219
 9856SOL     OW40246   2.258   0.049   0.775 -0.0572  0.0240  0.1171
 9856SOL    HW140247   2.214  -0.039   0.792 -0.2304 -0.0241 -0.5562
 9856SOL    HW240248   2.245   0.108   0.854  0.4067 -0.6974  0.7347
 9857SOL     OW40249   7.881   4.376   4.694  0.2184 -0.3340 -0.2496
 9857SOL    HW140250   7.958   4.380   4.757 -0.4081  2.2922  0.4117
 9857SOL    HW240251   7.805   4.325   4.736  0.1655  0.5344  0.7314
 9858SOL     OW40252   0.299   0.561   2.817 -0.1160  0.4035 -0.3196
 9858SOL    HW140253   0.354   0.566   2.734  0.4908 -0.3533  0.0346
 9858SOL    HW240254   0.269   0.653   2.843  0.5777  0.7604 -0.7833
 9859SOL     OW40255   0.078   1.713   0.227 -0.4774 -0.1049 -0.2626
 9859SOL    HW140256   0.051   1.794   0.279 -0.1409 -1.3223  1.8559
 9859SOL    HW240257   0.100   1.739   0.133 -1.6529  2.0459  0.0451
 9860SOL     OW40258   0.546   9.232   4.733 -0.3675 -0.0067  0.0389
 9860SOL    HW140259   0.577   9.323   4.761  1.9032 -1.4367  2.3991
 9860SOL    HW240260   0.469   9.204   4.790 -2.9449  1.5024 -2.5441
 9861SOL     OW40261   7.912   0.153   2.313 -0.2673  0.3118  0.5662
 9861SOL    HW140262   7.995   0.182   2.266  0.2495 -1.9091  0.0488
 9861SOL    HW240263   7.936   0.100   2.394 -1.1762  0.9853  1.2877
 9862SOL     OW40264   8.728   5.267   1.745 -0.1615 -0.1944 -0.0040
 9862SOL    HW140265   8.785   5.345   1.718 -0.3171 -0.4343 -1.0420
 9862SOL    HW240266   8.643   5.268   1.693 -0.9529 -0.0521  1.2759
 9863SOL     OW40267   6.928   8.604   3.005  0.2709  0.4670  0.0384
 9863SOL    HW140268   6.898   8.692   3.042 -0.3489 -0.0581  0.8045
 9863SOL    HW240269   6.987   8.620   2.925  0.1944  1.5714  0.1890
 9864SOL     OW40270   2.183   6.077   2.616 -0.5082 -0.0156  0.3142
 9864SOL    HW140271   2.141   6.013   2.680  0.4363 -0.7894  0.1862
 9864SOL    HW240272   2.246   6.137   2.665 -0.9309  0.3967  0.3445
 9865SOL     OW40273   9.680   4.187   3.694 -0.0557 -0.3329 -0.5833
 9865SOL    HW140274   9.746   4.112   3.707  1.2413  1.1045  1.4616
 9865SOL    HW240275   9.587   4.151   3.703  0.5573 -1.7232  0.4206
 9866SOL     OW40276   8.018   3.805   0.855  0.2886 -0.6273 -0.4122
 9866SOL    HW140277   8.002   3.892   0.810  2.0282 -1.3109 -2.4746
 9866SOL    HW240278   8.114   3.778   0.843  0.5636 -1.3718  2.8323
 9867SOL     OW40279   1.441   0.638   0.615  0.2001  0.4198 -0.2493
 9867SOL    HW140280   1.491   0.552   0.622  1.7576  1.3589  0.4327
 9867SOL    HW240281   1.368   0.640   0.683 -0.0915 -0.5308 -0.5358
 9868SOL     OW40282   0.043   4.475   0.255  0.3700  0.3262 -0.0860
 9868SOL    HW140283   0.102   4.517   0.325 -0.3704  0.6723  0.3346
 9868SOL    HW240284   0.083   4.490   0.165  0.7336  0.8977  0.1684
 9869SOL     OW40285   1.204   6.473   2.440  0.3126 -0.0228 -0.4659
 9869SOL    HW140286   1.218   6.430   2.530  0.4061 -1.2073 -1.0449
 9869SOL    HW240287   1.258   6.425   2.371 -1.5793 -0.5748 -1.5874
 9870SOL     OW40288   8.983   1.425   1.806  0.0764 -0.2611 -0.8131
 9870SOL    HW140289   8.993   1.485   1.885  0.3512 -0.3003 -0.8185
 9870SOL    HW240290   8.886   1.412   1.786  0.0212  0.9474 -1.3891
 9871SOL     OW40291   2.368   7.980   2.003 -0.8430  0.0521  0.0597
 9871SOL    HW140292   2.360   7.948   2.098 -0.0373 -1.4354 -0.3528
 9871SOL    HW240293   2.294   7.941   1.949 -0.3869 -0.4099 -0.2464
 9872SOL     OW40294   6.124   9.898   3.772  0.1223 -0.5399  0.3522
 9872SOL    HW140295   6.078   9.821   3.816 -0.4989 -0.6129 -0.4172
 9872SOL    HW240296   6.089   9.910   3.679  0.8688  0.0993  0.1415
 9873SOL     OW40297   0.359   3.072   0.629 -0.3810 -0.4459 -0.5253
 9873SOL    HW140298   0.366   3.100   0.534 -0.5104  1.3220 -0.0460
 9873SOL    HW240299   0.396   2.980   0.641  0.5254 -0.2889 -2.0997
 9874SOL     OW40300   0.025   4.244   4.375  0.4214 -0.3045  0.1150
 9874SOL    HW140301   0.074   4.241   4.462  2.2461  0.5194 -0.8799
 9874SOL    HW240302  -0.069   4.211   4.389  0.8346 -0.6141  2.2896
 9875SOL     OW40303   6.725   6.846   2.031  0.3510  0.3886 -0.2605
 9875SOL    HW140304   6.713   6.940   2.062  0.5236  0.6361 -0.9201
 9875SOL    HW240305   6.637   6.799   2.032  0.4128  0.2985  0.8912
 9876SOL     OW40306   1.329   0.542   2.936 -0.0931 -0.3760  0.6819
 9876SOL    HW140307   1.413   0.542   2.991  0.0358 -1.4068  0.4928
 9876SOL    HW240308   1.304   0.447   2.915 -1.3177 -0.0684  0.7634
 9877SOL     OW40309   8.484   8.397   4.016 -0.2991 -0.0210 -0.3603
 9877SOL    HW140310   8.417   8.334   4.056 -0.5498  0.8686  0.6275
 9877SOL    HW240311   8.458   8.416   3.921  0.1778 -1.9519 -0.9062
 9878SOL     OW40312   4.707   5.424   1.313 -0.3871  0.5170 -0.1566
 9878SOL    HW140313   4.681   5.431   1.409  0.4152 -1.2074  0.1964
 9878SOL    HW240314   4.641   5.366   1.265  0.4448 -0.4111 -0.1753
 9879SOL     OW40315   3.429   0.053   2.181 -0.3119 -0.0279 -0.7037
 9879SOL    HW140316   3.421  -0.013   2.106 -3.6024 -0.5078 -0.0236
 9879SOL    HW240317   3.404   0.144   2.147 -0.3822  0.0160 -0.5328
 9880SOL     OW40318   9.879   4.153   1.669 -0.7327  0.7715 -0.0246
 9880SOL    HW140319   9.830   4.097   1.736  0.8636  0.7211  1.1555
 9880SOL    HW240320   9.932   4.093   1.609  2.0755  0.9926  2.1180
 9881SOL     OW40321   0.315   8.537   0.380 -0.0776 -0.0535  0.4081
 9881SOL    HW140322   0.289   8.623   0.336 -0.7215 -0.7424 -0.5651
 9881SOL    HW240323   0.287   8.539   0.476 -0.1376  0.7969  0.3788
 9882SOL     OW40324   9.643   9.934   2.961  0.4479 -0.2556  0.2692
 9882SOL    HW140325   9.648   9.858   3.027 -0.3563 -0.3668  0.2019
 9882SOL    HW240326   9.648  10.021   3.010  1.0399 -0.3413  0.3733
 9883SOL     OW40327   1.671   0.654   4.121 -0.0847  0.9631  0.1247
 9883SOL    HW140328   1.572   0.656   4.107 -0.1800  0.9861  0.7879
 9883SOL    HW240329   1.692   0.617   4.211  0.5538  0.0743 -0.3711
 9884SOL     OW40330   9.164   5.309   4.239 -0.3794 -0.0053 -0.6779
 9884SOL    HW140331   9.138   5.235   4.176  0.9086 -0.2270 -0.9554
 9884SOL    HW240332   9.177   5.271   4.330  3.1332 -0.6860 -1.3883
 9885SOL     OW40333   8.422   8.128   4.560 -0.5175  0.4324 -0.7183
 9885SOL    HW140334   8.364   8.073   4.501 -0.8904  1.1759 -1.0469
 9885SOL    HW240335   8.449   8.212   4.513  0.4518  0.3067 -0.4023
 9886SOL     OW40336   9.741   2.497   3.288 -0.2259 -0.4209 -0.1342
 9886SOL    HW140337   9.828   2.544   3.275 -0.1396 -0.6832 -0.5112
 9886SOL    HW240338   9.669   2.543   3.236 -0.4107  0.0798  0.5579
 9887SOL     OW40339   5.247   7.946   4.393  0.1625 -0.7287 -0.2902
 9887SOL    HW140340   5.258   7.979   4.299  1.7256  0.4564  0.2909
 9887SOL    HW240341   5.165   7.889   4.398 -1.2210  1.0267 -1.8758
 9888SOL     OW40342   2.010   7.056   0.514 -0.0674  0.6149  0.4812
 9888SOL    HW140343   2.007   7.109   0.598 -0.3796  0.6919  0.4244
 9888SOL    HW240344   2.071   7.101   0.448 -0.7257  1.1801  0.2501
 9889SOL     OW40345   7.264   0.815   2.978 -0.1077 -0.0041 -0.3564
 9889SOL    HW140346   7.188   0.824   2.914  0.1682  1.5268 -0.4858
 9889SOL    HW240347   7.242   0.745   3.046 -1.5382  0.2624 -0.5290
 9890SOL     OW40348   0.301   2.730   0.885  0.4313  0.3893  0.1284
 9890SOL    HW140349   0.359   2.773   0.815 -0.0587 -0.2480 -0.6747
 9890SOL    HW240350   0.236   2.797   0.920 -0.4231  0.2787 -1.2242
 9891SOL     OW40351   8.840   9.435   4.403  0.3343  0.1981  0.0910
 9891SOL    HW140352   8.745   9.408   4.388  0.4021 -0.3106  0.5819
 9891SOL    HW240353   8.855   9.449   4.501  0.2799  2.0725 -0.1420
 9892SOL     OW40354   5.075   8.238   4.356  0.1979 -0.2699 -0.1712
 9892SOL    HW140355   5.047   8.149   4.321 -1.4262  0.1370  0.0490
 9892SOL    HW240356   5.042   8.310   4.294  1.7283  0.1720 -0.4963
 9893SOL     OW40357   1.221   3.856   4.220  0.0741 -0.0723 -0.1768
 9893SOL    HW140358   1.233   3.866   4.319  1.3388 -1.2267 -0.1903
 9893SOL    HW240359   1.303   3.890   4.174  0.4915 -1.7353 -0.6925
 9894SOL     OW40360   8.495   6.480   0.825 -0.4888  0.1923 -0.4433
 9894SOL    HW140361   8.452   6.492   0.735 -1.7570 -0.1085  0.1122
 9894SOL    HW240362   8.457   6.547   0.889  1.4390  1.3360 -0.4816
 9895SOL     OW40363   9.391   5.639   3.279  0.1008 -0.4354  0.3787
 9895SOL    HW140364   9.325   5.697   3.230 -1.6881 -0.6720  2.4362
 9895SOL    HW240365   9.467   5.695   3.312  0.1743  0.1131 -0.7139
 9896SOL     OW40366   9.800   6.649   1.659  0.2778 -0.1475  0.2377
 9896SOL    HW140367   9.856   6.584   1.608 -0.6138 -0.1515 -0.7713
 9896SOL    HW240368   9.770   6.608   1.745  0.9384 -0.5206  0.2909
 9897SOL     OW40369   0.713   4.977   1.182  0.2492  0.1796  0.6252
 9897SOL    HW140370   0.642   4.994   1.113  0.3602  0.8157  0.6636
 9897SOL    HW240371   0.755   5.064   1.208  1.8345 -0.3143 -0.2482
 9898SOL     OW40372   7.362   7.506   2.360 -0.2688 -0.3815  0.2844
 9898SOL    HW140373   7.442   7.446   2.355  0.3919  0.4971  0.0964
 9898SOL    HW240374   7.376   7.585   2.300 -0.2910  0.9367  1.9719
 9899SOL     OW40375   2.410   3.929   4.409 -0.3939 -0.4831  0.1634
 9899SOL    HW140376   2.481   3.983   4.363  0.5057 -1.7065  0.0791
 9899SOL    HW240377   2.433   3.832   4.402 -1.7149 -0.8464  0.7687
 9900SOL     OW40378   8.489   5.350   1.653 -0.2379  0.2277 -0.7906
 9900SOL    HW140379   8.419   5.305   1.708  0.3822  0.3625  0.1144
 9900SOL    HW240380   8.495   5.446   1.678  1.2885 -0.1057  0.1891
 9901SOL     OW40381   2.688   3.757   3.618  0.4066  0.1652 -0.2224
 9901SOL    HW140382   2.618   3.724   3.555  0.4753  0.5264 -0.4928
 9901SOL    HW240383   2.709   3.853   3.598  0.8029  0.1313  0.0106
 9902SOL     OW40384   2.957   3.901   1.459  0.0759 -0.0909 -0.1331
 9902SOL    HW140385   2.876   3.861   1.416  0.5487  1.3018 -2.4098
 9902SOL    HW240386   2.995   3.836   1.525 -1.4252 -1.7749 -0.8805
 9903SOL     OW40387   8.827   4.000   2.104  0.7436 -0.0882  0.4145
 9903SOL    HW140388   8.771   3.918   2.110  0.5821  0.1704  2.9481
 9903SOL    HW240389   8.771   4.080   2.125  1.4007  0.4428  0.1678
 9904SOL     OW40390   8.806   3.585   2.773  0.0259  0.2165  0.4122
 9904SOL    HW140391   8.810   3.537   2.685  0.6916 -0.6039  0.8842
 9904SOL    HW240392   8.764   3.525   2.841 -1.4838  1.2462  0.4056
 9905SOL     OW40393   0.847   5.802   3.347  0.5360 -0.3028 -0.4340
 9905SOL    HW140394   0.754   5.779   3.318  0.1793  0.5338  0.0365
 9905SOL    HW240395   0.862   5.900   3.337  1.7405 -0.5839 -1.5385
 9906SOL     OW40396   8.639   2.049   3.540  0.0191  0.1747 -0.5151
 9906SOL    HW140397   8.568   2.097   3.592  0.7720  2.5713 -1.6137
 9906SOL    HW240398   8.641   2.085   3.447  1.4447 -1.1681 -1.0114
 9907SOL     OW40399   9.130   2.796   3.950  0.2370 -0.2571 -0.2104
 9907SOL    HW140400   9.201   2.732   3.979  0.3617  0.1406  0.3655
 9907SOL    HW240401   9.070   2.817   4.028  0.0466  0.1340 -0.4618
 9908SOL     OW40402   8.285   6.088   2.432  0.1685 -0.4100 -0.2043
 9908SOL    HW140403   8.383   6.069   2.425  0.7784  2.6850 -0.5195
 9908SOL    HW240404   8.263   6.115   2.526 -0.3736 -0.9553 -0.1701
 9909SOL     OW40405   8.920   4.929   0.427 -0.0643 -0.2345 -0.0521
 9909SOL    HW140406   8.827   4.960   0.447 -0.5738 -0.9105 -1.2645
 9909SOL    HW240407   8.934   4.839   0.467 -0.0825 -0.3197 -0.2383
 9910SOL     OW40408   1.547   7.991   2.441 -0.0878 -0.4785 -0.0120
 9910SOL    HW140409   1.616   8.003   2.369 -0.0956 -1.8171 -0.2571
 9910SOL    HW240410   1.586   7.937   2.515 -0.2576  0.4387  0.7431
 9911SOL     OW40411   0.604   6.092   3.382  0.2157  0.0678  0.5429
 9911SOL    HW140412   0.571   6.025   3.448 -0.3996  0.3863  0.5593
 9911SOL    HW240413   0.564   6.182   3.402 -1.3332 -0.1723 -1.2670
 9912SOL     OW40414   8.936   3.964   4.429 -0.1636  0.0477 -0.5516
 9912SOL    HW140415   8.974   4.032   4.366 -0.2313 -0.0286 -0.6749
 9912SOL    HW240416   8.985   3.968   4.516 -1.3104  1.4637  0.0443
 9913SOL     OW40417   3.571   6.021   2.276  0.0671  0.3197 -0.0024
 9913SOL    HW140418   3.575   5.939   2.220  1.1107  1.1825 -1.2099
 9913SOL    HW240419   3.503   6.085   2.239  1.0080  1.0394 -0.4940
 9914SOL     OW40420   9.459   6.256   0.616  0.3713 -0.1265  0.0168
 9914SOL    HW140421   9.512   6.173   0.598  0.6838  0.0464  0.1298
 9914SOL    HW240422   9.509   6.336   0.581 -0.1426 -0.0321 -0.5033
 9915SOL     OW40423   9.436   3.214   4.732  0.5228  0.6598  0.2110
 9915SOL    HW140424   9.475   3.133   4.687  0.1617  1.1528 -1.0220
 9915SOL    HW240425   9.428   3.197   4.830  0.2653 -0.8755 -0.0613
 9916SOL     OW40426   9.029   9.902   1.495 -0.3876 -0.3304 -0.2410
 9916SOL    HW140427   9.127   9.908   1.516 -0.6992 -0.5528  1.3423
 9916SOL    HW240428   8.997   9.809   1.513 -1.2962  0.2289  1.0931
 9917SOL     OW40429   0.435   0.785   0.909  0.1234  0.0777  0.0271
 9917SOL    HW140430   0.454   0.735   0.994  0.4185  0.6959  0.3206
 9917SOL    HW240431   0.427   0.882   0.929  0.1695  0.2176 -0.6525
 9918SOL     OW40432   0.701   2.638   4.217  0.3982 -0.5401 -0.0576
 9918SOL    HW140433   0.783   2.585   4.196  0.7988 -0.0487  0.2685
 9918SOL    HW240434   0.625   2.575   4.235  0.9040 -1.0092  0.4690
 9919SOL     OW40435   1.609   1.019   2.787  0.5141 -0.0224 -0.2766
 9919SOL    HW140436   1.579   1.110   2.761  0.7511  0.3998  0.8959
 9919SOL    HW240437   1.554   0.950   2.740  0.5579  0.7212 -1.4240
 9920SOL     OW40438   9.490   1.105   2.937 -0.0280 -0.3204 -0.3026
 9920SOL    HW140439   9.523   1.147   2.852 -1.1494 -0.7828 -0.9810
 9920SOL    HW240440   9.521   1.010   2.941 -2.0273 -1.0385 -1.3955
 9921SOL     OW40441   5.133   0.728   0.487  0.0577 -0.4221  0.1626
 9921SOL    HW140442   5.213   0.777   0.521  2.7706 -1.3923 -4.4425
 9921SOL    HW240443   5.061   0.794   0.463  2.0780  1.0907 -1.9805
 9922SOL     OW40444   9.718   7.673   4.543  0.4478 -0.0148 -0.4174
 9922SOL    HW140445   9.725   7.573   4.532  0.4501 -0.1430  0.7013
 9922SOL    HW240446   9.784   7.717   4.482 -0.7579 -0.6274 -2.1869
 9923SOL     OW40447   5.212   1.545   2.713  0.2030 -0.2218 -0.0652
 9923SOL    HW140448   5.258   1.458   2.728 -1.1287 -0.8255  0.7049
 9923SOL    HW240449   5.132   1.550   2.773  0.3549  1.6010  0.0125
 9924SOL     OW40450   2.252   8.365   0.210  0.0069 -0.1736 -0.6056
 9924SOL    HW140451   2.171   8.416   0.238  0.3220 -0.2322  0.4254
 9924SOL    HW240452   2.224   8.283   0.161 -0.5921 -0.5877  0.4119
 9925SOL     OW40453   2.484   7.004   0.732 -0.0360  0.2445  0.7062
 9925SOL    HW140454   2.545   7.052   0.794  1.5965 -0.4732 -0.3297
 9925SOL    HW240455   2.536   6.963   0.657 -1.6351 -1.4061  0.4504
 9926SOL     OW40456   3.260   7.867   1.913  0.4034 -0.0501 -0.7679
 9926SOL    HW140457   3.290   7.954   1.953 -0.5685  1.2079 -2.6771
 9926SOL    HW240458   3.291   7.862   1.818 -0.7655 -1.1741 -1.1063
 9927SOL     OW40459   7.768   9.956   1.077  0.2720  0.2128 -0.0060
 9927SOL    HW140460   7.857   9.957   1.031 -0.4311 -2.3319 -1.5425
 9927SOL    HW240461   7.773   9.894   1.156  0.0173  0.4973  0.2315
 9928SOL     OW40462   0.958   5.551   3.476 -0.5090  0.1646 -0.2549
 9928SOL    HW140463   0.883   5.509   3.526 -0.7363 -1.3259 -1.7899
 9928SOL    HW240464   0.934   5.644   3.451 -1.0250  0.3816  1.0095
 9929SOL     OW40465   9.862   3.966   0.109 -0.1668  0.2840  0.2728
 9929SOL    HW140466   9.891   4.044   0.164 -0.6382  0.4149  0.3416
 9929SOL    HW240467   9.830   3.893   0.170 -0.2541  0.2531  0.1904
 9930SOL     OW40468   3.043   0.618   2.968 -0.0755 -0.2024  0.5370
 9930SOL    HW140469   3.002   0.709   2.975 -0.9348 -0.4028 -1.5825
 9930SOL    HW240470   3.093   0.610   2.882  1.3043 -1.2351  1.4129
 9931SOL     OW40471   9.715   5.357   3.513  0.1787  0.3559  0.3002
 9931SOL    HW140472   9.727   5.450   3.548  1.7488  0.3192 -0.0634
 9931SOL    HW240473   9.688   5.361   3.417  0.9458  0.4527  0.0811
 9932SOL     OW40474   9.882   5.644   2.286 -0.2750 -0.5097  0.5558
 9932SOL    HW140475   9.962   5.624   2.228 -0.3733  0.7747 -0.0508
 9932SOL    HW240476   9.836   5.725   2.251 -0.2658  0.3779  2.5213
 9933SOL     OW40477   6.161   8.806   2.797  0.5411  0.4405  0.2135
 9933SOL    HW140478   6.255   8.795   2.828  0.5270 -0.6058 -0.0909
 9933SOL    HW240479   6.141   8.903   2.785  2.5160  0.5647 -2.5365
 9934SOL     OW40480   1.321   8.448   4.287 -0.0911 -0.3320  0.4593
 9934SOL    HW140481   1.329   8.474   4.383  0.5619  0.8444  0.0963
 9934SOL    HW240482   1.227   8.463   4.256 -0.0864  0.1181  0.6687
 9935SOL     OW40483   3.055   3.603   2.656 -0.7369  0.1409 -0.4610
 9935SOL    HW140484   3.032   3.677   2.593 -0.0344  0.5013 -0.2964
 9935SOL    HW240485   3.112   3.536   2.610  2.4176  1.9744  0.6385
 9936SOL     OW40486   2.732   0.636   1.107 -0.1560  0.1243 -0.3465
 9936SOL    HW140487   2.640   0.635   1.067  0.1364 -0.9367 -0.9936
 9936SOL    HW240488   2.726   0.669   1.201 -1.4852 -1.9069  0.3101
 9937SOL     OW40489   1.973   6.170   2.824 -0.9801 -0.0747 -0.2798
 9937SOL    HW140490   1.950   6.229   2.747  2.4250  1.4050 -0.2515
 9937SOL    HW240491   1.970   6.074   2.795 -3.9336  0.1965 -1.0409
 9938SOL     OW40492   2.665   1.750   2.486  0.3395  0.3816  0.7614
 9938SOL    HW140493   2.657   1.688   2.408  1.1595  1.8181 -0.4941
 9938SOL    HW240494   2.748   1.806   2.475  0.7951  0.1821  2.9664
 9939SOL     OW40495   1.719   1.877   1.501 -0.5449  0.0322  0.5296
 9939SOL    HW140496   1.762   1.896   1.589  1.3368 -0.0848 -0.3172
 9939SOL    HW240497   1.685   1.783   1.500 -1.8479  0.4899  1.6189
 9940SOL     OW40498   7.025   9.768   1.509 -0.0823  0.4981  0.0031
 9940SOL    HW140499   7.029   9.832   1.432  0.5987 -1.1508 -1.3739
 9940SOL    HW240500   6.952   9.702   1.493 -1.0355  1.1183  1.6058
 9941SOL     OW40501   4.636   9.071   4.028 -0.0320  0.4550  0.1375
 9941SOL    HW140502   4.605   9.046   4.120 -2.3452  0.0936 -0.6957
 9941SOL    HW240503   4.564   9.126   3.983  1.1670  0.8201 -1.3702
 9942SOL     OW40504   1.954   0.425   3.862 -0.1918  0.1437  0.3535
 9942SOL    HW140505   1.982   0.358   3.930 -0.4169 -0.1350  0.1719
 9942SOL    HW240506   1.983   0.516   3.892  0.5803 -0.0949  0.3387
 9943SOL     OW40507   3.536   1.162   0.735  0.4950 -0.0421  0.3440
 9943SOL    HW140508   3.500   1.077   0.697 -0.0402 -0.1591  1.0933
 9943SOL    HW240509   3.479   1.190   0.813  1.4709  0.2771  0.9496
 9944SOL     OW40510   3.797   6.202   1.429 -0.3612 -0.1810  0.2088
 9944SOL    HW140511   3.744   6.133   1.478 -1.8514 -0.2276 -1.4145
 9944SOL    HW240512   3.883   6.161   1.396 -1.1356 -1.2324 -0.5605
 9945SOL     OW40513   0.452   0.422   1.542  0.1433  0.3141 -0.0920
 9945SOL    HW140514   0.422   0.331   1.571  0.0445  0.5987  0.7193
 9945SOL    HW240515   0.416   0.441   1.451 -2.4483  0.7642  0.9717
 9946SOL     OW40516   1.174   4.020   1.436  0.0147  0.1595 -0.3598
 9946SOL    HW140517   1.140   3.949   1.374 -0.1572  1.8959 -2.3001
 9946SOL    HW240518   1.101   4.045   1.501 -1.3723  1.5251 -2.3853
 9947SOL     OW40519   8.452   0.254   3.536  0.9916 -0.6411  0.0120
 9947SOL    HW140520   8.472   0.278   3.631 -2.1622 -2.0755  1.1072
 9947SOL    HW240521   8.534   0.221   3.491  2.5430  0.1615  2.2007
 9948SOL     OW40522   1.323   4.933   4.136  0.3359  0.6058 -0.2331
 9948SOL    HW140523   1.250   4.872   4.105  0.7355  0.6211 -1.2199
 9948SOL    HW240524   1.290   4.990   4.211 -0.9114  1.1885 -1.2215
 9949SOL     OW40525   0.170   1.097   1.117  0.3693  0.4188  0.0069
 9949SOL    HW140526   0.121   1.042   1.184 -0.9309 -0.9485 -1.9822
 9949SOL    HW240527   0.190   1.187   1.155 -0.5717 -0.2284  2.1044
 9950SOL     OW40528   1.031   2.032   3.814  0.2267  0.5536 -0.0015
 9950SOL    HW140529   1.045   2.126   3.783  0.7952  0.2481 -0.6708
 9950SOL    HW240530   0.939   2.002   3.789  0.4486  0.5361 -0.7850
 9951SOL     OW40531   9.793   1.276   2.487  0.3806  0.1781 -0.0506
 9951SOL    HW140532   9.884   1.257   2.450  0.0912  0.8386 -1.1437
 9951SOL    HW240533   9.750   1.348   2.432  0.1480  1.5700  1.9033
 9952SOL     OW40534   3.079   4.167   3.072  0.1055 -0.4437  0.2159
 9952SOL    HW140535   3.137   4.231   3.023  0.8227 -0.6576  0.7791
 9952SOL    HW240536   3.074   4.081   3.022 -0.8922  0.0649 -0.5620
 9953SOL     OW40537   2.443   5.340   4.633  0.6581  0.3275 -0.5185
 9953SOL    HW140538   2.411   5.257   4.587  2.8302  0.2703 -1.9948
 9953SOL    HW240539   2.476   5.317   4.724  1.1371 -0.4157 -0.8777
 9954SOL     OW40540   3.333   4.775   3.555 -0.5200  0.2628 -0.2163
 9954SOL    HW140541   3.396   4.699   3.542  0.9441  1.0328  2.0124
 9954SOL    HW240542   3.248   4.742   3.597 -0.2512 -0.2641 -0.0900
 9955SOL     OW40543   1.556   4.529   1.104  0.4322 -0.3281 -0.3192
 9955SOL    HW140544   1.559   4.437   1.143 -0.2262 -0.0924  0.2843
 9955SOL    HW240545   1.483   4.581   1.147  3.0511  1.6591  1.9521
 9956SOL     OW40546   8.563   1.952   0.927 -0.1035 -0.1358 -0.1481
 9956SOL    HW140547   8.525   2.001   1.005 -2.2465 -0.0502 -1.2100
 9956SOL    HW240548   8.642   2.002   0.891 -0.5597  1.0655  0.4932
 9957SOL     OW40549   7.475   6.947   1.894  0.1744 -0.4197 -0.2924
 9957SOL    HW140550   7.452   7.034   1.850  1.8655  0.3760  0.3409
 9957SOL    HW240551   7.555   6.960   1.953 -1.2618 -1.7699  2.0060
 9958SOL     OW40552   9.112   2.446   1.427  0.1752 -0.1268 -0.3245
 9958SOL    HW140553   9.097   2.363   1.373  0.4822  1.2833 -2.6471
 9958SOL    HW240554   9.191   2.495   1.390  1.0726  0.3238  2.1290
 9959SOL     OW40555   9.873   8.205   0.327  0.2669  0.5882  0.2212
 9959SOL    HW140556   9.948   8.268   0.308  0.4580  0.3815  0.2922
 9959SOL    HW240557   9.908   8.124   0.375 -0.1907  1.0457  1.3553
 9960SOL     OW40558   7.870   2.833   2.021  0.0415 -0.8811 -0.3665
 9960SOL    HW140559   7.797   2.790   1.967 -0.3936 -2.1606  1.2087
 9960SOL    HW240560   7.897   2.772   2.095 -0.2912  1.3669  1.6896
 9961SOL     OW40561   2.392   3.153   1.344  0.3750  0.2962  0.8116
 9961SOL    HW140562   2.365   3.219   1.414 -1.6845 -1.0199  1.3128
 9961SOL    HW240563   2.356   3.181   1.256  1.1942  0.8626  0.6509
 9962SOL     OW40564   3.201   2.550   2.422  0.5047 -0.5392  0.4126
 9962SOL    HW140565   3.172   2.589   2.335  0.9780  0.0484  0.5133
 9962SOL    HW240566   3.301   2.555   2.430  0.3553  0.8872  1.6656
 9963SOL     OW40567   9.334   6.960   0.313  0.5432 -0.2788 -0.0016
 9963SOL    HW140568   9.262   6.956   0.382 -0.5967 -0.2418 -1.1743
 9963SOL    HW240569   9.354   7.056   0.291  0.0746 -0.3018 -0.5582
 9964SOL     OW40570   3.498   2.809   2.763 -0.1000  0.2122  0.1882
 9964SOL    HW140571   3.529   2.821   2.668  0.4233  0.8791  0.4334
 9964SOL    HW240572   3.445   2.725   2.771  0.2124 -0.0656 -0.6122
 9965SOL     OW40573   6.768   9.567   0.860 -0.3411 -0.0062 -0.3229
 9965SOL    HW140574   6.691   9.616   0.902  0.0578 -0.5697  1.1093
 9965SOL    HW240575   6.752   9.469   0.866  0.9142 -0.1556  0.8606
 9966SOL     OW40576   3.268   8.659   3.678  0.4109  0.5317  0.5501
 9966SOL    HW140577   3.315   8.747   3.673  0.1050  0.6461 -0.3476
 9966SOL    HW240578   3.258   8.621   3.586  1.1427 -0.7614  0.9914
 9967SOL     OW40579   2.380   7.284   0.909 -0.2731 -0.7031 -0.2547
 9967SOL    HW140580   2.416   7.348   0.841 -1.2374 -1.3048 -1.3473
 9967SOL    HW240581   2.320   7.334   0.973 -0.3292 -0.3625 -0.5714
 9968SOL     OW40582   2.665   2.150   3.339  0.2534  0.2246 -0.1429
 9968SOL    HW140583   2.677   2.249   3.351 -0.4576  0.3571 -0.4794
 9968SOL    HW240584   2.570   2.126   3.360  0.0519 -0.1634 -1.4511
 9969SOL     OW40585   2.088   2.674   1.724  0.4908  1.1318 -0.1182
 9969SOL    HW140586   2.079   2.736   1.802 -0.5717  1.4365 -0.4753
 9969SOL    HW240587   2.159   2.708   1.662  0.2350  1.7434 -0.0751
 9970SOL     OW40588   3.480   7.018   0.974 -0.0338  0.0910  0.5582
 9970SOL    HW140589   3.399   6.963   0.994 -0.2293  0.3882  0.5862
 9970SOL    HW240590   3.526   7.041   1.060 -0.1134  0.2158  0.5670
 9971SOL     OW40591   2.083   8.806   3.070 -0.2348  0.0793  0.6524
 9971SOL    HW140592   1.990   8.833   3.094 -0.5461  0.4641 -0.9294
 9971SOL    HW240593   2.081   8.750   2.987  1.0603  1.2380 -0.1683
 9972SOL     OW40594   1.181   5.657   3.660  0.3284  0.4327 -0.1264
 9972SOL    HW140595   1.119   5.624   3.589  0.3078  2.3749 -1.0235
 9972SOL    HW240596   1.272   5.620   3.645 -0.5267 -2.3690  1.1464
 9973SOL     OW40597   2.388   8.388   1.286  0.0817 -0.5263  0.2224
 9973SOL    HW140598   2.322   8.437   1.342 -1.0824 -0.8056 -0.8922
 9973SOL    HW240599   2.394   8.292   1.317  1.2540 -0.0862  1.4277
 9974SOL     OW40600   3.564   5.815   2.093  0.0003  0.3314  0.3336
 9974SOL    HW140601   3.509   5.743   2.136  2.3388 -1.1705  0.8746
 9974SOL    HW240602   3.518   5.846   2.010 -0.4128 -2.6815 -0.5998
 9975SOL     OW40603   8.585   7.739   4.645  0.2865  0.4813 -0.3305
 9975SOL    HW140604   8.607   7.808   4.714 -0.3516  0.2717  0.0870
 9975SOL    HW240605   8.492   7.753   4.613 -0.1719 -0.7492  0.4321
 9976SOL     OW40606   5.023   0.419   2.775 -0.3043 -0.3090 -0.0027
 9976SOL    HW140607   4.969   0.460   2.848 -3.5328 -0.8949 -1.9850
 9976SOL    HW240608   5.035   0.321   2.792  1.2123  0.0538  1.0610
 9977SOL     OW40609   7.970   8.945   0.455 -0.0732 -0.0096  0.2261
 9977SOL    HW140610   7.879   8.964   0.420  0.0903 -0.1492 -0.2835
 9977SOL    HW240611   7.990   8.848   0.446  0.5582  0.1983 -0.7311
 9978SOL     OW40612   8.155   2.442   3.480  0.1022 -0.0411 -0.3615
 9978SOL    HW140613   8.225   2.480   3.420  1.7751 -0.7315  1.1025
 9978SOL    HW240614   8.121   2.356   3.442  1.2849 -0.5700 -0.2206
 9979SOL     OW40615   2.614   4.865   2.146 -0.2872  0.5667 -0.3684
 9979SOL    HW140616   2.556   4.872   2.227 -0.3125  0.7994 -0.4056
 9979SOL    HW240617   2.658   4.953   2.129  1.2496 -0.0006  0.5349
 9980SOL     OW40618   9.725   0.203   1.223  0.1047  0.2921  0.2067
 9980SOL    HW140619   9.690   0.109   1.233 -2.5260  1.3601  1.4978
 9980SOL    HW240620   9.757   0.217   1.129  0.6949 -1.9267  0.0447
 9981SOL     OW40621   2.506   5.093   3.225  0.4286  0.2152 -0.3205
 9981SOL    HW140622   2.516   5.177   3.279  0.9981 -0.0650  0.0246
 9981SOL    HW240623   2.409   5.074   3.210  0.3075  1.1455 -0.7383
 9982SOL     OW40624   6.576   8.595   3.194 -0.3764  0.3710 -0.1650
 9982SOL    HW140625   6.574   8.616   3.096 -1.5031 -1.1495 -0.4841
 9982SOL    HW240626   6.632   8.513   3.209 -1.5943 -0.3954  0.2546
 9983SOL     OW40627   5.175   2.338   0.822 -0.4617 -0.3570 -0.7640
 9983SOL    HW140628   5.163   2.344   0.723 -0.7725 -0.0958 -0.7122
 9983SOL    HW240629   5.269   2.309   0.843 -0.2660  0.0176 -1.1236
 9984SOL     OW40630   9.456   2.494   1.547  0.0487 -0.1715  0.6191
 9984SOL    HW140631   9.416   2.489   1.455 -1.1048 -0.4724  1.1194
 9984SOL    HW240632   9.382   2.495   1.615  0.8923  0.0946  1.5392
 9985SOL     OW40633   5.249   8.975   1.677  0.4011 -0.1517  0.7417
 9985SOL    HW140634   5.155   8.945   1.659  0.1059  0.2349  1.5964
 9985SOL    HW240635   5.247   9.062   1.725  1.2246  0.2813 -0.0035
 9986SOL     OW40636   2.854   3.270   4.517  0.1752  0.0125  0.3069
 9986SOL    HW140637   2.815   3.188   4.560  1.0470  0.7289  2.5470
 9986SOL    HW240638   2.789   3.306   4.450 -0.4948 -2.1243 -0.2225
 9987SOL     OW40639   2.708   3.579   3.328  0.0131 -0.4337 -0.1304
 9987SOL    HW140640   2.773   3.650   3.354  1.1458 -1.1577 -0.9308
 9987SOL    HW240641   2.642   3.616   3.263 -0.8516  0.5030  1.2551
 9988SOL     OW40642   9.750   9.719   3.067 -0.1190 -0.1607 -0.3946
 9988SOL    HW140643   9.801   9.710   3.152 -1.3603  1.2267  0.5085
 9988SOL    HW240644   9.804   9.681   2.992  1.4362 -0.4250  0.8371
 9989SOL     OW40645   3.859   3.610   3.915  0.0016 -0.3773 -0.4140
 9989SOL    HW140646   3.792   3.595   3.988  0.9229 -1.9434  0.1476
 9989SOL    HW240647   3.931   3.671   3.949 -0.1102 -0.2835 -0.3472
 9990SOL     OW40648   3.498   4.649   1.813 -0.0592  0.2793 -0.6292
 9990SOL    HW140649   3.430   4.674   1.744 -0.1220  0.9039 -0.3448
 9990SOL    HW240650   3.531   4.732   1.859  0.8741 -0.0273 -0.7399
 9991SOL     OW40651   3.556   0.338   0.490  0.5364  0.4286 -0.4287
 9991SOL    HW140652   3.535   0.253   0.539  1.5749  1.2720  1.5505
 9991SOL    HW240653   3.517   0.334   0.398 -2.5367 -0.7160  0.8590
 9992SOL     OW40654   9.102   7.539   1.540 -0.3059 -0.1534  0.1201
 9992SOL    HW140655   9.195   7.503   1.536 -0.4248 -0.4321 -0.1145
 9992SOL    HW240656   9.080   7.583   1.453 -1.3517 -2.4546 -0.8217
 9993SOL     OW40657   1.116   3.625   2.364  0.1318 -0.1044  0.5077
 9993SOL    HW140658   1.104   3.621   2.265  0.6202  0.8355  0.4069
 9993SOL    HW240659   1.040   3.578   2.409 -1.4954  1.7507 -0.2419
 9994SOL     OW40660   0.401   2.510   2.762  0.7751  0.3915  0.3684
 9994SOL    HW140661   0.347   2.431   2.732  0.5115  0.1658  1.4130
 9994SOL    HW240662   0.498   2.490   2.752  0.7021  0.1483  0.1194
 9995SOL     OW40663   8.187   9.580   4.576  0.0966 -0.0313  0.6486
 9995SOL    HW140664   8.166   9.666   4.623 -0.6880 -0.4395  1.0455
 9995SOL    HW240665   8.214   9.511   4.643 -0.6301 -0.4983  0.4634
 9996SOL     OW40666   4.985   9.312   1.360 -0.9533  0.0139 -0.0036
 9996SOL    HW140667   4.923   9.236   1.342 -0.1982 -1.0330  1.7329
 9996SOL    HW240668   5.073   9.277   1.392  0.5821  1.4927 -2.4553
 9997SOL     OW40669   2.267   2.321   3.198 -0.0723 -0.0480 -0.0547
 9997SOL    HW140670   2.215   2.352   3.278 -0.2671 -0.5612  0.0187
 9997SOL    HW240671   2.210   2.260   3.143  0.8015 -1.4617  0.5862
 9998SOL     OW40672   7.705   7.404   3.190  0.5637  0.0056  0.2898
 9998SOL    HW140673   7.614   7.390   3.150  0.3250 -1.2611  1.2396
 9998SOL    HW240674   7.734   7.499   3.176 -1.1031  0.5403  0.3905
 9999SOL     OW40675   8.957   9.382   3.383  0.1105 -0.0880  0.0752
 9999SOL    HW140676   9.001   9.390   3.472 -1.0061  0.0951  0.6176
 9999SOL    HW240677   8.993   9.301   3.335 -0.2502 -0.9550  1.2390
10000SOL     OW40678   7.251   0.164   0.852 -0.0370  0.1963 -0.3192
10000SOL    HW140679   7.269   0.188   0.757 -1.7064  1.7736 -0.2761
10000SOL    HW240680   7.203   0.077   0.856  0.0189  0.1375 -0.9362
10001SOL     OW40681   2.723   9.743   2.300  0.0244 -0.5601  0.0878
10001SOL    HW140682   2.755   9.827   2.256  0.7686  0.1456  1.9207
10001SOL    HW240683   2.800   9.696   2.343 -0.6234 -1.3978  0.3493
10002SOL     OW40684   4.154   3.264   3.784 -0.0665  0.1080  1.0373
10002SOL    HW140685   4.213   3.333   3.742 -1.1784  0.8474  0.6371
10002SOL    HW240686   4.168   3.263   3.883 -0.3253  1.2150  1.0957
10003SOL     OW40687   9.983   6.512   1.522  0.1572  0.6349  0.3334
10003SOL    HW140688  10.002   6.447   1.448 -0.7589  0.5902  0.1365
10003SOL    HW240689  10.029   6.599   1.502 -1.8963  1.3693 -1.4185
10004SOL     OW40690   7.952   2.683   2.232 -0.0955 -0.2739 -0.1999
10004SOL    HW140691   8.047   2.691   2.263  0.4107 -2.7781 -0.9528
10004SOL    HW240692   7.890   2.711   2.305  1.1987  0.7269  0.5384
10005SOL     OW40693   8.044   2.115   0.919 -0.0676 -0.2690 -0.4625
10005SOL    HW140694   8.063   2.093   1.014  0.5148  2.0176 -0.0139
10005SOL    HW240695   8.076   2.041   0.860  0.3021 -1.3298  1.0638
10006SOL     OW40696   1.895   4.334   0.799  0.1784  0.2559  0.2729
10006SOL    HW140697   1.804   4.323   0.758 -0.5400  0.6484  1.7390
10006SOL    HW240698   1.909   4.430   0.824  0.7201  0.0689  0.6914
10007SOL     OW40699   1.014   3.243   3.553 -0.3627 -0.2610  0.3075
10007SOL    HW140700   0.975   3.185   3.481  1.3144 -1.3313  0.2413
10007SOL    HW240701   0.999   3.200   3.642  1.6277 -1.2759  0.1917
10008SOL     OW40702   5.074   2.750   0.619  0.0944  0.0630  0.1877
10008SOL    HW140703   5.074   2.734   0.717 -0.6748  2.1227  0.5343
10008SOL    HW240704   5.162   2.789   0.591  0.4166 -0.7866  0.0096
10009SOL     OW40705   8.608   3.098   2.867 -0.2491  0.1978 -0.6177
10009SOL    HW140706   8.544   3.026   2.841 -0.6974  1.1652 -2.3539
10009SOL    HW240707   8.639   3.084   2.961 -0.7263 -1.9391 -0.7507
10010SOL     OW40708   9.526   6.778   0.392 -0.1946 -0.3208 -0.6796
10010SOL    HW140709   9.505   6.766   0.489 -0.4258 -0.8120 -0.7920
10010SOL    HW240710   9.468   6.850   0.354  0.5719  0.5398 -0.2211
10011SOL     OW40711   8.188   5.883   2.614 -0.1969  0.8878 -0.0561
10011SOL    HW140712   8.211   5.941   2.536 -0.3531 -0.2106 -0.9199
10011SOL    HW240713   8.270   5.865   2.668 -0.0564  1.4870 -0.0698
10012SOL     OW40714   9.994   8.660   1.339  0.2151  0.1818 -0.3658
10012SOL    HW140715   9.973   8.575   1.388 -0.8573  2.4581  3.3890
10012SOL    HW240716  10.090   8.658   1.310 -0.1317 -2.7892 -1.4999
10013SOL     OW40717   0.320   0.294   3.626  0.1852 -0.8379 -0.4138
10013SOL    HW140718   0.337   0.350   3.707  0.7001  1.0281 -1.7756
10013SOL    HW240719   0.389   0.222   3.621  0.3697 -0.7486  0.6012
10014SOL     OW40720   8.602   2.544   0.533 -0.1179 -0.0379  0.1186
10014SOL    HW140721   8.620   2.612   0.462 -1.4994  1.7464  1.3996
10014SOL    HW240722   8.655   2.461   0.516 -1.5252 -0.2394 -3.8098
10015SOL     OW40723   1.492   1.987   0.291 -0.5061 -0.2232 -0.0532
10015SOL    HW140724   1.520   1.891   0.294 -0.2728 -0.1313  0.9903
10015SOL    HW240725   1.506   2.023   0.198  0.0535 -1.0027 -0.2797
10016SOL     OW40726   0.683   6.326   4.290 -0.6700  0.1304  0.1854
10016SOL    HW140727   0.749   6.388   4.334 -1.4052 -0.2951  1.9272
10016SOL    HW240728   0.732   6.255   4.241  0.1806  0.4823  0.5083
10017SOL     OW40729   9.647   7.536   3.883 -0.9025 -0.1909 -0.6773
10017SOL    HW140730   9.556   7.575   3.865 -0.1774  1.0712 -1.6856
10017SOL    HW240731   9.675   7.481   3.805 -0.2561  0.4607 -0.9030
10018SOL     OW40732   3.320   2.935   1.733 -0.4212  0.3029  1.2098
10018SOL    HW140733   3.353   2.928   1.827  1.1590 -0.9937  0.5898
10018SOL    HW240734   3.356   3.017   1.690 -0.5913  0.5391  1.5178
10019SOL     OW40735   4.812   1.320   0.674 -0.3515 -0.2067  0.0679
10019SOL    HW140736   4.895   1.375   0.663 -0.6791  0.1274 -0.8094
10019SOL    HW240737   4.744   1.372   0.724 -0.2849 -0.2194  0.1724
10020SOL     OW40738   9.813   0.781   2.327  0.5022 -0.5755  0.1645
10020SOL    HW140739   9.911   0.779   2.308  1.0216 -2.5194  2.6552
10020SOL    HW240740   9.773   0.693   2.303 -0.0735 -0.7275  1.6105
10021SOL     OW40741   7.500   9.175   0.277  0.3457 -0.0920 -0.5751
10021SOL    HW140742   7.582   9.160   0.221  0.1518  0.8433 -1.1205
10021SOL    HW240743   7.517   9.248   0.342 -0.1518  0.3010 -0.8843
10022SOL     OW40744   2.735   0.906   2.125  0.1836 -0.1120  0.0505
10022SOL    HW140745   2.818   0.954   2.156  0.8216 -0.4059 -1.1717
10022SOL    HW240746   2.655   0.963   2.143  0.7001  0.4038  0.7591
10023SOL     OW40747   9.784   8.570   2.973 -0.3821 -0.5762 -0.0008
10023SOL    HW140748   9.832   8.657   2.973 -1.3256 -0.0543  0.1644
10023SOL    HW240749   9.796   8.524   3.061  0.4278 -0.7970 -0.2194
10024SOL     OW40750   0.487   1.161   0.166  0.0250 -0.2122  0.3118
10024SOL    HW140751   0.394   1.167   0.202 -0.3474  0.1598 -0.6994
10024SOL    HW240752   0.505   1.067   0.137 -0.1183 -0.2366  0.3007
10025SOL     OW40753   8.540   4.710   2.817 -0.0094 -0.3230  0.3751
10025SOL    HW140754   8.596   4.785   2.782  0.9190 -1.0370  0.3191
10025SOL    HW240755   8.484   4.743   2.893 -1.6113  1.1024 -1.3806
10026SOL     OW40756   9.182   0.678   1.978 -0.3770 -0.3188 -0.2255
10026SOL    HW140757   9.136   0.710   2.061  0.5432 -0.2465  0.2635
10026SOL    HW240758   9.157   0.737   1.901  0.8777  1.2594  0.5529
10027SOL     OW40759   3.999   0.766   0.125 -0.1930 -0.7325  0.0453
10027SOL    HW140760   3.975   0.825   0.202 -0.2886 -0.5711 -0.1083
10027SOL    HW240761   4.070   0.701   0.153  0.9719  0.4199 -0.1912
10028SOL     OW40762   1.753   1.930   1.795  1.2055  0.6303  0.0580
10028SOL    HW140763   1.750   1.838   1.835  2.7446  0.9308  0.8948
10028SOL    HW240764   1.699   1.992   1.852  0.5637  0.3493 -0.2400
10029SOL     OW40765   9.017   0.605   0.869 -0.2123  0.2599 -0.1284
10029SOL    HW140766   9.101   0.657   0.880  0.7819 -1.6142  1.2873
10029SOL    HW240767   9.013   0.532   0.937 -2.6726 -0.1024 -0.5957
10030SOL     OW40768   0.702   6.803   2.662  0.3814  0.3011 -0.4388
10030SOL    HW140769   0.626   6.867   2.649 -0.0695  0.1845  1.4563
10030SOL    HW240770   0.727   6.763   2.574 -1.9089  0.1670 -1.0648
10031SOL     OW40771   2.264   9.166   2.381  0.0611  0.2107 -0.0181
10031SOL    HW140772   2.179   9.213   2.356  1.2077  1.7901 -0.9827
10031SOL    HW240773   2.255   9.068   2.360 -1.1499  0.5333 -1.0353
10032SOL     OW40774   2.273   2.829   2.054  0.0432 -0.5803  0.4780
10032SOL    HW140775   2.274   2.773   2.137  0.3612  0.5646  1.2517
10032SOL    HW240776   2.333   2.788   1.986  1.0528 -0.6545  1.4048
10033SOL     OW40777   8.516   7.082   4.070  0.3085 -0.0165  0.0003
10033SOL    HW140778   8.601   7.029   4.077 -0.3583 -1.2297 -0.7779
10033SOL    HW240779   8.476   7.093   4.161  0.2705 -1.2071  0.1452
10034SOL     OW40780   2.909   1.171   1.011 -0.0901 -0.4519 -0.3502
10034SOL    HW140781   2.937   1.182   1.106  1.6006  0.9534 -0.9760
10034SOL    HW240782   2.913   1.074   0.986 -0.5659 -0.8290  1.0161
10035SOL     OW40783   9.756   4.381   1.611 -0.0154  0.0066 -0.1124
10035SOL    HW140784   9.675   4.386   1.669  1.1590 -1.2333  1.6534
10035SOL    HW240785   9.804   4.295   1.627  1.1850  0.3372 -1.7848
10036SOL     OW40786   8.186   9.569   0.636  0.2332 -0.0504  0.9473
10036SOL    HW140787   8.090   9.584   0.610  0.0984  1.2773  2.1368
10036SOL    HW240788   8.190   9.498   0.706  0.1420 -0.3318  0.6654
10037SOL     OW40789   5.294   3.514   0.063 -0.1715  0.3350 -0.5123
10037SOL    HW140790   5.367   3.462   0.020  0.2438  0.1302  0.4213
10037SOL    HW240791   5.318   3.532   0.159 -1.2869  0.3643 -0.2323
10038SOL     OW40792   1.245   1.936   0.662 -0.3269 -0.6110 -0.0675
10038SOL    HW140793   1.187   1.976   0.732 -1.3514 -2.0636 -0.0689
10038SOL    HW240794   1.324   1.996   0.645 -1.0308  0.6267  1.0030
10039SOL     OW40795   7.304   7.829   1.502 -0.4514 -0.1902  0.0511
10039SOL    HW140796   7.355   7.747   1.474 -0.4719  0.2079 -1.1725
10039SOL    HW240797   7.226   7.842   1.441  0.9502  2.1238 -1.3408
10040SOL     OW40798   0.900   0.029   4.259  0.7696  0.3199  0.0994
10040SOL    HW140799   0.845   0.052   4.340  1.1736 -1.2398  0.8363
10040SOL    HW240800   0.972  -0.035   4.285  1.3358  0.3369 -1.3756
10041SOL     OW40801   2.439   5.012   0.076  0.3333  0.5434  0.3486
10041SOL    HW140802   2.481   4.968   0.155  3.0129  0.2882 -1.1653
10041SOL    HW240803   2.496   5.088   0.046 -1.3092  1.4327 -0.5854
10042SOL     OW40804   1.782   2.480   0.991 -0.1896 -0.8748 -0.0371
10042SOL    HW140805   1.838   2.458   0.912  0.6186 -1.5275  0.7006
10042SOL    HW240806   1.793   2.576   1.015  1.7619 -1.3432  0.9891
10043SOL     OW40807   0.810   4.352   0.655 -0.2203 -0.1219  0.5247
10043SOL    HW140808   0.890   4.361   0.714 -0.4643  0.6962  0.7364
10043SOL    HW240809   0.749   4.282   0.692 -0.9273  1.1977  1.8964
10044SOL     OW40810   7.884   1.782   1.339  0.0067  0.0141 -0.0080
10044SOL    HW140811   7.789   1.800   1.312 -0.2195 -2.0393 -0.6099
10044SOL    HW240812   7.887   1.701   1.398  1.1833  1.1326  1.5034
10045SOL     OW40813   4.296   1.114   4.585 -0.0219  0.1959 -0.1277
10045SOL    HW140814   4.209   1.070   4.605 -0.5373  1.2265 -0.0367
10045SOL    HW240815   4.279   1.209   4.557  1.1571  0.8526  1.3262
10046SOL     OW40816   6.693   9.119   2.762  0.0470 -0.2121 -0.6659
10046SOL    HW140817   6.761   9.046   2.766 -0.0072 -0.1697  1.1384
10046SOL    HW240818   6.613   9.088   2.711  0.1953 -1.2566 -0.2618
10047SOL     OW40819   8.235   2.060   3.001 -0.2968  0.4553 -0.3891
10047SOL    HW140820   8.211   2.045   3.097  3.4672 -2.8350  0.1572
10047SOL    HW240821   8.181   1.999   2.943  1.3556 -1.6543  0.2081
10048SOL     OW40822   1.989   7.023   1.545 -0.4754 -0.1541 -0.2558
10048SOL    HW140823   2.047   7.089   1.497 -0.3694 -0.7567 -0.9695
10048SOL    HW240824   2.042   6.977   1.617 -0.3305 -0.0274 -0.2823
10049SOL     OW40825   4.414   8.068   1.983 -0.5287  0.0639  0.8494
10049SOL    HW140826   4.359   8.067   2.067  0.3307 -0.1720  1.4149
10049SOL    HW240827   4.473   7.987   1.981  0.0138  0.4660  0.3897
10050SOL     OW40828   1.066   2.311   4.635  0.1490 -0.1557 -0.1897
10050SOL    HW140829   1.015   2.395   4.657 -1.5406 -1.3886  0.7246
10050SOL    HW240830   1.079   2.258   4.719  0.2067 -1.3490 -0.9548
10051SOL     OW40831   1.072   1.537   3.218  0.7675  0.4249 -0.1407
10051SOL    HW140832   1.013   1.460   3.196  2.7627 -1.2272  0.1438
10051SOL    HW240833   1.032   1.589   3.294 -0.9639  0.1418 -0.8272
10052SOL     OW40834   3.759   9.963   3.048 -0.0384 -0.2064 -0.5811
10052SOL    HW140835   3.818   9.939   2.971  1.5107 -0.0851  0.5361
10052SOL    HW240836   3.673   9.914   3.041  0.9268 -1.8401 -1.2440
10053SOL     OW40837   8.891   0.554   0.243  0.3086  0.6465 -0.6631
10053SOL    HW140838   8.907   0.476   0.303  0.6548  1.0919 -0.1672
10053SOL    HW240839   8.854   0.523   0.155 -0.8149  0.0431  0.0195
10054SOL     OW40840   9.423   8.849   1.450 -0.3346 -0.0015  0.2139
10054SOL    HW140841   9.331   8.843   1.411  0.0157 -1.1532 -0.4298
10054SOL    HW240842   9.478   8.771   1.420  0.8492  0.6618  0.6233
10055SOL     OW40843   0.155   1.445   0.219 -0.0833 -0.1977 -0.4269
10055SOL    HW140844   0.080   1.414   0.161  0.0161  0.7264 -1.0547
10055SOL    HW240845   0.141   1.542   0.242  0.0483 -0.4678  0.8164
10056SOL     OW40846   9.089   0.138   1.693  0.3784 -0.3280  0.6118
10056SOL    HW140847   9.155   0.204   1.729  0.8625  0.0013 -0.8567
10056SOL    HW240848   9.093   0.138   1.593 -0.0558 -2.1242  0.5763
10057SOL     OW40849   0.578   4.538   2.503 -0.7527 -0.2618  0.1590
10057SOL    HW140850   0.544   4.457   2.551  0.9100 -0.8649  0.3412
10057SOL    HW240851   0.623   4.599   2.567  1.0219 -0.8284 -0.5172
10058SOL     OW40852   1.113   4.417   4.571 -0.5394  0.3532  0.0893
10058SOL    HW140853   1.022   4.460   4.575 -0.1396  1.3552 -1.1858
10058SOL    HW240854   1.179   4.475   4.617 -0.6353 -0.6416  1.4941
10059SOL     OW40855   2.624   8.385   2.136  0.1425  0.0903  0.2990
10059SOL    HW140856   2.660   8.359   2.226  1.7906 -0.4143 -0.4880
10059SOL    HW240857   2.699   8.389   2.070 -0.9263  1.3297 -0.8656
10060SOL     OW40858   4.879   0.505   4.087  0.1587 -0.3368 -0.0019
10060SOL    HW140859   4.972   0.506   4.124  0.7644 -0.4678 -1.4915
10060SOL    HW240860   4.872   0.573   4.014 -1.0173 -0.0904  0.3394
10061SOL     OW40861   0.240   8.814   0.278 -0.1435  0.4961 -0.2226
10061SOL    HW140862   0.278   8.864   0.201 -2.1525 -0.6815 -2.0464
10061SOL    HW240863   0.292   8.835   0.361  0.8763  3.2580 -1.5017
10062SOL     OW40864   0.781   7.396   3.173 -0.2417 -0.4903 -0.0437
10062SOL    HW140865   0.724   7.470   3.208  0.1659 -1.4366  2.7442
10062SOL    HW240866   0.877   7.422   3.180 -0.1447 -0.8059 -0.2109
10063SOL     OW40867   4.119   9.196   0.802  0.0653 -0.6339 -0.8994
10063SOL    HW140868   4.128   9.135   0.723 -0.4294 -2.1674  0.2189
10063SOL    HW240869   4.058   9.155   0.869  0.1328  0.8712  0.1030
10064SOL     OW40870   4.922   7.794   4.029  0.1862  0.1231 -0.4690
10064SOL    HW140871   4.961   7.702   4.034  1.3901  0.6949  1.0982
10064SOL    HW240872   4.996   7.861   4.028 -0.7125  1.1618  0.9470
10065SOL     OW40873   3.428   9.324   2.133  0.0403  0.9162 -0.0030
10065SOL    HW140874   3.495   9.391   2.166  0.7013 -0.5379  1.6225
10065SOL    HW240875   3.418   9.250   2.199 -1.2040 -0.2594 -1.4636
10066SOL     OW40876   1.524   6.604   1.878  0.2276 -0.1258  0.4838
10066SOL    HW140877   1.590   6.678   1.866  1.1116 -0.8194  0.9848
10066SOL    HW240878   1.432   6.639   1.865  0.6144  1.1394  1.0695
10067SOL     OW40879   7.565   0.257   2.387 -0.7043  0.4081  0.4134
10067SOL    HW140880   7.470   0.234   2.365 -0.5523 -0.7364  0.9170
10067SOL    HW240881   7.585   0.229   2.481  0.4109 -0.2630 -0.0169
10068SOL     OW40882   4.758   0.037   0.674  0.2836  0.3387 -0.5123
10068SOL    HW140883   4.774   0.069   0.581  0.2741  1.5285 -0.1065
10068SOL    HW240884   4.679  -0.025   0.675 -0.8664  1.7903 -0.9858
10069SOL     OW40885   3.467   7.934   1.721 -0.4772 -0.2351 -0.3053
10069SOL    HW140886   3.511   7.974   1.801  0.5966 -0.9898 -0.5087
10069SOL    HW240887   3.512   7.968   1.638 -0.6073 -0.5980 -0.5277
10070SOL     OW40888   9.840   3.466   0.557 -0.6915  0.1825  0.1122
10070SOL    HW140889   9.816   3.391   0.494  1.1273 -0.5781  0.2864
10070SOL    HW240890   9.937   3.488   0.546 -0.0652 -0.7063  3.3790
10071SOL     OW40891   1.121   6.220   3.967 -0.1168 -0.0399 -0.6564
10071SOL    HW140892   1.107   6.142   3.905  0.7189 -1.7309  1.2254
10071SOL    HW240893   1.033   6.260   3.991 -0.5301 -0.1828 -1.8924
10072SOL     OW40894   3.915   1.236   1.852 -0.2086  0.3447 -0.5275
10072SOL    HW140895   3.982   1.310   1.856  1.1432 -0.9054  0.0175
10072SOL    HW240896   3.926   1.176   1.930 -1.0840 -0.6414 -1.1501
10073SOL     OW40897   9.588   6.824   2.624  0.3472 -0.1163 -0.2736
10073SOL    HW140898   9.528   6.893   2.663 -0.2720 -1.0481  0.4400
10073SOL    HW240899   9.652   6.791   2.693 -2.3178 -3.5024  0.7370
10074SOL     OW40900   0.620   8.171   0.880 -0.1212  0.0710 -0.9151
10074SOL    HW140901   0.568   8.090   0.853 -1.3614  0.2132  0.9859
10074SOL    HW240902   0.629   8.174   0.979  2.4349  0.7417 -1.1186
10075SOL     OW40903   0.140   8.869   3.088  0.2908  0.1462  0.0344
10075SOL    HW140904   0.180   8.785   3.053 -0.4837  0.1992 -1.0101
10075SOL    HW240905   0.199   8.908   3.158 -0.3568 -2.4024  2.0733
10076SOL     OW40906   8.194   3.225   4.190  0.1801 -0.2929 -0.3248
10076SOL    HW140907   8.136   3.151   4.226  0.6871 -0.8255 -0.5901
10076SOL    HW240908   8.139   3.307   4.177  0.0508  0.0568  2.0908
10077SOL     OW40909   3.299   7.703   3.347  0.6797  0.7292  0.4047
10077SOL    HW140910   3.252   7.790   3.334  0.3253  0.3237 -1.0276
10077SOL    HW240911   3.237   7.628   3.328  1.3769  0.1742  0.2933
10078SOL     OW40912   7.841   5.650   2.367  0.3961 -0.1984  0.0360
10078SOL    HW140913   7.934   5.644   2.402  0.4193  1.6126  0.3194
10078SOL    HW240914   7.799   5.736   2.396 -1.0778 -0.6107 -0.7901
10079SOL     OW40915   1.627   5.972   4.182 -0.1921  0.1189  0.1838
10079SOL    HW140916   1.546   6.011   4.226  0.0304 -1.4487  2.0485
10079SOL    HW240917   1.700   5.961   4.250  0.3145 -1.9619 -0.6687
10080SOL     OW40918   8.429   4.901   0.393 -0.1533  0.2487 -0.4442
10080SOL    HW140919   8.422   4.969   0.466 -0.3543 -0.0626 -0.1697
10080SOL    HW240920   8.523   4.865   0.390 -0.4464 -0.6071  0.4540
10081SOL     OW40921   1.395   5.249   2.124 -0.0256  0.2453  0.1645
10081SOL    HW140922   1.339   5.223   2.203 -0.8221 -1.2547 -0.8847
10081SOL    HW240923   1.340   5.242   2.040  1.0878  0.9226 -0.6379
10082SOL     OW40924   2.474   5.446   0.202  0.4066 -0.4392  0.0379
10082SOL    HW140925   2.501   5.398   0.285  3.4320  0.4070 -0.3854
10082SOL    HW240926   2.554   5.455   0.142 -0.3194  4.1240 -0.3732
10083SOL     OW40927   0.641   2.164   2.147  0.3644  0.4901 -0.1289
10083SOL    HW140928   0.575   2.239   2.143 -0.0820  0.0333 -1.6901
10083SOL    HW240929   0.697   2.165   2.064  1.7371  0.3452  0.7900
10084SOL     OW40930   9.191   9.842   2.984 -0.2228 -0.4494 -0.0197
10084SOL    HW140931   9.226   9.805   3.071 -2.6223  0.7065  1.4984
10084SOL    HW240932   9.264   9.839   2.915  1.5030 -2.1308  1.7921
10085SOL     OW40933   2.609   7.768   2.736  0.5491 -0.2548  0.1154
10085SOL    HW140934   2.695   7.810   2.710  1.0193 -0.0431  1.9355
10085SOL    HW240935   2.626   7.694   2.802 -0.5232 -1.2752 -0.7152
10086SOL     OW40936   9.640   3.264   3.653 -0.6912  0.2603 -0.0061
10086SOL    HW140937   9.655   3.351   3.700 -0.5523 -0.6021  1.5653
10086SOL    HW240938   9.543   3.238   3.661 -1.0036  0.8567 -1.5395
10087SOL     OW40939   6.238   7.219   2.334 -0.0401  0.2186  0.2389
10087SOL    HW140940   6.267   7.225   2.430  1.6788 -0.3724 -0.2253
10087SOL    HW240941   6.276   7.295   2.283 -1.1035  0.6304  0.0562
10088SOL     OW40942   1.577   4.851   2.581 -0.0630  0.3852 -0.0651
10088SOL    HW140943   1.514   4.774   2.598 -0.1102 -0.2262 -2.7608
10088SOL    HW240944   1.548   4.899   2.498  2.0731  1.1122 -0.4135
10089SOL     OW40945   0.869   4.948   1.709  0.1350 -0.1629  0.2072
10089SOL    HW140946   0.968   4.943   1.701  0.1683  0.2954  0.3484
10089SOL    HW240947   0.829   4.864   1.672  0.5261  0.0531 -0.7090
10090SOL     OW40948   7.976   6.212   2.412 -0.3466 -0.4799 -0.5037
10090SOL    HW140949   8.050   6.196   2.477  0.3691  0.2847 -1.1183
10090SOL    HW240950   7.888   6.203   2.458  0.0838 -2.4877  0.0009
10091SOL     OW40951   6.169   8.486   2.295 -0.3485  0.0568  0.0333
10091SOL    HW140952   6.237   8.426   2.338 -2.3711 -1.0999  1.6956
10091SOL    HW240953   6.180   8.579   2.330 -0.4146 -0.3820  1.2399
10092SOL     OW40954   3.758   8.694   4.274 -0.8699 -0.0136 -0.2235
10092SOL    HW140955   3.741   8.606   4.229 -0.4251  0.3615 -1.1245
10092SOL    HW240956   3.764   8.766   4.206 -2.6209  0.9496  0.6034
10093SOL     OW40957   2.690   5.700   0.534  0.2633 -0.3013 -0.3879
10093SOL    HW140958   2.783   5.722   0.564  0.1831 -1.4651  0.7641
10093SOL    HW240959   2.678   5.730   0.439  0.8531  2.5375  0.3972
10094SOL     OW40960   7.690   0.656   3.013  0.1405  0.6156  0.7148
10094SOL    HW140961   7.750   0.708   3.075 -0.3942  1.0301  0.8832
10094SOL    HW240962   7.672   0.566   3.053 -0.5227  1.0261  1.3516
10095SOL     OW40963   2.851   8.115   4.438  0.5432 -0.3633  0.2676
10095SOL    HW140964   2.942   8.156   4.440  0.2601  0.3172 -0.5970
10095SOL    HW240965   2.859   8.018   4.412  0.8974  0.0612 -1.2490
10096SOL     OW40966   2.669   1.337   3.649 -0.0282  0.2827  0.2128
10096SOL    HW140967   2.721   1.419   3.623  1.1434 -1.0279 -1.7254
10096SOL    HW240968   2.589   1.364   3.701  0.1823  2.7006 -0.6366
10097SOL     OW40969   0.834   2.405   0.154  0.2015 -0.0915  0.1234
10097SOL    HW140970   0.818   2.395   0.056 -0.2431  0.8335  0.0950
10097SOL    HW240971   0.768   2.469   0.192 -1.5967 -2.7595  1.6199
10098SOL     OW40972   7.724   6.919   2.514  0.4631  0.1023 -0.3758
10098SOL    HW140973   7.793   6.852   2.489 -1.0392 -0.8641 -1.9747
10098SOL    HW240974   7.651   6.875   2.567 -0.3259  0.5358 -1.0826
10099SOL     OW40975   8.284   1.602   0.046 -0.1607 -0.1068  0.2746
10099SOL    HW140976   8.259   1.642  -0.042 -0.3041  0.7218  0.6839
10099SOL    HW240977   8.369   1.643   0.078  0.8725 -1.7271 -0.3341
10100SOL     OW40978   4.135   0.830   3.487 -0.4249 -0.1889  0.9589
10100SOL    HW140979   4.040   0.854   3.469 -0.0600  0.0735 -0.7006
10100SOL    HW240980   4.158   0.747   3.437  0.1211 -0.4343  1.6207
10101SOL     OW40981   8.104   9.004   2.489  0.4504 -0.0538  0.2282
10101SOL    HW140982   8.047   9.064   2.545 -0.6608 -0.9507  0.0853
10101SOL    HW240983   8.167   8.954   2.548 -1.8413 -2.2273  0.9143
10102SOL     OW40984   4.479   3.680   3.528  0.1186  0.2002  0.4414
10102SOL    HW140985   4.433   3.746   3.588 -1.8291 -0.0628 -0.7118
10102SOL    HW240986   4.441   3.589   3.543  0.2997 -0.0324 -0.4710
10103SOL     OW40987   8.156   7.150   1.300 -0.9657  0.5410 -0.1823
10103SOL    HW140988   8.195   7.174   1.211 -0.3551 -0.9620 -0.3529
10103SOL    HW240989   8.089   7.077   1.289  1.5139 -2.0154  0.9018
10104SOL     OW40990   1.744   2.140   3.305 -0.1148 -0.0134  0.0258
10104SOL    HW140991   1.783   2.069   3.245 -1.7574  0.2078 -1.3280
10104SOL    HW240992   1.688   2.096   3.376  0.0419 -0.1501  0.0662
10105SOL     OW40993   4.864   9.477   4.597  0.4206  0.1748 -0.1523
10105SOL    HW140994   4.853   9.405   4.529 -1.9475 -0.3219  0.6880
10105SOL    HW240995   4.887   9.435   4.685 -0.5476  0.4377  0.2393
10106SOL     OW40996   2.211   3.688   0.656 -0.0570  0.6767  0.1884
10106SOL    HW140997   2.293   3.641   0.625  0.2288  0.2068  1.6130
10106SOL    HW240998   2.232   3.785   0.673 -0.3105  1.0241 -1.4161
10107SOL     OW40999   3.949   2.308   1.633 -1.0035  0.5235  0.4628
10107SOL    HW141000   4.003   2.229   1.606  0.0609  0.9013  1.4731
10107SOL    HW241001   3.885   2.282   1.706 -2.3999  0.0140 -0.9106
10108SOL     OW41002   6.288   8.095   1.510 -0.4159  0.7844 -0.0196
10108SOL    HW141003   6.376   8.136   1.487  0.0152  0.1020  0.3901
10108SOL    HW241004   6.302   8.017   1.571 -1.1782 -0.2602 -1.1352
10109SOL     OW41005   8.775   1.474   0.127  0.4216  0.0391 -0.2341
10109SOL    HW141006   8.783   1.388   0.077 -0.7607 -0.0812 -0.2379
10109SOL    HW241007   8.789   1.550   0.064 -0.7703 -0.1207 -0.7170
10110SOL     OW41008   0.569   3.375   2.180 -0.2664  0.5356 -0.4284
10110SOL    HW141009   0.662   3.410   2.167 -0.1507  0.9616  1.3507
10110SOL    HW241010   0.518   3.384   2.095  1.7994 -1.2322 -1.9476
10111SOL     OW41011   1.507   3.015   2.691 -0.4175  0.6460  0.2857
10111SOL    HW141012   1.463   2.929   2.665  1.5296 -0.4807  0.6162
10111SOL    HW241013   1.537   3.063   2.608  1.5262 -0.6571  0.1937
10112SOL     OW41014   0.928   8.761   4.387  0.1440  0.3809 -0.2506
10112SOL    HW141015   0.994   8.828   4.422 -1.4158  2.4123 -1.1179
10112SOL    HW241016   0.865   8.736   4.460  0.8840 -0.3686  0.1459
10113SOL     OW41017   6.085   7.903   2.899  0.7512  0.1294  0.0524
10113SOL    HW141018   6.134   7.987   2.924 -0.1233  1.3194 -2.1081
10113SOL    HW241019   6.013   7.885   2.966  1.4082  0.6799  0.9257
10114SOL     OW41020   0.387   8.415   3.354  0.1583 -0.1981  0.4337
10114SOL    HW141021   0.295   8.378   3.341 -0.0494  0.2263  0.6723
10114SOL    HW241022   0.421   8.390   3.444 -0.2414  0.7179  0.8530
10115SOL     OW41023   1.760   6.113   0.095  0.0230  0.0488 -0.1336
10115SOL    HW141024   1.857   6.139   0.087  0.4950 -1.4092  0.7463
10115SOL    HW241025   1.738   6.045   0.024 -0.5651  0.9320 -0.8145
10116SOL     OW41026   8.004   8.248   3.289  0.2346 -0.0644  0.1512
10116SOL    HW141027   8.033   8.247   3.384 -2.0630  0.3010  0.8911
10116SOL    HW241028   8.020   8.339   3.250  2.5086 -0.6227 -0.2650
10117SOL     OW41029   1.406   8.859   3.581  0.3374  0.5274  0.3908
10117SOL    HW141030   1.313   8.849   3.615  0.2586  0.0453  0.0474
10117SOL    HW241031   1.425   8.787   3.514  0.9805  0.5767  0.5108
10118SOL     OW41032   0.699   1.633   4.692 -0.0247 -0.3359 -0.0542
10118SOL    HW141033   0.682   1.680   4.605  0.9464 -1.6575 -0.9677
10118SOL    HW241034   0.611   1.603   4.731 -0.5486  1.1458 -0.0524
10119SOL     OW41035   0.829   7.103   1.327 -0.2525  0.0602  0.2063
10119SOL    HW141036   0.789   7.174   1.268 -0.3383 -0.6156 -0.5586
10119SOL    HW241037   0.923   7.128   1.351 -0.3817  0.5731  0.1791
10120SOL     OW41038   2.193   3.332   1.874 -0.0221 -0.3385  0.0840
10120SOL    HW141039   2.117   3.383   1.914 -0.0302 -1.8188  1.9817
10120SOL    HW241040   2.159   3.252   1.825  0.2211 -0.2224 -0.2834
10121SOL     OW41041   2.731   0.206   2.460  0.0070  0.1329  0.1265
10121SOL    HW141042   2.647   0.250   2.492 -0.4367 -0.3307 -0.3967
10121SOL    HW241043   2.808   0.235   2.517 -0.4517  0.8211  0.3935
10122SOL     OW41044   0.308   6.983   0.055 -0.4781  0.1731  0.0604
10122SOL    HW141045   0.389   7.000  -0.001 -2.2962  3.2190 -1.7738
10122SOL    HW241046   0.248   6.918   0.008 -2.1486  2.9630 -1.7871
10123SOL     OW41047   2.456   9.574   3.691  0.1445  0.8072  0.1238
10123SOL    HW141048   2.507   9.641   3.637  2.0312  0.0053  0.8700
10123SOL    HW241049   2.464   9.596   3.788 -0.6489  0.4821  0.2617
10124SOL     OW41050   1.833   5.510   1.304  0.0332 -0.0752 -0.2541
10124SOL    HW141051   1.832   5.533   1.207 -0.2717  0.6113 -0.0902
10124SOL    HW241052   1.790   5.420   1.318  0.2876 -0.2781 -0.7745
10125SOL     OW41053   3.263   3.568   2.289  0.3494 -0.7449  0.1732
10125SOL    HW141054   3.262   3.656   2.241  2.5287 -0.8056 -0.0437
10125SOL    HW241055   3.192   3.567   2.359 -0.2923  0.8441 -0.4361
10126SOL     OW41056   3.103   7.645   4.714 -0.1025 -0.1653  0.2525
10126SOL    HW141057   3.159   7.620   4.794 -0.9605 -1.7888  0.3758
10126SOL    HW241058   3.013   7.603   4.723 -0.7854  1.0688 -0.7518
10127SOL     OW41059   9.804   0.350   0.492 -0.1317  0.6300 -0.5235
10127SOL    HW141060   9.819   0.448   0.481 -1.6806  1.0746  1.2709
10127SOL    HW241061   9.781   0.310   0.403  0.3431  1.8968 -1.2268
10128SOL     OW41062   6.161   8.147   3.024 -0.2869  0.6788 -0.4172
10128SOL    HW141063   6.197   8.236   3.051 -1.6537  1.4574 -1.1489
10128SOL    HW241064   6.147   8.091   3.106  0.9942  0.9516  0.0052
10129SOL     OW41065   0.042   6.997   3.268  0.0196  0.2537 -0.0638
10129SOL    HW141066   0.048   7.089   3.306 -0.9214 -0.0324  0.8216
10129SOL    HW241067   0.131   6.952   3.275 -0.1677  0.1570  1.9611
10130SOL     OW41068   1.467   1.562   2.231 -0.0761  0.3037  0.0765
10130SOL    HW141069   1.470   1.589   2.327 -0.4268  1.1050 -0.1285
10130SOL    HW241070   1.524   1.625   2.177 -0.4659  0.3100 -0.3350
10131SOL     OW41071   1.914   4.052   1.678 -0.0852 -0.0650  0.2699
10131SOL    HW141072   1.884   4.089   1.590 -1.9261 -1.8338  0.1217
10131SOL    HW241073   1.882   4.111   1.752  0.9157  1.0723 -0.1849
10132SOL     OW41074   2.459   6.562   0.047 -0.6268  0.3626  0.8275
10132SOL    HW141075   2.462   6.620   0.128 -0.0369  0.8612  0.4535
10132SOL    HW241076   2.516   6.481   0.061  1.7028  1.7949 -0.1062
10133SOL     OW41077   3.231   5.000   3.115 -0.0445 -0.1549  0.2285
10133SOL    HW141078   3.192   4.953   3.194 -1.6940 -0.0827 -0.5091
10133SOL    HW241079   3.239   5.098   3.134  1.0310 -0.3614  0.8613
10134SOL     OW41080   0.297   8.886   3.825  0.2675 -0.1199 -0.0590
10134SOL    HW141081   0.330   8.976   3.795  0.2863  0.2592  1.0804
10134SOL    HW241082   0.254   8.839   3.748 -0.0582  1.0190 -0.5848
10135SOL     OW41083   1.690   3.951   2.507  0.0961  0.0438  0.6067
10135SOL    HW141084   1.743   3.870   2.481  1.7086  0.7505  1.5696
10135SOL    HW241085   1.700   3.966   2.605  0.6450  1.9747  0.2735
10136SOL     OW41086   4.832   8.874   2.162 -0.1542  0.2892  0.0213
10136SOL    HW141087   4.763   8.897   2.230 -1.1168  0.8720 -1.1449
10136SOL    HW241088   4.826   8.937   2.085  0.1960 -1.0262 -1.1131
10137SOL     OW41089   7.213   6.153   3.168  0.0823  0.2648 -0.0544
10137SOL    HW141090   7.202   6.062   3.207  2.0709  0.0724  0.1243
10137SOL    HW241091   7.182   6.152   3.073 -0.7299 -0.3800  0.2182
10138SOL     OW41092   1.293   3.829   0.316  0.0957  0.5693 -0.2418
10138SOL    HW141093   1.306   3.757   0.384  1.3308  0.6614 -0.3794
10138SOL    HW241094   1.380   3.852   0.274 -0.7233  0.1369 -2.2511
10139SOL     OW41095   4.414   9.092   0.458  0.0413  0.1659  0.4432
10139SOL    HW141096   4.377   9.176   0.498 -1.0029  0.3913 -0.9633
10139SOL    HW241097   4.391   9.088   0.361 -1.1614 -2.4511  0.8011
10140SOL     OW41098   2.316   4.182   4.725 -0.0934  0.2300  0.2469
10140SOL    HW141099   2.309   4.263   4.783 -1.0487  1.5505 -1.6578
10140SOL    HW241100   2.411   4.172   4.695 -0.2882  1.7108 -0.9494
10141SOL     OW41101   6.689   0.269   1.331  0.1965 -0.4729  0.1067
10141SOL    HW141102   6.613   0.334   1.324  1.3437  0.8917  0.1888
10141SOL    HW241103   6.754   0.301   1.400  1.9412 -0.5031 -1.4933
10142SOL     OW41104   3.670   0.205   4.691 -0.2030 -0.3524  0.1151
10142SOL    HW141105   3.705   0.286   4.737 -2.5819  1.1324 -0.5882
10142SOL    HW241106   3.746   0.148   4.660  1.5109  1.7367  0.3669
10143SOL     OW41107   0.430   1.512   3.112 -0.2445  0.0100  0.0101
10143SOL    HW141108   0.367   1.555   3.046 -0.0563  0.6703  0.2615
10143SOL    HW241109   0.408   1.414   3.119 -0.6966  0.0664 -0.5377
10144SOL     OW41110   9.294   4.009   4.444  0.6305  0.1314 -0.8048
10144SOL    HW141111   9.270   3.969   4.532 -0.3600  0.3300 -0.9753
10144SOL    HW241112   9.390   4.037   4.444  0.8193 -0.5204 -0.0400
10145SOL     OW41113   9.753   5.559   2.656 -0.2887  0.0405  0.4269
10145SOL    HW141114   9.801   5.553   2.743  0.3675  1.9142  0.2121
10145SOL    HW241115   9.808   5.517   2.584 -0.7702 -1.3810  0.8643
10146SOL     OW41116   2.659   9.800   0.455  0.4619  0.0822  0.1235
10146SOL    HW141117   2.676   9.730   0.524  0.4752 -1.7322 -1.6629
10146SOL    HW241118   2.745   9.825   0.411  0.6771  2.2959  1.6938
10147SOL     OW41119   2.914   8.868   1.156  0.6116  0.3866 -0.0418
10147SOL    HW141120   2.933   8.776   1.120 -1.2991  0.0835 -0.3294
10147SOL    HW241121   2.916   8.866   1.256 -1.3307 -0.4084 -0.0049
10148SOL     OW41122   7.980   1.675   2.255  0.1110 -0.3151  0.1841
10148SOL    HW141123   7.903   1.618   2.227  0.8167 -0.5538 -1.3214
10148SOL    HW241124   7.969   1.700   2.351 -1.2181 -1.3431  0.3246
10149SOL     OW41125   4.359   0.434   4.372 -0.4811  0.3079  1.2487
10149SOL    HW141126   4.303   0.480   4.304 -0.6685  1.1081  1.9340
10149SOL    HW241127   4.302   0.372   4.426 -0.3706 -0.1775  0.8153
10150SOL     OW41128   8.142   5.770   3.776  0.2877  0.0466  0.1042
10150SOL    HW141129   8.161   5.673   3.760 -1.2249 -0.3653  0.7457
10150SOL    HW241130   8.183   5.824   3.702  0.1050 -1.1745 -0.9184
10151SOL     OW41131   1.372   6.551   1.575 -0.5629 -0.2151  0.3534
10151SOL    HW141132   1.308   6.624   1.598  0.2646  0.2322  1.2423
10151SOL    HW241133   1.463   6.589   1.560  0.0458 -1.1490  1.5934
10152SOL     OW41134   3.969   2.608   1.138  0.2667  0.2845  0.5674
10152SOL    HW141135   3.960   2.671   1.060 -0.1066  0.2101  0.5480
10152SOL    HW241136   3.958   2.659   1.223 -0.9267  0.1063  0.5320
10153SOL     OW41137   5.844   8.542   2.220  0.5758  0.2966 -0.6627
10153SOL    HW141138   5.943   8.539   2.237  0.3426 -0.2378  0.6425
10153SOL    HW241139   5.796   8.563   2.305 -0.6045 -2.3464 -0.6086
10154SOL     OW41140   4.550   5.710   1.545  0.1270 -0.1315  0.3528
10154SOL    HW141141   4.641   5.751   1.556  0.1333 -0.0598  0.0463
10154SOL    HW241142   4.509   5.743   1.460 -0.2147 -0.1090  0.5259
10155SOL     OW41143   4.738   0.468   4.296 -0.5097 -0.4954 -0.5463
10155SOL    HW141144   4.781   0.496   4.210 -2.1632 -0.7874 -1.4962
10155SOL    HW241145   4.713   0.371   4.290 -0.2760 -0.6235  0.4250
10156SOL     OW41146   2.779   2.618   3.536 -0.3294 -0.1040 -0.3062
10156SOL    HW141147   2.754   2.702   3.585 -1.2518 -0.7351  0.3211
10156SOL    HW241148   2.870   2.629   3.495  0.7478  0.2129  2.0732
10157SOL     OW41149   0.988   5.281   0.930  0.6951  0.2403 -0.5931
10157SOL    HW141150   1.077   5.278   0.975  0.4604  2.1151  0.0449
10157SOL    HW241151   0.942   5.193   0.941  1.8498 -0.2603  0.3322
10158SOL     OW41152   8.545   5.432   4.752  0.8060 -0.4737 -0.5019
10158SOL    HW141153   8.633   5.428   4.799  1.0986 -1.4554 -1.1304
10158SOL    HW241154   8.557   5.410   4.655 -0.2808 -1.6315 -0.3927
10159SOL     OW41155   5.100   8.122   3.707  0.5999 -0.1407  0.3849
10159SOL    HW141156   5.024   8.132   3.643  1.4706 -1.7881 -0.9657
10159SOL    HW241157   5.167   8.195   3.692  0.6772 -0.3758 -0.4418
10160SOL     OW41158   3.306   9.660   0.181 -0.2082 -0.3090 -0.7114
10160SOL    HW141159   3.284   9.582   0.239 -0.6480  1.5996  1.7536
10160SOL    HW241160   3.253   9.655   0.096 -0.8471 -2.2295 -0.2204
10161SOL     OW41161   8.643   1.068   3.745  0.0118  0.2638  0.0113
10161SOL    HW141162   8.664   1.109   3.834 -1.6343 -0.0909  0.5689
10161SOL    HW241163   8.728   1.036   3.703  1.3023  3.8548 -0.2802
10162SOL     OW41164   4.115   3.006   2.391  0.4693  0.6687 -0.8196
10162SOL    HW141165   4.093   3.041   2.300  1.1381  0.9018 -0.8995
10162SOL    HW241166   4.210   2.975   2.392  0.8114  1.7012  0.0981
10163SOL     OW41167   2.653   1.733   0.015  0.1185 -0.4679 -0.6640
10163SOL    HW141168   2.638   1.674   0.095  0.9611 -0.4372 -0.4694
10163SOL    HW241169   2.610   1.822   0.030 -1.1058 -1.0138 -0.9332
10164SOL     OW41170   9.590   3.812   2.096 -0.0942 -0.0503  0.2582
10164SOL    HW141171   9.667   3.863   2.134  0.6199 -0.3865 -0.7181
10164SOL    HW241172   9.551   3.753   2.166  0.6512 -0.0086  0.7141
10165SOL     OW41173   1.959   1.232   4.523 -0.2249  0.4907  0.4507
10165SOL    HW141174   1.895   1.289   4.575 -2.4115 -0.1185 -1.5014
10165SOL    HW241175   1.951   1.137   4.553 -0.1597  0.4289  0.2720
10166SOL     OW41176   9.889   3.653   2.085 -0.1326  0.2468 -0.1113
10166SOL    HW141177   9.834   3.724   2.129  0.3751  0.8416 -0.4406
10166SOL    HW241178   9.905   3.579   2.151 -1.7339 -0.1688 -0.1606
10167SOL     OW41179   8.481   3.210   4.485 -0.2598 -0.0534  0.0540
10167SOL    HW141180   8.527   3.122   4.495  0.0134  0.1913  1.0517
10167SOL    HW241181   8.472   3.233   4.388  1.1428 -0.4190 -0.1691
10168SOL     OW41182   4.374   9.943   3.831 -0.1289  0.5062  0.1263
10168SOL    HW141183   4.423   9.894   3.904 -0.2615  0.1868  0.0020
10168SOL    HW241184   4.418  10.031   3.815 -0.0685  0.5562  0.5592
10169SOL     OW41185   2.562   0.969   2.773  0.1542  0.3947 -0.3352
10169SOL    HW141186   2.656   0.958   2.740  0.7510  0.7103  1.2076
10169SOL    HW241187   2.556   1.050   2.830 -0.8670 -0.1027  0.2762
10170SOL     OW41188   3.091   3.323   2.623  0.1842  0.0786 -0.1127
10170SOL    HW141189   3.041   3.238   2.608  0.9940 -0.1725 -1.4396
10170SOL    HW241190   3.172   3.305   2.679  0.7737 -0.1693 -1.0357
10171SOL     OW41191   0.078   5.640   3.999 -0.2871 -0.5551 -0.1691
10171SOL    HW141192   0.061   5.542   3.992 -0.8696 -0.2959 -2.6125
10171SOL    HW241193   0.176   5.657   4.001 -0.1864 -1.1913  0.6137
10172SOL     OW41194   6.991   8.669   2.361 -0.0810 -1.0312  0.1228
10172SOL    HW141195   6.903   8.713   2.381 -1.3691 -3.2536 -0.4321
10172SOL    HW241196   7.057   8.693   2.431 -1.1741  0.5812  0.6290
10173SOL     OW41197   9.246   9.178   4.471  0.3912 -1.0708 -1.3123
10173SOL    HW141198   9.187   9.161   4.392  1.0728  0.3523 -2.1459
10173SOL    HW241199   9.194   9.225   4.542  0.2145 -0.8846 -1.5656
10174SOL     OW41200   8.625   6.614   3.453 -0.1514  0.0888 -0.2324
10174SOL    HW141201   8.565   6.688   3.484  1.0869  1.4597 -1.0570
10174SOL    HW241202   8.654   6.631   3.359  0.6907 -1.1095 -0.2077
10175SOL     OW41203   9.209   3.607   2.549  0.3433 -0.3161  0.5343
10175SOL    HW141204   9.221   3.689   2.493  0.5512 -0.5871  0.1842
10175SOL    HW241205   9.167   3.633   2.636 -0.0548  0.0961  0.2255
10176SOL     OW41206   1.518   5.064   1.453 -0.4362  0.2760  0.1950
10176SOL    HW141207   1.441   5.063   1.517 -0.2077  1.2391  0.4831
10176SOL    HW241208   1.486   5.035   1.362 -1.3895  1.7865  0.0382
10177SOL     OW41209   8.915   6.090   4.172 -0.2694 -0.1841  0.4549
10177SOL    HW141210   8.873   6.012   4.127 -1.2121  1.7775 -2.2477
10177SOL    HW241211   8.884   6.096   4.267 -2.1243 -1.6256 -0.0447
10178SOL     OW41212   4.763   6.496   2.462 -0.1252  0.0147 -0.4637
10178SOL    HW141213   4.762   6.413   2.405 -0.4153 -1.4433  1.6112
10178SOL    HW241214   4.697   6.561   2.427  2.3476  0.7311 -4.0536
10179SOL     OW41215   4.628   2.498   0.026  0.0926 -0.5277  0.2942
10179SOL    HW141216   4.600   2.402   0.027 -0.2680 -0.4137  1.6370
10179SOL    HW241217   4.673   2.521   0.112 -4.8786  2.0038  2.4029
10180SOL     OW41218   9.954   5.517   1.043  0.0658  0.4215  0.2954
10180SOL    HW141219   9.893   5.518   0.964  0.3959  1.1101  0.0433
10180SOL    HW241220  10.045   5.487   1.015  0.6357  2.3109  0.0591
10181SOL     OW41221   8.607   0.068   1.882 -0.0566 -0.3542  0.5936
10181SOL    HW141222   8.565   0.036   1.797 -1.2790  1.9898  0.2664
10181SOL    HW241223   8.696   0.109   1.862 -0.5039  0.5349  0.3406
10182SOL     OW41224   9.194   6.891   2.914  0.4057 -0.3223 -0.8978
10182SOL    HW141225   9.269   6.836   2.880 -0.6468 -2.7094  0.5284
10182SOL    HW241226   9.166   6.956   2.844  2.6244 -0.5811 -2.0730
10183SOL     OW41227   0.601   1.434   2.456 -0.2770  0.2903 -0.1341
10183SOL    HW141228   0.525   1.488   2.492  0.0342 -0.2980  1.4387
10183SOL    HW241229   0.678   1.437   2.520  0.5490 -0.1961 -1.0900
10184SOL     OW41230   0.310   3.571   1.600 -0.0675  0.0437 -0.0324
10184SOL    HW141231   0.401   3.544   1.633 -0.4839  0.6101  1.6485
10184SOL    HW241232   0.240   3.513   1.642 -0.3559 -1.9856 -3.1739
10185SOL     OW41233   5.270   0.049   3.997  0.2447 -1.4315 -1.2023
10185SOL    HW141234   5.252   0.082   4.089  1.3900 -1.4312 -0.9722
10185SOL    HW241235   5.249  -0.049   3.991  2.1975 -1.9307 -0.3400
10186SOL     OW41236   1.471   9.070   2.451  0.4056 -0.2274 -0.6080
10186SOL    HW141237   1.473   9.164   2.485  0.2723 -0.5359  0.2794
10186SOL    HW241238   1.554   9.051   2.399  0.3463  0.4389 -0.9490
10187SOL     OW41239   6.669   0.815   3.032 -0.0264 -0.0115 -0.1215
10187SOL    HW141240   6.605   0.877   3.077  0.5907 -0.0338  0.7840
10187SOL    HW241241   6.722   0.865   2.964 -1.4151 -0.1114 -1.3163
10188SOL     OW41242   9.832   3.923   2.185 -0.4778 -0.2561  0.4207
10188SOL    HW141243   9.874   3.920   2.276  0.0617 -1.2214  0.1461
10188SOL    HW241244   9.903   3.924   2.116 -0.8512  2.3657  0.0249
10189SOL     OW41245   5.639   7.150   2.504  0.2851 -0.2626 -0.0137
10189SOL    HW141246   5.707   7.082   2.479  0.6746 -0.0683  0.5208
10189SOL    HW241247   5.666   7.195   2.589 -1.0570 -0.9450  0.7888
10190SOL     OW41248   4.958   3.503   0.319 -0.3025 -0.2395 -0.4078
10190SOL    HW141249   4.936   3.468   0.228 -0.6450  0.3961 -0.5743
10190SOL    HW241250   4.879   3.552   0.356 -0.8770 -2.2425  1.0955
10191SOL     OW41251   4.545   1.369   1.754  0.4617 -0.2022 -0.4640
10191SOL    HW141252   4.525   1.286   1.701 -0.0280 -0.0353 -0.5472
10191SOL    HW241253   4.509   1.359   1.847 -2.4926  1.1575 -1.3856
10192SOL     OW41254   1.858   1.250   2.511  0.5651  0.0971  0.1836
10192SOL    HW141255   1.942   1.294   2.482  1.2271  0.0754  2.0084
10192SOL    HW241256   1.878   1.157   2.544 -0.1244  0.1775  0.8465
10193SOL     OW41257   1.844   3.239   4.135  0.3275 -0.2039  0.6692
10193SOL    HW141258   1.923   3.253   4.195 -0.4702  0.1224  1.6587
10193SOL    HW241259   1.848   3.147   4.096  1.5367  0.0395  0.1932
10194SOL     OW41260   2.322   8.608   2.776  0.0216 -0.4784 -0.3770
10194SOL    HW141261   2.328   8.546   2.698  1.0992 -0.2336 -0.4958
10194SOL    HW241262   2.404   8.665   2.779 -0.4164  0.1045  0.4321
10195SOL     OW41263   9.470   3.317   0.836  0.1174  0.3360  0.9749
10195SOL    HW141264   9.465   3.386   0.909  1.4226  1.9383 -0.4042
10195SOL    HW241265   9.546   3.255   0.855  0.7253  1.0091  0.7714
10196SOL     OW41266   7.957   5.858   2.776 -0.3145 -0.0370  0.4097
10196SOL    HW141267   8.008   5.813   2.849  0.0430  0.3077  0.3727
10196SOL    HW241268   8.018   5.875   2.699 -0.9567 -1.4434 -0.4271
10197SOL     OW41269   8.981   2.400   4.394  0.4083  0.2734 -0.0454
10197SOL    HW141270   9.076   2.369   4.400  0.2514 -0.0418  0.9179
10197SOL    HW241271   8.935   2.384   4.482 -1.0716 -1.3534 -1.0753
10198SOL     OW41272   8.661   6.913   0.338 -0.6717  0.3117 -0.0831
10198SOL    HW141273   8.753   6.889   0.308 -1.5345 -1.3725 -1.4767
10198SOL    HW241274   8.636   6.857   0.417 -0.2589  1.2616  0.7354
10199SOL     OW41275   3.495   6.406   1.853 -0.7625 -0.1131 -0.1402
10199SOL    HW141276   3.423   6.337   1.847 -1.5297  0.6443  0.2031
10199SOL    HW241277   3.490   6.466   1.772 -0.3169 -0.2482 -0.2695
10200SOL     OW41278   1.747   6.521   2.786  0.1681  0.3304 -0.2145
10200SOL    HW141279   1.816   6.453   2.761 -0.6618 -0.5415 -0.1540
10200SOL    HW241280   1.701   6.492   2.870 -3.2078 -1.3112 -2.4931
10201SOL     OW41281   2.754   0.423   0.371 -0.1433  0.3538 -0.1190
10201SOL    HW141282   2.711   0.441   0.282 -1.1973  1.5874  0.6255
10201SOL    HW241283   2.787   0.329   0.374 -3.0304 -0.6948 -0.5972
10202SOL     OW41284   9.995   2.057   1.431  0.5428  0.0158 -0.1424
10202SOL    HW141285  10.090   2.060   1.463  0.4911 -0.7355  0.0699
10202SOL    HW241286   9.957   1.966   1.447 -0.3056  0.3980  0.0359
10203SOL     OW41287   8.108   9.246   0.646 -0.6287  0.3081 -0.5451
10203SOL    HW141288   8.112   9.305   0.727 -5.1534  1.6280 -1.1764
10203SOL    HW241289   8.101   9.151   0.675 -0.2846  0.6091  0.5767
10204SOL     OW41290   7.622   9.398   3.475 -0.3066 -0.0822 -0.3410
10204SOL    HW141291   7.677   9.360   3.402 -1.0716 -2.4251  0.2538
10204SOL    HW241292   7.633   9.498   3.478  1.4074 -0.2033 -2.2117
10205SOL     OW41293   4.763   2.782   2.711  0.0631 -0.0049  0.0388
10205SOL    HW141294   4.737   2.823   2.798 -2.2255 -1.1535 -0.0803
10205SOL    HW241295   4.841   2.720   2.725 -0.1529 -0.0118  1.2263
10206SOL     OW41296   2.287   5.538   2.379 -0.0637 -0.0470  0.2247
10206SOL    HW141297   2.277   5.578   2.288 -1.9050 -0.2589  0.3260
10206SOL    HW241298   2.228   5.458   2.387  1.5156 -1.1492  0.9767
10207SOL     OW41299   9.713   9.886   4.058  0.0698  0.1027 -0.1536
10207SOL    HW141300   9.792   9.850   4.007 -0.6839 -0.8497 -0.6735
10207SOL    HW241301   9.704   9.984   4.041  0.8069  0.1076 -0.5422
10208SOL     OW41302   9.049   7.470   0.472 -0.6238  0.1728 -0.0343
10208SOL    HW141303   9.078   7.558   0.434 -1.3929  1.0046  1.2334
10208SOL    HW241304   8.964   7.440   0.428 -1.1846  0.8308  0.5822
10209SOL     OW41305   9.492   9.094   1.965  0.2105 -0.0687  0.5720
10209SOL    HW141306   9.405   9.059   2.000 -0.9067  0.3079 -1.7953
10209SOL    HW241307   9.567   9.053   2.017 -1.3093 -1.4213  1.7463
10210SOL     OW41308   3.203   9.597   4.068  0.0624 -0.1936  0.4379
10210SOL    HW141309   3.193   9.498   4.059 -0.6541 -0.1428  0.6838
10210SOL    HW241310   3.135   9.632   4.132  0.2102  0.4816  0.2307
10211SOL     OW41311   7.650   4.360   4.402 -0.3589  0.0789 -0.1168
10211SOL    HW141312   7.723   4.351   4.334 -1.0806  0.5121 -0.9567
10211SOL    HW241313   7.677   4.429   4.470 -0.8426  1.7642 -1.5862
10212SOL     OW41314   4.404   6.050   2.215  0.5363 -0.2734 -0.1749
10212SOL    HW141315   4.318   6.054   2.165  2.0634 -0.4021 -2.8793
10212SOL    HW241316   4.470   5.994   2.165  1.9684 -0.8428  2.2426
10213SOL     OW41317   0.432   1.570   0.103  0.6975 -0.1165  0.1192
10213SOL    HW141318   0.357   1.504   0.112  0.4678 -0.0479 -1.3089
10213SOL    HW241319   0.496   1.558   0.180 -2.2821  1.7919  3.0667
10214SOL     OW41320   2.422   6.952   3.606  0.2318  0.5038 -0.0494
10214SOL    HW141321   2.424   7.051   3.605  0.8972  0.4786 -1.3090
10214SOL    HW241322   2.493   6.916   3.546  0.6997 -0.7412  1.2275
10215SOL     OW41323   1.153   7.539   0.843 -0.2899  0.3497 -0.2613
10215SOL    HW141324   1.071   7.562   0.790 -0.7664  1.0952  0.7812
10215SOL    HW241325   1.128   7.528   0.939  1.3107  3.5404  0.5697
10216SOL     OW41326   7.865   7.704   2.030  1.1055  0.1623  0.1189
10216SOL    HW141327   7.809   7.637   1.982  0.8292 -0.5259  1.3762
10216SOL    HW241328   7.871   7.788   1.976  0.1426 -0.3085 -0.7290
10217SOL     OW41329   4.980   1.534   2.867 -0.2308  0.4910 -0.6586
10217SOL    HW141330   4.998   1.461   2.933 -0.9598 -1.7164 -2.8529
10217SOL    HW241331   4.937   1.611   2.915  0.2111 -0.6323  1.6402
10218SOL     OW41332   1.770   2.656   0.750 -0.2795 -0.2843 -0.8162
10218SOL    HW141333   1.804   2.563   0.735  2.0938  0.2902  0.7289
10218SOL    HW241334   1.808   2.692   0.835 -3.1816  1.2020 -0.0722
10219SOL     OW41335   2.084   3.498   1.464  0.2739  0.2387  0.3907
10219SOL    HW141336   2.030   3.543   1.535 -1.7052 -1.1611 -0.1680
10219SOL    HW241337   2.076   3.549   1.378 -0.6038 -0.2375  0.1807
10220SOL     OW41338   3.273   2.959   1.395 -0.3929  0.3376 -0.2409
10220SOL    HW141339   3.326   2.913   1.467 -2.0710 -0.0808  0.7549
10220SOL    HW241340   3.311   3.050   1.379  0.7605 -0.0346  0.2970
10221SOL     OW41341   9.471   9.350   2.844  0.0949 -0.0233  0.2245
10221SOL    HW141342   9.418   9.285   2.899  0.2909 -1.5996 -1.4230
10221SOL    HW241343   9.409   9.419   2.806 -0.2430  0.2428  1.2267
10222SOL     OW41344   3.154   4.205   1.765  0.3176 -0.1922  0.2382
10222SOL    HW141345   3.219   4.179   1.695 -1.4276 -0.2958 -1.3807
10222SOL    HW241346   3.092   4.128   1.784  0.4543 -0.0012  1.5265
10223SOL     OW41347   1.811   2.118   0.342 -0.1051 -0.1729  0.1856
10223SOL    HW141348   1.798   2.154   0.250  1.7527  0.6125  0.2070
10223SOL    HW241349   1.807   2.193   0.408  2.0683 -0.1970  0.3919
10224SOL     OW41350   1.567   6.886   1.484 -0.0451 -0.3525  0.0334
10224SOL    HW141351   1.589   6.791   1.502  1.9622  0.2016  0.5667
10224SOL    HW241352   1.611   6.915   1.399 -0.2052  0.2662  0.1557
10225SOL     OW41353   2.116   2.869   3.370  0.2644  0.3823 -0.5175
10225SOL    HW141354   2.076   2.956   3.341  0.6666  0.9981  0.7451
10225SOL    HW241355   2.048   2.796   3.360 -0.7054  1.1672  0.1988
10226SOL     OW41356   8.477   6.848   1.671  0.3465  0.3148  0.4107
10226SOL    HW141357   8.576   6.863   1.679  0.5800  0.2268 -1.9320
10226SOL    HW241358   8.437   6.923   1.619 -0.8003  0.1877  1.0920
10227SOL     OW41359   9.077   5.695   3.976 -0.2718 -0.2786  0.0391
10227SOL    HW141360   9.174   5.693   3.950 -0.4231  0.8048 -0.6312
10227SOL    HW241361   9.064   5.641   4.059  0.9259 -0.3439  0.1985
10228SOL     OW41362   8.695   4.726   0.507  0.3200  1.1777 -0.0017
10228SOL    HW141363   8.762   4.653   0.519 -0.6910  0.4353  1.2959
10228SOL    HW241364   8.689   4.780   0.591 -1.2008  0.7921  0.1684
10229SOL     OW41365   4.617   9.826   1.609 -0.1113  0.1393 -0.4896
10229SOL    HW141366   4.692   9.760   1.617 -0.9019 -1.0294 -2.4520
10229SOL    HW241367   4.631   9.884   1.529 -0.8641  0.4915 -0.3720
10230SOL     OW41368   4.513   9.137   1.073  0.2816 -0.2825 -0.0316
10230SOL    HW141369   4.583   9.190   1.026  0.8143  0.1729  1.2525
10230SOL    HW241370   4.427   9.141   1.021  0.7010  0.6904 -0.6547
10231SOL     OW41371   4.876   3.166   2.143 -0.0482 -0.2317 -0.1550
10231SOL    HW141372   4.889   3.088   2.082  3.4327 -0.5684  0.8709
10231SOL    HW241373   4.898   3.139   2.237 -1.3434  1.3192  0.6183
10232SOL     OW41374   2.660   9.323   0.102  0.6526  0.1671  0.3364
10232SOL    HW141375   2.642   9.340   0.005 -0.1284  0.0527  0.4604
10232SOL    HW241376   2.680   9.410   0.148 -1.5808  0.5722  0.6037
10233SOL     OW41377   0.032   7.308   1.553 -0.2091  0.4931 -0.6891
10233SOL    HW141378  -0.048   7.295   1.612  0.0726 -0.4832 -0.5245
10233SOL    HW241379   0.009   7.284   1.459  0.0174 -0.2320 -0.5621
10234SOL     OW41380   1.651   4.278   2.505  0.3404  0.1152  0.0405
10234SOL    HW141381   1.597   4.353   2.468  1.2925  0.7317 -0.1172
10234SOL    HW241382   1.695   4.228   2.430  0.4173 -0.0603  0.2009
10235SOL     OW41383   8.597   7.888   4.347  0.0573 -0.4924 -0.0210
10235SOL    HW141384   8.633   7.811   4.294  0.7222 -1.1873  1.3831
10235SOL    HW241385   8.535   7.853   4.418 -1.3043  0.4677 -0.7231
10236SOL     OW41386   4.620   1.205   2.612  0.1085 -0.1850  0.5323
10236SOL    HW141387   4.686   1.257   2.666  0.1931  0.1910  0.0753
10236SOL    HW241388   4.648   1.205   2.516 -0.8565  0.4772  0.2357
10237SOL     OW41389   2.604   2.982   2.302  0.0094 -0.1499  0.2295
10237SOL    HW141390   2.684   3.018   2.349 -0.5491 -1.2334  2.0846
10237SOL    HW241391   2.627   2.897   2.256  0.4259  0.6408 -1.0617
10238SOL     OW41392   3.227   7.273   3.857  0.2209 -0.0107  0.7970
10238SOL    HW141393   3.311   7.261   3.910  1.1024  0.9177 -0.3222
10238SOL    HW241394   3.183   7.358   3.884  0.2260  0.0393  0.6536
10239SOL     OW41395   2.875   5.142   0.971  0.8063 -0.3789 -0.3801
10239SOL    HW141396   2.882   5.203   1.051 -0.2874  0.3877 -0.8543
10239SOL    HW241397   2.951   5.078   0.972  1.9498  0.9555  0.1665
10240SOL     OW41398   9.344   2.191   0.676 -0.2903  0.7265 -0.4452
10240SOL    HW141399   9.270   2.162   0.615 -0.7134 -0.4433  0.6111
10240SOL    HW241400   9.430   2.193   0.625 -0.5285 -0.8351 -0.9362
10241SOL     OW41401   0.269   2.459   0.975 -0.6311 -0.6311 -0.2726
10241SOL    HW141402   0.342   2.449   1.043 -2.3922  3.0363  2.3463
10241SOL    HW241403   0.296   2.527   0.907 -1.8660  1.3374  1.1674
10242SOL     OW41404   0.775   9.375   2.190 -0.5280  0.3735  0.1424
10242SOL    HW141405   0.723   9.374   2.104  0.1322  0.0623 -0.2619
10242SOL    HW241406   0.825   9.289   2.200  0.1002  0.7608  0.4012
10243SOL     OW41407   2.619   7.680   3.622 -0.3555 -0.0577 -0.2425
10243SOL    HW141408   2.703   7.730   3.602 -0.9808  1.0674 -0.1400
10243SOL    HW241409   2.604   7.679   3.721  0.3255 -1.5803 -0.1498
10244SOL     OW41410   1.830   0.366   1.090 -0.3148  0.3641 -0.3854
10244SOL    HW141411   1.929   0.355   1.097 -0.3103  0.9528  0.6399
10244SOL    HW241412   1.809   0.459   1.057 -0.5179  0.0124 -1.2731
10245SOL     OW41413   5.063   7.898   4.721 -0.1509  0.4324 -0.7142
10245SOL    HW141414   5.074   7.803   4.690 -0.4978 -0.2367  1.1063
10245SOL    HW241415   5.152   7.936   4.745  0.0186  0.6544 -1.7009
10246SOL     OW41416   1.065   6.089   3.588 -0.5338 -0.7633 -0.3919
10246SOL    HW141417   1.144   6.149   3.573  0.3990 -1.8901 -0.1229
10246SOL    HW241418   1.038   6.049   3.501 -1.5282  0.4825 -0.6687
10247SOL     OW41419   9.080   9.252   0.584 -0.1682 -0.0535  0.0350
10247SOL    HW141420   9.080   9.164   0.537  0.3311 -0.3103  0.5141
10247SOL    HW241421   9.018   9.248   0.663  0.1012 -0.0786  0.2465
10248SOL     OW41422   1.766   2.440   3.665 -0.2688  0.1332  0.4227
10248SOL    HW141423   1.817   2.389   3.734 -3.1474  0.0001  2.5579
10248SOL    HW241424   1.793   2.536   3.669  0.2256 -0.0276  1.1399
10249SOL     OW41425   8.780   7.507   4.317  0.2543 -0.1300 -0.3998
10249SOL    HW141426   8.796   7.515   4.416 -0.2704 -0.1750 -0.3068
10249SOL    HW241427   8.797   7.413   4.289  0.2054 -0.1648 -0.3134
10250SOL     OW41428   2.027   8.521   0.229  0.4900  0.1693  0.3649
10250SOL    HW141429   1.994   8.474   0.147 -0.9250 -1.1218  1.6694
10250SOL    HW241430   2.051   8.615   0.205 -0.9886  0.1434 -1.2973
10251SOL     OW41431   0.856   8.733   2.134  0.7402 -0.0160 -0.0869
10251SOL    HW141432   0.948   8.771   2.129  1.3213 -1.3750 -0.1650
10251SOL    HW241433   0.836   8.708   2.229  1.0627 -1.1541 -0.3124
10252SOL     OW41434   1.476   0.874   3.943 -0.2210  0.4670 -0.0128
10252SOL    HW141435   1.529   0.959   3.938  0.8283 -0.0802  1.5387
10252SOL    HW241436   1.387   0.893   3.983  0.6572  0.5717  1.9619
10253SOL     OW41437   9.007   6.571   1.749  0.1743 -0.0342  0.0262
10253SOL    HW141438   9.061   6.487   1.752  0.3925  0.1055 -0.0271
10253SOL    HW241439   8.935   6.566   1.818  2.0424  1.0379  2.0690
10254SOL     OW41440   3.768   9.117   0.033 -0.1715  0.1274  0.1489
10254SOL    HW141441   3.841   9.184   0.037  1.7265 -1.7896 -1.0088
10254SOL    HW241442   3.695   9.152  -0.026  1.0737  0.9348 -0.9690
10255SOL     OW41443   3.260   9.640   3.240  0.1576  0.3888 -0.5783
10255SOL    HW141444   3.291   9.546   3.254  1.4497  0.9841  0.7235
10255SOL    HW241445   3.289   9.697   3.318 -1.9479  1.5476 -0.5821
10256SOL     OW41446   3.966   8.979   3.410  0.3222  0.1209  0.5791
10256SOL    HW141447   3.986   8.923   3.329  2.6039  0.5067  0.8361
10256SOL    HW241448   3.872   9.013   3.405 -1.1900 -3.7976  0.4650
10257SOL     OW41449   6.030   8.030   1.478 -0.5748 -0.2368  0.2662
10257SOL    HW141450   5.978   8.112   1.506  0.3405  0.2259  0.6282
10257SOL    HW241451   6.126   8.054   1.467 -0.4600 -1.0603 -0.5682
10258SOL     OW41452   1.675   4.367   2.122  0.4523 -0.6469 -0.7891
10258SOL    HW141453   1.773   4.380   2.137 -0.1985  2.7787  1.0489
10258SOL    HW241454   1.628   4.454   2.131 -3.0378 -2.5409  0.3577
10259SOL     OW41455   9.802   2.778   0.358  0.1267 -0.2227  0.3498
10259SOL    HW141456   9.806   2.722   0.440 -0.9728  1.1625  1.3744
10259SOL    HW241457   9.885   2.833   0.351 -0.1466  0.2755  0.9935
10260SOL     OW41458   2.019   3.716   1.234 -0.1890 -0.0927  0.0407
10260SOL    HW141459   1.972   3.777   1.299 -2.9030 -0.0308 -1.8806
10260SOL    HW241460   2.000   3.747   1.141  1.8866 -1.4549 -0.8586
10261SOL     OW41461   9.671   3.240   2.772  0.4690  0.0270  0.1168
10261SOL    HW141462   9.598   3.184   2.733  1.4861 -1.9830  1.0304
10261SOL    HW241463   9.674   3.328   2.724 -1.9238 -0.2012 -0.5559
10262SOL     OW41464   3.558   9.925   4.267  0.1856 -0.6702 -0.4707
10262SOL    HW141465   3.570   9.908   4.365 -0.6846  0.7797 -0.0947
10262SOL    HW241466   3.490   9.861   4.231  0.8019 -1.4780 -0.2324
10263SOL     OW41467   3.461   6.760   4.152  0.7987  0.0595 -0.1303
10263SOL    HW141468   3.438   6.685   4.091 -0.0618 -0.6639  1.0746
10263SOL    HW241469   3.437   6.736   4.246 -1.2012  2.5191  0.0562
10264SOL     OW41470   2.214   6.470   0.026  0.0955  0.4360 -0.5285
10264SOL    HW141471   2.311   6.494   0.012  0.3328 -0.9028 -1.2227
10264SOL    HW241472   2.189   6.490   0.121  1.0357  0.8396 -0.3514
10265SOL     OW41473   2.353   3.941   0.204 -0.1431 -0.1234 -0.6550
10265SOL    HW141474   2.444   3.976   0.226 -0.2019  0.2143 -0.9479
10265SOL    HW241475   2.284   3.994   0.254 -0.1159 -1.1416  0.4963
10266SOL     OW41476   8.850   3.820   2.496 -0.6187 -0.1277  0.5519
10266SOL    HW141477   8.889   3.797   2.406  1.1444  1.6907  0.8382
10266SOL    HW241478   8.841   3.736   2.550 -1.9310 -1.2814 -1.3860
10267SOL     OW41479   1.289   3.965   4.484 -0.2487 -0.1387 -0.1825
10267SOL    HW141480   1.259   3.897   4.551 -2.3322 -0.6160 -1.5627
10267SOL    HW241481   1.279   4.056   4.523  1.1507 -0.5164  1.1310
10268SOL     OW41482   8.471   8.140   0.076 -0.2554 -0.0524  0.4274
10268SOL    HW141483   8.480   8.131  -0.024 -0.0471  2.5362  0.1855
10268SOL    HW241484   8.374   8.135   0.100 -0.4000  0.4766 -0.0298
10269SOL     OW41485   9.498   5.033   0.929  0.2395 -0.1224 -0.9822
10269SOL    HW141486   9.560   4.991   0.994  0.5091  2.5646  0.5776
10269SOL    HW241487   9.404   5.009   0.953  0.5379 -3.2615 -2.6751
10270SOL     OW41488   2.822   9.435   4.136 -0.0059 -0.2734 -0.1469
10270SOL    HW141489   2.911   9.395   4.114  0.4474 -0.3006  1.5943
10270SOL    HW241490   2.816   9.527   4.097  0.4802 -0.5754 -0.9307
10271SOL     OW41491   9.199   7.156   1.469  0.1616 -0.5480 -0.3032
10271SOL    HW141492   9.142   7.164   1.387 -1.0004 -1.3326  0.4170
10271SOL    HW241493   9.264   7.232   1.471 -2.1613  1.5217 -0.1431
10272SOL     OW41494   1.336   2.118   4.755 -0.1146  0.2249  0.0920
10272SOL    HW141495   1.299   2.034   4.717 -1.1021  0.1072  1.2903
10272SOL    HW241496   1.426   2.137   4.714 -1.0464 -0.0121 -2.0987
10273SOL     OW41497   0.597   4.397   1.319  0.0249 -0.2966  0.0500
10273SOL    HW141498   0.617   4.495   1.324 -1.0130 -0.1248  0.9642
10273SOL    HW241499   0.665   4.353   1.261  1.9664  0.5911  1.5815
10274SOL     OW41500   8.820   0.508   4.741  0.3473  0.2835 -0.2238
10274SOL    HW141501   8.731   0.500   4.695  1.0699  1.2939 -1.8104
10274SOL    HW241502   8.887   0.546   4.678  2.0812 -1.0472  0.7866
10275SOL     OW41503   4.798   0.123   0.405  0.3788  0.2982 -0.0673
10275SOL    HW141504   4.892   0.136   0.376 -0.5328  1.6530 -2.5506
10275SOL    HW241505   4.736   0.145   0.329 -1.9713  0.4868  1.8380
10276SOL     OW41506   9.982   8.237   1.199 -0.5859 -0.2907  0.0739
10276SOL    HW141507   9.994   8.333   1.174  0.8640 -0.5827 -0.4151
10276SOL    HW241508   9.962   8.184   1.117 -0.2121 -0.5800  0.1686
10277SOL     OW41509   9.127   8.792   1.389 -0.1123 -0.1039  0.2475
10277SOL    HW141510   9.057   8.808   1.460  0.9795  1.8952  0.9137
10277SOL    HW241511   9.136   8.694   1.373 -2.2579 -0.4527  0.9767
10278SOL     OW41512   0.865   1.760   1.139  0.0364  0.1224  0.2072
10278SOL    HW141513   0.889   1.728   1.231 -1.0265 -0.0790  0.4303
10278SOL    HW241514   0.944   1.751   1.079  0.0410 -2.0956  0.4870
10279SOL     OW41515   2.559   3.351   3.793  0.2476 -0.1445  0.4157
10279SOL    HW141516   2.569   3.373   3.696  1.2371 -1.4930  0.1860
10279SOL    HW241517   2.629   3.284   3.819 -0.1792  0.0013  1.9971
10280SOL     OW41518   5.928   9.525   1.371  0.8891 -0.7236 -0.6467
10280SOL    HW141519   5.915   9.440   1.423  0.6409 -1.1184 -1.3558
10280SOL    HW241520   6.000   9.580   1.415 -0.6746 -0.1425  1.2806
10281SOL     OW41521   8.339   7.242   4.242  0.2880  0.1064  0.2558
10281SOL    HW141522   8.275   7.196   4.305 -1.5768  1.3231 -0.7007
10281SOL    HW241523   8.416   7.279   4.294 -0.4405 -0.2476  1.6232
10282SOL     OW41524   5.864   0.093   3.663  0.2961 -0.0017  0.3366
10282SOL    HW141525   5.924   0.038   3.604 -0.6708  0.2996 -0.9660
10282SOL    HW241526   5.874   0.190   3.639 -0.6744  0.0529  0.1354
10283SOL     OW41527   2.031   2.865   4.395 -0.4126  0.0197  0.0280
10283SOL    HW141528   1.963   2.907   4.455 -0.7498  1.2418 -1.1835
10283SOL    HW241529   2.098   2.934   4.368  0.1436 -0.6966 -0.4328
10284SOL     OW41530   5.080   0.659   4.223  0.5520 -0.1928  0.1595
10284SOL    HW141531   5.012   0.665   4.296  1.4838  1.4688  0.9123
10284SOL    HW241532   5.085   0.746   4.175 -0.3786 -1.4137 -2.2228
10285SOL     OW41533   0.966   5.854   2.060  0.2370 -0.5468  0.5042
10285SOL    HW141534   0.980   5.952   2.044  1.0630 -0.5681  1.0961
10285SOL    HW241535   0.874   5.839   2.097  0.6779  0.1761  1.9311
10286SOL     OW41536   9.344   9.896   2.066 -0.0797 -0.1209 -0.0964
10286SOL    HW141537   9.258   9.851   2.044 -0.7862  0.7888  0.7504
10286SOL    HW241538   9.360   9.971   2.001 -0.3136  0.1961  0.2079
10287SOL     OW41539   9.964   0.427   4.745  0.2428 -0.5463 -0.9112
10287SOL    HW141540  10.006   0.338   4.759 -1.1882 -0.6991  3.0802
10287SOL    HW241541   9.864   0.419   4.752  0.0443  1.2168 -1.3528
10288SOL     OW41542   3.204   3.653   1.307  0.2555 -0.1918 -0.4349
10288SOL    HW141543   3.162   3.626   1.220 -0.5258  1.1345 -0.4959
10288SOL    HW241544   3.140   3.634   1.382  0.5739 -0.5178 -0.2449
10289SOL     OW41545   3.190   0.801   3.213  0.2202  0.0976  0.0047
10289SOL    HW141546   3.218   0.891   3.245 -0.6615  0.4033 -0.0845
10289SOL    HW241547   3.165   0.744   3.291 -4.4832  1.6806 -0.1973
10290SOL     OW41548   1.551   4.028   4.647 -0.4682  0.0798  0.2380
10290SOL    HW141549   1.491   4.097   4.605 -1.9432 -0.3464  1.5778
10290SOL    HW241550   1.585   3.966   4.577  0.3211  1.7447 -0.8855
10291SOL     OW41551   8.146   2.506   0.360 -0.2474 -0.0908  0.3132
10291SOL    HW141552   8.131   2.437   0.431 -0.3671  0.3257  0.6954
10291SOL    HW241553   8.163   2.595   0.403  0.6614 -0.0264 -0.1583
10292SOL     OW41554   7.995   6.588   1.687 -0.2315 -0.3926 -0.0325
10292SOL    HW141555   8.072   6.540   1.729 -1.0058 -0.6189  1.1556
10292SOL    HW241556   7.976   6.672   1.738  1.0233  1.1200 -2.0214
10293SOL     OW41557   3.473   2.225   0.865 -0.4614 -0.0038 -0.1751
10293SOL    HW141558   3.470   2.184   0.774 -0.9367 -0.0870 -0.1238
10293SOL    HW241559   3.407   2.179   0.924  2.2033 -2.2893  1.1818
10294SOL     OW41560   5.160   9.480   3.394 -0.1323  0.4085 -0.4249
10294SOL    HW141561   5.229   9.420   3.353 -1.4289 -1.3548 -0.0514
10294SOL    HW241562   5.182   9.575   3.371  3.0070 -0.0214  0.5544
10295SOL     OW41563   2.505   5.916   0.679 -0.1996 -0.4780  0.1467
10295SOL    HW141564   2.506   5.941   0.582 -0.3443  1.8046  0.7086
10295SOL    HW241565   2.598   5.901   0.711 -0.2083 -2.0398 -0.5350
10296SOL     OW41566   1.060   1.221   3.717  0.5567 -0.2952 -0.8383
10296SOL    HW141567   1.147   1.171   3.712  0.3129 -0.8205  0.0138
10296SOL    HW241568   1.007   1.187   3.795 -0.5653 -0.2229 -1.5611
10297SOL     OW41569   0.399   9.693   2.207 -0.5411 -0.4774 -0.5775
10297SOL    HW141570   0.485   9.645   2.219 -0.3196 -0.2537 -1.2730
10297SOL    HW241571   0.332   9.633   2.163 -0.4039 -0.2943 -1.0338
10298SOL     OW41572   3.564   4.270   0.330 -0.6273  0.5408  0.3190
10298SOL    HW141573   3.557   4.280   0.430 -1.6329 -0.2878  0.3451
10298SOL    HW241574   3.636   4.330   0.295  0.2660  0.2593  1.6405
10299SOL     OW41575   3.688   2.325   2.546  0.3815  0.5950  0.0955
10299SOL    HW141576   3.709   2.388   2.471  2.4006 -1.0434 -0.7623
10299SOL    HW241577   3.596   2.289   2.535  0.3184  1.0781 -1.0698
10300SOL     OW41578   2.238   0.389   2.165 -0.6158  0.0128  0.0209
10300SOL    HW141579   2.231   0.291   2.183  0.0565 -0.1524 -0.5757
10300SOL    HW241580   2.305   0.429   2.228  1.3305 -0.4666 -1.6750
10301SOL     OW41581   4.712   6.900   3.316  0.1157  0.5163 -0.7044
10301SOL    HW141582   4.802   6.940   3.296 -0.7777  1.6755 -2.5930
10301SOL    HW241583   4.662   6.886   3.230 -0.6187 -2.3250  0.1394
10302SOL     OW41584   4.653   1.760   1.451 -0.1046  0.0855 -0.7373
10302SOL    HW141585   4.742   1.738   1.411  0.2133  0.7664 -0.4109
10302SOL    HW241586   4.656   1.748   1.550 -0.5648 -0.5002 -0.7856
10303SOL     OW41587   1.925   9.084   1.249 -0.6515  0.0122 -0.0562
10303SOL    HW141588   1.949   9.164   1.194  0.4217  0.3411  0.8702
10303SOL    HW241589   1.911   9.005   1.189 -3.0920  1.1856 -1.1125
10304SOL     OW41590   3.211   2.892   4.661  0.0959  0.1821  0.3208
10304SOL    HW141591   3.303   2.854   4.658 -0.6449 -1.6407  0.1894
10304SOL    HW241592   3.165   2.876   4.574 -0.6546  0.2701  0.6927
10305SOL     OW41593   9.343   1.046   4.137  0.1729 -0.0104  0.3214
10305SOL    HW141594   9.430   1.003   4.161 -0.5567 -2.7973 -1.8468
10305SOL    HW241595   9.359   1.117   4.068  0.7851 -0.0140  0.4556
10306SOL     OW41596   3.295   4.858   2.194 -0.5667  0.0791  0.0591
10306SOL    HW141597   3.233   4.841   2.272 -1.0446 -2.0901 -0.7608
10306SOL    HW241598   3.381   4.809   2.209 -0.9187 -0.9180 -1.0625
10307SOL     OW41599   0.837   0.728   0.174  0.3779  0.3314  0.2218
10307SOL    HW141600   0.904   0.716   0.248  1.0130 -0.8625 -0.5459
10307SOL    HW241601   0.834   0.646   0.117 -0.6525  0.9608 -0.6543
10308SOL     OW41602   2.030   7.237   1.813  0.1202 -0.2445 -0.3718
10308SOL    HW141603   2.069   7.293   1.886  0.1399  1.0913 -1.3845
10308SOL    HW241604   2.087   7.157   1.799  0.0717 -0.5639  1.1330
10309SOL     OW41605   0.799   7.406   0.351  0.4831 -0.6208  0.1151
10309SOL    HW141606   0.729   7.340   0.376 -0.7522  0.5776 -0.1042
10309SOL    HW241607   0.868   7.362   0.293 -1.3166 -1.2535 -1.5842
10310SOL     OW41608   2.931   7.160   3.959 -0.1049 -0.1039 -0.2364
10310SOL    HW141609   2.973   7.069   3.958  0.5620  0.2126 -1.2596
10310SOL    HW241610   2.859   7.164   3.889 -2.5140 -0.9401  2.1049
10311SOL     OW41611   8.641   8.931   0.987  0.0499  0.1593  0.7514
10311SOL    HW141612   8.709   8.863   1.016  0.2562  0.7176  1.5999
10311SOL    HW241613   8.551   8.889   0.987  0.2369 -0.2457  0.8258
10312SOL     OW41614   8.014   5.459   3.914 -0.7525 -0.6726  0.0316
10312SOL    HW141615   8.044   5.364   3.926  1.1850 -0.1378 -0.3244
10312SOL    HW241616   8.067   5.518   3.974 -2.3631  0.1231  0.6689
10313SOL     OW41617   6.802   9.844   3.046 -0.0995 -0.8268  0.1120
10313SOL    HW141618   6.900   9.833   3.034 -0.2558 -1.2192 -0.8712
10313SOL    HW241619   6.784   9.900   3.127  0.9636  0.4883 -0.5491
10314SOL     OW41620   3.846   8.883   2.424 -0.1141  0.1940  0.1710
10314SOL    HW141621   3.788   8.802   2.433  0.1787  0.1306  1.8032
10314SOL    HW241622   3.851   8.930   2.513  0.1725  1.6827 -0.6173
10315SOL     OW41623   3.454   8.896   4.274  0.4725 -0.1654  0.5148
10315SOL    HW141624   3.428   8.907   4.369  0.0980 -0.3377  0.4316
10315SOL    HW241625   3.437   8.802   4.245 -0.9912  0.3084 -0.2055
10316SOL     OW41626   3.530   0.776   3.296 -0.1019 -0.4328 -0.4114
10316SOL    HW141627   3.554   0.831   3.215  0.4188 -0.2462 -0.1303
10316SOL    HW241628   3.461   0.825   3.349 -0.9281 -0.8553 -1.0871
10317SOL     OW41629   2.604   2.711   3.049  0.1378  0.2125  0.6409
10317SOL    HW141630   2.511   2.676   3.037  0.3689 -0.9973  2.1868
10317SOL    HW241631   2.633   2.757   2.966 -0.5595 -2.4428 -1.1227
10318SOL     OW41632   0.451   7.157   3.458  0.1608  0.3339  0.3624
10318SOL    HW141633   0.550   7.151   3.446  0.2478  2.1666 -0.0815
10318SOL    HW241634   0.412   7.066   3.471  1.7752 -0.4914 -0.5398
10319SOL     OW41635   0.492   0.883   0.049 -0.2842 -0.4679 -0.3059
10319SOL    HW141636   0.494   0.890   0.149 -0.6700  0.3715 -0.3523
10319SOL    HW241637   0.564   0.821   0.019 -1.4340 -2.2850  0.6115
10320SOL     OW41638   8.187   2.303   0.571  0.2190 -0.2055 -0.0637
10320SOL    HW141639   8.138   2.219   0.548 -0.9411  0.4960 -0.2051
10320SOL    HW241640   8.241   2.288   0.654 -1.6104 -0.4923  1.0987
10321SOL     OW41641   1.118   4.138   1.026  0.7913  0.1236 -0.1690
10321SOL    HW141642   1.073   4.156   0.938  2.5667 -2.1705 -1.6235
10321SOL    HW241643   1.063   4.073   1.079  2.0579 -2.3296 -1.7528
10322SOL     OW41644   6.814   1.005   1.989  0.0586 -0.1831 -0.2248
10322SOL    HW141645   6.905   1.034   2.021  0.0881 -0.6906  0.1592
10322SOL    HW241646   6.799   0.910   2.016 -1.0581  0.2608  0.7311
10323SOL     OW41647   2.614   3.976   1.030  0.2109  0.1442  0.1440
10323SOL    HW141648   2.648   4.054   0.977 -1.3558 -1.5662 -3.5625
10323SOL    HW241649   2.540   4.007   1.091  0.0492  1.6667 -0.7857
10324SOL     OW41650   4.315   4.683   1.455 -0.3492 -0.4400  0.5295
10324SOL    HW141651   4.393   4.746   1.457 -0.6128 -0.1427  1.4336
10324SOL    HW241652   4.348   4.589   1.452  0.0488 -0.3176  0.9860
10325SOL     OW41653   4.844   8.482   2.852  0.1040  0.0352 -0.1920
10325SOL    HW141654   4.917   8.430   2.807 -0.3876  0.1110 -1.0850
10325SOL    HW241655   4.760   8.429   2.851 -0.0089  0.2051  0.2869
10326SOL     OW41656   3.918   8.391   1.549 -0.1594  0.0414 -0.1996
10326SOL    HW141657   3.821   8.382   1.571 -0.0487 -0.9086 -0.1009
10326SOL    HW241658   3.942   8.488   1.544 -1.5497  0.3023 -2.1915
10327SOL     OW41659   7.675   7.461   1.373  0.4688  0.6106  0.2947
10327SOL    HW141660   7.644   7.514   1.295  1.0970 -0.5990 -0.7828
10327SOL    HW241661   7.616   7.382   1.386  1.2977 -0.0472  0.0841
10328SOL     OW41662   3.028   5.896   3.076 -0.5439  0.2320 -0.5057
10328SOL    HW141663   2.997   5.929   2.987 -1.7208 -0.7029 -0.4567
10328SOL    HW241664   3.028   5.972   3.141 -0.1795  0.8091 -1.1741
10329SOL     OW41665   4.029   9.559   3.365 -0.3707  0.8120  0.6012
10329SOL    HW141666   4.008   9.521   3.455 -0.5139  1.2262  0.7415
10329SOL    HW241667   4.125   9.542   3.343 -0.5401 -0.0143  0.4793
10330SOL     OW41668   8.806   8.444   1.626 -0.1224 -0.7180 -0.3675
10330SOL    HW141669   8.829   8.459   1.529 -1.8309 -0.1645 -0.6945
10330SOL    HW241670   8.814   8.347   1.647  2.0194 -0.6257 -0.5883
10331SOL     OW41671   4.406   3.136   4.560 -0.3387  0.4736  0.1957
10331SOL    HW141672   4.470   3.094   4.625  0.7921  0.3234 -0.9848
10331SOL    HW241673   4.334   3.071   4.537  0.7891 -0.4612 -0.7785
10332SOL     OW41674   7.575   0.936   4.226 -0.4012  0.2264  0.6279
10332SOL    HW141675   7.632   1.005   4.271  1.7280 -0.0184 -1.5972
10332SOL    HW241676   7.585   0.849   4.273  0.6949  0.3125  0.5696
10333SOL     OW41677   4.951   3.066   0.973 -0.2828 -0.4465  0.5736
10333SOL    HW141678   5.014   3.144   0.979 -2.7163  1.4486  2.0997
10333SOL    HW241679   4.962   3.008   1.053 -1.1586  0.4244  1.3320
10334SOL     OW41680   8.402   7.920   3.413 -0.0932 -0.4643 -0.2223
10334SOL    HW141681   8.315   7.927   3.461  0.0454  2.7451 -0.3346
10334SOL    HW241682   8.388   7.929   3.315  0.3559 -0.0846 -0.2559
10335SOL     OW41683   3.462   0.917   1.520 -0.9623  0.5245 -0.9202
10335SOL    HW141684   3.424   0.892   1.609  1.3402  1.2014  0.2980
10335SOL    HW241685   3.448   0.841   1.456  0.5214 -1.4795  1.0266
10336SOL     OW41686   4.225   8.398   4.336 -0.6147 -0.1601  0.5085
10336SOL    HW141687   4.289   8.339   4.385 -0.8345 -0.2108  0.7305
10336SOL    HW241688   4.275   8.477   4.299 -0.0320 -1.2366 -1.0684
10337SOL     OW41689   9.774   1.969   3.388  0.0473 -0.4157 -0.5149
10337SOL    HW141690   9.842   1.900   3.366 -1.2911 -1.4181 -1.6117
10337SOL    HW241691   9.713   1.982   3.310 -1.6071 -0.2584  0.7714
10338SOL     OW41692   0.117   2.340   4.423 -0.1358  1.0035 -0.5870
10338SOL    HW141693   0.137   2.265   4.361 -2.5907 -0.1279 -0.0837
10338SOL    HW241694   0.125   2.427   4.375  1.2261  0.3372 -1.5800
10339SOL     OW41695   7.918   6.339   3.908  0.1969  0.0836 -0.4219
10339SOL    HW141696   7.866   6.413   3.866  0.2379 -0.2018 -0.9845
10339SOL    HW241697   7.918   6.260   3.847 -2.1003 -1.3319  1.3472
10340SOL     OW41698   2.221   0.844   2.529  0.4629 -0.3619 -0.0857
10340SOL    HW141699   2.170   0.868   2.611 -0.4640  0.6292 -0.9233
10340SOL    HW241700   2.163   0.857   2.449  0.8846 -2.6920 -0.8132
10341SOL     OW41701   3.166   9.687   4.637  0.3229 -0.0874 -0.0799
10341SOL    HW141702   3.124   9.770   4.601  1.2698  0.6241  0.4567
10341SOL    HW241703   3.229   9.649   4.569 -0.1376 -0.4084 -0.3402
10342SOL     OW41704   1.359   8.160   2.556 -0.1460 -0.1648  0.6338
10342SOL    HW141705   1.433   8.103   2.519 -0.0652 -0.4836  1.2762
10342SOL    HW241706   1.387   8.256   2.554 -0.7105 -0.0106 -1.4875
10343SOL     OW41707   1.871   6.382   3.258  0.1620 -0.0289  0.2295
10343SOL    HW141708   1.923   6.409   3.338 -0.8065 -2.6433  1.8186
10343SOL    HW241709   1.774   6.379   3.280 -0.3088  0.9938 -1.5807
10344SOL     OW41710   0.489   6.117   1.989  0.6366 -0.4751 -0.1035
10344SOL    HW141711   0.426   6.162   2.052 -0.8049 -1.0875 -1.0982
10344SOL    HW241712   0.461   6.135   1.895  2.4861  0.0162 -0.5956
10345SOL     OW41713   2.261   9.542   2.576 -1.0156  0.1217 -0.2927
10345SOL    HW141714   2.180   9.498   2.536 -0.7684  2.2458 -3.3273
10345SOL    HW241715   2.343   9.507   2.530 -0.3104 -0.8955  1.7077
10346SOL     OW41716   6.646   8.368   2.820 -0.6823  0.0984  0.4684
10346SOL    HW141717   6.599   8.295   2.769 -1.1224 -0.2275  1.3188
10346SOL    HW241718   6.597   8.454   2.807 -1.7871 -0.3330  1.7116
10347SOL     OW41719   3.978   8.352   4.290  0.0760 -0.2912 -0.2955
10347SOL    HW141720   4.075   8.372   4.296  0.0521 -0.5219  0.9816
10347SOL    HW241721   3.931   8.388   4.370 -0.8996 -0.1308 -0.9309
10348SOL     OW41722   6.844   7.841   2.110 -0.1908  0.0406 -0.4122
10348SOL    HW141723   6.920   7.808   2.053 -0.5468  0.6118 -1.2274
10348SOL    HW241724   6.785   7.765   2.135 -0.0581 -0.2044 -0.8493
10349SOL     OW41725   2.272   0.920   0.928  0.0889  0.1639 -0.0639
10349SOL    HW141726   2.368   0.932   0.951 -0.3537  2.3041  0.8000
10349SOL    HW241727   2.216   0.929   1.011 -1.0188  1.2749 -0.9041
10350SOL     OW41728   9.694   0.653   0.694  0.2905 -0.0289 -0.0250
10350SOL    HW141729   9.767   0.641   0.626  0.1048 -2.3742  0.1436
10350SOL    HW241730   9.669   0.749   0.699  1.7176  0.4722 -1.8166
10351SOL     OW41731   0.493   7.709   2.348 -0.0030  0.0796  0.1439
10351SOL    HW141732   0.404   7.674   2.379  0.0005  0.2804  0.3885
10351SOL    HW241733   0.539   7.752   2.425 -0.8294  2.3190 -0.5748
10352SOL     OW41734   1.511   3.820   2.897  0.2031 -0.0884  0.8353
10352SOL    HW141735   1.479   3.729   2.923 -0.9495 -0.4175 -1.5568
10352SOL    HW241736   1.435   3.870   2.854  1.3531  1.2725  0.3592
10353SOL     OW41737   1.484   3.803   4.090 -0.1836  0.2665 -0.5398
10353SOL    HW141738   1.482   3.712   4.049 -0.9808  0.5047 -1.0348
10353SOL    HW241739   1.509   3.870   4.020  1.1934  0.3433  0.0001
10354SOL     OW41740   7.895   9.354   1.784 -0.4566  0.0242  0.0876
10354SOL    HW141741   7.905   9.332   1.881 -1.7758  2.2190  0.7613
10354SOL    HW241742   7.882   9.270   1.732  0.2042 -1.1821  1.7995
10355SOL     OW41743   8.216   6.662   2.957  0.7148 -0.4585 -0.7017
10355SOL    HW141744   8.137   6.657   2.896  1.0804  1.8183 -1.4287
10355SOL    HW241745   8.299   6.675   2.903  1.7147 -3.4239  0.0158
10356SOL     OW41746   2.669   4.853   1.853 -0.4585  0.2584 -0.0155
10356SOL    HW141747   2.761   4.818   1.834  0.3355  2.3132 -0.0979
10356SOL    HW241748   2.650   4.847   1.951 -0.1089  0.0998  0.0408
10357SOL     OW41749   9.864   1.696   4.491  0.1941  0.0100 -0.0738
10357SOL    HW141750   9.882   1.753   4.410  1.4663  2.1065  1.6437
10357SOL    HW241751   9.945   1.694   4.549 -0.6751 -1.5899  1.1157
10358SOL     OW41752   7.721   8.273   3.352  0.3930  0.1716 -0.4917
10358SOL    HW141753   7.707   8.265   3.451  0.1007  0.8358 -0.4744
10358SOL    HW241754   7.816   8.253   3.330  0.3080 -0.6391 -0.1574
10359SOL     OW41755   2.319   0.808   2.912  0.2763 -0.0034 -0.0344
10359SOL    HW141756   2.331   0.766   3.002  1.3128 -1.3718 -0.7962
10359SOL    HW241757   2.382   0.885   2.903 -0.3009  0.5574  0.6533
10360SOL     OW41758   0.728   2.416   0.942 -0.2311  0.0357  0.1388
10360SOL    HW141759   0.735   2.328   0.895  0.5077  1.1543 -1.8641
10360SOL    HW241760   0.815   2.438   0.985 -1.1970 -1.5070  3.1193
10361SOL     OW41761   4.177   2.603   4.445 -0.2819  0.4074  0.1541
10361SOL    HW141762   4.147   2.511   4.420  0.8029  0.0832  0.0237
10361SOL    HW241763   4.243   2.598   4.520 -2.2225  1.2727  1.9405
10362SOL     OW41764   1.532   2.596   1.848 -0.3117 -0.0138  0.0642
10362SOL    HW141765   1.502   2.592   1.753 -0.8754 -0.9612  0.2798
10362SOL    HW241766   1.632   2.589   1.853 -0.3568 -0.9683 -0.3858
10363SOL     OW41767   0.741   6.666   2.433 -0.3341  0.1715  0.4828
10363SOL    HW141768   0.726   6.576   2.474 -0.0880 -0.0568  0.0724
10363SOL    HW241769   0.838   6.678   2.414 -0.3323  0.6361  0.7895
10364SOL     OW41770   1.665   3.753   0.470 -0.4934  0.1587  0.3796
10364SOL    HW141771   1.740   3.706   0.517  0.0462  1.1484  0.5195
10364SOL    HW241772   1.578   3.724   0.509 -0.2008 -1.0713  0.1601
10365SOL     OW41773   9.742   7.948   3.019 -0.0793 -0.1657 -0.1460
10365SOL    HW141774   9.785   7.878   3.076  0.3945 -1.3300 -1.9120
10365SOL    HW241775   9.675   7.998   3.074 -0.2297 -1.8061  1.2195
10366SOL     OW41776   9.329   3.238   2.951 -0.1238  0.4296  0.7022
10366SOL    HW141777   9.329   3.329   2.993  1.7605  0.3627  0.9105
10366SOL    HW241778   9.367   3.172   3.016  3.1253  0.3754 -1.1812
10367SOL     OW41779   3.959   9.492   3.653  0.5086 -0.0296  0.4784
10367SOL    HW141780   3.882   9.450   3.701  0.0575  0.6557  0.3446
10367SOL    HW241781   4.043   9.444   3.679  0.0708 -0.6608  0.7614
10368SOL     OW41782   3.439   3.121   0.926 -0.0580  0.0037 -0.1154
10368SOL    HW141783   3.413   3.060   1.001  0.3290  1.8714  1.5616
10368SOL    HW241784   3.457   3.066   0.845 -2.1089 -1.9374  0.6536
10369SOL     OW41785   4.244   0.661   1.501  0.5760  0.3494 -0.1822
10369SOL    HW141786   4.289   0.701   1.581  0.5310  0.3514 -0.1576
10369SOL    HW241787   4.308   0.600   1.454  0.8487  0.9417 -0.5830
10370SOL     OW41788   8.585   7.183   1.777  0.0256  0.1463 -0.0279
10370SOL    HW141789   8.644   7.116   1.823 -0.0971  0.1602  0.1513
10370SOL    HW241790   8.550   7.248   1.845 -0.8301 -0.3281 -0.0097
10371SOL     OW41791   3.666   2.259   2.228  0.0212 -0.2200  0.4529
10371SOL    HW141792   3.574   2.293   2.247  0.9218  0.6726  3.5255
10371SOL    HW241793   3.688   2.274   2.132 -1.7507  2.7289  0.4573
10372SOL     OW41794   8.614   5.412   1.950 -0.3302  0.5731 -0.0155
10372SOL    HW141795   8.519   5.437   1.930 -0.4362  0.9752  0.9992
10372SOL    HW241796   8.651   5.360   1.873 -0.9620  1.5245 -0.9746
10373SOL     OW41797   5.272   3.263   4.495 -0.9098  0.4903 -0.1325
10373SOL    HW141798   5.229   3.175   4.512 -0.1607  0.0699 -0.3640
10373SOL    HW241799   5.208   3.325   4.450 -0.6027 -0.8258 -2.4013
10374SOL     OW41800   1.426   4.323   0.076 -0.4584  0.6711  0.1032
10374SOL    HW141801   1.428   4.352   0.172  0.3650  0.9567  0.0064
10374SOL    HW241802   1.462   4.230   0.069 -1.3847  0.2996  0.1820
10375SOL     OW41803   3.187   1.561   2.831 -0.3948 -0.9383 -0.0895
10375SOL    HW141804   3.094   1.588   2.855 -0.7622  0.4727 -2.9649
10375SOL    HW241805   3.252   1.609   2.891 -1.4079  0.1908  0.1158
10376SOL     OW41806   3.703   7.233   4.652  0.4070  0.3213 -0.1764
10376SOL    HW141807   3.659   7.205   4.737  1.2804 -1.8028 -0.3845
10376SOL    HW241808   3.649   7.202   4.574  0.5388  0.6840 -0.4151
10377SOL     OW41809   1.453   2.820   3.011 -0.1823 -0.2197  0.1169
10377SOL    HW141810   1.517   2.862   2.946 -0.2648 -0.8804 -0.3998
10377SOL    HW241811   1.412   2.739   2.969 -1.7720  0.5165  0.2451
10378SOL     OW41812   9.439   5.543   0.003  0.0414 -0.6119  0.5273
10378SOL    HW141813   9.518   5.499  -0.040  0.6943 -1.7103  2.7401
10378SOL    HW241814   9.447   5.642  -0.004  0.4331 -0.7636 -1.2997
10379SOL     OW41815   3.581   6.256   2.794  0.3694  0.6131  0.1618
10379SOL    HW141816   3.543   6.337   2.840 -1.7525  1.7305 -3.3638
10379SOL    HW241817   3.642   6.286   2.721  1.4234 -1.0625  0.3400
10380SOL     OW41818   2.850   7.413   1.110 -0.1316  0.4141  0.2823
10380SOL    HW141819   2.908   7.354   1.053  1.0630  0.8999  0.9644
10380SOL    HW241820   2.907   7.457   1.180 -1.3814  0.7496  1.0871
10381SOL     OW41821   9.888   2.570   4.163  0.4225  0.0702 -0.0994
10381SOL    HW141822   9.850   2.524   4.083  0.7031  0.5506 -0.5107
10381SOL    HW241823   9.814   2.608   4.219  0.2563  0.2094 -0.4181
10382SOL     OW41824   0.719   1.575   1.947  0.1811  0.3392 -0.5673
10382SOL    HW141825   0.801   1.564   2.003  0.9525 -3.5031 -2.3088
10382SOL    HW241826   0.640   1.537   1.996  0.4013 -0.6966 -1.0004
10383SOL     OW41827   1.761   8.717   3.635 -0.3473  0.2124 -0.1453
10383SOL    HW141828   1.771   8.804   3.586 -1.0923  0.8829  0.8788
10383SOL    HW241829   1.696   8.728   3.710  1.1183 -0.6662  1.2957
10384SOL     OW41830   2.714   1.808   1.926 -0.1842 -0.4487 -0.3049
10384SOL    HW141831   2.698   1.808   1.828  1.3283  1.2872 -0.5774
10384SOL    HW241832   2.709   1.902   1.961 -0.6654 -1.0347  1.2835
10385SOL     OW41833   1.296   9.581   3.320 -0.6972  0.1091  0.3943
10385SOL    HW141834   1.386   9.622   3.311 -1.3166  1.0747 -1.7346
10385SOL    HW241835   1.240   9.636   3.382  0.0663 -0.3053  1.4526
10386SOL     OW41836   7.940   2.748   1.104 -0.0890 -0.0269  0.4322
10386SOL    HW141837   7.843   2.772   1.099 -0.8849 -3.0203  0.4352
10386SOL    HW241838   7.983   2.764   1.015 -0.6026  1.1990  0.3988
10387SOL     OW41839   1.577   6.294   0.029 -0.6410 -0.0224 -0.1083
10387SOL    HW141840   1.514   6.301   0.107 -0.1243 -1.2009  0.4309
10387SOL    HW241841   1.651   6.232   0.053  1.0549  1.7970 -0.5112
10388SOL     OW41842   2.232   4.585   0.790  0.4694 -0.4579 -0.3449
10388SOL    HW141843   2.136   4.580   0.819  0.6858 -1.2167  0.2685
10388SOL    HW241844   2.243   4.539   0.702 -0.2261  1.9970 -1.7561
10389SOL     OW41845   0.471   8.324   3.583  0.2360  0.4755 -0.1127
10389SOL    HW141846   0.441   8.412   3.620 -2.0519  0.2001 -1.1984
10389SOL    HW241847   0.501   8.265   3.658 -1.2881  1.0492  0.9839
10390SOL     OW41848   7.697   1.564   3.950  0.1671 -0.1093 -0.0618
10390SOL    HW141849   7.640   1.614   4.015 -1.4933 -0.1684 -1.4459
10390SOL    HW241850   7.742   1.630   3.889 -0.6044 -0.1947 -0.7318
10391SOL     OW41851   1.223   1.398   2.938  0.0580  0.1239 -0.0881
10391SOL    HW141852   1.197   1.357   3.026 -0.5566  0.5237 -0.0812
10391SOL    HW241853   1.172   1.352   2.865 -1.5382  1.6818  0.0316
10392SOL     OW41854   3.843   2.208   4.425  0.0183 -1.0150 -0.0114
10392SOL    HW141855   3.882   2.167   4.342  0.9772 -2.3575  1.0880
10392SOL    HW241856   3.756   2.165   4.446 -1.5007  1.0775 -1.7189
10393SOL     OW41857   1.682   0.221   2.619  0.2722  0.1703  0.5853
10393SOL    HW141858   1.682   0.206   2.520  1.1653 -1.0540  0.7670
10393SOL    HW241859   1.700   0.317   2.637  1.1215  0.2088 -0.4145
10394SOL     OW41860   7.743   1.387   3.690  0.0535  0.6527  0.4825
10394SOL    HW141861   7.698   1.412   3.776  0.1519 -0.0006  0.7253
10394SOL    HW241862   7.832   1.347   3.709 -0.9788 -1.8546  0.2190
10395SOL     OW41863   0.315   5.142   2.303 -0.3612  0.2105 -0.1384
10395SOL    HW141864   0.305   5.147   2.203  0.0555  1.4738 -0.1166
10395SOL    HW241865   0.234   5.182   2.346 -0.1344  0.4799  0.0335
10396SOL     OW41866   9.397   2.195   2.678 -0.4649 -0.1099 -0.2601
10396SOL    HW141867   9.332   2.121   2.694 -0.7665  0.2257  0.0898
10396SOL    HW241868   9.382   2.268   2.745  0.7886 -0.3714  0.3146
10397SOL     OW41869   1.932   4.432   2.129 -0.2721 -0.0454 -0.0201
10397SOL    HW141870   1.992   4.488   2.072 -0.4712  1.7169  1.4737
10397SOL    HW241871   1.967   4.430   2.222 -1.1273 -1.1318  0.2897
10398SOL     OW41872   3.270   8.971   4.750 -0.1776 -0.3098  0.2010
10398SOL    HW141873   3.243   8.877   4.770  1.0717 -0.7610 -0.1420
10398SOL    HW241874   3.204   9.035   4.790 -1.3354 -1.3409 -0.0484
10399SOL     OW41875   4.541   3.928   0.193  0.1513 -0.0434  0.2805
10399SOL    HW141876   4.485   3.989   0.250 -0.6691 -0.1982 -0.3527
10399SOL    HW241877   4.486   3.893   0.118  0.6166 -1.6010  0.6511
10400SOL     OW41878   3.130   3.472   1.086  0.7545 -0.3975  0.0615
10400SOL    HW141879   3.212   3.455   1.031  0.6337 -0.4703 -0.0967
10400SOL    HW241880   3.122   3.401   1.156  1.4952  0.2984  0.8658
10401SOL     OW41881   7.613   2.870   0.567 -0.3528 -0.3235 -0.6705
10401SOL    HW141882   7.626   2.796   0.501  0.5064  0.7066 -1.6761
10401SOL    HW241883   7.559   2.943   0.524  0.2925  0.3919 -0.2630
10402SOL     OW41884   7.383   0.517   1.746  0.1124  0.7464  0.2796
10402SOL    HW141885   7.298   0.545   1.703 -0.3539 -1.0032  0.0243
10402SOL    HW241886   7.375   0.526   1.845 -0.7709 -0.4856  0.3229
10403SOL     OW41887   2.260   6.092   1.282 -0.6490 -0.1251  0.2094
10403SOL    HW141888   2.293   6.140   1.201  0.4057 -3.4171 -1.4103
10403SOL    HW241889   2.264   5.993   1.267 -0.7357 -0.8401  4.1795
10404SOL     OW41890   8.410   9.943   2.483 -0.5230  0.0892  0.6172
10404SOL    HW141891   8.501   9.922   2.448 -0.8707  0.2961 -0.4243
10404SOL    HW241892   8.382   9.872   2.548  0.6193  0.3493  1.3969
10405SOL     OW41893   2.116   2.147   3.035 -0.1034  0.5342 -0.4288
10405SOL    HW141894   2.098   2.203   2.953  0.4900  1.1206 -0.1593
10405SOL    HW241895   2.038   2.086   3.051 -0.6555  1.1145 -0.8682
10406SOL     OW41896   2.350   2.822   1.083  0.1402 -0.1006  0.0069
10406SOL    HW141897   2.421   2.760   1.051  0.7546  0.6464 -0.0808
10406SOL    HW241898   2.362   2.839   1.181 -1.3464 -1.8622  0.5308
10407SOL     OW41899   1.089   2.881   0.205 -0.3508 -0.1382  0.5026
10407SOL    HW141900   1.185   2.890   0.179 -0.2872 -0.6276  0.5534
10407SOL    HW241901   1.047   2.971   0.212  0.0838  0.0719  0.3973
10408SOL     OW41902   2.023   4.122   4.683 -0.0383 -0.3307 -0.1211
10408SOL    HW141903   2.103   4.097   4.629  0.1823 -0.4734  0.2698
10408SOL    HW241904   2.051   4.175   4.763 -0.4181  0.3616 -0.4460
10409SOL     OW41905   0.665   0.138   0.975 -0.5143 -0.3228  0.0837
10409SOL    HW141906   0.597   0.211   0.981 -0.9149 -0.6275 -0.6113
10409SOL    HW241907   0.669   0.104   0.881  0.8359 -0.0845  0.0524
10410SOL     OW41908   0.456   7.985   4.681  0.8158  0.7808  0.1063
10410SOL    HW141909   0.516   7.916   4.720  0.8201  0.7385  0.0250
10410SOL    HW241910   0.408   7.946   4.602 -1.3570 -0.0343  1.7808
10411SOL     OW41911   2.196   6.284   3.839 -0.3103  0.3686 -0.0161
10411SOL    HW141912   2.165   6.295   3.744 -2.3145  0.4152  0.6334
10411SOL    HW241913   2.188   6.188   3.865  0.3089  0.3445  0.0929
10412SOL     OW41914   8.337   4.747   2.437 -0.1854  0.4535 -0.2720
10412SOL    HW141915   8.265   4.791   2.492  1.1631  1.3201  0.8395
10412SOL    HW241916   8.406   4.815   2.412  0.7124 -0.5532 -0.5729
10413SOL     OW41917   5.708   9.366   3.130 -0.3471  0.1275 -0.4687
10413SOL    HW141918   5.741   9.279   3.094  2.2179  0.8635  0.0148
10413SOL    HW241919   5.686   9.356   3.227  0.8794  0.2351 -0.1708
10414SOL     OW41920   2.376   3.039   4.098 -0.2020 -0.0287  0.2707
10414SOL    HW141921   2.349   2.969   4.164  2.0610 -0.5307  0.6907
10414SOL    HW241922   2.372   3.001   4.005  0.5440 -0.5742  0.4579
10415SOL     OW41923   9.156   7.911   0.619  0.1636 -0.2305  0.1952
10415SOL    HW141924   9.178   7.875   0.529  0.0208 -0.4133  0.2327
10415SOL    HW241925   9.133   7.835   0.680 -2.2615  0.0780 -0.2969
10416SOL     OW41926   3.217   1.818   0.347 -0.1427  0.0451  0.4380
10416SOL    HW141927   3.124   1.855   0.353 -1.1265 -2.1983 -0.5271
10416SOL    HW241928   3.275   1.883   0.297 -1.6357  0.6242 -0.5685
10417SOL     OW41929   0.683   3.381   4.022  0.0516 -0.2883  0.3122
10417SOL    HW141930   0.745   3.303   4.029  1.0172  0.3619 -0.6927
10417SOL    HW241931   0.733   3.459   3.985 -0.1956  1.5983  3.8037
10418SOL     OW41932   0.336   8.952   1.640  0.0477  0.0299 -0.7321
10418SOL    HW141933   0.260   8.937   1.577  0.4419  0.2592 -1.2580
10418SOL    HW241934   0.323   8.895   1.722 -0.6175 -0.0308 -0.8792
10419SOL     OW41935   7.464   9.099   1.459  0.0703  0.0107 -0.3427
10419SOL    HW141936   7.414   9.116   1.544  1.1761  3.5467 -0.2843
10419SOL    HW241937   7.562   9.114   1.474  0.1470  1.9597 -2.4869
10420SOL     OW41938   9.185   2.149   3.849  0.2963  0.0336 -0.1933
10420SOL    HW141939   9.172   2.089   3.769 -0.0487 -1.6649  1.1022
10420SOL    HW241940   9.195   2.093   3.931  0.9701  1.7568  0.9266
10421SOL     OW41941   0.346   3.540   3.446  0.0860  0.3651  0.1341
10421SOL    HW141942   0.433   3.588   3.455 -0.1715  0.7890  0.3916
10421SOL    HW241943   0.363   3.444   3.423  0.6623  0.1354  1.4574
10422SOL     OW41944   4.594   7.728   4.378 -0.5336 -0.0624  0.8932
10422SOL    HW141945   4.558   7.665   4.309  0.3006  0.1323  0.2782
10422SOL    HW241946   4.674   7.688   4.422  0.5640  0.9321 -0.1496
10423SOL     OW41947   4.831   7.720   2.886 -0.1713  0.4691 -0.2707
10423SOL    HW141948   4.809   7.802   2.835 -1.0781  1.1353  1.1651
10423SOL    HW241949   4.800   7.639   2.836 -0.4176  1.0723 -1.0818
10424SOL     OW41950   4.723   3.928   1.005  0.3269  0.4600 -0.2564
10424SOL    HW141951   4.638   3.879   0.983  0.2491  0.2645  0.4764
10424SOL    HW241952   4.780   3.933   0.923  0.3359 -0.8506 -0.3407
10425SOL     OW41953   0.061   3.350   1.999 -0.4182 -0.1161  0.6560
10425SOL    HW141954   0.082   3.425   2.062 -1.5062  1.3302 -0.6497
10425SOL    HW241955   0.113   3.269   2.025  0.4989  0.9773  2.3332
10426SOL     OW41956   3.898   3.130   3.185 -0.1038 -0.4996  0.2603
10426SOL    HW141957   3.865   3.036   3.179 -0.4803 -0.2582 -1.8613
10426SOL    HW241958   3.991   3.132   3.222  0.3786 -1.8006 -0.8794
10427SOL     OW41959   7.425   9.663   2.013 -0.0434 -0.3120 -0.0027
10427SOL    HW141960   7.525   9.672   2.011  0.0529 -1.3287 -0.5003
10427SOL    HW241961   7.387   9.730   2.077  0.6955  2.1965 -2.1038
10428SOL     OW41962   0.044   8.114   3.194  0.2637 -0.0593 -0.0757
10428SOL    HW141963   0.085   8.023   3.202 -0.3168 -0.2813  0.3964
10428SOL    HW241964   0.013   8.129   3.101  0.3516 -0.3487 -0.1515
10429SOL     OW41965   8.929   4.718   4.532 -0.1415 -1.0516 -0.2992
10429SOL    HW141966   8.856   4.733   4.599 -0.2252  0.9026 -0.7910
10429SOL    HW241967   8.907   4.767   4.447  1.5001 -0.8467 -0.6301
10430SOL     OW41968   3.166   1.150   0.612 -0.3693 -0.2252 -0.4641
10430SOL    HW141969   3.237   1.079   0.613 -0.5496 -0.3899  0.7438
10430SOL    HW241970   3.138   1.171   0.705 -2.7795 -1.0084 -0.9763
10431SOL     OW41971   3.117   5.253   4.443 -0.5003 -0.1928 -0.0517
10431SOL    HW141972   3.076   5.289   4.360 -0.7217 -1.3234 -0.4313
10431SOL    HW241973   3.216   5.268   4.440 -0.3614 -1.2469 -1.0401
10432SOL     OW41974   0.011   5.234   4.625  0.0298  0.5968 -0.5492
10432SOL    HW141975  -0.076   5.200   4.661 -0.2825  0.2158 -1.6420
10432SOL    HW241976   0.063   5.277   4.699 -2.1523  3.0623 -0.3578
10433SOL     OW41977   7.781   4.481   3.268  0.4267  0.6712  0.5201
10433SOL    HW141978   7.815   4.498   3.175  0.7478  2.0173  0.8744
10433SOL    HW241979   7.855   4.495   3.333  0.6113 -1.7693  0.8804
10434SOL     OW41980   1.831   1.264   0.059  0.2685  0.3112  0.0422
10434SOL    HW141981   1.880   1.199   0.117 -1.4258 -1.1610 -0.1218
10434SOL    HW241982   1.746   1.290   0.104 -0.3471  0.3063 -1.0959
10435SOL     OW41983   4.156   1.072   0.159  0.0667  0.6142  0.0855
10435SOL    HW141984   4.248   1.110   0.164 -0.4245  1.8144  0.3487
10435SOL    HW241985   4.145   1.020   0.075  0.7421  1.1103 -0.3102
10436SOL     OW41986   2.750   1.349   2.211 -0.0292  0.5287  0.0526
10436SOL    HW141987   2.784   1.273   2.267 -0.2591 -0.4952 -1.1618
10436SOL    HW241988   2.792   1.344   2.120 -2.0457  0.2792 -0.8979
10437SOL     OW41989   1.833   1.679   0.207 -0.4144 -0.2718 -0.0047
10437SOL    HW141990   1.833   1.743   0.284  1.4686 -0.8784  0.5048
10437SOL    HW241991   1.874   1.723   0.128 -0.5488 -0.3294 -0.1066
10438SOL     OW41992   9.666   5.938   4.681  0.3881 -0.1899  0.4221
10438SOL    HW141993   9.635   5.861   4.738  1.5195 -0.0516  1.2340
10438SOL    HW241994   9.597   6.010   4.684 -0.1134 -0.6712  0.6549
10439SOL     OW41995   2.988   6.618   2.534 -0.1374  1.0026 -0.1964
10439SOL    HW141996   3.040   6.533   2.543  0.5062  1.2467 -1.4865
10439SOL    HW241997   3.050   6.694   2.515 -0.7648  1.6784  0.4191
10440SOL     OW41998   7.906   0.612   4.670  0.0055  0.5223 -0.1954
10440SOL    HW141999   7.968   0.617   4.591  0.9978 -0.9186  0.4699
10440SOL    HW242000   7.874   0.518   4.681 -0.8928  0.9108  0.5551
10441SOL     OW42001   8.916   0.869   1.139  0.3449  0.3490  0.0819
10441SOL    HW142002   8.917   0.899   1.043  0.0312 -1.5061 -0.5153
10441SOL    HW242003   8.983   0.922   1.191  1.0745  0.8349 -1.3342
10442SOL     OW42004   0.307   9.247   3.329  0.2183 -0.6479  0.0923
10442SOL    HW142005   0.266   9.274   3.242  1.1139 -0.6422 -0.3220
10442SOL    HW242006   0.384   9.186   3.313  1.1985  0.3728  0.8080
10443SOL     OW42007   3.837   6.502   2.910  0.0242 -0.1611  0.4030
10443SOL    HW142008   3.873   6.587   2.949 -2.9496  1.6107 -0.5779
10443SOL    HW242009   3.892   6.476   2.831  0.0725  1.7078 -0.2034
10444SOL     OW42010   3.734   1.673   0.059 -0.3538  0.4321  0.2955
10444SOL    HW142011   3.685   1.710  -0.020 -0.0916 -0.4234 -0.2609
10444SOL    HW242012   3.668   1.635   0.124 -0.4024 -1.0206 -0.6068
10445SOL     OW42013   2.655   8.980   3.203 -0.9437 -0.9927 -0.2859
10445SOL    HW142014   2.577   8.995   3.262 -0.1210  0.5355  0.4342
10445SOL    HW242015   2.666   9.058   3.141  0.5098 -0.7846  0.2145
10446SOL     OW42016   8.668   1.897   2.095  0.0808 -0.4653 -0.2592
10446SOL    HW142017   8.595   1.846   2.049 -0.6569  0.7538 -0.4564
10446SOL    HW242018   8.722   1.835   2.152 -0.8358 -1.4479 -0.4599
10447SOL     OW42019   8.257   2.702   1.022 -1.1469  0.0373  0.0597
10447SOL    HW142020   8.271   2.798   0.999  1.9655 -0.6247 -0.9664
10447SOL    HW242021   8.285   2.685   1.116 -0.4583 -0.1360 -0.1779
10448SOL     OW42022   1.024   4.485   0.852 -0.3844 -0.2772  0.4686
10448SOL    HW142023   0.988   4.573   0.882 -1.0141 -0.3723  0.0249
10448SOL    HW242024   1.031   4.423   0.930 -1.4020 -0.3199  0.5409
10449SOL     OW42025   9.601   0.367   4.298  0.2291 -0.1934 -0.3340
10449SOL    HW142026   9.576   0.463   4.306 -0.0296 -0.1902 -1.1342
10449SOL    HW242027   9.534   0.311   4.347 -0.1091 -0.0255 -0.5976
10450SOL     OW42028   9.665   9.622   0.444 -0.1571 -0.1009  0.2060
10450SOL    HW142029   9.652   9.720   0.457  0.9065  0.1866 -0.8611
10450SOL    HW242030   9.614   9.592   0.364 -0.7371 -0.4857  0.7141
10451SOL     OW42031   9.159   0.694   0.074  0.1725 -0.1153  0.2383
10451SOL    HW142032   9.135   0.616   0.132 -0.5136 -0.2057 -0.1564
10451SOL    HW242033   9.254   0.720   0.090  0.3230 -0.8635  0.5735
10452SOL     OW42034   9.407   2.828   0.113  0.1594 -0.3097  0.3444
10452SOL    HW142035   9.411   2.927   0.102 -3.2045 -0.0667  0.6226
10452SOL    HW242036   9.484   2.786   0.066  1.2364  2.3833 -0.4126
10453SOL     OW42037   0.004   9.456   4.426 -0.5990  0.2640 -0.5583
10453SOL    HW142038  -0.057   9.416   4.496  0.3835 -0.3129 -0.0247
10453SOL    HW242039  -0.051   9.510   4.362 -1.7255 -0.5103 -0.2722
10454SOL     OW42040   5.830   0.653   3.580  0.3919  0.4834 -0.0433
10454SOL    HW142041   5.819   0.586   3.654 -1.0508 -0.8811 -1.4768
10454SOL    HW242042   5.744   0.703   3.567  0.5831  0.5934 -0.9098
10455SOL     OW42043   1.078   8.148   4.148 -0.7421 -0.2867  0.7542
10455SOL    HW142044   1.040   8.068   4.103 -0.8894 -0.5819  1.4015
10455SOL    HW242045   1.063   8.229   4.091 -0.5279 -0.7279  0.0708
10456SOL     OW42046   9.996   5.228   3.727  0.2651 -0.4468  0.1754
10456SOL    HW142047   9.905   5.269   3.735  0.7214  0.2434  2.0431
10456SOL    HW242048  10.047   5.274   3.655 -0.6453 -0.4453 -0.4820
10457SOL     OW42049   8.140   0.543   0.126 -0.7385  0.0755 -0.2378
10457SOL    HW142050   8.147   0.567   0.029 -0.8609  1.1952  0.0244
10457SOL    HW242051   8.086   0.460   0.136 -0.3770 -0.2728 -1.1629
10458SOL     OW42052   2.073   0.565   2.599  0.0611  0.1126 -0.1043
10458SOL    HW142053   2.065   0.515   2.513 -2.0664 -1.9799  1.2461
10458SOL    HW242054   2.013   0.646   2.595  0.9504  0.7429 -1.0391
10459SOL     OW42055   8.626   9.745   3.627 -0.3577 -0.3636 -0.1705
10459SOL    HW142056   8.546   9.722   3.683  0.6925 -0.3147  1.3951
10459SOL    HW242057   8.696   9.674   3.640  0.8615  0.9516  0.5323
10460SOL     OW42058   4.302   3.562   0.702  0.2781  0.1574  0.2795
10460SOL    HW142059   4.399   3.542   0.688  0.5206 -0.2355  2.3382
10460SOL    HW242060   4.289   3.601   0.793 -1.0962  3.1950 -1.1245
10461SOL     OW42061   0.814   9.714   0.732  0.5961 -0.4701  0.2440
10461SOL    HW142062   0.885   9.716   0.802  0.6585  0.8747  0.1408
10461SOL    HW242063   0.729   9.751   0.769  0.4492 -0.3536 -0.2062
10462SOL     OW42064   9.394   1.529   4.109  0.6415 -0.1667  0.4250
10462SOL    HW142065   9.357   1.520   4.017  0.4088  0.0987  0.4923
10462SOL    HW242066   9.326   1.495   4.175  1.3633 -1.7017  0.4103
10463SOL     OW42067   8.575   3.690   2.583  0.3020  0.2209  0.3613
10463SOL    HW142068   8.652   3.659   2.639 -0.3444 -0.0976  1.0792
10463SOL    HW242069   8.489   3.665   2.628 -0.2221  1.1868 -0.0973
10464SOL     OW42070   3.577   2.628   3.740  0.3365  1.3483 -0.1994
10464SOL    HW142071   3.623   2.583   3.664 -0.3612  3.4919 -1.9282
10464SOL    HW242072   3.618   2.718   3.755 -0.2336  1.3794  1.2763
10465SOL     OW42073   8.313   7.934   1.021  0.2515  0.4125 -0.1837
10465SOL    HW142074   8.353   8.016   0.978  0.2077  0.4923 -0.0727
10465SOL    HW242075   8.255   7.962   1.097 -2.5025  0.4911 -2.2547
10466SOL     OW42076   8.154   2.016   3.999 -0.4105 -0.1115 -0.1509
10466SOL    HW142077   8.142   2.053   3.907  0.1639 -0.2597 -0.2833
10466SOL    HW242078   8.204   1.930   3.994  0.4684  0.3648  0.3891
10467SOL     OW42079   4.192   4.185   1.265  0.0753  0.0579 -0.3086
10467SOL    HW142080   4.142   4.109   1.306 -0.3903  0.6789  0.2844
10467SOL    HW242081   4.128   4.247   1.219  0.1697  1.3843  1.3128
10468SOL     OW42082   0.148   4.273   4.627  0.2557  0.1577 -1.0214
10468SOL    HW142083   0.149   4.200   4.696 -1.4182 -0.9929 -2.1385
10468SOL    HW242084   0.130   4.361   4.670 -0.4431 -0.5075  0.0608
10469SOL     OW42085   1.803   0.359   3.644  0.2504 -0.2698  0.0991
10469SOL    HW142086   1.869   0.404   3.703  1.3131  2.1394 -2.7593
10469SOL    HW242087   1.712   0.398   3.659  0.6937  1.0189 -0.4925
10470SOL     OW42088   8.394   8.392   1.494  0.0204  0.8197 -0.2768
10470SOL    HW142089   8.317   8.330   1.503 -1.1194  2.3711  0.9372
10470SOL    HW242090   8.409   8.441   1.580  1.1473  1.9323 -1.0717
10471SOL     OW42091   3.695   8.488   3.386 -0.0241 -0.6323 -0.5734
10471SOL    HW142092   3.701   8.428   3.465 -0.0001 -0.1243 -0.1892
10471SOL    HW242093   3.600   8.517   3.373 -0.2460 -1.7134 -1.4813
10472SOL     OW42094   0.254   8.748   4.058 -0.2878  0.3408 -0.1269
10472SOL    HW142095   0.270   8.784   3.966  0.1956  1.2551  0.3123
10472SOL    HW242096   0.307   8.664   4.070  0.6394  0.8980 -0.2539
10473SOL     OW42097   1.304   9.626   4.417 -0.1353 -0.1824  0.0639
10473SOL    HW142098   1.272   9.647   4.325  0.8593  0.3094 -0.1764
10473SOL    HW242099   1.400   9.599   4.414  0.7987  2.7330  1.2736
10474SOL     OW42100   2.760   4.080   0.069 -0.3803  0.6783  0.2163
10474SOL    HW142101   2.819   3.999   0.076 -1.1131  0.3103  2.9475
10474SOL    HW242102   2.813   4.162   0.088 -0.3307  0.5024  0.8707
10475SOL     OW42103   7.557   9.179   4.623 -0.0747 -0.7061  0.2683
10475SOL    HW142104   7.460   9.158   4.629 -0.7321  1.7367 -1.0620
10475SOL    HW242105   7.602   9.111   4.565 -1.0299 -1.6695  0.6338
10476SOL     OW42106   7.910   8.574   1.926 -0.2433 -0.0190 -0.2972
10476SOL    HW142107   7.984   8.577   1.859  0.2800  1.0801  0.3236
10476SOL    HW242108   7.886   8.667   1.953 -2.8268 -0.2760 -1.5385
10477SOL     OW42109   2.485   9.586   4.686  0.0414  0.4144 -0.0563
10477SOL    HW142110   2.417   9.586   4.612 -1.5262 -1.7309  1.3104
10477SOL    HW242111   2.438   9.597   4.774  1.6738  0.7535  0.7863
10478SOL     OW42112   1.343   2.353   2.771 -0.5162  0.2195  0.6024
10478SOL    HW142113   1.265   2.313   2.819  0.0150  1.1587  2.2651
10478SOL    HW242114   1.410   2.282   2.752 -1.1111 -0.3148  0.4760
10479SOL     OW42115   0.842   7.168   2.096 -0.7383  0.3724  0.0594
10479SOL    HW142116   0.762   7.110   2.077  0.4387 -0.7174 -1.7891
10479SOL    HW242117   0.874   7.152   2.190 -2.3320  0.3927  0.6134
10480SOL     OW42118   2.906   4.417   1.754 -0.1547  0.2768 -0.1306
10480SOL    HW142119   2.821   4.366   1.766  0.5423 -2.1208 -4.2778
10480SOL    HW242120   2.984   4.356   1.769  0.7904  1.5688  0.2832
10481SOL     OW42121   3.484   1.117   2.880 -0.0588  0.6091  0.0301
10481SOL    HW142122   3.416   1.059   2.836  0.5341  0.2345 -0.4072
10481SOL    HW242123   3.485   1.207   2.837  0.2485  0.3695 -0.4676
10482SOL     OW42124   1.900   7.450   3.641 -0.3322  0.0771 -0.6883
10482SOL    HW142125   1.873   7.381   3.574  2.7864  0.3012 -2.2818
10482SOL    HW242126   1.913   7.407   3.730 -2.0728 -0.6777 -0.7809
10483SOL     OW42127   7.980   8.491   3.149  0.0502 -0.1069  0.3264
10483SOL    HW142128   7.928   8.474   3.065  1.0663  0.3175 -0.3951
10483SOL    HW242129   7.974   8.588   3.174  1.0905  0.0940 -0.1720
10484SOL     OW42130   3.455   1.768   1.415  0.0170  0.0195 -0.3460
10484SOL    HW142131   3.417   1.790   1.325 -0.3145 -0.9289 -0.4430
10484SOL    HW242132   3.387   1.718   1.469  0.4783 -0.0763  0.1497
10485SOL     OW42133   1.972   6.122   4.174 -0.1573  0.5651 -0.1812
10485SOL    HW142134   1.933   6.041   4.218  1.0910  0.1732  0.2387
10485SOL    HW242135   1.903   6.165   4.116 -1.0515 -0.3930  0.1508
10486SOL     OW42136   2.059   8.634   2.847  0.2706  0.3607 -0.0622
10486SOL    HW142137   2.135   8.597   2.793 -0.7003  0.1053 -1.2931
10486SOL    HW242138   1.974   8.592   2.816 -0.5215  1.5775  0.4434
10487SOL     OW42139   7.992   0.083   0.709 -0.6437  0.1938  0.2085
10487SOL    HW142140   7.925   0.018   0.674  0.5805 -0.6809 -0.5555
10487SOL    HW242141   8.084   0.054   0.683 -0.2602  4.0920 -3.2660
10488SOL     OW42142   8.789   3.317   3.701  0.0949 -0.1667 -0.5191
10488SOL    HW142143   8.867   3.278   3.751  0.6419 -0.5723 -1.6705
10488SOL    HW242144   8.762   3.403   3.744 -1.2909 -1.9194  2.2170
10489SOL     OW42145   1.144   3.957   2.213 -0.1072  0.3138 -0.1478
10489SOL    HW142146   1.116   3.862   2.202  3.4432 -0.9995  1.1620
10489SOL    HW242147   1.091   4.000   2.286 -1.1624 -0.9011 -0.1905
10490SOL     OW42148   0.081   4.010   2.866 -0.1007  0.0209  0.1795
10490SOL    HW142149   0.023   3.933   2.838 -0.5570  0.1621  0.7256
10490SOL    HW242150   0.042   4.053   2.948  1.2963 -0.4848  1.1365
10491SOL     OW42151   2.486   3.848   4.079 -0.1553  0.3621 -0.0224
10491SOL    HW142152   2.496   3.840   3.980  0.6583 -1.6291  0.1877
10491SOL    HW242153   2.571   3.884   4.118 -0.6312  1.5658 -0.0789
10492SOL     OW42154   3.263   0.161   1.285 -0.2243  0.3249 -0.0733
10492SOL    HW142155   3.323   0.219   1.230  0.1587 -0.8767 -0.9341
10492SOL    HW242156   3.297   0.158   1.379  2.1623 -1.8039 -0.9535
10493SOL     OW42157   1.086   5.267   0.196 -0.3853  0.3141 -0.4114
10493SOL    HW142158   1.111   5.291   0.290  0.0317 -0.0531 -0.4268
10493SOL    HW242159   1.125   5.178   0.172 -1.5181 -0.1599 -0.5228
10494SOL     OW42160   7.752   8.989   2.421  0.5851  0.1777 -0.1783
10494SOL    HW142161   7.743   8.901   2.468  2.2174  1.0271  1.8414
10494SOL    HW242162   7.662   9.020   2.391 -0.4438 -0.7543  1.7994
10495SOL     OW42163   1.061   9.969   1.076  0.2208 -0.4904  0.5212
10495SOL    HW142164   0.991  10.032   1.109  0.9284  0.7319 -0.2343
10495SOL    HW242165   1.068   9.976   0.976  1.4384 -0.5516  0.5897
10496SOL     OW42166   2.201   0.887   0.296  0.0865 -0.1702  0.0125
10496SOL    HW142167   2.234   0.971   0.252  1.2693 -0.9623 -0.6293
10496SOL    HW242168   2.149   0.912   0.378  0.4330  1.1993 -0.1596
10497SOL     OW42169   9.173   1.410   3.115  0.1480 -0.3615 -0.3907
10497SOL    HW142170   9.240   1.483   3.128  0.0000  0.1389 -2.3187
10497SOL    HW242171   9.081   1.445   3.135  0.2140 -0.3979 -0.0180
10498SOL     OW42172   7.824   8.253   1.284 -0.2292  0.2607 -0.6042
10498SOL    HW142173   7.868   8.251   1.194 -0.2737 -0.2676 -0.6123
10498SOL    HW242174   7.725   8.247   1.273 -0.3176  1.4474 -0.5844
10499SOL     OW42175   2.010   3.073   2.560 -0.0349 -0.1915  0.2478
10499SOL    HW142176   2.058   3.161   2.565  0.6050 -0.5602  0.7097
10499SOL    HW242177   2.020   3.035   2.468  1.2555 -0.6499  0.5709
10500SOL     OW42178   0.229   6.857   3.439 -0.3680 -0.1582 -0.1930
10500SOL    HW142179   0.220   6.839   3.537 -1.5774  0.6743 -0.1309
10500SOL    HW242180   0.325   6.853   3.413 -0.0418 -0.4406  1.0192
10501SOL     OW42181   2.171   7.128   4.352 -0.2105 -0.0921 -0.6972
10501SOL    HW142182   2.158   7.226   4.333 -2.1091 -0.4711 -1.4337
10501SOL    HW242183   2.220   7.117   4.438  0.2291  1.5194 -0.7294
10502SOL     OW42184   3.481   7.937   4.676  0.2878 -0.3297 -0.5568
10502SOL    HW142185   3.542   7.921   4.753 -1.8959 -0.1805  1.2660
10502SOL    HW242186   3.429   7.853   4.656  0.2023 -0.1073 -1.2911
10503SOL     OW42187   8.307   9.815   2.238  0.4990 -0.1166 -0.2845
10503SOL    HW142188   8.322   9.896   2.295  2.0505  0.1368 -1.0335
10503SOL    HW242189   8.234   9.834   2.173  1.7104  1.1621 -1.3097
10504SOL     OW42190   3.714   8.098   1.597 -0.3461 -0.0215 -0.0560
10504SOL    HW142191   3.715   8.194   1.569 -1.1260  0.6265  2.0179
10504SOL    HW242192   3.722   8.039   1.517  2.0457  1.7939 -1.2182
10505SOL     OW42193   4.094   9.040   1.663  0.5106 -0.4373 -0.2880
10505SOL    HW142194   4.134   8.962   1.614  0.8008  1.0041 -2.4256
10505SOL    HW242195   4.119   9.125   1.616 -0.9956  0.8496  1.1833
10506SOL     OW42196   5.348   8.498   2.567  0.0813  0.3643 -0.3424
10506SOL    HW142197   5.437   8.544   2.567  0.9431 -1.2522 -0.0227
10506SOL    HW242198   5.289   8.539   2.498  1.2301  1.1881 -0.8491
10507SOL     OW42199   2.413   1.932   3.757  0.4944 -0.2505 -0.3175
10507SOL    HW142200   2.408   1.918   3.856 -1.4116 -0.9562 -0.4972
10507SOL    HW242201   2.321   1.947   3.721  1.1482 -0.2625 -2.0320
10508SOL     OW42202   3.042   9.397   2.802  0.3049  0.0516 -0.2719
10508SOL    HW142203   3.017   9.388   2.898 -1.2620 -0.8068 -0.7564
10508SOL    HW242204   3.140   9.380   2.792  0.2406 -1.1280  0.9848
10509SOL     OW42205   9.564   8.769   1.160  0.0392  1.1836  0.2815
10509SOL    HW142206   9.537   8.787   1.065  0.5315 -0.6502 -0.2166
10509SOL    HW242207   9.658   8.799   1.175 -0.1054  1.6563  0.2404
10510SOL     OW42208   9.125   2.811   0.064 -0.1054 -0.6211 -0.6534
10510SOL    HW142209   9.088   2.731   0.112 -0.5926 -0.6036 -0.9903
10510SOL    HW242210   9.225   2.809   0.067 -0.0841  1.0746  3.2296
10511SOL     OW42211   8.505   1.725   1.106 -0.1316  0.0252 -0.5985
10511SOL    HW142212   8.417   1.707   1.061 -1.1847  1.1981  0.9635
10511SOL    HW242213   8.551   1.800   1.058 -1.5142  1.6636  0.5857
10512SOL     OW42214   9.901   2.008   3.621  0.2211  0.6200  0.2575
10512SOL    HW142215   9.991   2.045   3.597  0.8671 -0.7445  0.5906
10512SOL    HW242216   9.842   2.011   3.540  1.8616 -2.3368 -1.1350
10513SOL     OW42217   2.576   4.557   4.181  0.3345 -0.2872 -0.2982
10513SOL    HW142218   2.634   4.575   4.102  0.9714 -0.6710  0.0814
10513SOL    HW242219   2.529   4.641   4.208  1.9457  0.3917  0.3960
10514SOL     OW42220   8.059   2.232   1.533  0.2696  0.1576 -0.0212
10514SOL    HW142221   8.045   2.282   1.448 -1.8574  0.4487  0.4508
10514SOL    HW242222   8.075   2.296   1.608  0.3347 -0.0050  0.1064
10515SOL     OW42223   1.444   4.224   2.136 -0.1320  0.1205 -0.1945
10515SOL    HW142224   1.460   4.186   2.045  0.8195 -2.2825  0.9284
10515SOL    HW242225   1.524   4.277   2.164  0.9472 -1.8163  0.5058
10516SOL     OW42226   8.754   6.697   0.810  0.3828  0.1075  0.5087
10516SOL    HW142227   8.732   6.634   0.885 -1.2800 -0.0066 -0.0676
10516SOL    HW242228   8.754   6.791   0.845  0.8975 -0.0479  0.9344
10517SOL     OW42229   3.346   2.637   4.290 -0.0070  0.4047 -0.2938
10517SOL    HW142230   3.444   2.640   4.309  0.3404 -3.0813 -1.2000
10517SOL    HW242231   3.296   2.623   4.376  0.4057  0.3700 -0.0586
10518SOL     OW42232   5.732   2.450   1.479 -0.2218  0.1032  0.4216
10518SOL    HW142233   5.827   2.423   1.499  0.3704  0.0756 -2.2789
10518SOL    HW242234   5.675   2.368   1.478  0.3868 -0.3151 -1.3889
10519SOL     OW42235   8.931   1.901   1.413 -0.3284  0.2812 -0.0707
10519SOL    HW142236   9.022   1.897   1.371  0.1242  0.1213  0.9165
10519SOL    HW242237   8.907   1.810   1.448 -0.8138  0.3556 -0.2155
10520SOL     OW42238   5.857   8.946   3.227 -0.5479 -0.1103 -0.2708
10520SOL    HW142239   5.869   8.857   3.271  3.3648 -0.3763 -1.7336
10520SOL    HW242240   5.879   9.019   3.291  1.8403 -0.3999 -0.7207
10521SOL     OW42241   4.573   2.975   4.724  0.2995 -0.0050 -0.0926
10521SOL    HW142242   4.592   2.895   4.667 -2.8559 -0.0072 -1.2450
10521SOL    HW242243   4.541   2.946   4.814 -1.2969 -0.0512 -0.6715
10522SOL     OW42244   4.377   3.937   0.907 -0.0754  0.4151 -0.7336
10522SOL    HW142245   4.402   4.025   0.949 -1.8991  0.7889 -0.3940
10522SOL    HW242246   4.346   3.952   0.814 -1.7504  0.3198 -0.2041
10523SOL     OW42247   3.182   6.813   0.878 -0.1556 -0.7879  0.1463
10523SOL    HW142248   3.117   6.832   0.805 -0.8653  0.3830  1.0514
10523SOL    HW242249   3.259   6.760   0.843 -0.6931 -0.5913 -1.3358
10524SOL     OW42250   9.065   1.412   1.487  0.2696 -0.4296  0.6119
10524SOL    HW142251   9.003   1.483   1.522  0.0649  0.5570 -1.7037
10524SOL    HW242252   9.043   1.325   1.530 -0.4704  0.5872  2.3639
10525SOL     OW42253   1.081   1.730   3.670  0.1122 -0.3242  0.0583
10525SOL    HW142254   1.145   1.654   3.673  1.8641  1.1960  2.4498
10525SOL    HW242255   1.130   1.816   3.684 -2.0807  1.1226 -0.7746
10526SOL     OW42256   9.257   6.041   4.004  0.7037  0.0002 -0.3386
10526SOL    HW142257   9.184   6.109   3.995  1.4089  0.9188  0.6511
10526SOL    HW242258   9.243   5.989   4.088  1.0555  0.0199 -0.2675
10527SOL     OW42259   1.869   9.433   3.169 -0.2991  0.3374 -0.0691
10527SOL    HW142260   1.943   9.371   3.195 -2.7794 -2.8655 -0.3464
10527SOL    HW242261   1.876   9.454   3.071  1.6880  2.1641  0.4274
10528SOL     OW42262   2.542   8.136   3.570  0.5801 -0.0438  0.3751
10528SOL    HW142263   2.585   8.068   3.510  1.6052 -0.2315  1.3127
10528SOL    HW242264   2.532   8.222   3.520  4.8321  0.9377  1.0207
10529SOL     OW42265   9.981   9.829   3.921  0.2399  0.2144  0.5125
10529SOL    HW142266  10.034   9.746   3.938 -0.0571  0.1197  0.9917
10529SOL    HW242267  10.041   9.909   3.929  0.7585 -0.0050 -0.9836
10530SOL     OW42268   5.457   0.317   2.373  0.0817 -0.2593  0.4513
10530SOL    HW142269   5.415   0.397   2.329  0.2339 -1.0981 -1.2733
10530SOL    HW242270   5.556   0.332   2.380 -0.0860  0.3734  1.6124
10531SOL     OW42271   0.890   1.592   2.859  0.2914  0.1475  0.0553
10531SOL    HW142272   0.983   1.580   2.824 -0.4845 -0.3275 -1.9117
10531SOL    HW242273   0.889   1.574   2.957  2.2229 -0.1437  0.0433
10532SOL     OW42274   3.475   5.353   2.090 -0.4871  0.3204  0.2894
10532SOL    HW142275   3.565   5.391   2.114  0.2272 -0.7973 -0.5623
10532SOL    HW242276   3.454   5.277   2.150 -0.1716 -0.3861 -0.4824
10533SOL     OW42277   3.466   2.960   3.072 -0.5242  0.1734  0.2271
10533SOL    HW142278   3.542   2.896   3.061 -1.3231 -0.2465 -3.4475
10533SOL    HW242279   3.393   2.936   3.008 -1.0302  4.5057 -0.9773
10534SOL     OW42280   0.199   7.589   4.208  0.9212 -0.2811 -0.4876
10534SOL    HW142281   0.158   7.679   4.224  1.0874 -0.1947 -0.5551
10534SOL    HW242282   0.265   7.569   4.281  1.7189  0.1367 -1.0913
10535SOL     OW42283   3.641   0.914   3.062  0.6942 -0.5073  0.0753
10535SOL    HW142284   3.549   0.887   3.034  0.2995 -0.2398  1.0834
10535SOL    HW242285   3.643   1.013   3.079  1.3837 -0.3732 -0.7620
10536SOL     OW42286   4.379   3.132   3.697 -0.0427  0.1105  0.1416
10536SOL    HW142287   4.427   3.184   3.768 -0.3262 -1.6441  1.6490
10536SOL    HW242288   4.284   3.161   3.694 -0.6994 -1.6410  2.3624
10537SOL     OW42289   3.042   1.691   2.094 -0.8344 -0.1384 -0.4761
10537SOL    HW142290   2.975   1.661   2.026 -1.0345 -2.7478  0.8033
10537SOL    HW242291   3.009   1.670   2.186  0.2405  1.6911  0.3684
10538SOL     OW42292   0.463   0.327   0.843  0.3071  0.7639 -0.0604
10538SOL    HW142293   0.423   0.377   0.766 -0.5638  1.0193  0.5591
10538SOL    HW242294   0.480   0.390   0.919  1.1340  0.5083 -0.0285
10539SOL     OW42295   2.722   5.136   0.738  0.1181  0.3871 -0.2851
10539SOL    HW142296   2.766   5.130   0.827  0.1608  1.0414 -0.2608
10539SOL    HW242297   2.628   5.101   0.744  0.5513 -0.8143 -0.2900
10540SOL     OW42298   9.774   0.308   1.702 -0.4681 -0.1233 -0.1743
10540SOL    HW142299   9.779   0.342   1.795 -0.7697 -1.4092  0.3252
10540SOL    HW242300   9.738   0.379   1.642 -1.0594  0.4344  0.8376
10541SOL     OW42301   6.530   0.446   3.019 -0.8369  0.1854 -0.3911
10541SOL    HW142302   6.464   0.450   3.094  0.2802 -0.7728  0.6324
10541SOL    HW242303   6.511   0.522   2.956 -2.2961  0.5094  0.3983
10542SOL     OW42304   3.414   5.922   3.289 -0.1190 -0.0364 -0.1890
10542SOL    HW142305   3.456   6.013   3.286  1.2641 -0.6147  0.9501
10542SOL    HW242306   3.381   5.898   3.198  0.7183  1.0587 -0.8030
10543SOL     OW42307   3.265   1.045   3.298 -0.0857  0.1703  0.5274
10543SOL    HW142308   3.298   1.126   3.250  1.2581 -1.0096 -0.5685
10543SOL    HW242309   3.218   1.073   3.382  0.9351  2.0458  0.4903
10544SOL     OW42310   5.848   9.546   2.941  0.0760  0.0779 -0.0533
10544SOL    HW142311   5.916   9.617   2.962  1.2885 -0.9840 -0.3347
10544SOL    HW242312   5.830   9.493   3.024 -0.1317  0.1127 -0.0768
10545SOL     OW42313   8.475   9.299   2.283  0.4449  0.1229  0.7600
10545SOL    HW142314   8.475   9.390   2.241  0.4921  0.4434  1.4452
10545SOL    HW242315   8.403   9.243   2.241  0.9040  0.2308 -0.1804
10546SOL     OW42316   4.363   2.916   2.380 -0.4084  0.2003  0.3504
10546SOL    HW142317   4.407   2.920   2.290 -0.3053 -0.1550  0.3846
10546SOL    HW242318   4.414   2.855   2.440 -0.2923  0.6965  0.7575
10547SOL     OW42319   4.015   6.474   2.285  0.2778  0.0609 -0.2582
10547SOL    HW142320   3.938   6.422   2.247  0.6072 -1.4554  1.0791
10547SOL    HW242321   4.093   6.469   2.223  0.2826 -1.0100 -0.1766
10548SOL     OW42322   2.989   8.517   3.205  0.3606 -0.1065 -0.2574
10548SOL    HW142323   2.907   8.480   3.248 -0.8803  1.7172 -0.9995
10548SOL    HW242324   3.055   8.443   3.189 -1.7890 -1.8696 -1.1334
10549SOL     OW42325   5.683   0.559   3.242 -0.0047 -0.0674 -0.1166
10549SOL    HW142326   5.616   0.543   3.170 -0.6173  3.0691 -0.3175
10549SOL    HW242327   5.644   0.534   3.330 -1.0315  0.6252 -0.3619
10550SOL     OW42328   8.123   1.942   1.536 -0.1996 -0.4653  0.9237
10550SOL    HW142329   8.102   2.039   1.519  0.1192 -0.4767  0.4545
10550SOL    HW242330   8.071   1.910   1.615 -0.9881 -0.1545  0.5341
10551SOL     OW42331   0.410   2.680   3.527  0.0920 -0.0215  0.1161
10551SOL    HW142332   0.330   2.632   3.563  0.4424 -0.2444  0.6042
10551SOL    HW242333   0.392   2.779   3.527 -0.2226 -0.0783  0.1289
10552SOL     OW42334   0.612   8.037   2.989  0.5064 -0.1292 -0.0703
10552SOL    HW142335   0.633   8.077   3.078 -1.2498  0.1372  0.2370
10552SOL    HW242336   0.665   8.084   2.918  3.0590 -1.3572  0.9846
10553SOL     OW42337   2.493   4.057   3.230  0.0974  0.4827  0.2817
10553SOL    HW142338   2.524   4.020   3.142 -1.9715 -0.1383 -0.2143
10553SOL    HW242339   2.421   3.999   3.267  1.0711  0.6565  2.4923
10554SOL     OW42340   0.030   7.231   4.410 -0.6427 -0.7233  0.3190
10554SOL    HW142341   0.116   7.200   4.451 -1.5245 -0.8405  2.0718
10554SOL    HW242342   0.044   7.244   4.311  1.6582  0.2136  0.7354
10555SOL     OW42343   3.237   8.531   2.554  0.1598 -0.2906  0.3648
10555SOL    HW142344   3.148   8.510   2.596 -0.2747 -1.2775 -0.9966
10555SOL    HW242345   3.286   8.446   2.536  0.2573  0.0957 -1.2737
10556SOL     OW42346   1.581   9.954   2.568 -0.1840  0.1213 -0.5998
10556SOL    HW142347   1.510   9.934   2.501  0.4061  0.8034 -1.4369
10556SOL    HW242348   1.593  10.053   2.577  0.8129  0.0163 -0.6485
10557SOL     OW42349   4.540   2.378   0.667  0.1212 -0.4869 -0.1045
10557SOL    HW142350   4.531   2.457   0.606 -1.8910 -2.1957 -2.1183
10557SOL    HW242351   4.616   2.394   0.731  2.4703  1.2964 -3.1681
10558SOL     OW42352   4.968   4.728   1.414 -0.2313 -0.8738 -0.1297
10558SOL    HW142353   4.891   4.789   1.396  2.2133  2.8651  1.3757
10558SOL    HW242354   4.948   4.672   1.495 -2.2993 -1.7669 -1.2132
10559SOL     OW42355   3.181   4.855   2.899  0.1431  0.1349 -0.1528
10559SOL    HW142356   3.190   4.757   2.913  2.1569  0.1695 -1.0795
10559SOL    HW242357   3.226   4.904   2.974 -0.7930  0.3550  0.2695
10560SOL     OW42358   0.120   9.936   1.472  0.3584  0.0268  0.1308
10560SOL    HW142359   0.036   9.991   1.472  0.5728  0.3608  0.8246
10560SOL    HW242360   0.136   9.899   1.381 -0.1545  0.5585 -0.1771
10561SOL     OW42361   1.558   4.191   3.142  0.1326  0.6757  0.0052
10561SOL    HW142362   1.491   4.255   3.105 -0.7822 -1.7177 -2.7134
10561SOL    HW242363   1.513   4.124   3.201  0.5641  0.7068  0.3742
10562SOL     OW42364   8.640   7.140   0.666 -0.2020  0.1114  0.2734
10562SOL    HW142365   8.721   7.197   0.655  0.0338 -0.2690  0.0501
10562SOL    HW242366   8.587   7.141   0.581  1.9566 -3.3647 -1.2130
10563SOL     OW42367   9.075   5.448   2.178  0.4412 -0.2730  0.8895
10563SOL    HW142368   9.044   5.543   2.191  0.5409 -0.1606  0.3281
10563SOL    HW242369   9.072   5.400   2.266  0.7150  0.3453  1.2445
10564SOL     OW42370   9.814   5.246   4.007  0.5465  0.6518 -0.3599
10564SOL    HW142371   9.762   5.280   3.929  0.9028  1.4711 -0.2396
10564SOL    HW242372   9.885   5.312   4.032  1.5804 -0.4084 -0.4435
10565SOL     OW42373   1.370   9.620   2.970  0.2859 -0.7159  0.2743
10565SOL    HW142374   1.467   9.601   2.955  0.4796  0.4324  0.0206
10565SOL    HW242375   1.326   9.540   3.013  1.6319 -0.7423  1.6376
10566SOL     OW42376   1.200   3.916   3.510 -0.4136 -0.0681  0.1173
10566SOL    HW142377   1.243   3.990   3.459  0.3215  0.2893  1.2417
10566SOL    HW242378   1.221   3.829   3.466 -1.4739  0.3949 -1.3385
10567SOL     OW42379   2.257   9.151   1.074 -0.7103  0.2056  0.3022
10567SOL    HW142380   2.236   9.098   0.992 -1.2803  2.2431 -0.9191
10567SOL    HW242381   2.256   9.092   1.154 -2.3039 -1.4121 -0.8907
10568SOL     OW42382   2.296   5.226   1.598 -0.3266  0.4899  0.0709
10568SOL    HW142383   2.371   5.204   1.660 -0.4698  1.5631  0.6467
10568SOL    HW242384   2.291   5.157   1.525  1.0857  0.2924  0.1405
10569SOL     OW42385   7.198   0.027   3.522  0.3233 -0.3357  0.2733
10569SOL    HW142386   7.165   0.027   3.428 -1.0967  0.3610  0.7658
10569SOL    HW242387   7.141  -0.033   3.578  0.5012  0.0950  0.9222
10570SOL     OW42388   2.645   8.036   2.214 -0.1957  0.4680  0.0500
10570SOL    HW142389   2.545   8.038   2.209 -0.1583  0.1208 -1.1259
10570SOL    HW242390   2.683   8.100   2.146  0.3922 -0.8081 -0.8353
10571SOL     OW42391   3.895   0.071   4.630 -0.4296 -0.3147 -0.5127
10571SOL    HW142392   3.911  -0.023   4.661 -0.3100  0.2744  1.2501
10571SOL    HW242393   3.957   0.133   4.677 -1.1171  0.7653 -1.0000
10572SOL     OW42394   4.231   8.109   1.075 -0.0449  0.4732  0.3954
10572SOL    HW142395   4.223   8.108   1.174 -1.2080 -0.8198  0.2965
10572SOL    HW242396   4.327   8.092   1.049 -0.0439 -0.9160  1.2695
10573SOL     OW42397   1.286   0.863   1.994  0.0968  0.0277  0.4609
10573SOL    HW142398   1.290   0.763   1.998  0.0433 -0.0219 -0.5253
10573SOL    HW242399   1.241   0.891   1.909  0.2488  0.8938  0.6592
10574SOL     OW42400   0.672   2.391   2.674 -0.1912  0.3134 -0.5384
10574SOL    HW142401   0.718   2.314   2.718 -0.4412  0.5932  0.2108
10574SOL    HW242402   0.665   2.373   2.576 -0.3242 -0.6596 -0.3581
10575SOL     OW42403   1.386   6.467   3.104  0.3089  0.1492  0.3794
10575SOL    HW142404   1.396   6.520   3.188  0.2310  1.6972 -0.5662
10575SOL    HW242405   1.369   6.372   3.127  0.4624  0.5179  2.1195
10576SOL     OW42406   2.020   3.794   0.983  0.3376 -0.4849  0.5027
10576SOL    HW142407   1.985   3.864   0.921 -0.9094 -1.2677  0.3057
10576SOL    HW242408   2.051   3.715   0.931  0.3217 -0.7037  0.8218
10577SOL     OW42409   7.938   2.296   2.296 -0.0033 -0.2653  0.4672
10577SOL    HW142410   8.030   2.298   2.258 -0.4188  0.8042 -0.5384
10577SOL    HW242411   7.887   2.221   2.255 -0.1824  0.3565 -0.4620
10578SOL     OW42412   2.937   4.660   0.829 -0.2001 -0.5828 -0.5716
10578SOL    HW142413   2.915   4.622   0.919  0.9294 -0.2720 -0.1572
10578SOL    HW242414   2.853   4.674   0.778 -1.3388  3.3169  2.0649
10579SOL     OW42415   4.880   0.925   2.617  0.4919  0.1130 -0.5789
10579SOL    HW142416   4.801   0.884   2.663  0.8987  1.9221  1.8399
10579SOL    HW242417   4.951   0.856   2.607 -0.9758 -1.2565 -1.8298
10580SOL     OW42418   8.689   5.696   0.926 -0.7312  0.6950  0.2422
10580SOL    HW142419   8.722   5.602   0.912  1.6296  1.3123  1.3524
10580SOL    HW242420   8.681   5.742   0.838  0.6261  0.2463 -0.1288
10581SOL     OW42421   3.338   9.938   1.962 -0.3420 -0.6430  0.4089
10581SOL    HW142422   3.353   9.859   1.903  0.7211 -1.0419  1.1894
10581SOL    HW242423   3.291  10.010   1.911  0.0312 -1.2078 -0.7372
10582SOL     OW42424   8.066   7.709   2.401 -0.8591  0.1746  0.0185
10582SOL    HW142425   7.980   7.723   2.353 -0.1575  2.3704 -0.6775
10582SOL    HW242426   8.141   7.709   2.335 -0.1979 -0.1127  0.7674
10583SOL     OW42427   1.463   4.949   4.488  0.6304  0.0499  0.2891
10583SOL    HW142428   1.530   4.906   4.428  1.3575 -1.1437  1.9118
10583SOL    HW242429   1.500   5.034   4.524 -0.0850  1.1367 -1.4678
10584SOL     OW42430   9.469   4.132   2.247 -0.4138 -0.2366 -0.5153
10584SOL    HW142431   9.541   4.196   2.273 -0.2387  0.2787 -2.1983
10584SOL    HW242432   9.412   4.112   2.326  0.1981  1.1445  0.2892
10585SOL     OW42433   9.763   2.451   3.546  0.4867 -0.3017  0.1886
10585SOL    HW142434   9.763   2.479   3.450 -2.5444 -0.0488  0.2209
10585SOL    HW242435   9.831   2.504   3.597  1.4207  0.2617 -1.6071
10586SOL     OW42436   5.261   8.389   3.693  0.6337  0.1556  0.0005
10586SOL    HW142437   5.203   8.436   3.626 -1.2933 -1.0420  0.7947
10586SOL    HW242438   5.340   8.350   3.647  0.7329  1.6528 -1.1371
10587SOL     OW42439   0.251   8.109   3.633 -0.3235 -0.0637 -0.5730
10587SOL    HW142440   0.300   8.162   3.564  1.1666 -2.3149 -1.2807
10587SOL    HW242441   0.314   8.081   3.705 -0.6706 -2.3644 -1.1144
10588SOL     OW42442   8.419   1.403   3.819 -0.2607 -0.0139  0.1422
10588SOL    HW142443   8.368   1.489   3.810  0.0887 -0.0648 -2.7897
10588SOL    HW242444   8.357   1.326   3.807  0.4035 -0.0758 -3.7657
10589SOL     OW42445   8.676   7.471   0.588 -0.0784 -0.3044  0.2031
10589SOL    HW142446   8.582   7.480   0.620  0.6148  2.3299  1.7117
10589SOL    HW242447   8.692   7.534   0.512  0.7490  0.1167  0.7096
10590SOL     OW42448   3.717   0.694   2.895 -0.6188 -0.4243 -0.1438
10590SOL    HW142449   3.710   0.757   2.973  0.9506  0.9936 -1.1143
10590SOL    HW242450   3.669   0.733   2.817  0.4733 -0.3626 -0.7906
10591SOL     OW42451   1.201   9.774   4.655  0.3229 -0.4387  0.6637
10591SOL    HW142452   1.264   9.762   4.732 -0.0172  1.5468  1.2793
10591SOL    HW242453   1.244   9.742   4.571  2.2913  1.2075  1.0286
10592SOL     OW42454   8.975   5.937   2.410  0.1914 -0.0331  0.0898
10592SOL    HW142455   8.928   6.007   2.463 -1.0773 -0.9143  0.1538
10592SOL    HW242456   9.023   5.979   2.333  0.8868  1.0977  1.1252
10593SOL     OW42457   9.722   9.307   3.277  0.7755  0.2674 -0.0742
10593SOL    HW142458   9.674   9.322   3.364  1.7264  2.1696  0.1631
10593SOL    HW242459   9.820   9.320   3.291  0.8192  1.8138 -1.6913
10594SOL     OW42460   4.877   7.578   1.521 -0.2308  0.1737  0.1711
10594SOL    HW142461   4.924   7.502   1.567 -1.0850 -1.8843 -2.2314
10594SOL    HW242462   4.933   7.610   1.445 -0.2851  1.4128  0.6377
10595SOL     OW42463   4.448   5.959   1.369 -0.4229 -0.6146 -0.2497
10595SOL    HW142464   4.391   6.011   1.432 -0.0810  0.3245 -0.7140
10595SOL    HW242465   4.528   6.012   1.344 -0.6898 -0.8566 -1.7000
10596SOL     OW42466   1.111   3.393   3.863  0.5324 -0.4802 -0.2049
10596SOL    HW142467   1.056   3.313   3.839  0.1130 -0.0099 -0.8269
10596SOL    HW242468   1.062   3.477   3.836  0.1897  0.0634  2.0090
10597SOL     OW42469   2.828   4.251   4.402 -0.1042 -0.5807 -0.0623
10597SOL    HW142470   2.756   4.320   4.395  0.8778  0.6701  1.8001
10597SOL    HW242471   2.915   4.294   4.425  0.9184 -2.2488 -0.6721
10598SOL     OW42472   8.738   1.667   4.675  0.0115 -0.5188 -0.3394
10598SOL    HW142473   8.765   1.589   4.618 -0.0530 -0.1447 -0.8856
10598SOL    HW242474   8.682   1.730   4.621 -0.5107 -0.4319  0.2984
10599SOL     OW42475   7.879   2.407   0.487  0.4902 -0.3165  0.2932
10599SOL    HW142476   7.928   2.332   0.442  1.8305 -0.2410  1.5787
10599SOL    HW242477   7.843   2.469   0.418  0.7071 -1.3172 -0.7403
10600SOL     OW42478   2.336   0.836   3.389  0.0401  0.1540 -0.1225
10600SOL    HW142479   2.418   0.793   3.427  0.4842  0.5309 -0.6491
10600SOL    HW242480   2.255   0.785   3.419  0.4650 -0.2433  0.3655
10601SOL     OW42481   0.786   3.220   1.456  0.1877 -0.4841 -0.5377
10601SOL    HW142482   0.863   3.197   1.396  1.2271 -1.3562  1.0739
10601SOL    HW242483   0.819   3.279   1.530 -0.9452  0.0332 -0.4315
10602SOL     OW42484   9.002   0.076   0.412  0.1317 -0.3150 -0.2449
10602SOL    HW142485   9.039   0.040   0.497 -0.1491  0.2031  0.0975
10602SOL    HW242486   9.075   0.081   0.344  0.7815  1.0340  0.5361
10603SOL     OW42487   1.750   0.776   0.004  0.0606  0.0345  0.0715
10603SOL    HW142488   1.810   0.787  -0.076 -1.9529  2.6472 -1.1679
10603SOL    HW242489   1.659   0.745  -0.027 -0.2684 -0.4767  1.5254
10604SOL     OW42490   7.159   8.562   2.768 -0.2714 -0.1730 -0.0908
10604SOL    HW142491   7.088   8.494   2.752  0.2739 -0.4878 -1.1891
10604SOL    HW242492   7.150   8.636   2.701  0.5121 -0.2698 -0.3057
10605SOL     OW42493   7.377   7.847   3.195  0.1010 -0.5158  0.1387
10605SOL    HW142494   7.287   7.882   3.221  0.1297  1.2270 -1.9990
10605SOL    HW242495   7.367   7.756   3.154 -0.6836 -0.2741 -0.2022
10606SOL     OW42496   9.318   0.251   0.693  0.9629 -0.1051 -0.3639
10606SOL    HW142497   9.233   0.289   0.655  0.6075 -0.7658 -0.2520
10606SOL    HW242498   9.295   0.180   0.760  1.5984  0.4122  0.4006
10607SOL     OW42499   7.142   8.036   3.127 -0.1023  0.4037  0.1012
10607SOL    HW142500   7.121   7.973   3.052 -0.4488  0.9096 -0.2251
10607SOL    HW242501   7.060   8.088   3.152  0.4725  1.5882 -0.4331
10608SOL     OW42502   4.453   9.310   3.869 -0.4392  0.0309  0.0447
10608SOL    HW142503   4.380   9.262   3.916 -1.3920  2.2321  0.9126
10608SOL    HW242504   4.437   9.409   3.876  2.8069  0.5859  0.6286
10609SOL     OW42505   0.142   7.713   1.652  0.5144 -0.3926  0.3518
10609SOL    HW142506   0.173   7.651   1.580 -1.3992  1.3413 -2.0278
10609SOL    HW242507   0.202   7.793   1.656 -1.4809  1.2829 -1.8874
10610SOL     OW42508   8.545   6.871   2.420  0.3453 -0.5569  0.3327
10610SOL    HW142509   8.510   6.929   2.493  1.2189  3.0754 -1.9830
10610SOL    HW242510   8.470   6.842   2.360 -0.1582 -2.2476  1.7653
10611SOL     OW42511   9.018   0.777   2.192  0.0109  0.1699  0.3373
10611SOL    HW142512   8.993   0.681   2.207 -0.1202 -0.1856 -1.9484
10611SOL    HW242513   8.958   0.816   2.122  3.3102  0.4206 -2.4392
10612SOL     OW42514   8.469   7.752   0.684 -0.3850 -0.4189 -0.4741
10612SOL    HW142515   8.425   7.731   0.772 -1.6302 -0.3179 -1.0715
10612SOL    HW242516   8.441   7.686   0.616 -0.4785  0.3059 -1.1440
10613SOL     OW42517   8.708   3.702   3.602 -0.0736  0.3250 -0.1644
10613SOL    HW142518   8.777   3.708   3.673  1.9539  1.2820 -2.1758
10613SOL    HW242519   8.633   3.764   3.622  0.7233  0.9546  0.8667
10614SOL     OW42520   8.019   5.160   1.366  0.0063 -0.2008 -0.4432
10614SOL    HW142521   8.073   5.093   1.418 -1.8040 -1.1286  0.2979
10614SOL    HW242522   7.925   5.159   1.400  0.0581  3.0918 -0.1149
10615SOL     OW42523   7.297   9.252   3.130 -0.2677 -0.1645 -0.6679
10615SOL    HW142524   7.332   9.274   3.039  0.0248 -1.1201 -0.7902
10615SOL    HW242525   7.364   9.196   3.179 -0.9410 -0.6800 -0.3216
10616SOL     OW42526   1.310   5.090   1.625 -0.4942  0.1420  0.0327
10616SOL    HW142527   1.285   5.116   1.718  2.1576 -2.3745  1.5736
10616SOL    HW242528   1.239   5.031   1.587 -1.7543  1.4524  0.3107
10617SOL     OW42529   8.031   2.718   4.538 -0.1041 -0.2537  0.5039
10617SOL    HW142530   8.007   2.636   4.590  1.6332 -0.6901  0.6557
10617SOL    HW242531   8.015   2.702   4.441  0.8371 -1.0107  0.4677
10618SOL     OW42532   9.537   4.742   4.378  0.0808  0.6710  0.3238
10618SOL    HW142533   9.491   4.657   4.400  0.7479 -0.2158 -1.5706
10618SOL    HW242534   9.635   4.734   4.399  0.4861  0.2712 -1.5575
10619SOL     OW42535   8.537   7.414   0.274 -0.4397  0.3573  0.3097
10619SOL    HW142536   8.569   7.331   0.228 -2.9130  0.0613 -0.9923
10619SOL    HW242537   8.481   7.388   0.353  0.3557  0.8253  1.0341
10620SOL     OW42538   8.415   4.340   0.866  0.4293 -0.1077  0.3466
10620SOL    HW142539   8.476   4.331   0.787 -0.0312 -1.6382  0.1498
10620SOL    HW242540   8.394   4.250   0.902 -0.0510  0.5371  1.7062
10621SOL     OW42541   1.247   5.601   4.482 -0.1126 -0.3263  0.0251
10621SOL    HW142542   1.319   5.632   4.420  1.2655  0.5787  2.0225
10621SOL    HW242543   1.272   5.512   4.520  0.1249  0.1595  1.0047
10622SOL     OW42544   0.946   5.217   3.471 -0.0309 -0.0779 -0.4593
10622SOL    HW142545   1.026   5.263   3.509 -0.7914  0.2335  0.7965
10622SOL    HW242546   0.951   5.119   3.491 -0.3967  0.0756  0.4058
10623SOL     OW42547   7.386   0.042   1.061  0.3536 -0.1714 -0.2165
10623SOL    HW142548   7.373  -0.052   1.030  0.0929  0.3457 -1.7079
10623SOL    HW242549   7.345   0.105   0.995  3.1174  1.1196 -0.7539
10624SOL     OW42550   2.923   6.364   1.330  0.3702 -0.0100  0.9013
10624SOL    HW142551   2.860   6.290   1.308  0.5099  0.7006 -2.1049
10624SOL    HW242552   3.000   6.363   1.266  0.0337  3.1234  0.3557
10625SOL     OW42553   4.714   2.460   1.078  0.2603 -0.5809 -0.5142
10625SOL    HW142554   4.773   2.396   1.128  0.2896 -0.8588 -0.9035
10625SOL    HW242555   4.621   2.424   1.077 -0.2132  0.5357  1.3119
10626SOL     OW42556   9.616   2.102   0.171  0.3374 -0.0878 -0.7844
10626SOL    HW142557   9.636   2.022   0.227 -2.5175 -0.0798  0.3290
10626SOL    HW242558   9.610   2.183   0.229 -2.9172 -0.1228 -0.9643
10627SOL     OW42559   9.922   5.561   2.873  0.0762  0.2431 -0.2392
10627SOL    HW142560   9.935   5.655   2.903 -0.0183  0.2657 -0.2703
10627SOL    HW242561  10.010   5.514   2.873  0.2030  0.4806 -0.7277
10628SOL     OW42562   3.885   8.210   0.954 -0.2020 -0.6988 -0.1527
10628SOL    HW142563   3.972   8.250   0.985  0.0526  0.3238 -2.1240
10628SOL    HW242564   3.892   8.186   0.857 -2.4781  0.4094 -0.6178
10629SOL     OW42565   8.626   1.430   1.417  0.0557  0.4523 -0.2813
10629SOL    HW142566   8.712   1.479   1.408 -0.2087  0.8546 -0.6482
10629SOL    HW242567   8.571   1.472   1.489  0.2894  0.0141  0.1533
10630SOL     OW42568   2.829   9.860   1.248 -0.4906  1.0759 -0.2044
10630SOL    HW142569   2.876   9.900   1.327 -0.0198 -0.4426  0.3001
10630SOL    HW242570   2.734   9.890   1.248 -0.4523  1.2451  0.8345
10631SOL     OW42571   0.474   4.359   2.689 -0.5057 -0.2182 -0.4749
10631SOL    HW142572   0.497   4.412   2.770 -1.1148  0.8283 -0.9727
10631SOL    HW242573   0.421   4.278   2.715 -0.1635 -0.2181  0.2192
10632SOL     OW42574   9.555   5.900   1.965 -1.0104 -0.1728  0.4999
10632SOL    HW142575   9.605   5.840   1.903 -1.2489 -0.6246  0.7447
10632SOL    HW242576   9.486   5.848   2.015 -0.2887  0.0173  1.7356
10633SOL     OW42577   7.795   8.958   3.141 -0.2388 -0.3592  0.0694
10633SOL    HW142578   7.761   9.044   3.178 -0.7447 -0.2519 -0.6285
10633SOL    HW242579   7.795   8.962   3.041 -0.3180 -1.1899  0.0291
10634SOL     OW42580   0.649   4.420   3.551 -0.4744 -0.8469  0.4427
10634SOL    HW142581   0.588   4.491   3.515 -0.0758  0.2345  1.8618
10634SOL    HW242582   0.630   4.334   3.505 -0.2325  0.4160 -2.0835
10635SOL     OW42583   1.926   4.237   1.367 -0.3103 -0.2706 -0.1895
10635SOL    HW142584   1.995   4.165   1.359 -0.3972 -0.1409 -2.4500
10635SOL    HW242585   1.835   4.198   1.350 -0.4916  0.1509 -0.1893
10636SOL     OW42586   3.735   6.570   4.214 -0.0045 -0.1037  0.2479
10636SOL    HW142587   3.832   6.588   4.232 -0.2058  0.2546  1.0262
10636SOL    HW242588   3.682   6.596   4.295 -0.8052  0.2629 -0.3912
10637SOL     OW42589   9.951   2.077   0.934  0.2919  0.3785 -0.3592
10637SOL    HW142590   9.927   2.083   1.030  1.6455  1.2002 -0.0484
10637SOL    HW242591  10.038   2.124   0.919 -0.1981  0.7738 -2.0822
10638SOL     OW42592   1.114   2.387   1.834  0.0746 -0.1653  0.2518
10638SOL    HW142593   1.096   2.288   1.829  1.2610 -0.3295 -0.8501
10638SOL    HW242594   1.052   2.435   1.772  0.3185 -0.3169 -0.1061
10639SOL     OW42595   1.528   2.674   1.454 -0.4967  0.0056  0.2107
10639SOL    HW142596   1.586   2.604   1.497 -0.5525  0.2912  0.7592
10639SOL    HW242597   1.539   2.761   1.503 -1.7458 -0.0529  0.6177
10640SOL     OW42598   4.129   2.824   2.139  0.5745  0.0411  0.2235
10640SOL    HW142599   4.111   2.789   2.231  0.9570 -2.2754 -0.5599
10640SOL    HW242600   4.084   2.766   2.071  1.2533  1.0485 -1.1241
10641SOL     OW42601   9.500   5.799   4.371 -0.5733 -0.4298 -0.1887
10641SOL    HW142602   9.450   5.716   4.397  0.3310 -1.1766 -0.7609
10641SOL    HW242603   9.579   5.773   4.314 -1.3673  0.9833 -1.9721
10642SOL     OW42604   7.352   0.122   2.057  1.1990 -0.0275 -0.3796
10642SOL    HW142605   7.432   0.108   1.998  1.6470 -0.8455  0.4077
10642SOL    HW242606   7.277   0.065   2.025  1.5899 -0.8210  0.1267
10643SOL     OW42607   9.730   1.920   2.870 -0.3297  0.1840 -0.7869
10643SOL    HW142608   9.650   1.897   2.815 -1.2474  3.1450 -0.7253
10643SOL    HW242609   9.739   2.019   2.877  1.3473 -0.1203  2.1221
10644SOL     OW42610   1.996   4.720   3.082 -0.4222 -0.4309 -0.1409
10644SOL    HW142611   2.066   4.652   3.104 -1.9509 -1.9571  0.1191
10644SOL    HW242612   1.980   4.777   3.162  0.3105 -0.2753 -0.1035
10645SOL     OW42613   0.680   6.201   0.709  0.1063 -0.0828 -0.2436
10645SOL    HW142614   0.649   6.110   0.737  0.8582 -0.3339 -0.1988
10645SOL    HW242615   0.780   6.200   0.700  0.0230  0.4467 -1.3144
10646SOL     OW42616   2.702   5.159   3.738  0.0994  0.0312  0.4443
10646SOL    HW142617   2.715   5.181   3.641  0.2145 -1.6441  0.0747
10646SOL    HW242618   2.789   5.169   3.786  0.1625  0.3153  0.2767
10647SOL     OW42619   4.237   3.789   2.416  0.0754 -0.1832  0.4038
10647SOL    HW142620   4.227   3.862   2.484 -1.0621  0.2641 -0.2184
10647SOL    HW242621   4.195   3.705   2.451  1.3443 -0.5272  1.1022
10648SOL     OW42622   8.304   9.591   2.427  0.1703  0.3936  0.5354
10648SOL    HW142623   8.372   9.527   2.392 -0.5673  0.4684 -1.1261
10648SOL    HW242624   8.324   9.683   2.394 -0.3373  0.5357  0.6104
10649SOL     OW42625   0.714   8.213   2.124  0.1526 -0.0388  0.0884
10649SOL    HW142626   0.798   8.195   2.175  0.1054  1.4456  0.7072
10649SOL    HW242627   0.654   8.133   2.129  0.8018 -0.4732  1.0683
10650SOL     OW42628   9.904   7.087   1.284 -0.5301 -0.2830 -0.2673
10650SOL    HW142629   9.889   7.090   1.383  3.0270 -0.6476  0.3733
10650SOL    HW242630   9.952   7.002   1.260  3.8727  2.3205 -1.3874
10651SOL     OW42631   2.170   2.663   4.099  0.4975 -0.4143 -0.2997
10651SOL    HW142632   2.239   2.710   4.154 -0.4217 -1.0635  1.4553
10651SOL    HW242633   2.189   2.565   4.098  0.7705 -0.3585 -1.5516
10652SOL     OW42634   4.385   7.326   2.823  0.5655 -0.1989 -0.0314
10652SOL    HW142635   4.406   7.268   2.744 -0.7156 -0.0492 -0.4917
10652SOL    HW242636   4.391   7.272   2.907  0.9370 -0.6040 -0.3199
10653SOL     OW42637   0.208   7.885   3.161  0.2582  0.2655  0.2762
10653SOL    HW142638   0.273   7.853   3.229  1.0103  1.6477  0.2240
10653SOL    HW242639   0.257   7.922   3.082 -0.5824  0.7872 -0.0163
10654SOL     OW42640   1.432   2.396   0.157 -0.0464 -0.0843 -0.4071
10654SOL    HW142641   1.418   2.467   0.088  0.8887  1.4526  0.9558
10654SOL    HW242642   1.383   2.313   0.129 -2.0234  1.3964 -1.5241
10655SOL     OW42643   9.382   3.619   1.336  0.2496  0.2469  0.0523
10655SOL    HW142644   9.311   3.671   1.289 -0.2612  0.0668  0.6249
10655SOL    HW242645   9.408   3.666   1.420 -1.4899 -1.3118  1.4973
10656SOL     OW42646   7.439   3.175   3.945  0.2611 -0.1931 -0.4246
10656SOL    HW142647   7.419   3.080   3.968  0.9603 -0.7248 -1.9836
10656SOL    HW242648   7.533   3.182   3.911  0.0056  0.9513 -0.8984
10657SOL     OW42649   2.679   9.628   0.676 -0.6049 -0.6969 -0.2846
10657SOL    HW142650   2.603   9.677   0.720 -1.4037 -1.3733 -0.8926
10657SOL    HW242651   2.649   9.536   0.653  0.3018 -0.8438 -0.8663
10658SOL     OW42652   1.857   8.387   1.603  0.7456 -0.7410 -0.0021
10658SOL    HW142653   1.774   8.441   1.616  1.5012  0.7988 -1.4843
10658SOL    HW242654   1.833   8.300   1.559 -0.0477 -0.1439 -0.7666
10659SOL     OW42655   4.064   0.213   3.851 -0.1594  0.0052  0.1858
10659SOL    HW142656   4.040   0.116   3.848  1.9960 -0.5810  1.0600
10659SOL    HW242657   3.998   0.265   3.797  0.1547 -2.2685 -2.5065
10660SOL     OW42658   3.614   0.515   2.534 -0.0710  0.3635 -0.2836
10660SOL    HW142659   3.649   0.421   2.537  1.0562  0.7867  0.1342
10660SOL    HW242660   3.691   0.579   2.530 -0.8047  1.3247  0.7195
10661SOL     OW42661   3.296   2.049   3.446  0.7353  0.4097 -0.3061
10661SOL    HW142662   3.327   1.954   3.451  0.9491  0.5185  0.5457
10661SOL    HW242663   3.267   2.079   3.537  1.0269  1.2791 -0.4948
10662SOL     OW42664   2.570   2.648   1.499  0.9161  0.0499 -0.1648
10662SOL    HW142665   2.554   2.708   1.420 -1.6841 -0.0813  0.2191
10662SOL    HW242666   2.668   2.633   1.510  1.4593  2.1740 -1.7979
10663SOL     OW42667   4.180   0.042   0.095 -0.3671  0.1034  0.7514
10663SOL    HW142668   4.237  -0.029   0.052 -1.9318  0.2741 -1.6830
10663SOL    HW242669   4.098   0.000   0.133 -1.5180  0.6588 -1.1017
10664SOL     OW42670   8.261   7.264   3.240  1.2606 -0.6893 -0.0822
10664SOL    HW142671   8.246   7.356   3.275  1.9360 -0.1391 -1.2243
10664SOL    HW242672   8.335   7.221   3.292  1.3241 -0.3920  0.0765
10665SOL     OW42673   0.224   3.119   3.276 -0.4835 -0.0849 -0.1215
10665SOL    HW142674   0.177   3.185   3.217 -0.7877  1.0513  1.3679
10665SOL    HW242675   0.172   3.107   3.361 -0.2517 -1.9956 -0.2246
10666SOL     OW42676   5.777   0.114   2.229 -0.1364 -0.0881  0.2036
10666SOL    HW142677   5.722   0.184   2.182  0.5981 -0.5577 -1.4098
10666SOL    HW242678   5.733   0.088   2.314 -2.6291 -0.7271 -1.2318
10667SOL     OW42679   9.918   3.157   2.794  0.0453 -0.2965 -0.4726
10667SOL    HW142680   9.913   3.076   2.852  2.7368 -0.7142 -0.7599
10667SOL    HW242681   9.829   3.202   2.791 -0.9932 -2.1927  1.1936
10668SOL     OW42682   1.087   8.984   4.522  0.2560  0.6467 -0.0804
10668SOL    HW142683   1.141   9.019   4.598  3.1417 -0.7367 -1.4128
10668SOL    HW242684   1.087   9.050   4.447  0.3882  0.5112 -0.2023
10669SOL     OW42685   3.655   7.547   0.727 -0.6138  0.4301 -0.2090
10669SOL    HW142686   3.723   7.477   0.705  0.5342  0.9090  1.7012
10669SOL    HW242687   3.583   7.506   0.784 -0.2328  0.6688  0.4463
10670SOL     OW42688   0.444   4.736   3.602  0.0771  0.0025  0.1989
10670SOL    HW142689   0.454   4.669   3.676 -1.2189 -0.2447  0.1545
10670SOL    HW242690   0.391   4.814   3.635 -0.4848 -0.0971 -0.4728
10671SOL     OW42691   1.150   9.217   2.300  0.3389 -0.2824  0.4179
10671SOL    HW142692   1.203   9.216   2.384  0.2060 -0.7119  0.4989
10671SOL    HW242693   1.203   9.175   2.226  1.1194  1.6071 -0.1270
10672SOL     OW42694   1.848   6.936   0.850 -0.3675 -0.5104 -0.0247
10672SOL    HW142695   1.759   6.952   0.894 -0.5357 -3.1038  0.6686
10672SOL    HW242696   1.890   7.024   0.827 -2.0747  0.8083  1.7157
10673SOL     OW42697   7.832   2.166   0.629  0.4517 -0.4339  0.0256
10673SOL    HW142698   7.853   2.144   0.724 -0.7390 -1.9924 -0.0528
10673SOL    HW242699   7.815   2.264   0.621 -0.7751 -0.4873  1.7028
10674SOL     OW42700   3.640   0.850   2.620 -0.7142 -0.7427  0.0589
10674SOL    HW142701   3.697   0.923   2.584 -0.4853  0.0548  1.9942
10674SOL    HW242702   3.557   0.842   2.565 -1.4157  1.9275  0.6769
10675SOL     OW42703   8.416   6.590   1.622 -0.5038  0.0821  0.1175
10675SOL    HW142704   8.454   6.683   1.623  1.0842 -0.5572  1.9761
10675SOL    HW242705   8.491   6.524   1.611 -1.7078 -0.9676 -2.0804
10676SOL     OW42706   0.203   8.188   4.703  0.0170  0.0727 -0.0138
10676SOL    HW142707   0.239   8.224   4.789  1.1754  0.4488 -0.6433
10676SOL    HW242708   0.114   8.229   4.683  0.0184  0.4259  0.7072
10677SOL     OW42709   4.908   7.416   1.746 -0.5216  0.6868  0.2355
10677SOL    HW142710   4.843   7.351   1.785 -0.5513 -0.1991 -1.2681
10677SOL    HW242711   5.001   7.390   1.771 -0.5570  0.2796 -0.0600
10678SOL     OW42712   9.654   5.085   2.177  0.2550 -0.4503  0.1749
10678SOL    HW142713   9.728   5.138   2.136 -0.2867 -0.1490 -0.4164
10678SOL    HW242714   9.566   5.114   2.139 -0.0778 -1.5701  0.0623
10679SOL     OW42715   1.625   5.541   3.084  0.8537 -0.1271 -0.7947
10679SOL    HW142716   1.701   5.505   3.031  0.7680 -0.7808 -0.4763
10679SOL    HW242717   1.623   5.498   3.174 -0.1793 -0.4786 -0.9740
10680SOL     OW42718   8.327   0.212   2.552  0.4232 -0.2307  0.4442
10680SOL    HW142719   8.368   0.121   2.558  0.8866  0.0900  2.3595
10680SOL    HW242720   8.359   0.268   2.628  1.0656  1.9257 -1.3660
10681SOL     OW42721   3.413   2.735   0.695 -0.6044  0.1306 -0.1097
10681SOL    HW142722   3.472   2.663   0.657  0.7898 -0.1890  2.5572
10681SOL    HW242723   3.459   2.823   0.688 -1.1260  0.3538 -0.8039
10682SOL     OW42724   8.356   3.110   3.613  0.2364 -0.5059 -0.3506
10682SOL    HW142725   8.294   3.079   3.541 -0.2640  0.3908 -0.3134
10682SOL    HW242726   8.312   3.099   3.702  1.0412 -2.0767 -0.1252
10683SOL     OW42727   0.958   4.807   2.785  0.8048  0.0001 -0.8660
10683SOL    HW142728   0.886   4.744   2.758  0.7370  0.4466 -1.7352
10683SOL    HW242729   1.020   4.762   2.850  0.1444 -0.6041 -0.6574
10684SOL     OW42730   2.129   1.367   4.121  0.2226  0.4233 -0.3892
10684SOL    HW142731   2.220   1.355   4.081 -0.4645  0.4319 -1.9521
10684SOL    HW242732   2.059   1.345   4.054 -0.9514  0.4420  0.8003
10685SOL     OW42733   4.865   2.121   1.770 -0.6604 -0.4995 -0.3347
10685SOL    HW142734   4.912   2.034   1.787  2.2389  0.9128 -0.7971
10685SOL    HW242735   4.909   2.168   1.694 -1.6621  1.7489  0.4328
10686SOL     OW42736   8.468   4.406   3.575 -0.0132 -0.3907  0.0128
10686SOL    HW142737   8.430   4.343   3.507 -1.4779 -0.7783  1.1772
10686SOL    HW242738   8.533   4.357   3.634 -0.5992 -0.6406  0.4527
10687SOL     OW42739   7.648   0.188   1.469  0.2600 -0.5751 -0.2910
10687SOL    HW142740   7.583   0.112   1.472  0.2547 -0.5228  0.9882
10687SOL    HW242741   7.741   0.151   1.461  0.1327 -0.6643 -1.4599
10688SOL     OW42742   0.947   5.672   2.697  0.6356 -0.5532 -0.4442
10688SOL    HW142743   0.926   5.579   2.728  1.3741 -0.2943  0.8641
10688SOL    HW242744   1.046   5.686   2.698  0.4123  1.0502  1.7570
10689SOL     OW42745   2.833   7.444   3.477 -0.2949  0.5656  0.5122
10689SOL    HW142746   2.766   7.415   3.545 -0.0955  1.9715  1.3334
10689SOL    HW242747   2.856   7.540   3.492  0.3438  0.6790 -1.0592
10690SOL     OW42748   1.687   5.214   0.082  0.0738 -0.1123  0.5694
10690SOL    HW142749   1.747   5.249   0.154 -0.4831  1.7970  0.1167
10690SOL    HW242750   1.743   5.179   0.007  0.6282  0.7564  0.5719
10691SOL     OW42751   2.890   5.151   2.414 -0.1832  0.3923 -0.0307
10691SOL    HW142752   2.903   5.234   2.360 -1.8841  0.3926 -0.4813
10691SOL    HW242753   2.975   5.126   2.458  0.5595  1.9044 -0.5798
10692SOL     OW42754   9.877   0.822   1.858  0.0539  0.2596  0.3657
10692SOL    HW142755   9.779   0.822   1.880 -0.4566 -0.1286 -1.7251
10692SOL    HW242756   9.888   0.811   1.759  2.1757  2.1375  0.3525
10693SOL     OW42757   1.589   0.097   2.852  0.1779  0.7174 -0.5496
10693SOL    HW142758   1.564   0.001   2.843  2.3389 -0.1900  2.3766
10693SOL    HW242759   1.638   0.127   2.769  1.0604 -1.2151 -0.7566
10694SOL     OW42760   9.525   2.663   3.628  0.3839 -0.2135  0.4436
10694SOL    HW142761   9.505   2.638   3.723  0.3102 -0.9176  0.2470
10694SOL    HW242762   9.565   2.585   3.581 -0.2915 -0.1084 -0.3226
10695SOL     OW42763   1.507   2.674   0.314 -0.0857 -0.3191  0.9041
10695SOL    HW142764   1.462   2.615   0.248  2.8495 -0.2341 -1.2432
10695SOL    HW242765   1.496   2.770   0.287 -1.7191 -0.0528  2.3998
10696SOL     OW42766   0.410   3.638   4.663  0.2888 -0.4154  0.0451
10696SOL    HW142767   0.463   3.687   4.733  1.9918 -0.0110 -1.4611
10696SOL    HW242768   0.323   3.609   4.701  0.5256  1.1471  1.8803
10697SOL     OW42769   0.493   4.693   0.009  0.9803  0.4238 -0.4653
10697SOL    HW142770   0.513   4.595   0.009 -0.0275  0.1275 -4.2768
10697SOL    HW242771   0.442   4.716   0.092  1.7295 -2.1353  0.7797
10698SOL     OW42772   4.895   8.627   3.076  0.1165  0.3303 -0.2554
10698SOL    HW142773   4.876   8.586   3.165  1.7105  0.4536  0.1552
10698SOL    HW242774   4.868   8.564   3.003  0.5952 -0.5866  0.3470
10699SOL     OW42775   8.311   5.967   4.472  0.6358 -0.2994  0.0080
10699SOL    HW142776   8.253   6.040   4.509  0.7498 -0.3225  0.2283
10699SOL    HW242777   8.341   5.993   4.380  2.1020  0.7223  0.7662
10700SOL     OW42778   8.928   7.465   2.806  0.2677 -0.2858  0.1036
10700SOL    HW142779   8.869   7.495   2.731 -0.7054 -1.4101  0.4004
10700SOL    HW242780   8.885   7.389   2.853  0.8478  0.4306  1.8364
10701SOL     OW42781   7.182   8.832   3.608 -0.0163 -0.3705  0.0349
10701SOL    HW142782   7.272   8.800   3.637  0.5607  0.7472 -0.5158
10701SOL    HW242783   7.187   8.929   3.582 -0.9965 -0.7432 -1.6289
10702SOL     OW42784   2.705   8.451   3.781 -0.2829  0.0047  0.1919
10702SOL    HW142785   2.753   8.418   3.862 -1.1227 -0.8047  0.3575
10702SOL    HW242786   2.617   8.406   3.773 -1.1701  1.7309  0.0588
10703SOL     OW42787   6.528   9.724   2.127 -0.1983  0.1631 -0.4244
10703SOL    HW142788   6.605   9.662   2.116  1.0723  1.3524  1.6568
10703SOL    HW242789   6.466   9.688   2.197 -0.3263  0.4101 -0.4115
10704SOL     OW42790   7.132   9.999   1.662 -0.1611 -0.1843  0.1226
10704SOL    HW142791   7.141  10.072   1.594 -0.2947 -0.0195  0.2802
10704SOL    HW242792   7.056   9.940   1.638 -0.0178 -0.3043 -0.0353
10705SOL     OW42793   8.356   6.775   2.246 -0.1663  1.0100  0.2443
10705SOL    HW142794   8.405   6.755   2.161 -0.5106  1.2025 -0.0005
10705SOL    HW242795   8.259   6.752   2.235  0.0751 -0.5045  1.1222
10706SOL     OW42796   0.848   2.930   3.677 -0.5423  0.9549 -0.1718
10706SOL    HW142797   0.754   2.962   3.667 -0.2971  1.6157 -0.3560
10706SOL    HW242798   0.896   2.986   3.744 -0.4128  0.3177  0.2799
10707SOL     OW42799   0.969   6.433   4.741  0.2185  0.3886 -0.7306
10707SOL    HW142800   0.980   6.530   4.719 -1.7822  0.6830 -0.5097
10707SOL    HW242801   0.871   6.410   4.747  0.6569 -1.6279 -0.7200
10708SOL     OW42802   1.062   5.358   0.458 -0.4118 -0.9247 -0.4688
10708SOL    HW142803   1.062   5.438   0.518  1.6994 -0.1590 -1.4280
10708SOL    HW242804   0.984   5.363   0.396 -0.2091  0.4860 -0.6378
10709SOL     OW42805   2.318   3.273   3.528 -0.3944 -0.3643 -0.2889
10709SOL    HW142806   2.327   3.178   3.560 -3.3029 -0.0023  1.8373
10709SOL    HW242807   2.264   3.325   3.594  0.6535  2.6692 -1.7253
10710SOL     OW42808   9.205   4.146   1.435  0.2140 -0.4852 -0.5469
10710SOL    HW142809   9.210   4.049   1.410  0.2021 -0.6279  0.0043
10710SOL    HW242810   9.110   4.170   1.456  0.5478 -0.9011  1.5057
10711SOL     OW42811   1.639   5.153   0.700  0.2720 -0.3833  0.2094
10711SOL    HW142812   1.678   5.091   0.632 -0.9843 -0.2367 -0.6699
10711SOL    HW242813   1.539   5.154   0.691  0.0476 -0.7944  2.4566
10712SOL     OW42814   8.247   0.989   1.733  0.2771 -0.3742 -0.3544
10712SOL    HW142815   8.219   1.058   1.800 -1.3355 -1.9072  0.5662
10712SOL    HW242816   8.273   0.905   1.780  0.4072 -1.0300 -1.5792
10713SOL     OW42817   2.389   8.271   1.993  0.6064  0.1090 -0.5741
10713SOL    HW142818   2.391   8.174   2.016  0.5181  0.5071  1.1793
10713SOL    HW242819   2.442   8.323   2.061 -2.2526  1.6626  0.5781
10714SOL     OW42820   8.411   2.996   3.133 -0.2528  0.0780  0.6000
10714SOL    HW142821   8.427   3.089   3.166 -0.8198  1.5282 -2.9865
10714SOL    HW242822   8.319   2.989   3.095 -0.0764 -1.8527  0.4571
10715SOL     OW42823   9.905   9.707   1.167  0.1867  0.3381 -0.0886
10715SOL    HW142824  10.002   9.685   1.176 -0.0061 -0.0764  1.0653
10715SOL    HW242825   9.866   9.720   1.257 -0.5369  1.8352 -0.6151
10716SOL     OW42826   8.198   1.997   3.252 -0.6310 -0.0942  0.4919
10716SOL    HW142827   8.285   1.993   3.301 -1.6211  1.8914  2.5105
10716SOL    HW242828   8.145   1.914   3.271  0.6108 -1.1151 -0.4013
10717SOL     OW42829   2.205   9.283   3.485 -0.4715 -0.0522 -0.5561
10717SOL    HW142830   2.186   9.363   3.543  1.6933 -0.3487  0.6183
10717SOL    HW242831   2.166   9.201   3.527  2.9580 -0.6207  1.7106
10718SOL     OW42832   0.698   2.310   4.652  0.6982 -0.2188  0.3263
10718SOL    HW142833   0.725   2.221   4.616  0.4378  0.0880 -0.6454
10718SOL    HW242834   0.619   2.299   4.713 -0.8487 -0.3989 -1.6285
10719SOL     OW42835   2.618   1.434   0.484  0.1115  0.0215 -0.6447
10719SOL    HW142836   2.611   1.334   0.481  1.0585 -0.0886  0.5828
10719SOL    HW242837   2.696   1.460   0.541 -1.0880  1.4896  0.3341
10720SOL     OW42838   4.377   3.786   4.236 -0.4442 -0.0718  0.3201
10720SOL    HW142839   4.434   3.867   4.247 -0.4065  0.0043 -0.4244
10720SOL    HW242840   4.434   3.706   4.220 -0.5434 -0.0100 -0.3442
10721SOL     OW42841   2.936   8.443   0.794  0.0693  0.2390  0.2970
10721SOL    HW142842   2.857   8.501   0.814 -0.2238  0.3159 -1.0220
10721SOL    HW242843   2.905   8.349   0.780  0.5215 -0.2234  2.2585
10722SOL     OW42844   7.913   9.179   2.578 -0.3270  0.0291 -0.7857
10722SOL    HW142845   7.909   9.279   2.568 -0.4958 -0.1147 -2.3084
10722SOL    HW242846   7.851   9.137   2.512 -0.4365 -1.0895  0.0183
10723SOL     OW42847   3.372   4.239   4.357  0.3160 -0.1320 -0.3505
10723SOL    HW142848   3.453   4.251   4.301  0.0362  0.0503 -0.7193
10723SOL    HW242849   3.309   4.175   4.312 -0.7250  1.4170 -1.1464
10724SOL     OW42850   9.707   3.924   3.193  0.1733  0.1333 -0.3271
10724SOL    HW142851   9.690   4.021   3.208 -1.9322 -0.2020 -0.4412
10724SOL    HW242852   9.722   3.907   3.096  0.4306  0.3269 -0.3205
10725SOL     OW42853   2.639   9.359   1.899  0.1794  0.0226  0.1753
10725SOL    HW142854   2.666   9.446   1.859 -0.8082  0.1406 -0.2572
10725SOL    HW242855   2.551   9.331   1.861  1.2469 -1.9605 -0.9267
10726SOL     OW42856   1.787   7.227   2.634  0.2270  0.1340 -0.2246
10726SOL    HW142857   1.839   7.252   2.715 -0.0488 -1.4104  0.4482
10726SOL    HW242858   1.691   7.210   2.660  0.5816 -2.4615 -0.4680
10727SOL     OW42859   1.685   2.561   4.564 -0.2477 -0.5161 -0.2459
10727SOL    HW142860   1.622   2.629   4.602 -0.4314 -2.1485  2.4822
10727SOL    HW242861   1.652   2.532   4.474 -3.6432 -1.5896  1.2523
10728SOL     OW42862   5.947   8.650   1.429  0.0616  0.1236  0.2333
10728SOL    HW142863   5.979   8.731   1.478 -0.1446 -0.8825  2.1008
10728SOL    HW242864   5.849   8.656   1.413  0.2760  0.8425 -0.8204
10729SOL     OW42865   7.987   4.244   4.062 -0.3414 -0.3933 -0.2946
10729SOL    HW142866   8.035   4.157   4.073  1.1565  0.3216 -0.9293
10729SOL    HW242867   8.028   4.295   3.986 -1.4965  0.6674 -0.2221
10730SOL     OW42868   3.550   0.683   1.103  0.4551  0.5277  0.4787
10730SOL    HW142869   3.556   0.701   1.005  1.5502  2.1382  0.8216
10730SOL    HW242870   3.612   0.608   1.127  0.6430  0.5433  0.0414
10731SOL     OW42871   3.428   0.794   2.250  0.4195  0.0073  0.3104
10731SOL    HW142872   3.483   0.876   2.264 -1.9499  1.3669  1.9876
10731SOL    HW242873   3.364   0.809   2.175 -2.0044  0.7948  2.4866
10732SOL     OW42874   9.948   6.687   0.504 -0.0695 -0.2964  0.6750
10732SOL    HW142875   9.856   6.658   0.482 -0.2739  0.5639  0.3638
10732SOL    HW242876   9.965   6.778   0.466  0.3824  0.2068  2.0316
10733SOL     OW42877   2.071   4.776   0.266  0.3407  0.1518  0.2569
10733SOL    HW142878   2.098   4.852   0.325 -0.9707  0.9076 -0.0985
10733SOL    HW242879   2.152   4.721   0.243  1.4368  1.8852 -0.1184
10734SOL     OW42880   2.784   3.481   1.399 -0.0216  0.2456  0.0043
10734SOL    HW142881   2.726   3.465   1.319  0.4540  0.0180 -0.3010
10734SOL    HW242882   2.774   3.406   1.464  1.1019 -0.5758 -0.7576
10735SOL     OW42883   8.542   0.650   3.272  1.0428  0.1958 -0.5787
10735SOL    HW142884   8.617   0.716   3.267 -0.4367  1.9319 -0.4469
10735SOL    HW242885   8.539   0.611   3.364  0.0368  2.2756  0.3104
10736SOL     OW42886   3.165   3.226   4.486  0.4106 -0.2296  0.4645
10736SOL    HW142887   3.179   3.306   4.427 -0.4488  0.3073  0.9854
10736SOL    HW242888   3.069   3.220   4.512  0.4868 -1.4015  0.4873
10737SOL     OW42889   8.668   7.907   0.517 -0.7298  0.2050  0.4011
10737SOL    HW142890   8.646   7.886   0.421  0.6822 -0.6636  0.2506
10737SOL    HW242891   8.614   7.848   0.577  0.2611 -1.0868  0.0615
10738SOL     OW42892   9.955   1.442   3.267 -0.3774 -1.0400  0.1999
10738SOL    HW142893  10.007   1.386   3.331  0.3548 -0.2191  0.3407
10738SOL    HW242894  10.010   1.522   3.241 -0.1689 -1.9617 -2.3614
10739SOL     OW42895   0.394   7.147   1.877 -0.7512  0.5343 -0.3770
10739SOL    HW142896   0.359   7.054   1.892  1.8016 -0.3542  0.3790
10739SOL    HW242897   0.409   7.162   1.780 -0.7099 -0.0415 -0.4618
10740SOL     OW42898   6.444   9.915   0.501  0.0518 -0.5432 -0.2780
10740SOL    HW142899   6.463   9.963   0.587  0.3164  0.5323 -0.9271
10740SOL    HW242900   6.519   9.931   0.437 -1.9785  2.0597 -2.1553
10741SOL     OW42901   2.092   0.429   3.524  0.0632 -0.3246  0.4186
10741SOL    HW142902   2.154   0.429   3.446  0.9929 -1.1338  1.1401
10741SOL    HW242903   2.116   0.354   3.586 -1.8464 -0.8783  0.5469
10742SOL     OW42904   2.872   6.852   2.235  0.5912  0.4879 -0.3769
10742SOL    HW142905   2.888   6.754   2.232  0.9934  0.5442 -0.0681
10742SOL    HW242906   2.854   6.885   2.142  0.1296  0.0718 -0.4351
10743SOL     OW42907   3.072   3.187   1.558  0.1637 -0.8514  0.1703
10743SOL    HW142908   3.052   3.093   1.531 -3.3023  0.3144 -1.6123
10743SOL    HW242909   3.063   3.248   1.479 -0.1444  1.3287  1.8217
10744SOL     OW42910   3.269   7.935   3.132 -0.0386 -0.3464 -0.3378
10744SOL    HW142911   3.241   7.897   3.044  1.0978 -0.4553 -0.6655
10744SOL    HW242912   3.319   8.020   3.118  0.4203 -0.5218  0.1752
10745SOL     OW42913   5.194   0.317   1.300  0.2736  0.3168 -0.3759
10745SOL    HW142914   5.213   0.219   1.313 -1.4531 -0.1621 -1.2689
10745SOL    HW242915   5.260   0.355   1.236  0.6306 -0.3995 -0.4415
10746SOL     OW42916   9.632   6.447   2.310 -0.3312 -0.6895  0.2609
10746SOL    HW142917   9.658   6.441   2.214 -0.2200  0.7608  0.1798
10746SOL    HW242918   9.635   6.543   2.339 -1.0473 -1.0349  1.5202
10747SOL     OW42919   8.924   9.231   0.793  0.4372  0.2372  0.1302
10747SOL    HW142920   8.832   9.267   0.777 -0.8134 -3.3941 -1.4086
10747SOL    HW242921   8.921   9.162   0.864  1.8592 -0.3993 -0.4045
10748SOL     OW42922   0.361   0.209   0.193 -0.1346 -0.0016 -0.5952
10748SOL    HW142923   0.345   0.295   0.143  1.6211 -0.0282 -1.2424
10748SOL    HW242924   0.456   0.182   0.182 -0.5691 -1.8110 -0.0140
10749SOL     OW42925   3.042   6.908   3.961  0.1328 -0.6453  0.6296
10749SOL    HW142926   3.044   6.857   4.047 -0.7540 -0.0081  1.0348
10749SOL    HW242927   3.029   6.845   3.885  1.1098 -1.2305  0.9391
10750SOL     OW42928   8.243   5.077   1.219  0.5861  0.6032 -0.7433
10750SOL    HW142929   8.321   5.113   1.270  0.9278  1.2759 -1.7192
10750SOL    HW242930   8.166   5.141   1.228  0.3951  0.3324 -0.4349
10751SOL     OW42931   9.741   4.877   1.606 -0.1246 -0.1305  0.1546
10751SOL    HW142932   9.663   4.834   1.560  1.1598 -0.3894 -1.8057
10751SOL    HW242933   9.766   4.962   1.559  0.7090  0.0123  0.8365
10752SOL     OW42934   9.983   0.827   2.684  0.6919  0.1670 -0.1772
10752SOL    HW142935   9.939   0.906   2.726  0.4876 -1.0899  2.0531
10752SOL    HW242936   9.926   0.747   2.695  3.2982 -1.4333  2.5251
10753SOL     OW42937   8.320   8.729   0.147  0.5476 -0.2943 -0.3035
10753SOL    HW142938   8.346   8.723   0.244 -1.8407 -2.3500  0.2634
10753SOL    HW242939   8.379   8.669   0.093  1.8587  0.8217 -0.1404
10754SOL     OW42940   2.730   3.138   3.896  0.3043 -0.1199  0.0271
10754SOL    HW142941   2.744   3.042   3.873  0.8283 -0.1285  0.3644
10754SOL    HW242942   2.699   3.146   3.990 -1.1651 -0.0405 -0.4494
10755SOL     OW42943   9.195   9.820   2.467 -0.3534 -0.4592 -0.2375
10755SOL    HW142944   9.257   9.749   2.500 -0.2161 -0.3353 -0.2298
10755SOL    HW242945   9.242   9.876   2.399 -0.7301 -0.8801 -0.8437
10756SOL     OW42946   6.286   9.389   1.099  0.5299 -0.0546  0.0106
10756SOL    HW142947   6.347   9.429   1.168  2.3680 -1.2372 -0.8837
10756SOL    HW242948   6.282   9.290   1.112 -3.1134  0.2053  1.5223
10757SOL     OW42949   7.752   0.789   1.643 -0.2131  0.3727  0.2972
10757SOL    HW142950   7.787   0.874   1.683 -1.4914  0.6383  0.8918
10757SOL    HW242951   7.814   0.758   1.570 -0.0908  2.1858 -0.3964
10758SOL     OW42952   3.166   9.832   1.478  0.1476 -0.2906 -0.0826
10758SOL    HW142953   3.089   9.873   1.527  0.7008 -1.0708  1.4679
10758SOL    HW242954   3.143   9.824   1.381 -0.7282  1.8407 -0.0807
10759SOL     OW42955   0.005   2.876   0.710 -0.0551 -0.1571  0.2120
10759SOL    HW142956   0.043   2.879   0.803 -0.3151 -1.7089  0.3698
10759SOL    HW242957  -0.003   2.970   0.675  1.2588  0.3619  1.2553
10760SOL     OW42958   8.141   7.487   2.550 -0.0399 -0.1361 -0.1070
10760SOL    HW142959   8.096   7.570   2.518 -1.3004 -0.5109  0.6710
10760SOL    HW242960   8.098   7.456   2.635  0.0645 -1.8899 -0.6837
10761SOL     OW42961   0.908   5.513   1.078  0.2925  0.1481 -0.5871
10761SOL    HW142962   0.923   5.426   1.030  0.2034  0.3840 -1.0531
10761SOL    HW242963   0.911   5.498   1.176 -1.0170 -0.6136 -0.6488
10762SOL     OW42964   8.782   6.094   0.337 -0.3292 -0.1912 -0.2483
10762SOL    HW142965   8.832   6.009   0.324  0.8633  0.6233 -1.0182
10762SOL    HW242966   8.748   6.128   0.249  0.4542  0.8758 -0.1571
10763SOL     OW42967   4.749   1.068   0.275 -0.1253  0.7222  0.6369
10763SOL    HW142968   4.704   1.101   0.358 -1.0347 -1.9081  1.2264
10763SOL    HW242969   4.680   1.046   0.206  0.3885 -0.8489  0.6116
10764SOL     OW42970   1.111   9.446   1.495  0.0431  0.2472  0.9830
10764SOL    HW142971   1.153   9.530   1.530  0.1678  0.4681  0.3146
10764SOL    HW242972   1.181   9.391   1.450 -0.3318  0.4896  0.1002
10765SOL     OW42973   2.455   6.295   0.770 -0.5338  0.1536 -0.4259
10765SOL    HW142974   2.419   6.263   0.682 -0.0303 -0.1034 -0.5472
10765SOL    HW242975   2.382   6.297   0.838 -0.7004 -0.7125 -0.5685
10766SOL     OW42976   0.149   5.769   4.630 -0.1775 -0.0252  1.0223
10766SOL    HW142977   0.186   5.796   4.719 -0.7420  2.2750  0.6018
10766SOL    HW242978   0.053   5.798   4.625 -0.7614 -2.0310  0.4607
10767SOL     OW42979   8.290   6.633   2.615  0.5102 -0.0400  0.2027
10767SOL    HW142980   8.303   6.653   2.518  3.3133  0.6816  0.6975
10767SOL    HW242981   8.209   6.682   2.648 -0.3355 -0.1256 -1.7076
10768SOL     OW42982   4.772   0.028   2.784  0.4784 -0.0448  0.0380
10768SOL    HW142983   4.791  -0.010   2.694 -0.9472  0.6332 -0.5650
10768SOL    HW242984   4.758  -0.046   2.850 -1.8245 -0.5958 -1.0223
10769SOL     OW42985   2.716   8.944   0.375 -0.3426  0.5416 -0.2447
10769SOL    HW142986   2.651   9.005   0.330 -0.9446 -0.0590 -0.1976
10769SOL    HW242987   2.681   8.917   0.464  1.4703  2.8122  1.2118
10770SOL     OW42988   0.882   5.912   0.600 -0.6540  0.3532  0.3781
10770SOL    HW142989   0.859   5.840   0.666 -0.7648  0.2911  0.2722
10770SOL    HW242990   0.951   5.972   0.639 -0.7867  0.3712  0.5884
10771SOL     OW42991   3.255   0.622   1.049  0.0108  0.4740  0.1520
10771SOL    HW142992   3.330   0.590   1.106 -0.2141  0.0293  0.2006
10771SOL    HW242993   3.170   0.617   1.100 -0.3986 -1.2101 -0.6523
10772SOL     OW42994   3.542   9.742   0.423  0.4386  0.2385 -0.2019
10772SOL    HW142995   3.500   9.680   0.357  0.4215  0.0874 -0.0493
10772SOL    HW242996   3.625   9.699   0.460  0.0104 -0.0057  0.4681
10773SOL     OW42997   3.027   8.048   2.637 -0.0725 -0.0399  0.3277
10773SOL    HW142998   3.103   8.049   2.702  0.6457  2.3119 -0.5280
10773SOL    HW242999   2.969   8.128   2.651 -1.2879 -0.7840 -0.3378
10774SOL     OW43000   2.054   7.139   1.080 -0.2207  0.3828 -0.5900
10774SOL    HW143001   1.992   7.198   1.028 -0.4150 -1.3210 -2.3814
10774SOL    HW243002   2.137   7.190   1.103 -2.6586  3.0381  2.8109
10775SOL     OW43003   1.367   9.374   3.149 -0.0218 -0.4567  0.0809
10775SOL    HW143004   1.437   9.308   3.177 -0.8763 -1.5471 -0.2928
10775SOL    HW243005   1.335   9.425   3.229  0.3373 -0.7953  0.4448
10776SOL     OW43006   0.222   4.494   0.018 -0.3159  0.5699  0.1655
10776SOL    HW143007   0.194   4.589   0.031  1.5204  1.0322  1.0227
10776SOL    HW243008   0.321   4.491   0.003 -0.5734 -1.0888 -1.3813
10777SOL     OW43009   1.255   9.158   3.405 -0.0218  0.5421 -0.2081
10777SOL    HW143010   1.220   9.078   3.452  0.5025  1.7831  2.3776
10777SOL    HW243011   1.181   9.202   3.354 -0.9168 -0.0733  0.5452
10778SOL     OW43012   1.629   4.828   0.838 -1.1303 -0.5533 -0.3193
10778SOL    HW143013   1.706   4.876   0.880 -2.1431  0.1073  0.8302
10778SOL    HW243014   1.640   4.729   0.851 -0.6205 -0.4451  0.0923
10779SOL     OW43015   7.155   0.193   1.461 -0.1060  0.0525 -0.3002
10779SOL    HW143016   7.224   0.138   1.413  0.0095  1.0576 -1.2917
10779SOL    HW243017   7.166   0.289   1.437 -1.5151  0.2886 -0.0372
10780SOL     OW43018   6.927   9.412   2.496  0.0679 -1.0897  0.0861
10780SOL    HW143019   6.962   9.445   2.584 -0.6354 -1.1447  0.3864
10780SOL    HW243020   6.839   9.366   2.510 -0.0462 -1.0998 -0.6492
10781SOL     OW43021   8.583   0.702   0.633  0.4072  0.2819  1.0546
10781SOL    HW143022   8.660   0.765   0.630  0.8330 -0.2923 -1.1905
10781SOL    HW243023   8.509   0.738   0.575 -0.3576  0.0046  1.8540
10782SOL     OW43024   4.241   0.277   0.504  0.3627 -0.0271  0.5364
10782SOL    HW143025   4.320   0.217   0.491  0.4162  0.3430 -0.8772
10782SOL    HW243026   4.197   0.256   0.591  0.7821 -1.6487  0.3602
10783SOL     OW43027   0.429   3.082   1.398 -0.3293  0.4284  0.0571
10783SOL    HW143028   0.406   3.149   1.468 -1.1459 -0.7428  0.9153
10783SOL    HW243029   0.518   3.042   1.418  0.8149  2.2266 -1.2152
10784SOL     OW43030   8.932   5.870   0.762  0.2536 -0.8217  0.5325
10784SOL    HW143031   8.988   5.914   0.692  0.1164 -1.4631  0.0118
10784SOL    HW243032   8.894   5.939   0.823 -1.3083 -0.0466 -1.2706
10785SOL     OW43033   3.413   6.979   1.434  0.1191  0.3369 -0.6130
10785SOL    HW143034   3.316   6.990   1.456  0.1572  0.4182 -0.4873
10785SOL    HW243035   3.466   6.974   1.518 -0.0268 -2.0077 -0.6158
10786SOL     OW43036   9.480   9.545   0.650  0.0472  0.7418  0.5392
10786SOL    HW143037   9.553   9.545   0.582 -1.6269  1.2714 -1.3191
10786SOL    HW243038   9.411   9.477   0.625 -0.6808  1.0627  1.6302
10787SOL     OW43039   1.438   7.485   0.538  0.3208 -0.0147  0.1193
10787SOL    HW143040   1.342   7.460   0.535  0.6514 -1.1760 -2.1467
10787SOL    HW243041   1.490   7.415   0.586  0.2585 -0.2305 -0.1247
10788SOL     OW43042   9.593   9.813   1.958  0.3790 -0.4826  0.2475
10788SOL    HW143043   9.624   9.890   1.902  0.9171 -0.7095  0.2376
10788SOL    HW243044   9.520   9.844   2.019  0.0679 -0.1417 -0.2985
10789SOL     OW43045   0.746   7.159   3.060 -0.0273  0.6966 -0.3551
10789SOL    HW143046   0.773   7.255   3.065 -1.3293  1.0726 -0.2244
10789SOL    HW243047   0.775   7.121   2.972 -0.4744  1.5284 -0.8683
10790SOL     OW43048   1.754   5.931   0.787 -0.2961 -0.4215  0.0649
10790SOL    HW143049   1.692   6.008   0.802  0.7164  0.9275 -2.3330
10790SOL    HW243050   1.796   5.905   0.874 -2.1539  0.4073  1.2478
10791SOL     OW43051   1.948   5.414   3.996 -0.1454 -0.8181 -0.2679
10791SOL    HW143052   1.889   5.485   3.958  1.3894  0.9234  0.5204
10791SOL    HW243053   1.908   5.324   3.978 -1.6113  0.1828 -2.1476
10792SOL     OW43054   4.483   8.048   1.017 -0.0837 -0.3014 -0.4034
10792SOL    HW143055   4.476   7.995   0.932 -1.8900 -0.0655 -0.4213
10792SOL    HW243056   4.559   8.012   1.072  0.7853 -0.7903 -1.8733
10793SOL     OW43057   9.920   4.953   4.318  0.0252 -0.7768 -0.3392
10793SOL    HW143058   9.894   4.938   4.223 -0.4689 -2.2223  0.0179
10793SOL    HW243059   9.853   5.013   4.362  0.5773  0.3819 -1.0510
10794SOL     OW43060   9.003   7.777   0.884  0.1999  0.2594  0.3041
10794SOL    HW143061   9.005   7.722   0.967  1.4402 -0.5437 -0.2375
10794SOL    HW243062   8.955   7.726   0.812  0.4765  0.2986  0.0915
10795SOL     OW43063   6.286   6.723   2.791  0.2545 -0.0387 -0.4031
10795SOL    HW143064   6.219   6.651   2.804  1.3109 -1.5959 -3.1052
10795SOL    HW243065   6.249   6.810   2.822 -2.0685 -1.2953  0.4021
10796SOL     OW43066   3.494   9.576   4.247 -0.3402 -0.6480 -0.1263
10796SOL    HW143067   3.586   9.590   4.283 -0.4063 -1.2629  0.2855
10796SOL    HW243068   3.468   9.655   4.192  0.0007  0.0132  0.6572
10797SOL     OW43069   9.032   1.739   1.731 -0.1374 -0.7516 -0.2700
10797SOL    HW143070   9.127   1.707   1.726 -0.2730 -1.2046  0.0223
10797SOL    HW243071   9.024   1.807   1.803  0.0218 -0.5306 -0.4630
10798SOL     OW43072   1.647   5.989   1.306  0.1698 -0.0433  0.1135
10798SOL    HW143073   1.747   5.989   1.300  0.0541 -1.3560 -2.7533
10798SOL    HW243074   1.619   5.948   1.393  2.1129 -1.6771  0.0116
10799SOL     OW43075   9.404   7.661   3.872 -0.6600 -0.1433 -0.0795
10799SOL    HW143076   9.456   7.746   3.875  0.9792 -1.0752 -1.1359
10799SOL    HW243077   9.318   7.672   3.921 -0.0457  1.8313  0.5806
10800SOL     OW43078   4.002   3.658   0.849  0.0303 -0.5005 -0.1382
10800SOL    HW143079   4.079   3.634   0.910 -1.2770  0.1726  1.8391
10800SOL    HW243080   4.038   3.691   0.762  2.0115  0.1618  0.8796
10801SOL     OW43081   6.724   1.396   2.751  0.1256 -0.1824 -0.1008
10801SOL    HW143082   6.786   1.369   2.678 -1.1257 -0.7025 -0.9943
10801SOL    HW243083   6.725   1.327   2.823 -2.0749 -2.0014 -1.7683
10802SOL     OW43084   6.276   8.704   1.312 -0.4231  0.4593 -0.3019
10802SOL    HW143085   6.211   8.630   1.297  0.4970 -0.1058 -1.6550
10802SOL    HW243086   6.336   8.681   1.388  0.2034 -0.4454 -1.0527
10803SOL     OW43087   2.470   5.611   3.218 -0.0648 -0.1360 -0.4467
10803SOL    HW143088   2.461   5.709   3.236  0.8012 -0.0885 -0.2815
10803SOL    HW243089   2.564   5.582   3.235 -0.3423 -1.0190 -0.3964
10804SOL     OW43090   9.138   1.120   1.081 -0.3503 -0.4183 -0.7085
10804SOL    HW143091   9.068   1.168   1.028 -0.3444  0.7675  0.3298
10804SOL    HW243092   9.097   1.085   1.165 -0.5285 -2.9144 -1.8076
10805SOL     OW43093   7.691   8.855   4.185 -0.1369  0.2130 -0.5047
10805SOL    HW143094   7.632   8.775   4.170 -1.5418  1.0958  0.1271
10805SOL    HW243095   7.636   8.928   4.227  1.9498  0.2347  2.3506
10806SOL     OW43096   7.017   7.377   2.056 -0.0105  0.0452 -0.0519
10806SOL    HW143097   7.025   7.351   2.152 -2.9131  0.1549  0.2785
10806SOL    HW243098   6.973   7.302   2.005  0.6536  0.3623 -1.1151
10807SOL     OW43099   3.341   1.989   2.353 -0.3281 -0.2560  0.5292
10807SOL    HW143100   3.435   1.956   2.358  0.1939  1.3478  2.1392
10807SOL    HW243101   3.280   1.924   2.399 -0.0169 -1.2766 -0.4795
10808SOL     OW43102   9.389   4.721   3.008 -0.4559 -0.1043 -0.0087
10808SOL    HW143103   9.398   4.687   2.914  0.0857 -1.4272  0.5025
10808SOL    HW243104   9.437   4.808   3.017 -0.9452  0.2916 -1.0844
10809SOL     OW43105   2.969   2.997   0.666  0.4533  0.3024  0.3881
10809SOL    HW143106   2.999   2.964   0.756  2.9604  1.6233  0.0852
10809SOL    HW243107   2.940   2.920   0.610  0.4539 -0.7152  1.7647
10810SOL     OW43108   8.227   5.102   4.164 -0.1247 -0.1311  0.5973
10810SOL    HW143109   8.265   5.010   4.149 -1.4274 -0.6783  0.6299
10810SOL    HW243110   8.139   5.095   4.210  0.1438  1.1832  1.3240
10811SOL     OW43111   0.474   2.304   0.339  0.6457  0.2390 -0.2236
10811SOL    HW143112   0.406   2.287   0.411 -0.1454 -1.8665 -1.4203
10811SOL    HW243113   0.564   2.277   0.372  0.0484 -2.2847 -0.5449
10812SOL     OW43114   0.810   9.313   0.610 -0.1690 -0.0968  0.1504
10812SOL    HW143115   0.753   9.390   0.641 -0.0926 -0.0723  0.2306
10812SOL    HW243116   0.904   9.345   0.597 -0.1053 -0.2116  0.3265
10813SOL     OW43117   0.984   4.270   1.410 -0.0605 -0.4229  0.1716
10813SOL    HW143118   1.039   4.228   1.337  0.4275 -1.0600  0.8926
10813SOL    HW243119   0.951   4.199   1.472 -1.1856  0.0288  0.1005
10814SOL     OW43120   1.871   9.989   2.063  0.3758 -0.1114 -0.0537
10814SOL    HW143121   1.825   9.952   1.982  1.8630 -1.7338 -0.1916
10814SOL    HW243122   1.815   9.973   2.144  0.1945 -1.1078 -0.3687
10815SOL     OW43123   9.864   2.917   3.402 -0.0759 -1.0396  0.6998
10815SOL    HW143124   9.888   2.828   3.364  0.9979 -1.2446  1.8270
10815SOL    HW243125   9.886   2.919   3.499 -0.0677  0.4643  0.6773
10816SOL     OW43126   5.991   9.898   3.517 -0.4764  0.0410  0.1560
10816SOL    HW143127   6.053   9.925   3.443 -0.5532 -1.7309 -0.5866
10816SOL    HW243128   5.987   9.798   3.522 -0.6562  0.1292  2.4136
10817SOL     OW43129   4.437   7.003   2.229 -0.0214 -0.2173  0.4622
10817SOL    HW143130   4.361   6.980   2.289 -0.3224  0.9162  0.5330
10817SOL    HW243131   4.402   7.035   2.141  0.3823 -0.1039  0.3399
10818SOL     OW43132   9.542   6.340   1.717 -0.1551 -0.6492  0.6179
10818SOL    HW143133   9.639   6.352   1.695 -0.1293 -0.2360  0.9458
10818SOL    HW243134   9.487   6.400   1.658 -0.1293 -0.0341  1.2042
10819SOL     OW43135   4.570   0.015   4.585  0.2276 -0.2195 -0.2096
10819SOL    HW143136   4.566   0.109   4.618 -0.7353  0.5471 -2.4325
10819SOL    HW243137   4.662  -0.004   4.549  0.2824  0.0045 -0.1843
10820SOL     OW43138   2.445   1.269   2.415  0.4883  0.2002  0.1850
10820SOL    HW143139   2.368   1.220   2.456  0.3870  0.4706  0.3172
10820SOL    HW243140   2.414   1.359   2.383  1.2021  1.1647  2.1104
10821SOL     OW43141   2.412   5.681   1.965 -0.2156 -0.0733 -0.4403
10821SOL    HW143142   2.320   5.680   2.004 -0.2151  0.3732 -0.4245
10821SOL    HW243143   2.406   5.667   1.866 -0.2923 -0.1556 -0.4239
10822SOL     OW43144   2.767   6.132   1.274  0.3349  0.2339 -0.3570
10822SOL    HW143145   2.848   6.074   1.264 -0.4371 -0.7055 -1.2945
10822SOL    HW243146   2.728   6.151   1.184  0.3211  1.8591 -0.0141
10823SOL     OW43147   4.319   2.028   2.562  0.2129  0.5375  0.0426
10823SOL    HW143148   4.306   1.934   2.531  0.1093  1.1959 -1.9640
10823SOL    HW243149   4.277   2.040   2.652  0.1647 -1.3093  0.2697
10824SOL     OW43150   0.953   0.627   4.136 -0.3215 -0.4368  0.0877
10824SOL    HW143151   0.874   0.663   4.185  1.0352  0.9925  1.2663
10824SOL    HW243152   0.951   0.527   4.137 -0.9572 -0.4223  2.0376
10825SOL     OW43153   3.832   0.092   0.377 -0.2244  0.6920 -0.4268
10825SOL    HW143154   3.773   0.115   0.299 -1.5152 -1.0585  0.0133
10825SOL    HW243155   3.928   0.111   0.353 -0.5995  0.1296 -2.4579
10826SOL     OW43156   0.210   0.854   4.127  0.3635  0.1132  0.0832
10826SOL    HW143157   0.141   0.927   4.123  0.6134  0.2990 -0.9540
10826SOL    HW243158   0.167   0.770   4.162 -0.5558  0.0412 -1.1820
10827SOL     OW43159   7.540   0.250   4.301 -0.6415 -0.1779  0.3097
10827SOL    HW143160   7.529   0.228   4.398  0.0444  1.9859  0.8911
10827SOL    HW243161   7.612   0.318   4.290 -1.6259  0.5869 -1.6123
10828SOL     OW43162   4.161   1.520   0.354  0.1495  0.3524 -0.1918
10828SOL    HW143163   4.259   1.540   0.345  0.9190 -2.6214  1.1568
10828SOL    HW243164   4.109   1.605   0.344  2.7391  1.7559 -2.4514
10829SOL     OW43165   7.516   4.910   3.580 -0.4031  0.2616  0.0853
10829SOL    HW143166   7.555   4.866   3.661  0.1856 -0.2309 -0.4645
10829SOL    HW243167   7.450   4.848   3.537  0.6656 -0.2380 -0.8761
10830SOL     OW43168   2.242   8.655   3.896 -0.4223 -0.0722  0.6447
10830SOL    HW143169   2.212   8.630   3.988 -2.2195 -0.0182  0.1066
10830SOL    HW243170   2.175   8.717   3.855  0.9418  0.8251 -0.2766
10831SOL     OW43171   2.652   5.341   3.973 -0.2849 -0.1442 -0.0984
10831SOL    HW143172   2.589   5.308   4.044 -0.2912  0.6320  0.2592
10831SOL    HW243173   2.646   5.280   3.893 -0.6455 -0.7347  0.3673
10832SOL     OW43174   9.815   8.473   3.207 -0.3372 -0.3705  0.0273
10832SOL    HW143175   9.884   8.462   3.278 -1.2242  0.8737  1.0908
10832SOL    HW243176   9.757   8.391   3.204 -1.2836  0.2267  1.8063
10833SOL     OW43177   0.928   4.101   0.830 -0.3227  0.2029  0.4787
10833SOL    HW143178   0.904   4.062   0.742  2.1420 -1.5544  0.5376
10833SOL    HW243179   0.853   4.088   0.895 -1.3991 -0.1400 -0.8260
10834SOL     OW43180   1.216   3.832   1.237 -0.5975 -0.1462 -0.4135
10834SOL    HW143181   1.290   3.766   1.225  1.0332  1.4286  0.6913
10834SOL    HW243182   1.152   3.825   1.161  0.8148 -1.3556 -1.5158
10835SOL     OW43183   2.178   6.818   3.526  0.4059  0.3825  0.3606
10835SOL    HW143184   2.208   6.723   3.518 -1.8508 -0.4044  1.0471
10835SOL    HW243185   2.247   6.870   3.577  1.1188 -1.1394  0.9804
10836SOL     OW43186   1.748   4.400   2.872  0.2956  0.5411  0.0420
10836SOL    HW143187   1.769   4.498   2.882  0.3376  0.5249  0.1090
10836SOL    HW243188   1.653   4.384   2.897  0.3036  0.5555  0.0821
10837SOL     OW43189   1.918   0.717   2.902  0.2174  0.1290  0.7119
10837SOL    HW143190   1.997   0.669   2.941  1.4074  2.4871  1.3083
10837SOL    HW243191   1.921   0.813   2.929 -1.5834  0.7725 -1.2582
10838SOL     OW43192   9.142   5.602   2.716  0.5546  0.0620 -0.1239
10838SOL    HW143193   9.178   5.512   2.740  0.7669  0.3686  0.7071
10838SOL    HW243194   9.196   5.640   2.640 -1.0289 -1.5221 -2.1092
10839SOL     OW43195   9.012   2.898   4.174  0.1088  0.8329 -0.0143
10839SOL    HW143196   8.919   2.911   4.142 -0.5732 -0.2704  1.4602
10839SOL    HW243197   9.012   2.835   4.252  2.0255  1.2303  0.3308
10840SOL     OW43198   6.098   6.528   3.181  0.4481 -0.8893 -0.4062
10840SOL    HW143199   6.146   6.445   3.210  0.5756 -0.6368  0.1096
10840SOL    HW243200   6.079   6.523   3.083  0.5147 -1.4984 -0.3913
10841SOL     OW43201   0.095   7.420   2.454 -0.2285 -0.0852 -0.2279
10841SOL    HW143202   0.035   7.365   2.396 -0.2146 -0.5415  0.1905
10841SOL    HW243203   0.131   7.364   2.529 -1.1110  0.7786  0.8595
10842SOL     OW43204   1.864   9.248   2.175  0.3323 -0.0174  0.3020
10842SOL    HW143205   1.810   9.318   2.221  0.1895 -0.2867  0.5460
10842SOL    HW243206   1.879   9.275   2.080  0.4891  0.4581  0.4604
10843SOL     OW43207   4.916   1.335   0.961  0.2202 -0.4535 -0.5601
10843SOL    HW143208   4.823   1.369   0.950  0.3852  0.5002  0.8152
10843SOL    HW243209   4.914   1.236   0.974 -0.8215 -0.1705  1.7485
10844SOL     OW43210   5.045   8.756   3.390 -0.1225  0.5296  0.2825
10844SOL    HW143211   4.964   8.706   3.421 -0.7888  1.3486 -0.1143
10844SOL    HW243212   5.018   8.828   3.326  0.8696  1.1091  0.4919
10845SOL     OW43213   9.341   2.727   0.352 -0.1337 -0.0111 -0.1084
10845SOL    HW143214   9.365   2.759   0.260 -0.9087 -0.5376 -0.5071
10845SOL    HW243215   9.410   2.662   0.384 -0.3848 -0.5887 -0.7345
10846SOL     OW43216   4.855   6.781   2.427 -0.2915 -0.1516 -0.2214
10846SOL    HW143217   4.875   6.684   2.411  2.3007  0.2494  0.3850
10846SOL    HW243218   4.825   6.794   2.521  0.2552 -0.2340 -0.0358
10847SOL     OW43219   7.047   8.118   1.080 -0.4040 -0.2449 -0.2894
10847SOL    HW143220   7.142   8.103   1.052 -0.7098 -0.7430 -1.1042
10847SOL    HW243221   7.012   8.200   1.035 -0.3762 -0.0942 -0.0338
10848SOL     OW43222   8.756   0.061   0.950 -0.3876 -0.3886  0.5381
10848SOL    HW143223   8.766  -0.008   1.022  0.9133  0.6071  1.3438
10848SOL    HW243224   8.677   0.119   0.969  0.5283  0.4953  1.7193
10849SOL     OW43225   2.651   0.344   4.671 -0.0978  0.2768 -0.1442
10849SOL    HW143226   2.623   0.393   4.588  0.5806  0.3740 -0.3171
10849SOL    HW243227   2.613   0.390   4.751  1.8454  2.0357 -0.1925
10850SOL     OW43228   1.174   2.463   4.282  0.1328 -0.3060 -0.1456
10850SOL    HW143229   1.179   2.428   4.376 -0.2940  0.5702  0.2068
10850SOL    HW243230   1.256   2.516   4.262  1.5814 -2.8820 -1.2544
10851SOL     OW43231   8.907   5.195   3.534 -0.0548  0.1230 -0.1691
10851SOL    HW143232   8.816   5.191   3.495  0.0155  0.2135 -0.3393
10851SOL    HW243233   8.951   5.281   3.509  0.5522 -0.4689 -1.1320
10852SOL     OW43234   1.122   2.794   4.302  0.0160 -0.2785  0.2933
10852SOL    HW143235   1.068   2.849   4.366 -0.7063  0.5569 -0.9922
10852SOL    HW243236   1.067   2.717   4.270 -0.5341  0.7122 -1.2051
10853SOL     OW43237   1.410   4.123   4.149  0.8652  0.0002  0.0720
10853SOL    HW143238   1.486   4.081   4.198  2.6710  0.0171 -2.5891
10853SOL    HW243239   1.406   4.221   4.169  1.5649  0.0056  0.1810
10854SOL     OW43240   3.911   7.946   4.300  0.0951 -0.0991  0.0416
10854SOL    HW143241   3.875   8.025   4.250 -0.1408 -0.2239  0.0140
10854SOL    HW243242   3.836   7.886   4.327  0.2554 -0.2096  0.2429
10855SOL     OW43243   2.334   7.568   1.719 -0.2539  0.0600  0.0514
10855SOL    HW143244   2.391   7.610   1.790  1.3316  0.9736 -1.7299
10855SOL    HW243245   2.330   7.469   1.735 -0.8618  0.3885  2.0637
10856SOL     OW43246   1.815   0.672   1.072 -0.0424 -0.0011 -0.6159
10856SOL    HW143247   1.828   0.727   0.989  0.5575 -0.1664 -0.6370
10856SOL    HW243248   1.793   0.733   1.148 -2.4417 -0.0093 -1.2642
10857SOL     OW43249   7.291   8.842   2.274 -0.3226  0.4995  0.5344
10857SOL    HW143250   7.310   8.823   2.178 -0.2096  0.0281  0.6496
10857SOL    HW243251   7.270   8.757   2.322 -0.1046  0.6958  0.9869
10858SOL     OW43252   4.926   0.937   0.442  0.0945 -0.9714 -0.2686
10858SOL    HW143253   4.902   0.970   0.533 -0.5742 -1.4496 -0.2665
10858SOL    HW243254   4.873   0.986   0.373 -0.6923 -1.8260 -0.2841
10859SOL     OW43255   6.201   9.310   1.742 -0.5365  0.3292 -0.0733
10859SOL    HW143256   6.294   9.341   1.759 -0.2692 -0.4325 -0.1373
10859SOL    HW243257   6.202   9.232   1.680 -1.2227  0.3869 -0.1659
10860SOL     OW43258   9.116   0.667   2.873  0.2786  0.0015  0.3606
10860SOL    HW143259   9.153   0.575   2.864 -0.5280 -0.3185  0.2123
10860SOL    HW243260   9.054   0.685   2.797 -0.1183  0.3980  0.7750
10861SOL     OW43261   1.022   9.800   4.354 -0.3237 -0.0513 -0.4307
10861SOL    HW143262   0.987   9.722   4.301  0.5676 -1.5238  1.0973
10861SOL    HW243263   0.992   9.793   4.448  1.6080  0.2351  0.2368
10862SOL     OW43264   1.007   6.585   3.055  0.0943  0.0176 -0.0822
10862SOL    HW143265   0.919   6.609   3.013  0.4253  0.4750 -0.5245
10862SOL    HW243266   1.042   6.664   3.106  0.0543 -0.2956  0.4241
10863SOL     OW43267   9.537   4.682   2.229 -0.1171  0.0411 -0.4505
10863SOL    HW143268   9.490   4.680   2.317 -0.0450 -0.9561 -0.4284
10863SOL    HW243269   9.510   4.764   2.178  1.2089  1.5954  1.2477
10864SOL     OW43270   1.260   9.134   4.695 -0.0889  0.1504  0.0700
10864SOL    HW143271   1.258   9.160   4.791  0.1586 -0.7511  0.3292
10864SOL    HW243272   1.251   9.215   4.638 -0.9320  0.6230  0.8611
10865SOL     OW43273   9.409   2.717   4.494  0.2796  0.6686 -0.1462
10865SOL    HW143274   9.397   2.802   4.442  2.2962  0.5946 -0.7574
10865SOL    HW243275   9.471   2.733   4.571  4.9401 -1.3619 -3.2397
10866SOL     OW43276   1.917   0.516   0.756  0.0493  0.6476 -0.5729
10866SOL    HW143277   1.870   0.601   0.779 -0.2286  1.1922 -2.9881
10866SOL    HW243278   1.859   0.462   0.695  0.1552 -1.3668  1.0724
10867SOL     OW43279   1.196   1.455   2.248  0.4377 -0.6757  0.1410
10867SOL    HW143280   1.133   1.532   2.256  0.6190 -0.5547  0.4455
10867SOL    HW243281   1.290   1.489   2.241  0.4183 -0.8367 -0.9641
10868SOL     OW43282   0.498   3.844   2.134  0.8819  0.0818 -0.3831
10868SOL    HW143283   0.457   3.844   2.042 -1.6638 -1.1755  0.6836
10868SOL    HW243284   0.512   3.938   2.164  1.0518  0.5132 -1.7804
10869SOL     OW43285   3.224   0.156   3.261  0.6576 -0.2349  0.1050
10869SOL    HW143286   3.292   0.123   3.195  0.0473 -0.8740 -0.2155
10869SOL    HW243287   3.204   0.252   3.243  0.9413 -0.2418 -0.2589
10870SOL     OW43288   5.165   4.438   1.013 -0.2076  0.1219 -0.2558
10870SOL    HW143289   5.230   4.497   1.061  1.8546 -0.1311 -2.6057
10870SOL    HW243290   5.166   4.347   1.054  1.5638 -0.1084 -0.7573
10871SOL     OW43291   1.566   9.586   4.592 -0.2542 -0.6083 -0.4123
10871SOL    HW143292   1.600   9.620   4.680 -3.3648  1.4909  0.0319
10871SOL    HW243293   1.492   9.521   4.608  0.2359 -1.4568 -1.4892
10872SOL     OW43294   1.484   0.568   0.224 -0.0313  0.4231  0.6103
10872SOL    HW143295   1.474   0.638   0.294 -0.5478 -1.1809  2.1698
10872SOL    HW243296   1.436   0.485   0.253  0.3290 -0.4857 -1.3353
10873SOL     OW43297   7.946   3.054   4.251  0.0788 -0.3216 -0.5413
10873SOL    HW143298   7.951   3.047   4.351  0.4472 -2.0885 -0.6702
10873SOL    HW243299   7.874   3.120   4.227  0.4275  0.6185  0.8827
10874SOL     OW43300   1.932   0.739   1.538  0.1475  0.0241 -0.9364
10874SOL    HW143301   1.846   0.778   1.505  0.1902 -0.6405 -1.8541
10874SOL    HW243302   2.005   0.806   1.530 -0.0685  0.2328 -1.1573
10875SOL     OW43303   3.820   7.050   2.803  0.2249 -0.1615  0.7261
10875SOL    HW143304   3.823   6.985   2.879 -2.3870  0.7001  1.6256
10875SOL    HW243305   3.749   7.118   2.820  0.8819  1.1770 -1.6184
10876SOL     OW43306   2.829   7.490   2.061  0.1298  0.0925 -0.1495
10876SOL    HW143307   2.832   7.453   1.968 -1.3269 -1.3158  0.3542
10876SOL    HW243308   2.910   7.460   2.111  0.7301  0.5404 -0.8304
10877SOL     OW43309   3.565   4.064   3.254  0.1660 -0.5359  0.0475
10877SOL    HW143310   3.502   3.990   3.279  0.4466 -0.9123 -0.3567
10877SOL    HW243311   3.643   4.026   3.205  0.3354  0.0258 -0.1189
10878SOL     OW43312   1.789   2.292   1.208 -0.4585  0.6494 -0.1218
10878SOL    HW143313   1.884   2.287   1.240 -0.3674 -0.8241 -0.5681
10878SOL    HW243314   1.783   2.358   1.134  0.3461  0.3578 -0.4642
10879SOL     OW43315   7.671   2.773   1.092  0.4481  0.3770 -0.1654
10879SOL    HW143316   7.623   2.685   1.096  2.7766 -0.9779 -1.2093
10879SOL    HW243317   7.667   2.808   0.999  0.8455  0.6203 -0.0908
10880SOL     OW43318   2.891   2.896   2.132  0.2439 -0.1990 -0.4280
10880SOL    HW143319   2.823   2.897   2.059 -0.0667  1.6296 -0.1359
10880SOL    HW243320   2.972   2.946   2.102  0.1669  0.4478  0.4222
10881SOL     OW43321   8.651   1.652   1.940 -0.2606  0.3301 -0.0274
10881SOL    HW143322   8.638   1.573   1.881  0.0080 -1.0476  1.7026
10881SOL    HW243323   8.666   1.734   1.885  0.2784 -0.9702 -1.8364
10882SOL     OW43324   2.875   0.184   0.431 -0.6884  0.3340  0.6967
10882SOL    HW143325   2.898   0.122   0.356 -1.5237  2.0140 -0.9915
10882SOL    HW243326   2.800   0.145   0.484 -1.3623 -0.0311 -0.4896
10883SOL     OW43327   3.487   9.836   4.531 -0.0676 -0.4725 -0.2879
10883SOL    HW143328   3.441   9.893   4.599  0.6323  0.3879 -0.5272
10883SOL    HW243329   3.541   9.766   4.577 -2.1502 -1.9413 -0.0076
10884SOL     OW43330   8.518   1.669   2.743  0.1791 -0.8738  0.2835
10884SOL    HW143331   8.522   1.718   2.831  0.7499  1.6505 -1.0991
10884SOL    HW243332   8.582   1.711   2.679 -1.0465 -1.9757 -1.7039
10885SOL     OW43333   4.884   9.005   2.743  0.8790 -0.1476  0.9336
10885SOL    HW143334   4.850   9.050   2.661 -0.2703  0.0924  1.5236
10885SOL    HW243335   4.887   8.906   2.730 -0.8635 -0.2454  1.1447
10886SOL     OW43336   1.748   2.515   2.279 -1.2113 -0.4121 -0.2782
10886SOL    HW143337   1.839   2.514   2.239 -0.4783  0.2543  1.3256
10886SOL    HW243338   1.728   2.427   2.321 -0.3573  0.1751  1.4052
10887SOL     OW43339   6.103   6.477   2.911  0.0355  0.1519 -0.7497
10887SOL    HW143340   6.056   6.391   2.891  0.5261 -0.0875 -0.8855
10887SOL    HW243341   6.065   6.550   2.854  0.6780 -0.2962 -1.7570
10888SOL     OW43342   0.990   6.416   0.472  0.2956  0.3697 -0.1809
10888SOL    HW143343   1.010   6.326   0.433  0.1092  0.2820 -0.0769
10888SOL    HW243344   1.048   6.432   0.552  1.2917  0.9138 -1.0029
10889SOL     OW43345   8.650   8.406   4.640 -0.4950  0.9079 -0.4836
10889SOL    HW143346   8.694   8.356   4.565 -0.6034 -1.8968  1.2866
10889SOL    HW243347   8.652   8.351   4.723  0.8214  4.4798  1.9783
10890SOL     OW43348   5.641   7.341   2.006  0.7605 -0.1866  0.4057
10890SOL    HW143349   5.676   7.343   1.913  0.1585 -2.3615  0.1174
10890SOL    HW243350   5.709   7.299   2.066  0.5719 -0.0724  0.7005
10891SOL     OW43351   4.945   9.880   2.012 -0.0994  0.0244 -0.8353
10891SOL    HW143352   4.908   9.942   1.943 -0.5442  0.5631 -0.1211
10891SOL    HW243353   4.926   9.785   1.985  0.9827  0.1671 -2.1538
10892SOL     OW43354   9.917   3.660   2.599  0.1024  0.0661  0.5079
10892SOL    HW143355   9.905   3.676   2.696 -2.2934 -1.3612  0.4938
10892SOL    HW243356   9.993   3.597   2.585  0.1431 -0.1101  1.4876
10893SOL     OW43357   9.385   2.693   2.990  0.0996  0.4184  0.2003
10893SOL    HW143358   9.396   2.742   2.904  0.8609 -0.0266  0.0436
10893SOL    HW243359   9.290   2.702   3.021  0.3331  2.4432  0.4550
10894SOL     OW43360   0.684   2.949   1.476 -0.1565 -0.1228  0.0114
10894SOL    HW143361   0.725   2.917   1.391  0.2864 -1.1511  0.6014
10894SOL    HW243362   0.710   3.045   1.491 -0.8637  0.2973 -1.3800
10895SOL     OW43363   9.552   1.388   0.777 -0.0159 -0.2248 -0.3249
10895SOL    HW143364   9.555   1.435   0.689 -2.0299  1.1637  0.3403
10895SOL    HW243365   9.484   1.315   0.774 -0.6121  0.3030  0.3237
10896SOL     OW43366   8.620   6.462   4.736  0.1407  0.0492 -0.0381
10896SOL    HW143367   8.649   6.479   4.642  1.3304  0.7024  0.4352
10896SOL    HW243368   8.629   6.365   4.757  1.4679  0.1590 -0.0782
10897SOL     OW43369   1.335   5.282   3.378 -0.0291  0.5087  1.0911
10897SOL    HW143370   1.381   5.197   3.404  0.4361  0.6131  0.6132
10897SOL    HW243371   1.400   5.357   3.383 -0.0085  0.5695 -0.1399
10898SOL     OW43372   8.618   9.756   1.493  0.0174  0.0684  0.0033
10898SOL    HW143373   8.661   9.778   1.581  2.0254  0.7022 -1.0934
10898SOL    HW243374   8.682   9.702   1.438 -1.9950 -2.0653 -0.2950
10899SOL     OW43375   4.298   2.729   2.977 -0.7377  0.1196 -0.0085
10899SOL    HW143376   4.261   2.707   2.887 -0.5247 -1.7931  0.3489
10899SOL    HW243377   4.394   2.700   2.981 -0.0959  2.1920  0.1120
10900SOL     OW43378   3.821   8.482   4.048  0.5116  0.0093  0.0673
10900SOL    HW143379   3.883   8.416   4.090  1.8462  0.9790 -0.3670
10900SOL    HW243380   3.871   8.565   4.024 -0.8295  0.5819 -0.8240
10901SOL     OW43381   1.642   1.781   3.849  0.9618 -0.2345  0.5606
10901SOL    HW143382   1.726   1.832   3.833 -0.7805  2.0819 -1.4778
10901SOL    HW243383   1.585   1.830   3.915 -0.8339  0.6815 -1.6026
10902SOL     OW43384   5.048   3.293   1.404 -0.5502 -0.3880 -0.0303
10902SOL    HW143385   5.119   3.266   1.339 -1.1380 -1.1736 -0.3594
10902SOL    HW243386   5.038   3.223   1.475 -1.4819 -0.6342 -0.3914
10903SOL     OW43387   1.139   8.911   3.491  0.2824 -0.4517  0.0901
10903SOL    HW143388   1.098   8.907   3.582  0.3661 -1.4324  0.0959
10903SOL    HW243389   1.132   8.821   3.448  1.3273 -0.3119 -0.3838
10904SOL     OW43390   7.503   9.023   2.320 -0.6901 -0.0858 -0.4513
10904SOL    HW143391   7.454   9.100   2.280 -2.3200 -0.1437  1.3529
10904SOL    HW243392   7.439   8.949   2.341  0.8200 -1.8536 -1.8941
10905SOL     OW43393   0.070   6.610   1.808  0.4004  0.1816  0.0070
10905SOL    HW143394  -0.007   6.619   1.872  1.7407  2.7571  1.3051
10905SOL    HW243395   0.037   6.629   1.715 -0.7409  0.3623  0.4306
10906SOL     OW43396   3.028   8.561   4.108 -0.0368 -0.4306 -0.1501
10906SOL    HW143397   3.113   8.537   4.154 -0.1967  2.3214  1.6792
10906SOL    HW243398   3.042   8.561   4.009  1.9111 -0.5462  0.1162
10907SOL     OW43399   5.429   0.520   2.618 -0.0043 -0.5035  0.6686
10907SOL    HW143400   5.496   0.560   2.680  0.1670 -0.9215  0.7551
10907SOL    HW243401   5.476   0.473   2.543 -0.1848 -1.2483  1.0156
10908SOL     OW43402   2.401   1.271   4.673 -0.3130 -0.1266 -0.4019
10908SOL    HW143403   2.398   1.337   4.749 -4.2057 -1.4529  0.6830
10908SOL    HW243404   2.487   1.220   4.678 -0.4364 -0.1617  3.1250
10909SOL     OW43405   2.145   8.438   0.677  0.3679 -0.1809 -0.4381
10909SOL    HW143406   2.219   8.490   0.633 -2.1958  2.7988 -1.4017
10909SOL    HW243407   2.080   8.407   0.607 -1.4660  0.8254  0.7833
10910SOL     OW43408   5.313   3.951   0.010 -0.4354  0.0535 -0.0251
10910SOL    HW143409   5.392   3.903  -0.028 -0.6860  0.1270 -0.6334
10910SOL    HW243410   5.337   3.988   0.100  1.0544  2.3589 -1.3263
10911SOL     OW43411   0.097   0.319   3.435 -0.3460  0.4275  0.5585
10911SOL    HW143412   0.105   0.264   3.352  0.1499 -0.9565  1.5071
10911SOL    HW243413   0.186   0.325   3.480 -0.0809  3.1903 -0.2462
10912SOL     OW43414   0.530   6.898   0.849 -0.1188  0.7266 -0.1848
10912SOL    HW143415   0.584   6.959   0.791 -0.7857  1.3213 -0.1889
10912SOL    HW243416   0.588   6.858   0.920  1.4044 -2.2538 -2.9481
10913SOL     OW43417   4.396   3.585   1.618 -0.2538  0.1679  0.7829
10913SOL    HW143418   4.403   3.505   1.559 -0.5269 -0.9564  2.2288
10913SOL    HW243419   4.477   3.643   1.606  0.5706 -0.9808  0.6320
10914SOL     OW43420   8.644   4.153   0.532  0.1094 -0.0636 -0.6038
10914SOL    HW143421   8.588   4.073   0.554  0.6995  0.4764  3.2040
10914SOL    HW243422   8.741   4.129   0.539  0.2903  1.0664  0.9910
10915SOL     OW43423   2.458   5.835   3.694 -0.3903 -1.0950  0.0920
10915SOL    HW143424   2.418   5.869   3.609 -1.3166  1.1310  1.3648
10915SOL    HW243425   2.393   5.774   3.740 -0.5307 -1.0448 -0.0402
10916SOL     OW43426   9.812   3.191   1.678  0.1517  0.1626 -0.3707
10916SOL    HW143427   9.751   3.121   1.640 -0.1637 -0.1038  0.6288
10916SOL    HW243428   9.886   3.208   1.612 -0.4007 -0.2757 -1.1227
10917SOL     OW43429   8.372   5.116   4.636  0.0504  0.4601  0.3539
10917SOL    HW143430   8.471   5.127   4.627 -0.0071  1.2957  0.7426
10917SOL    HW243431   8.353   5.024   4.671  0.8938  1.3907  3.4384
10918SOL     OW43432   7.568   2.822   4.487 -0.2089 -0.1267 -0.6848
10918SOL    HW143433   7.522   2.910   4.498 -0.4912 -0.2618 -0.7796
10918SOL    HW243434   7.651   2.835   4.433 -0.0687  0.1371 -0.4122
10919SOL     OW43435   1.893   1.224   4.273 -0.1164 -0.2538 -0.5671
10919SOL    HW143436   1.959   1.282   4.225  0.0588  0.1113  0.1069
10919SOL    HW243437   1.923   1.210   4.368  0.1352 -1.9165 -0.8852
10920SOL     OW43438   8.800   6.860   3.715  0.0132  0.2243  0.2321
10920SOL    HW143439   8.780   6.799   3.791 -0.0287  1.1331  0.9698
10920SOL    HW243440   8.898   6.880   3.713  0.2311 -0.9204 -0.8267
10921SOL     OW43441   8.905   4.071   0.575 -0.1851  0.6065 -0.2395
10921SOL    HW143442   8.878   3.975   0.575  0.9334  0.2529  2.4838
10921SOL    HW243443   8.999   4.079   0.544  0.0054  0.7502  0.3868
10922SOL     OW43444   4.262   7.921   2.523 -0.1686 -0.0633  0.1656
10922SOL    HW143445   4.189   7.974   2.568 -0.0097 -0.1614  0.5362
10922SOL    HW243446   4.342   7.917   2.582 -0.3578 -1.1605  0.3692
10923SOL     OW43447   2.837   5.647   1.111  0.0989  0.1066  0.0550
10923SOL    HW143448   2.904   5.635   1.184 -0.7473 -0.5737  0.7387
10923SOL    HW243449   2.747   5.619   1.144  0.0052 -1.9111 -1.7798
10924SOL     OW43450   7.481   9.148   3.340  0.1856 -0.2413  0.3271
10924SOL    HW143451   7.476   9.186   3.432 -0.5215 -3.1968  1.5798
10924SOL    HW243452   7.565   9.180   3.295  0.4246  1.3946  1.9048
10925SOL     OW43453   1.267   5.091   2.669 -0.1504  0.0756  0.3486
10925SOL    HW143454   1.181   5.142   2.656  0.3644  0.2436 -2.9938
10925SOL    HW243455   1.342   5.156   2.677  0.0936 -0.1081 -0.4344
10926SOL     OW43456   9.431   6.129   4.680  0.2445  0.2401 -0.3709
10926SOL    HW143457   9.343   6.080   4.681  1.6677 -2.4118 -1.5639
10926SOL    HW243458   9.447   6.166   4.589  0.9036 -0.2392 -0.4447
10927SOL     OW43459   7.835   2.078   1.536 -0.0077 -0.0328  0.4624
10927SOL    HW143460   7.918   2.134   1.526  0.2248 -0.2927  0.8874
10927SOL    HW243461   7.861   1.986   1.567 -0.4290 -0.2148  0.2743
10928SOL     OW43462   3.529   8.921   3.959  0.3320  0.6824 -0.3322
10928SOL    HW143463   3.627   8.915   3.978  0.5143  2.2970 -0.7234
10928SOL    HW243464   3.479   8.869   4.028  1.3894  0.9308  0.6386
10929SOL     OW43465   1.884   3.768   1.708 -0.0722  0.3687 -0.0349
10929SOL    HW143466   1.797   3.760   1.757 -0.4619 -1.3924 -0.9598
10929SOL    HW243467   1.922   3.859   1.721 -0.2433  0.0150  3.4266
10930SOL     OW43468   7.764   5.571   2.128 -0.2071  0.0508 -0.2365
10930SOL    HW143469   7.797   5.570   2.223  1.2292 -1.7111 -0.7057
10930SOL    HW243470   7.736   5.478   2.102 -0.6487  0.5299 -1.5092
10931SOL     OW43471   4.128   0.165   4.140 -0.4265  0.6370  0.2014
10931SOL    HW143472   4.111   0.066   4.140 -0.8911  0.6976  2.2517
10931SOL    HW243473   4.089   0.205   4.057 -2.1179 -0.6071  0.3622
10932SOL     OW43474   3.368   3.674   4.608 -0.0757  0.3058 -0.1451
10932SOL    HW143475   3.319   3.672   4.521  0.9061  2.3723 -0.7659
10932SOL    HW243476   3.364   3.766   4.647  0.9245 -0.1927  1.1626
10933SOL     OW43477   0.810   4.492   4.574  0.0539 -0.2342  0.2105
10933SOL    HW143478   0.867   4.572   4.556  0.3079  0.2127  2.7549
10933SOL    HW243479   0.752   4.474   4.495  0.4540  2.0841 -0.6572
10934SOL     OW43480   1.929   1.457   3.673 -0.4291  0.2632  0.0892
10934SOL    HW143481   1.903   1.369   3.714  0.0348 -0.0042 -0.1937
10934SOL    HW243482   1.849   1.500   3.633 -0.4912 -0.4234 -0.5193
10935SOL     OW43483   3.264   6.053   0.747 -0.0981  0.7709 -0.0838
10935SOL    HW143484   3.279   6.137   0.695  0.5738  0.1575 -0.8854
10935SOL    HW243485   3.166   6.031   0.746 -0.5507  2.5968  1.7872
10936SOL     OW43486   9.450   4.277   2.689 -0.4468  0.0537 -0.2222
10936SOL    HW143487   9.406   4.189   2.707 -0.1211  0.0489  0.5906
10936SOL    HW243488   9.533   4.285   2.745  0.9306 -0.1940 -2.1804
10937SOL     OW43489   7.147   0.358   3.381 -0.1118 -0.2116  0.0662
10937SOL    HW143490   7.083   0.312   3.443 -1.2649  1.9059  0.5006
10937SOL    HW243491   7.219   0.402   3.434 -1.4233  2.0994 -0.0016
10938SOL     OW43492   1.934   7.010   2.220  0.4308  0.0501  0.0807
10938SOL    HW143493   1.917   7.008   2.319  3.3961 -0.1651  0.6359
10938SOL    HW243494   1.885   7.087   2.179 -1.2412 -0.1541  1.6211
10939SOL     OW43495   7.373   9.522   2.614  0.1519  0.1163  0.0012
10939SOL    HW143496   7.323   9.435   2.608  1.3926 -0.5816 -0.3946
10939SOL    HW243497   7.326   9.591   2.558 -0.2202 -0.6084 -0.5926
10940SOL     OW43498   3.782   4.093   1.324 -0.4061 -0.2096 -0.0603
10940SOL    HW143499   3.698   4.064   1.278  0.0918 -1.6940 -0.0368
10940SOL    HW243500   3.762   4.176   1.377 -1.9402 -0.7066  0.1875
10941SOL     OW43501   1.988   3.798   2.058 -0.4965  0.7549  0.5646
10941SOL    HW143502   2.031   3.876   2.014 -0.1094 -0.0748 -0.5362
10941SOL    HW243503   2.046   3.765   2.133 -0.1924  0.8956  0.3875
10942SOL     OW43504   2.202   9.199   4.525 -0.0540 -0.5271 -0.2478
10942SOL    HW143505   2.190   9.211   4.427 -0.1898 -1.8121 -0.3971
10942SOL    HW243506   2.295   9.168   4.544  0.7706  2.1301  0.2638
10943SOL     OW43507   2.337   2.589   3.338 -0.4684  0.1830  0.0985
10943SOL    HW143508   2.309   2.582   3.242 -0.2463 -2.0733  0.1867
10943SOL    HW243509   2.260   2.566   3.397  0.2016 -1.3058  0.4077
10944SOL     OW43510   8.807   8.506   3.497 -0.2602  0.1503 -0.4165
10944SOL    HW143511   8.879   8.555   3.447  0.0294 -1.4202 -1.5763
10944SOL    HW243512   8.809   8.533   3.594  2.3076 -0.3285 -0.2999
10945SOL     OW43513   3.779   6.763   3.336  0.0808 -0.0659 -0.1253
10945SOL    HW143514   3.817   6.770   3.428  0.5180 -1.7547 -0.1443
10945SOL    HW243515   3.681   6.777   3.339  0.1245  0.0871  0.5737
10946SOL     OW43516   8.180   0.678   1.176 -0.4491 -0.1755 -0.1231
10946SOL    HW143517   8.088   0.714   1.162 -0.8572 -1.4291 -0.8261
10946SOL    HW243518   8.235   0.696   1.094 -1.3311 -3.0705 -1.4393
10947SOL     OW43519   3.762   8.840   1.562 -0.0425  0.9238 -0.0954
10947SOL    HW143520   3.736   8.917   1.620 -0.5601  1.1293 -0.5980
10947SOL    HW243521   3.737   8.754   1.607  0.3933  1.0500  0.3944
10948SOL     OW43522   9.619   8.325   3.508  0.1367  0.0223 -0.6366
10948SOL    HW143523   9.688   8.390   3.540  0.0434  0.0254 -0.4382
10948SOL    HW243524   9.662   8.257   3.450  0.1983  0.3802 -1.0120
10949SOL     OW43525   5.123   0.337   2.017  0.1612  0.3943  0.3694
10949SOL    HW143526   5.171   0.411   2.064  1.8378 -0.1291 -0.4987
10949SOL    HW243527   5.160   0.249   2.046 -1.2704 -0.0778  0.7851
10950SOL     OW43528   0.962   4.096   4.128 -0.3246 -0.1843 -0.4100
10950SOL    HW143529   1.012   4.179   4.155 -1.5657  0.2600  0.5534
10950SOL    HW243530   0.988   4.021   4.189  0.8625 -0.5347 -1.3347
10951SOL     OW43531   8.224   3.151   3.852  0.0439 -0.5698  0.7051
10951SOL    HW143532   8.191   3.241   3.824 -0.7284 -0.8885  0.5775
10951SOL    HW243533   8.270   3.158   3.940  0.5520  0.0623  0.3884
10952SOL     OW43534   8.164   5.189   2.528  0.3780  0.4889 -0.6337
10952SOL    HW143535   8.155   5.097   2.567 -0.9062  0.5337 -0.8148
10952SOL    HW243536   8.246   5.233   2.565  0.3002 -0.2494  0.4232
10953SOL     OW43537   1.198   8.738   1.741 -0.3058  0.1761 -0.4931
10953SOL    HW143538   1.169   8.734   1.836  0.3199  0.8423 -0.2684
10953SOL    HW243539   1.119   8.753   1.682 -0.8895 -1.7106 -0.2083
10954SOL     OW43540   5.608   0.000   3.212  0.7153  0.2817  0.0914
10954SOL    HW143541   5.547  -0.041   3.144  0.6364 -0.5268  0.6382
10954SOL    HW243542   5.583   0.096   3.226  2.0791  1.0867 -2.5692
10955SOL     OW43543   3.154   6.818   2.490 -0.6093 -0.2205 -0.6163
10955SOL    HW143544   3.206   6.868   2.559 -0.9359  0.4043 -0.8199
10955SOL    HW243545   3.175   6.854   2.400 -1.2610 -0.0723 -0.7158
10956SOL     OW43546   0.760   9.049   1.469  1.0800 -0.5463 -0.2938
10956SOL    HW143547   0.853   9.079   1.445  1.5259 -1.4840  0.2247
10956SOL    HW243548   0.756   9.028   1.566 -0.1547  1.1671  0.0406
10957SOL     OW43549   2.764   6.799   0.875  0.2636 -0.1628  0.5237
10957SOL    HW143550   2.667   6.782   0.858  0.2165  0.1737  0.4360
10957SOL    HW243551   2.815   6.713   0.870  0.1028 -0.2172 -0.3347
10958SOL     OW43552   1.473   6.961   0.168  0.2874  0.5728  0.4115
10958SOL    HW143553   1.538   6.935   0.097  0.0530 -0.2083  0.4822
10958SOL    HW243554   1.405   7.023   0.130  0.6497  0.8241  0.1624
10959SOL     OW43555   5.978   9.801   1.000  0.4083 -0.0269 -0.2497
10959SOL    HW143556   6.008   9.726   0.941 -0.0631 -0.4768  0.0720
10959SOL    HW243557   5.931   9.764   1.080 -0.2065  0.6204 -0.2974
10960SOL     OW43558   3.527   7.919   3.257 -0.0960 -0.8907  0.9767
10960SOL    HW143559   3.604   7.859   3.235  0.5260  0.1339  0.3541
10960SOL    HW243560   3.449   7.895   3.199  0.2999 -0.7967  0.4016
10961SOL     OW43561   7.685   8.787   0.730 -0.4880 -0.0307 -0.3974
10961SOL    HW143562   7.656   8.692   0.735 -0.1755 -0.0521  1.4381
10961SOL    HW243563   7.694   8.815   0.635  0.5710 -2.1892 -0.9558
10962SOL     OW43564   4.563   3.204   2.164  0.5894 -0.4269 -0.6302
10962SOL    HW143565   4.597   3.116   2.198  0.3569  0.3914  1.7803
10962SOL    HW243566   4.585   3.276   2.230 -0.2641  1.1527 -2.0355
10963SOL     OW43567   8.590   2.678   1.578 -0.3129 -0.3149  0.4046
10963SOL    HW143568   8.513   2.742   1.578  0.6805  0.9259  0.4372
10963SOL    HW243569   8.652   2.701   1.502  0.2528 -0.9852  0.6606
10964SOL     OW43570   1.188   5.900   4.057  0.1751 -0.0315  0.2926
10964SOL    HW143571   1.219   5.805   4.057  0.3668  0.0323 -0.1305
10964SOL    HW243572   1.180   5.932   3.963 -1.2637 -0.0740  0.3983
10965SOL     OW43573   3.666   8.040   3.459  0.3172 -0.5499  0.1458
10965SOL    HW143574   3.626   8.000   3.541  2.4908 -0.8801  1.0955
10965SOL    HW243575   3.611   8.017   3.379 -1.8366 -0.2147  1.5033
10966SOL     OW43576   4.883   9.245   2.911  0.2727  0.3102  0.4072
10966SOL    HW143577   4.792   9.280   2.889  0.5428  2.1081  2.0058
10966SOL    HW243578   4.895   9.154   2.871 -2.0958  0.2041 -0.1009
10967SOL     OW43579   0.180   5.374   2.967  0.0365 -0.3050  0.5001
10967SOL    HW143580   0.237   5.390   3.048 -0.8735 -3.0848  1.7563
10967SOL    HW243581   0.230   5.401   2.885  2.1828 -0.3172  1.7633
10968SOL     OW43582   1.030   8.207   0.189 -0.3837 -0.0874  0.0754
10968SOL    HW143583   1.112   8.205   0.131  0.9757 -1.1248  1.9771
10968SOL    HW243584   1.000   8.302   0.198  0.3545  0.2704 -0.9794
10969SOL     OW43585   3.184   1.582   4.344 -0.5336 -0.3580 -0.7974
10969SOL    HW143586   3.104   1.554   4.398 -0.0677  2.1543  1.2696
10969SOL    HW243587   3.268   1.558   4.394 -0.1028  2.1175 -0.2696
10970SOL     OW43588   3.443   0.304   2.907 -0.0806  0.1806  0.2964
10970SOL    HW143589   3.499   0.366   2.961  1.9101 -0.9861 -0.3692
10970SOL    HW243590   3.408   0.351   2.826 -1.7991  1.4919  1.7628
10971SOL     OW43591   0.856   7.605   2.418  0.4565 -0.0735 -0.2083
10971SOL    HW143592   0.813   7.571   2.333  0.0396 -0.2767  0.0803
10971SOL    HW243593   0.859   7.705   2.416 -1.2274  0.0088  0.3298
10972SOL     OW43594   3.125   0.013   2.840  0.0762 -0.1284  0.5081
10972SOL    HW143595   3.095   0.036   2.747 -0.0855  2.6781  1.2118
10972SOL    HW243596   3.194  -0.058   2.836  1.3649  1.2103 -1.9165
10973SOL     OW43597   0.604   6.194   3.735 -0.0989 -0.1236 -0.1558
10973SOL    HW143598   0.558   6.115   3.695  0.3877 -1.0219  1.0586
10973SOL    HW243599   0.610   6.183   3.834  2.9055 -0.0798 -0.3162
10974SOL     OW43600   2.677   6.377   2.449  0.0775 -0.2504 -0.3369
10974SOL    HW143601   2.672   6.349   2.354  2.3244  0.7767 -0.7873
10974SOL    HW243602   2.755   6.333   2.493 -0.6302 -0.3075  0.8852
10975SOL     OW43603   9.985   5.938   2.054 -0.0564  0.1615  0.1331
10975SOL    HW143604   9.964   5.872   1.981  1.7575  0.6069 -0.8304
10975SOL    HW243605   9.907   5.945   2.116 -2.5256  1.3628 -2.9553
10976SOL     OW43606   7.872   8.012   3.274  0.6303  0.0430  0.5433
10976SOL    HW143607   7.777   8.020   3.244  0.9880 -1.1661 -0.9887
10976SOL    HW243608   7.910   8.103   3.292 -0.5819  0.5768  0.4308
10977SOL     OW43609   9.593   1.835   4.570  0.2763 -0.1908  0.0671
10977SOL    HW143610   9.597   1.742   4.604  0.7219 -0.5823 -1.0386
10977SOL    HW243611   9.677   1.857   4.520 -0.1913  0.5004 -0.4362
10978SOL     OW43612   2.367   6.895   1.320 -0.0905 -0.1990 -0.0902
10978SOL    HW143613   2.361   6.918   1.223  0.6092 -0.2344 -0.1465
10978SOL    HW243614   2.438   6.952   1.363  0.6362 -1.2124  0.0816
10979SOL     OW43615   3.122   8.858   0.449 -0.6830  0.1409 -0.3586
10979SOL    HW143616   3.023   8.856   0.464 -0.7038 -0.8999 -0.6266
10979SOL    HW243617   3.148   8.788   0.383 -0.0802  2.0520 -2.2209
10980SOL     OW43618   8.981   4.693   0.526  0.5670  0.3937 -0.4758
10980SOL    HW143619   9.000   4.759   0.599  2.2203 -0.7455  0.1706
10980SOL    HW243620   9.036   4.611   0.541 -0.3391 -0.5287 -2.0917
10981SOL     OW43621   2.046   8.267   4.668  0.0672 -0.2572  0.0234
10981SOL    HW143622   2.040   8.252   4.569  1.9264 -0.0366 -0.1321
10981SOL    HW243623   2.138   8.295   4.692 -1.2005  2.9145  1.4157
10982SOL     OW43624   7.387   8.314   1.864 -0.1930  0.5239  0.9130
10982SOL    HW143625   7.336   8.353   1.788  0.7142  0.2044  0.1290
10982SOL    HW243626   7.327   8.305   1.944 -1.0436  1.2203  0.3570
10983SOL     OW43627   9.390   3.016   2.117 -0.0522 -0.0156  0.2077
10983SOL    HW143628   9.393   3.098   2.061 -0.4026 -0.3855 -0.3582
10983SOL    HW243629   9.425   2.938   2.065 -1.3941 -0.5725  0.1282
10984SOL     OW43630   1.442   5.025   3.429  0.4394 -0.0329  0.0392
10984SOL    HW143631   1.392   4.944   3.397  0.9397 -0.3225 -0.0258
10984SOL    HW243632   1.506   5.054   3.357 -1.5063  1.9465 -0.9704
10985SOL     OW43633   6.160   7.600   1.521 -0.1455  0.2579 -0.0180
10985SOL    HW143634   6.214   7.654   1.457  0.2497 -0.9177 -0.6976
10985SOL    HW243635   6.076   7.649   1.544  0.9818  1.8895  0.6849
10986SOL     OW43636   3.245   8.063   3.484 -0.3789 -0.3601 -0.7245
10986SOL    HW143637   3.302   8.013   3.419 -0.0791 -0.1191 -0.6528
10986SOL    HW243638   3.279   8.047   3.577 -0.2758 -0.0229 -0.7030
10987SOL     OW43639   8.694   3.106   1.135 -0.2311  0.0802  0.5329
10987SOL    HW143640   8.756   3.129   1.211  0.9107  2.8533 -1.1510
10987SOL    HW243641   8.600   3.130   1.160  0.2571  1.8062  0.7840
10988SOL     OW43642   5.208   8.590   3.502 -0.1310  0.2014 -0.3466
10988SOL    HW143643   5.276   8.649   3.544 -1.1859  0.2608  1.3677
10988SOL    HW243644   5.135   8.646   3.463 -1.3920  0.0782  1.7356
10989SOL     OW43645   4.994   3.048   2.379 -0.9024  0.5044  0.2168
10989SOL    HW143646   5.049   3.129   2.401 -2.6644  1.7661  0.1091
10989SOL    HW243647   4.941   3.020   2.459 -2.2323  1.0299 -0.4539
10990SOL     OW43648   2.124   8.904   4.725  0.2856 -0.4894  0.3455
10990SOL    HW143649   2.068   8.849   4.664  0.2365 -0.0723  0.0062
10990SOL    HW243650   2.183   8.964   4.671  0.1579 -0.0338  0.7026
10991SOL     OW43651   3.034   6.604   3.827 -0.1851  0.9226 -0.4581
10991SOL    HW143652   2.994   6.516   3.854  1.1305  0.1675 -0.9535
10991SOL    HW243653   3.132   6.602   3.843 -0.3161  2.7944  0.7861
10992SOL     OW43654   3.874   0.628   0.875  0.0033 -0.1018 -0.3222
10992SOL    HW143655   3.802   0.651   0.811 -0.0826 -2.2640 -1.0597
10992SOL    HW243656   3.954   0.595   0.824  0.4039 -0.6001  0.6191
10993SOL     OW43657   8.580   4.679   4.118  0.0033  0.1463  0.0555
10993SOL    HW143658   8.553   4.750   4.053  0.0545 -0.5582 -0.7466
10993SOL    HW243659   8.670   4.700   4.155  0.2658  0.1946 -0.6169
10994SOL     OW43660   4.324   7.686   0.690 -0.4720 -0.2022 -0.7790
10994SOL    HW143661   4.393   7.621   0.660  0.4075  0.3499  0.0211
10994SOL    HW243662   4.260   7.703   0.615  0.2087 -0.7802 -1.5000
10995SOL     OW43663   8.153   1.925   4.605 -0.1119  0.2392  0.0578
10995SOL    HW143664   8.117   1.880   4.686 -0.2908 -0.2833 -0.3165
10995SOL    HW243665   8.246   1.956   4.623  0.3303 -1.0411  0.0317
10996SOL     OW43666   2.546   3.500   4.559  0.2960 -0.1134  0.1413
10996SOL    HW143667   2.485   3.485   4.482  0.6330 -1.5546  0.1464
10996SOL    HW243668   2.506   3.461   4.642  1.2056 -1.0748  0.1409
10997SOL     OW43669   1.726   6.216   4.071  0.1550  0.2123  0.0900
10997SOL    HW143670   1.666   6.267   4.131  0.7780  1.7144 -0.5393
10997SOL    HW243671   1.694   6.122   4.063 -2.2713  1.0614 -0.4613
10998SOL     OW43672   3.083   6.916   0.595 -0.3649 -0.2678 -0.5747
10998SOL    HW143673   2.987   6.936   0.612 -0.5326 -0.1260 -1.6388
10998SOL    HW243674   3.091   6.864   0.510  0.5466  0.2019 -0.7825
10999SOL     OW43675   0.447   3.620   2.274 -0.4726 -0.3632  0.1560
10999SOL    HW143676   0.471   3.705   2.227 -1.1517  0.8019  1.8397
10999SOL    HW243677   0.529   3.565   2.287  0.2061  0.6417  0.2041
11000SOL     OW43678   1.152   6.814   3.216 -0.4985 -0.1712  0.3212
11000SOL    HW143679   1.246   6.845   3.229 -0.9168  0.7005  1.3651
11000SOL    HW243680   1.123   6.760   3.295 -1.0834  0.1082  0.3044
11001SOL     OW43681   3.202   5.566   1.530  0.6337 -0.0606  0.6032
11001SOL    HW143682   3.289   5.609   1.504  1.1318  0.1478  2.5323
11001SOL    HW243683   3.128   5.632   1.523  0.5178 -0.3655 -1.5129
11002SOL     OW43684   2.456   7.319   3.858  0.4603  0.3178  0.3631
11002SOL    HW143685   2.503   7.330   3.946  0.0858 -0.2881  0.6421
11002SOL    HW243686   2.381   7.385   3.852  1.1747  1.1064  0.0284
11003SOL     OW43687   3.215   5.825   4.492 -0.5727  0.2135 -0.2444
11003SOL    HW143688   3.168   5.769   4.423  1.0172 -1.9690  0.4062
11003SOL    HW243689   3.276   5.767   4.546  1.9389  2.7743 -0.2533
11004SOL     OW43690   0.587   2.954   3.236 -0.5790 -0.1846 -0.4524
11004SOL    HW143691   0.527   2.995   3.167 -2.6273 -0.9694  0.8232
11004SOL    HW243692   0.600   3.018   3.312 -0.3421 -0.2726 -0.4184
11005SOL     OW43693   2.702   2.706   4.493  0.0538 -0.7723  0.0535
11005SOL    HW143694   2.712   2.770   4.418 -0.6798 -0.4303  0.2394
11005SOL    HW243695   2.757   2.737   4.571  0.0654 -0.6186 -0.0158
11006SOL     OW43696   7.893   8.378   4.211 -0.9677  0.0951 -0.1233
11006SOL    HW143697   7.922   8.432   4.132  0.5198 -0.3576  0.1098
11006SOL    HW243698   7.803   8.411   4.242 -0.9955  1.0946 -1.2239
11007SOL     OW43699   4.551   3.569   4.242 -0.1972  0.1908 -0.1123
11007SOL    HW143700   4.649   3.589   4.232  0.1018 -1.3557 -0.4323
11007SOL    HW243701   4.537   3.513   4.323 -0.5966 -0.9997 -0.9865
11008SOL     OW43702   2.105   7.748   0.967 -0.0150  0.4344  0.5330
11008SOL    HW143703   2.175   7.812   0.997  0.8069  0.2003 -0.8505
11008SOL    HW243704   2.115   7.730   0.869 -0.9516 -0.9058  0.6609
11009SOL     OW43705   3.805   7.855   1.848  0.4842 -0.5342  0.0436
11009SOL    HW143706   3.725   7.831   1.904 -0.2629 -1.6622 -1.4647
11009SOL    HW243707   3.792   7.820   1.755  1.8384  1.0487 -0.7639
11010SOL     OW43708   3.573   4.407   2.200  0.0025  0.2514  0.4580
11010SOL    HW143709   3.512   4.380   2.126  1.1112  0.2132 -0.4622
11010SOL    HW243710   3.546   4.362   2.285  0.3734 -1.8711 -0.5273
11011SOL     OW43711   0.623   1.699   0.305 -0.4920 -0.3332  0.1630
11011SOL    HW143712   0.554   1.728   0.372 -1.4014 -0.9762 -0.4807
11011SOL    HW243713   0.673   1.779   0.272 -1.4699  0.2489  0.0625
11012SOL     OW43714   1.325   2.314   4.508 -0.3653 -0.1079 -0.2549
11012SOL    HW143715   1.240   2.263   4.520  0.3160 -1.7406 -2.1746
11012SOL    HW243716   1.400   2.264   4.551 -0.0875  0.4749 -0.0578
11013SOL     OW43717   2.301   3.661   4.103 -0.2838 -0.5041  0.3478
11013SOL    HW143718   2.368   3.725   4.066  2.1141 -2.2865  1.4757
11013SOL    HW243719   2.295   3.581   4.044 -0.1086 -1.1445  1.1931
11014SOL     OW43720   1.831   7.424   0.147 -0.3847  0.1253  0.5128
11014SOL    HW143721   1.863   7.330   0.159  0.2307  0.4986  1.9985
11014SOL    HW243722   1.802   7.460   0.236 -0.8591  1.2468 -0.0896
11015SOL     OW43723   1.504   5.380   3.838  0.0208  0.5195  1.2632
11015SOL    HW143724   1.529   5.283   3.842 -3.4752 -0.7195 -3.3553
11015SOL    HW243725   1.405   5.389   3.849  0.2598  3.5739  1.0987
11016SOL     OW43726   7.896   0.948   3.691 -0.5677 -1.1718  0.3034
11016SOL    HW143727   7.863   0.991   3.775  0.4251  1.5249 -0.6361
11016SOL    HW243728   7.828   0.962   3.618  0.9278  1.2889 -0.7051
11017SOL     OW43729   1.274   7.922   0.250  0.0184 -0.0521 -0.1556
11017SOL    HW143730   1.317   7.848   0.302 -1.3866 -0.4943  0.4222
11017SOL    HW243731   1.183   7.892   0.220 -0.7922  1.6276  0.5639
11018SOL     OW43732   8.535   1.731   0.115  0.4871  0.2247  0.5674
11018SOL    HW143733   8.546   1.830   0.116  1.0855  0.1604  1.3116
11018SOL    HW243734   8.602   1.690   0.052  0.0604  0.3122  0.0564
11019SOL     OW43735   2.803   3.239   0.565 -0.2817 -0.2493  0.2427
11019SOL    HW143736   2.821   3.329   0.604  0.4120 -0.9554  1.5748
11019SOL    HW243737   2.848   3.169   0.620  0.6971 -1.2888 -1.7872
11020SOL     OW43738   2.792   1.352   0.838 -0.2067  0.2022  0.0515
11020SOL    HW143739   2.822   1.303   0.920 -1.9508 -1.5317 -0.3078
11020SOL    HW243740   2.787   1.450   0.858 -1.7551 -0.3124  2.3743
11021SOL     OW43741   3.343   8.991   2.814 -0.2325 -0.2029 -0.0383
11021SOL    HW143742   3.356   9.088   2.836  1.5705 -0.5139  0.2881
11021SOL    HW243743   3.246   8.975   2.792 -0.4403  1.7690 -0.6484
11022SOL     OW43744   0.561   3.841   0.029 -0.3504  0.3179 -0.2791
11022SOL    HW143745   0.597   3.863  -0.062 -1.6476  2.2426 -0.3677
11022SOL    HW243746   0.628   3.787   0.080  0.4118 -0.7312 -2.3463
11023SOL     OW43747   3.466   6.245   3.859 -0.6725 -0.3964 -0.6298
11023SOL    HW143748   3.452   6.340   3.829 -1.6186 -0.8516 -1.6510
11023SOL    HW243749   3.470   6.186   3.778 -1.3458 -1.3993  0.0737
11024SOL     OW43750   8.279   2.535   4.213  0.1646 -0.3354 -0.0977
11024SOL    HW143751   8.242   2.451   4.252  0.7837  0.0097  1.2912
11024SOL    HW243752   8.327   2.515   4.128  1.0887 -1.5118  0.6953
11025SOL     OW43753   2.817   1.581   3.903  0.0727 -0.1285  0.2552
11025SOL    HW143754   2.814   1.482   3.911 -0.4105 -0.0963  0.5313
11025SOL    HW243755   2.725   1.618   3.914  0.2982  0.3717  0.4858
11026SOL     OW43756   9.653   0.293   2.268 -0.3909 -0.3256  0.1760
11026SOL    HW143757   9.572   0.257   2.222 -1.1551 -0.5127  1.6362
11026SOL    HW243758   9.710   0.216   2.298 -0.0834 -0.2146 -0.1240
11027SOL     OW43759   2.876   3.133   2.795  0.2857 -0.2570  0.5481
11027SOL    HW143760   2.943   3.095   2.731 -1.8194  0.7299 -2.3506
11027SOL    HW243761   2.796   3.072   2.799 -0.0772  0.2681  1.3416
11028SOL     OW43762   3.389   1.505   3.922  0.6748  0.8797  0.3487
11028SOL    HW143763   3.430   1.590   3.956 -1.3422  1.8312  0.4825
11028SOL    HW243764   3.307   1.484   3.975  0.7631 -0.7924 -0.1427
11029SOL     OW43765   8.308   0.474   0.337  0.3555  0.4945 -0.9131
11029SOL    HW143766   8.408   0.488   0.340  0.4505 -0.1919 -0.9939
11029SOL    HW243767   8.271   0.514   0.253  0.8157 -0.9502 -1.8084
11030SOL     OW43768   5.047   1.082   2.784  0.1148 -0.2015 -0.4229
11030SOL    HW143769   5.097   1.004   2.820 -1.1604 -1.1838 -0.7670
11030SOL    HW243770   4.976   1.051   2.722 -0.9390  1.1821  0.0567
11031SOL     OW43771   5.109   7.861   3.741 -0.0267 -0.4272 -0.4982
11031SOL    HW143772   5.108   7.961   3.736 -1.0847 -0.4141 -0.2079
11031SOL    HW243773   5.022   7.829   3.779  0.9016 -1.3841  0.8737
11032SOL     OW43774   4.005   4.139   0.476  0.4559 -0.0607  0.2903
11032SOL    HW143775   3.935   4.077   0.510  0.9122 -0.7157  0.0355
11032SOL    HW243776   3.969   4.232   0.474 -0.9887 -0.6322 -1.4276
11033SOL     OW43777   8.853   0.306   3.922  0.3028  0.0520 -0.1269
11033SOL    HW143778   8.864   0.285   4.019 -0.6971 -1.6516 -0.3620
11033SOL    HW243779   8.942   0.333   3.884  0.9618 -0.5216  0.9753
11034SOL     OW43780   7.952   4.558   3.485  0.0647  0.4196 -0.1168
11034SOL    HW143781   7.998   4.634   3.531 -1.3679  0.8826  0.5836
11034SOL    HW243782   7.855   4.560   3.507  0.1397 -2.1242  0.6189
11035SOL     OW43783   7.889   9.646   0.266 -0.3814 -0.3207  0.5780
11035SOL    HW143784   7.984   9.672   0.284 -0.3683 -0.4139  0.6398
11035SOL    HW243785   7.828   9.717   0.303 -0.3004  0.2790 -0.4084
11036SOL     OW43786   8.427   7.665   1.932  0.7231  0.0695 -0.4571
11036SOL    HW143787   8.482   7.614   1.867  2.8223  0.3093  1.0893
11036SOL    HW243788   8.409   7.757   1.896  1.1072 -0.0938 -1.0796
11037SOL     OW43789   0.747   2.256   0.399  0.2841 -0.7178  0.5708
11037SOL    HW143790   0.730   2.350   0.367  0.9681 -0.8606 -0.2149
11037SOL    HW243791   0.824   2.217   0.349  0.3636 -1.5035  1.3005
11038SOL     OW43792   6.990   8.192   2.633  0.1292 -0.3653 -0.7540
11038SOL    HW143793   6.952   8.270   2.682  1.6683  0.4984 -0.8939
11038SOL    HW243794   6.927   8.164   2.560 -0.6284  0.4735 -0.4211
11039SOL     OW43795   9.523   1.551   2.831  0.4340 -0.4179  0.4096
11039SOL    HW143796   9.537   1.621   2.901  1.8020 -0.7393  0.4604
11039SOL    HW243797   9.439   1.572   2.780  0.6922  1.1087  0.5873
11040SOL     OW43798   3.510   5.757   1.714 -0.5164 -0.6950  0.0822
11040SOL    HW143799   3.463   5.820   1.776 -0.9847 -0.6767 -0.2844
11040SOL    HW243800   3.601   5.735   1.750  0.9652  2.7393 -1.3415
11041SOL     OW43801   0.317   4.429   4.165  0.9107 -0.1620 -0.6527
11041SOL    HW143802   0.263   4.513   4.176  0.1166 -0.7526 -0.0080
11041SOL    HW243803   0.415   4.452   4.165  0.7049  0.7259 -0.1939
11042SOL     OW43804   8.715   7.631   0.384 -0.3717 -0.9856  0.0093
11042SOL    HW143805   8.800   7.651   0.336 -0.8962  1.8838  0.1816
11042SOL    HW243806   8.637   7.644   0.322 -0.8801  0.1570  0.8516
11043SOL     OW43807   7.341   8.780   4.181  0.0159 -0.1091 -0.2469
11043SOL    HW143808   7.253   8.801   4.140 -0.6472 -0.5654  0.9189
11043SOL    HW243809   7.347   8.825   4.271  0.6619 -0.6899  0.0052
11044SOL     OW43810   4.520   9.759   4.007  0.0348 -0.0578 -0.4585
11044SOL    HW143811   4.593   9.692   4.019 -1.4208 -1.8018 -1.0294
11044SOL    HW243812   4.532   9.835   4.071  1.6680 -0.9173  0.2654
11045SOL     OW43813   8.310   1.543   2.392  0.3780  0.1360  0.8971
11045SOL    HW143814   8.406   1.534   2.416  0.0765  0.9493  2.4227
11045SOL    HW243815   8.263   1.456   2.406  1.1837 -0.6724 -1.2526
11046SOL     OW43816   3.200   4.131   3.343  0.6114 -0.2630 -1.2389
11046SOL    HW143817   3.232   4.156   3.252  0.2878  1.0088 -1.0250
11046SOL    HW243818   3.115   4.180   3.362  1.4809  0.6834  0.3363
11047SOL     OW43819   8.256   4.810   0.691 -0.0637  0.0998 -0.2093
11047SOL    HW143820   8.241   4.908   0.681  2.0381  0.5039  0.2454
11047SOL    HW243821   8.297   4.792   0.781  0.4476 -1.0795 -0.6689
11048SOL     OW43822   3.060   2.381   0.305  0.3424  0.2111 -0.0066
11048SOL    HW143823   3.094   2.471   0.333  1.3469  0.6105 -2.4053
11048SOL    HW243824   3.134   2.330   0.261 -0.6563 -1.1796 -0.1012
11049SOL     OW43825   0.100   9.853   3.629 -0.1134 -0.0336 -0.0220
11049SOL    HW143826   0.162   9.857   3.707  0.4398  0.3248 -0.4817
11049SOL    HW243827   0.119   9.771   3.575  0.2108  0.2732 -0.3733
11050SOL     OW43828   0.318   3.565   3.871  0.4740 -0.3842  0.1178
11050SOL    HW143829   0.362   3.477   3.852  2.2699  0.4845  0.1320
11050SOL    HW243830   0.297   3.572   3.969 -1.0369 -1.3839 -0.1146
11051SOL     OW43831   2.711   7.174   2.194  0.7119  0.2069  0.1907
11051SOL    HW143832   2.672   7.263   2.217 -2.9797 -0.8355 -1.6046
11051SOL    HW243833   2.675   7.143   2.106  2.6891 -2.6468  0.2904
11052SOL     OW43834   6.672   7.270   1.963 -0.1858  0.9662  0.5047
11052SOL    HW143835   6.641   7.358   1.925 -3.3957 -1.2544 -2.3251
11052SOL    HW243836   6.748   7.236   1.908 -0.3307  1.0048  0.2762
11053SOL     OW43837   4.306   7.948   4.715  0.0268  0.3031  0.0098
11053SOL    HW143838   4.311   7.930   4.616  1.2583 -1.0500  0.2906
11053SOL    HW243839   4.396   7.973   4.748 -0.3589  0.6198  0.8196
11054SOL     OW43840   9.291   5.065   1.895 -0.8947  0.1082  0.3699
11054SOL    HW143841   9.210   5.022   1.854 -0.4340 -0.9660  0.5665
11054SOL    HW243842   9.349   4.995   1.934  1.8040  0.5196 -2.6993
11055SOL     OW43843   8.816   2.923   3.992 -0.0923  0.2652  0.2289
11055SOL    HW143844   8.849   2.965   3.907  1.4059  0.5837  0.9551
11055SOL    HW243845   8.777   2.833   3.971  0.0531  0.4318 -0.8274
11056SOL     OW43846   2.818   9.864   2.967  0.2322 -0.0967  0.3975
11056SOL    HW143847   2.917   9.858   2.977  0.5175  2.8547 -0.1799
11056SOL    HW243848   2.792   9.958   2.946 -2.4474 -1.3126 -2.1496
11057SOL     OW43849   1.052   3.164   0.322 -0.2271  0.4076  0.3887
11057SOL    HW143850   1.039   3.257   0.289  0.6801 -0.8001 -3.6552
11057SOL    HW243851   1.146   3.152   0.354  0.7289 -0.0038 -2.4340
11058SOL     OW43852   2.487   1.517   4.106  0.0031  0.7348  0.6250
11058SOL    HW143853   2.426   1.552   4.177 -1.8725 -1.6956  0.2487
11058SOL    HW243854   2.570   1.481   4.148 -0.4103  0.7486  1.4561
11059SOL     OW43855   3.337   0.799   1.714  0.2042  0.5143 -0.4439
11059SOL    HW143856   3.387   0.715   1.736  0.9957  0.5563 -2.0474
11059SOL    HW243857   3.253   0.775   1.665  0.1519  0.6336 -0.4119
11060SOL     OW43858   3.015   2.170   4.479  0.1624  0.0958 -0.5781
11060SOL    HW143859   2.942   2.104   4.499  0.4418  0.0850  0.4384
11060SOL    HW243860   2.978   2.263   4.485 -0.4766  0.0508 -2.9803
11061SOL     OW43861   9.217   8.880   0.109 -0.2161  0.2345  0.5691
11061SOL    HW143862   9.213   8.891   0.010 -2.0523  1.2381  0.7330
11061SOL    HW243863   9.124   8.875   0.146  0.4471 -1.9949  2.0535
11062SOL     OW43864   0.398   2.665   1.163 -0.4939  0.1190 -0.3697
11062SOL    HW143865   0.364   2.671   1.069  0.4619  0.3870 -0.7069
11062SOL    HW243866   0.321   2.659   1.226 -1.2124  2.4522 -0.9888
11063SOL     OW43867   2.564   1.246   3.204 -0.0457  0.0507 -0.3020
11063SOL    HW143868   2.613   1.326   3.171  0.4327  0.1846  0.7191
11063SOL    HW243869   2.500   1.273   3.276 -1.2056 -0.2119 -1.2296
11064SOL     OW43870   7.515   0.833   3.629 -0.0791  0.1793  0.5590
11064SOL    HW143871   7.584   0.905   3.623 -0.4524  0.3660 -2.0203
11064SOL    HW243872   7.449   0.856   3.701  1.4688  0.8952  1.8048
11065SOL     OW43873   3.859   7.373   1.733  0.1014 -0.1941 -0.1231
11065SOL    HW143874   3.935   7.426   1.696 -0.8968  0.2968 -1.4819
11065SOL    HW243875   3.840   7.404   1.827  1.5376 -0.2941  0.2070
11066SOL     OW43876   2.582   7.143   2.476 -0.3452 -0.4552 -0.5429
11066SOL    HW143877   2.561   7.236   2.507  2.1801 -0.0453  0.0400
11066SOL    HW243878   2.627   7.147   2.387 -1.1271 -1.1922 -0.9762
11067SOL     OW43879   5.348   7.222   2.228 -0.4056  0.2550 -0.2796
11067SOL    HW143880   5.387   7.131   2.212 -1.5829  0.2708 -3.7433
11067SOL    HW243881   5.341   7.271   2.141 -2.8231  2.4260  1.0611
11068SOL     OW43882   0.994   0.109   0.654  0.9268 -0.2772  0.3375
11068SOL    HW143883   1.039   0.020   0.641  2.7106  0.6447 -0.0840
11068SOL    HW243884   0.921   0.120   0.587  1.0071 -1.2464  0.0892
11069SOL     OW43885   8.534   1.377   2.750 -0.2353 -0.6973  0.3918
11069SOL    HW143886   8.511   1.323   2.669  1.8041 -1.3898  0.2472
11069SOL    HW243887   8.510   1.473   2.734  1.2105 -0.6211 -1.5051
11070SOL     OW43888   2.546   3.461   0.751 -0.2384 -0.3273  0.0985
11070SOL    HW143889   2.545   3.534   0.683  0.2922 -0.0085  0.4295
11070SOL    HW243890   2.639   3.423   0.758 -0.0219  0.3993  1.4398
11071SOL     OW43891   1.901   1.300   2.839  0.0825  0.1915 -0.1337
11071SOL    HW143892   1.935   1.261   2.753  1.1508 -0.6797  0.6805
11071SOL    HW243893   1.813   1.258   2.862 -1.4591  2.2493 -2.0977
11072SOL     OW43894   9.388   5.048   4.616  0.1393  0.5667 -0.0796
11072SOL    HW143895   9.362   4.952   4.603 -1.3181  0.9381  0.0864
11072SOL    HW243896   9.427   5.059   4.707 -0.0424  0.2101  0.0447
11073SOL     OW43897   1.389   6.021   4.290 -0.4865  0.3600  0.3233
11073SOL    HW143898   1.318   5.962   4.252 -1.0788  1.1469  0.1858
11073SOL    HW243899   1.364   6.046   4.384  1.3423 -2.2035  1.5487
11074SOL     OW43900   8.962   0.134   0.785  0.4879 -0.8674  0.1840
11074SOL    HW143901   9.033   0.064   0.792 -0.4972 -1.9105 -0.2353
11074SOL    HW243902   8.895   0.121   0.858  0.7286  0.1479  0.6061
11075SOL     OW43903   8.774   9.782   1.730 -0.1215  0.3629  0.1647
11075SOL    HW143904   8.731   9.721   1.796 -0.5054 -1.5937 -1.8506
11075SOL    HW243905   8.856   9.822   1.770  0.1166 -1.4506  1.5253
11076SOL     OW43906   9.000   5.550   4.235  0.1598 -0.2945  0.0171
11076SOL    HW143907   9.032   5.625   4.293 -0.9261 -0.4313  0.8267
11076SOL    HW243908   9.059   5.470   4.248 -0.4590 -0.5317  1.4498
11077SOL     OW43909   8.201   2.310   4.353  0.1279 -0.0729  0.1145
11077SOL    HW143910   8.128   2.248   4.326  1.6254 -1.2535 -1.2984
11077SOL    HW243911   8.194   2.330   4.451 -3.1764  1.3302 -0.3272
11078SOL     OW43912   9.101   5.596   3.409 -0.4500 -0.8187  0.0500
11078SOL    HW143913   9.143   5.686   3.395 -1.5846 -0.2162  0.4530
11078SOL    HW243914   9.128   5.535   3.335 -0.9863  0.3576 -1.1459
11079SOL     OW43915   9.464   5.972   2.782 -0.1596 -0.5069 -0.4823
11079SOL    HW143916   9.368   5.993   2.763 -0.2722 -0.2301  0.3830
11079SOL    HW243917   9.497   5.906   2.714 -0.6621  0.1708 -1.4021
11080SOL     OW43918   0.951   3.735   1.111  0.1743  0.8205  0.4614
11080SOL    HW143919   0.876   3.669   1.110  0.5524  0.3962 -0.8290
11080SOL    HW243920   0.923   3.817   1.160 -1.0852  0.6031  0.1083
11081SOL     OW43921   0.752   5.726   1.075 -0.1294  0.3162 -0.0564
11081SOL    HW143922   0.822   5.660   1.049 -0.8393 -1.1488  1.6725
11081SOL    HW243923   0.682   5.681   1.130 -1.2162  2.2692  0.2000
11082SOL     OW43924   0.023   0.062   2.577 -0.0280  0.0154  0.0487
11082SOL    HW143925   0.051   0.148   2.621 -1.0487  1.2062 -1.5857
11082SOL    HW243926   0.042   0.068   2.479  0.5535 -1.9241  0.0333
11083SOL     OW43927   0.526   4.001   3.914  0.2798  0.0655  0.3347
11083SOL    HW143928   0.493   3.916   3.873 -1.7606  1.8028 -1.7710
11083SOL    HW243929   0.486   4.013   4.005  1.5421 -1.7762  1.1581
11084SOL     OW43930   2.133   1.929   4.114  0.6156 -0.7635  0.2955
11084SOL    HW143931   2.138   1.835   4.082  0.0421 -0.8073  0.3275
11084SOL    HW243932   2.070   1.935   4.191 -1.1131  0.0322 -1.1406
11085SOL     OW43933   2.969   2.443   4.466  0.1574  0.1537  0.0013
11085SOL    HW143934   3.020   2.403   4.389  1.1052  2.2800 -0.5068
11085SOL    HW243935   2.877   2.467   4.437  0.0550 -0.3253 -0.0771
11086SOL     OW43936   1.083   4.785   0.633 -0.1153  0.3819  0.1684
11086SOL    HW143937   1.090   4.697   0.681 -0.1463  1.0494  1.4258
11086SOL    HW243938   0.999   4.787   0.579 -0.1507 -0.3394  0.1870
11087SOL     OW43939   0.051   7.598   0.458 -0.8398  0.3774  0.2238
11087SOL    HW143940   0.050   7.616   0.556  1.0731  0.2277  0.2904
11087SOL    HW243941   0.004   7.511   0.439  0.2608 -0.4521  1.2133
11088SOL     OW43942   8.548   6.463   0.282 -0.3645 -0.4892  0.1177
11088SOL    HW143943   8.543   6.448   0.183  1.3288 -1.6448  0.1859
11088SOL    HW243944   8.643   6.483   0.308 -1.1126  1.7222  1.2566
11089SOL     OW43945   3.187   9.065   3.595  0.1031 -0.4948 -0.0032
11089SOL    HW143946   3.263   9.000   3.599 -0.2389 -0.8428  1.0534
11089SOL    HW243947   3.121   9.034   3.526 -0.1201 -1.3501  0.5882
11090SOL     OW43948   1.578   9.813   4.191  0.1981 -0.1034 -0.0648
11090SOL    HW143949   1.550   9.878   4.262 -0.2144 -1.2466  0.8504
11090SOL    HW243950   1.571   9.720   4.228  0.2982 -0.6900 -1.5113
11091SOL     OW43951   9.666   3.286   3.068 -1.2170  0.1748  0.8044
11091SOL    HW143952   9.650   3.249   2.977  1.6393  1.2099 -0.1973
11091SOL    HW243953   9.721   3.222   3.121 -0.9325  0.5653  0.9869
11092SOL     OW43954   0.251   7.162   0.247 -0.3020  0.4470 -0.4636
11092SOL    HW143955   0.259   7.088   0.181 -1.8436  0.5352 -0.7542
11092SOL    HW243956   0.316   7.147   0.321  0.1424 -0.6293 -1.0546
11093SOL     OW43957   3.108   3.119   3.123  0.6140 -0.2223  0.1738
11093SOL    HW143958   3.019   3.083   3.151  0.3673  0.2887  0.0373
11093SOL    HW243959   3.137   3.076   3.038  0.2350  0.0351 -0.0833
11094SOL     OW43960   2.536   4.435   4.632  0.4042  0.2993  0.2661
11094SOL    HW143961   2.453   4.456   4.580  1.0007 -0.5431 -1.0497
11094SOL    HW243962   2.616   4.459   4.577  1.0351  0.5357  1.2887
11095SOL     OW43963   9.875   9.241   4.171  0.1098 -0.0137  0.1760
11095SOL    HW143964   9.821   9.210   4.092  1.6911 -0.3389 -0.8025
11095SOL    HW243965   9.930   9.320   4.145  0.7326 -0.2003  0.9158
11096SOL     OW43966   9.290   3.688   3.257  0.9068  0.0294 -0.1596
11096SOL    HW143967   9.210   3.640   3.293 -1.0708  2.1210 -1.6063
11096SOL    HW243968   9.338   3.735   3.331 -0.9865  1.2549  0.3169
11097SOL     OW43969   8.945   0.029   2.060 -0.0997  0.6333 -0.0902
11097SOL    HW143970   8.850   0.062   2.058  0.4457  2.2630 -0.9464
11097SOL    HW243971   9.002   0.093   2.008  1.0662 -1.6169 -1.6208
11098SOL     OW43972   9.408   1.274   1.550  0.0971 -0.2429  0.5578
11098SOL    HW143973   9.460   1.238   1.628  1.1718  1.4454  0.6474
11098SOL    HW243974   9.345   1.345   1.582  0.0722  0.0010 -0.0303
11099SOL     OW43975   8.661   6.332   2.436 -0.4594  0.2870  0.1216
11099SOL    HW143976   8.669   6.430   2.455 -1.9242  0.3333  0.5890
11099SOL    HW243977   8.572   6.314   2.394 -1.3617 -1.2036  2.5653
11100SOL     OW43978   2.052   1.010   0.538  0.2388  0.1916 -0.2800
11100SOL    HW143979   2.112   0.967   0.605  0.6098  0.1086 -0.6666
11100SOL    HW243980   2.054   1.109   0.552 -1.0117  0.0603  0.9410
11101SOL     OW43981   1.383   3.342   2.538  0.5430 -0.2060 -0.0033
11101SOL    HW143982   1.427   3.431   2.539  0.4552 -0.1730  0.7459
11101SOL    HW243983   1.448   3.272   2.508  0.3415  0.2485 -1.5582
11102SOL     OW43984   3.259   7.181   3.391  0.4525 -0.4011 -0.1672
11102SOL    HW143985   3.215   7.270   3.397 -0.8355 -1.0181 -0.2211
11102SOL    HW243986   3.358   7.191   3.400  0.1699  0.8347  1.9123
11103SOL     OW43987   7.442   9.929   4.444 -0.2252  0.2667  0.8596
11103SOL    HW143988   7.496   9.977   4.375  0.7461 -1.1545  0.6022
11103SOL    HW243989   7.345   9.951   4.432  0.0489  0.8950 -0.2527
11104SOL     OW43990   3.179   6.370   0.537  0.1414  0.1209 -0.2760
11104SOL    HW143991   3.174   6.439   0.465  0.7885 -1.4475 -1.8733
11104SOL    HW243992   3.185   6.279   0.495 -1.7282 -0.9955  1.7805
11105SOL     OW43993   0.232   3.508   4.148  0.1013  0.8452  0.5427
11105SOL    HW143994   0.135   3.532   4.155 -0.8296 -1.5928 -2.3306
11105SOL    HW243995   0.252   3.433   4.210 -0.1498  0.6416  0.3824
11106SOL     OW43996   0.402   1.021   1.035  0.3374  0.0058  0.2440
11106SOL    HW143997   0.312   1.037   1.075  0.8818 -0.0710  1.5138
11106SOL    HW243998   0.469   1.081   1.079  0.3087  2.6347 -3.1159
11107SOL     OW43999   8.539   8.175   1.397  0.6771  0.0658 -0.1757
11107SOL    HW144000   8.512   8.162   1.302 -0.6563 -1.2566  0.3600
11107SOL    HW244001   8.502   8.261   1.431 -0.7657 -0.5243 -0.2030
11108SOL     OW44002   2.811   9.708   4.073  0.0560  0.3062 -0.9956
11108SOL    HW144003   2.814   9.736   4.169 -0.2524 -1.0648 -0.5743
11108SOL    HW244004   2.823   9.788   4.014  0.9057  1.0536  0.1887
11109SOL     OW44005   0.518   7.484   1.318 -0.1228 -0.1245  0.0469
11109SOL    HW144006   0.479   7.514   1.232  0.3272  0.2920 -0.0161
11109SOL    HW244007   0.489   7.546   1.391  0.5543  0.2919 -0.0304
11110SOL     OW44008   9.287   0.939   2.482  1.0732 -0.6819 -0.1302
11110SOL    HW144009   9.271   1.028   2.439  0.2890 -1.4376 -1.4474
11110SOL    HW244010   9.386   0.924   2.490  1.2182  0.7607  1.1131
11111SOL     OW44011   0.139   0.427   0.857  0.4299  0.6006  0.1070
11111SOL    HW144012   0.174   0.341   0.895  1.2459 -0.2836 -2.5707
11111SOL    HW244013   0.054   0.410   0.807  1.1210  1.1555 -1.2809
11112SOL     OW44014   7.563   2.097   2.622  0.0469  0.0500  1.1210
11112SOL    HW144015   7.516   2.133   2.702 -1.7360 -0.9861  0.5763
11112SOL    HW244016   7.590   2.172   2.562 -0.4132  0.6975  1.7210
11113SOL     OW44017   5.208   3.051   1.282  0.0531 -0.3275  0.0781
11113SOL    HW144018   5.191   3.046   1.380 -2.2875  0.5954 -0.2713
11113SOL    HW244019   5.240   2.962   1.249  1.0772 -0.5720  1.6935
11114SOL     OW44020   5.404   7.041   2.714  0.0394  0.7255  0.2703
11114SOL    HW144021   5.482   6.988   2.680 -0.4969 -0.1104  0.3361
11114SOL    HW244022   5.382   7.113   2.648  0.5326  0.6379  0.0038
11115SOL     OW44023   0.353   8.871   1.314 -0.1260  0.6121  0.0720
11115SOL    HW144024   0.347   8.885   1.215  0.7310 -0.0329 -0.0746
11115SOL    HW244025   0.314   8.782   1.338  0.9470  0.1441  0.1310
11116SOL     OW44026   2.392   1.468   0.905 -0.7817 -0.2080  0.2749
11116SOL    HW144027   2.389   1.402   0.980 -1.4896 -1.3377 -0.7272
11116SOL    HW244028   2.483   1.466   0.863 -0.9610 -0.9128 -0.0782
11117SOL     OW44029   9.709   8.925   0.292 -0.0483 -0.2155  0.2144
11117SOL    HW144030   9.629   8.931   0.232 -0.1386 -1.0507  0.2539
11117SOL    HW244031   9.784   8.978   0.252  0.2343 -1.6432 -1.1891
11118SOL     OW44032   9.284   1.866   1.060  0.5254  0.2695 -0.5545
11118SOL    HW144033   9.254   1.938   0.997  1.5917  0.5502 -0.7568
11118SOL    HW244034   9.298   1.781   1.009 -2.4381 -0.5785 -0.0258
11119SOL     OW44035   9.095   6.027   0.567  0.7878  0.5774 -0.2751
11119SOL    HW144036   9.167   6.037   0.498  2.1809  0.4089  1.1131
11119SOL    HW244037   9.071   6.117   0.603  2.0440  0.4486  0.9575
11120SOL     OW44038   2.317   8.686   1.079 -0.3564 -0.5388 -0.1621
11120SOL    HW144039   2.318   8.600   1.028  0.9953 -1.0565  0.7141
11120SOL    HW244040   2.279   8.671   1.170 -0.1012 -0.2145 -0.0009
11121SOL     OW44041   0.748   5.364   4.232  0.3973  0.5920  0.2097
11121SOL    HW144042   0.784   5.296   4.296  1.6799  1.0301 -0.0411
11121SOL    HW244043   0.798   5.358   4.145  0.5847  1.9119  0.2162
11122SOL     OW44044   2.056   4.106   3.342  1.0671 -0.1343 -0.1510
11122SOL    HW144045   2.004   4.074   3.421  0.4035  1.6215  0.1400
11122SOL    HW244046   2.003   4.093   3.259  0.8749  0.0382 -0.0545
11123SOL     OW44047   0.594   8.913   3.625 -0.1531 -0.1810 -0.0628
11123SOL    HW144048   0.682   8.867   3.608  0.6709  1.4910 -0.4358
11123SOL    HW244049   0.519   8.854   3.595  0.8679 -1.3593 -0.3467
11124SOL     OW44050   2.247   8.042   3.001 -0.0690  0.1078  0.0410
11124SOL    HW144051   2.301   7.960   2.980 -0.0890  0.0778  0.1071
11124SOL    HW244052   2.154   8.014   3.027  0.0754  0.1197  0.5683
11125SOL     OW44053   0.017   1.337   4.733 -0.1668 -0.2083 -0.0521
11125SOL    HW144054   0.102   1.385   4.712  1.0206 -1.7370  1.0777
11125SOL    HW244055  -0.057   1.374   4.678  1.3154  0.9041 -1.3402
11126SOL     OW44056   9.298   0.559   0.535  0.3774 -0.4117  0.4281
11126SOL    HW144057   9.331   0.540   0.627 -0.4550 -1.1639  0.5780
11126SOL    HW244058   9.206   0.523   0.524 -0.1604  1.1046 -0.1937
11127SOL     OW44059   8.282   3.671   0.196  0.2748 -0.3244 -0.1943
11127SOL    HW144060   8.301   3.653   0.099  1.2947 -1.5527  0.2158
11127SOL    HW244061   8.352   3.733   0.232  1.5379 -2.0638  0.4323
11128SOL     OW44062   2.230   1.484   2.917  0.5988  0.1131  1.0767
11128SOL    HW144063   2.257   1.535   2.999  1.1590  3.2939 -0.9661
11128SOL    HW244064   2.133   1.502   2.898  0.9634  0.9607 -0.0117
11129SOL     OW44065   1.674   8.197   4.260  0.2783 -0.8101 -0.0224
11129SOL    HW144066   1.686   8.297   4.255  0.9841 -0.8923  0.1106
11129SOL    HW244067   1.601   8.176   4.326 -1.6227 -0.2557 -1.8729
11130SOL     OW44068   7.797   2.457   3.630  0.1268 -0.5464  0.7613
11130SOL    HW144069   7.863   2.449   3.704 -0.3773  0.3934  1.3110
11130SOL    HW244070   7.724   2.521   3.656  1.0635  1.4470 -1.3543
11131SOL     OW44071   1.975   6.509   1.588 -0.3427 -0.3487 -0.1917
11131SOL    HW144072   1.999   6.565   1.667 -0.5680 -2.0456  1.1013
11131SOL    HW244073   1.964   6.567   1.508 -1.1350  1.5092  1.2414
11132SOL     OW44074   2.872   9.782   1.735 -0.0520 -0.2117 -0.2579
11132SOL    HW144075   2.877   9.690   1.698 -0.0650 -0.2966 -0.0500
11132SOL    HW244076   2.939   9.792   1.810 -0.0446 -0.0510 -0.2848
11133SOL     OW44077   0.966   8.044   0.675 -0.1904 -0.1763  0.1063
11133SOL    HW144078   0.951   8.089   0.587  4.5322  0.6765 -0.4158
11133SOL    HW244079   1.000   7.951   0.660  0.2338 -0.1754  1.0002
11134SOL     OW44080   3.852   6.852   2.171  0.0240  0.4453 -0.4374
11134SOL    HW144081   3.795   6.911   2.113  0.7132 -0.4713 -2.0867
11134SOL    HW244082   3.847   6.758   2.138  0.9748  0.0158  0.5965
11135SOL     OW44083   1.706   9.637   0.058 -0.2036 -0.1275  0.2323
11135SOL    HW144084   1.703   9.564   0.126 -0.3340  0.0606  0.4317
11135SOL    HW244085   1.762   9.712   0.094  0.8657 -0.5914 -0.4309
11136SOL     OW44086   9.583   2.920   3.295  0.2149 -0.0289 -0.3277
11136SOL    HW144087   9.539   2.882   3.376  0.4519  0.2852 -0.0518
11136SOL    HW244088   9.668   2.966   3.321  0.5032 -0.2798 -0.8047
11137SOL     OW44089   8.731   7.775   3.332 -0.3640  0.3707  0.0065
11137SOL    HW144090   8.753   7.779   3.234 -2.1065 -0.5019 -0.4386
11137SOL    HW244091   8.721   7.680   3.360  1.3931  0.5633  1.3487
11138SOL     OW44092   5.481   0.296   1.757  0.3116 -0.4993  0.0454
11138SOL    HW144093   5.493   0.242   1.841  1.7006 -0.3485 -0.0424
11138SOL    HW244094   5.409   0.364   1.771 -2.2076 -3.0031 -0.1719
11139SOL     OW44095   4.859   8.673   4.371  0.1537  0.0841  0.0189
11139SOL    HW144096   4.828   8.583   4.400 -0.3768  0.7066  1.4172
11139SOL    HW244097   4.780   8.728   4.341  0.4530  0.1473 -0.6765
11140SOL     OW44098   8.618   7.079   1.414  0.2155  0.4610  0.8266
11140SOL    HW144099   8.665   7.143   1.475  1.5295  0.2185  0.0695
11140SOL    HW244100   8.684   7.030   1.359 -0.9135 -0.0471 -0.1016
11141SOL     OW44101   1.382   9.935   1.139 -0.4208  0.2588 -0.0459
11141SOL    HW144102   1.436  10.017   1.120 -1.5192  1.5430  2.2401
11141SOL    HW244103   1.288   9.961   1.162 -0.5876 -1.5836  1.4553
11142SOL     OW44104   2.878   4.679   1.775 -0.1167 -0.5376  0.2614
11142SOL    HW144105   2.973   4.711   1.768  0.1587 -1.0892  1.4713
11142SOL    HW244106   2.876   4.580   1.767 -0.6017 -0.5297  0.2937
11143SOL     OW44107   3.472   7.270   1.599  0.9602 -0.7139  0.1964
11143SOL    HW144108   3.380   7.289   1.564  1.4440 -2.0321 -1.9198
11143SOL    HW244109   3.478   7.175   1.629  1.5758 -0.5817  0.5148
11144SOL     OW44110   8.109   9.420   0.889  0.0178  0.0568 -0.1632
11144SOL    HW144111   8.158   9.377   0.965  0.9454  1.0757 -0.1757
11144SOL    HW244112   8.102   9.518   0.906 -0.1274  0.2230 -1.2018
11145SOL     OW44113   4.244   8.438   2.172  0.4278 -0.3453  0.0471
11145SOL    HW144114   4.334   8.395   2.179  0.8574  0.7443  1.5482
11145SOL    HW244115   4.183   8.378   2.121  2.3966 -0.4382 -2.2883
11146SOL     OW44116   3.888   4.755   1.680 -0.4106 -0.2837 -0.4243
11146SOL    HW144117   3.809   4.771   1.620  0.9477  1.2812 -1.8830
11146SOL    HW244118   3.937   4.674   1.649 -0.9105 -0.7228 -0.0837
11147SOL     OW44119   7.138   0.577   1.655 -0.4532  0.0211  0.3381
11147SOL    HW144120   7.112   0.594   1.560 -1.1760  1.5574  0.7888
11147SOL    HW244121   7.095   0.645   1.714  0.5865 -0.4601  1.6878
11148SOL     OW44122   9.195   6.373   1.405 -0.1330  0.4443  0.2969
11148SOL    HW144123   9.113   6.415   1.443 -0.4691 -0.2261  0.3111
11148SOL    HW244124   9.169   6.303   1.338  0.4153 -0.0906  0.6366
11149SOL     OW44125   8.409   0.291   2.819  0.1269 -0.2707  0.7866
11149SOL    HW144126   8.442   0.249   2.904  1.9253 -0.9247 -0.2120
11149SOL    HW244127   8.392   0.388   2.835  1.2153 -0.2183  1.6886
11150SOL     OW44128   2.229   5.027   3.196  0.1497 -0.3866  0.0623
11150SOL    HW144129   2.174   5.080   3.261 -0.9212 -0.1140 -1.0590
11150SOL    HW244130   2.170   4.990   3.125  1.4129 -0.1738 -1.1118
11151SOL     OW44131   5.738   7.653   1.422  0.7745 -0.0099 -0.0119
11151SOL    HW144132   5.728   7.733   1.363  1.9235  0.4093  0.3600
11151SOL    HW244133   5.648   7.627   1.459  0.4128  1.1461 -0.0791
11152SOL     OW44134   3.508   1.432   3.682  0.4916 -0.0440  0.0423
11152SOL    HW144135   3.575   1.502   3.661  0.4800 -0.0471 -0.0068
11152SOL    HW244136   3.455   1.459   3.762  1.3177 -0.5717  0.7762
11153SOL     OW44137   7.674   4.226   4.010  0.3488 -0.4039 -0.8277
11153SOL    HW144138   7.770   4.245   4.030  0.8324 -0.9699 -2.4861
11153SOL    HW244139   7.639   4.158   4.074  1.4397 -1.1811 -1.0529
11154SOL     OW44140   8.363   9.774   0.639  0.2795  0.6584 -0.2492
11154SOL    HW144141   8.307   9.699   0.604  0.9687  0.1101 -0.1831
11154SOL    HW244142   8.458   9.744   0.647  0.6129  1.6204 -0.4935
11155SOL     OW44143   0.823   0.889   0.997 -0.0895 -0.1994 -0.0622
11155SOL    HW144144   0.810   0.855   1.090 -0.6277  0.2928  0.0459
11155SOL    HW244145   0.869   0.978   1.001  1.5512 -1.0054 -0.3520
11156SOL     OW44146   1.114   2.910   1.174  1.0683 -0.5496  0.1206
11156SOL    HW144147   1.141   2.960   1.256  1.1637  1.2155 -0.9552
11156SOL    HW244148   1.181   2.838   1.155  1.2934 -0.6636  1.3287
11157SOL     OW44149   3.322   3.990   0.466  0.0967 -0.1118  0.9603
11157SOL    HW144150   3.267   4.043   0.531 -0.5423 -0.4459  0.6980
11157SOL    HW244151   3.268   3.971   0.384 -0.0692 -2.1192  1.5131
11158SOL     OW44152   2.331   1.577   2.319 -0.1129  0.7110  0.3671
11158SOL    HW144153   2.422   1.598   2.283  0.1157  1.7601  1.5179
11158SOL    HW244154   2.334   1.579   2.419 -1.3377  0.4498  0.4125
11159SOL     OW44155   4.241   9.339   4.298 -0.6336 -0.0900  0.1443
11159SOL    HW144156   4.243   9.399   4.218  0.6988 -0.4901 -0.1493
11159SOL    HW244157   4.172   9.268   4.285  1.8836 -2.2396 -2.2562
11160SOL     OW44158   9.057   0.888   2.639  0.3520  0.4878  0.7786
11160SOL    HW144159   9.151   0.885   2.604  0.1862 -1.4084  0.4358
11160SOL    HW244160   8.993   0.878   2.562 -0.0488 -1.8378  1.3831
11161SOL     OW44161   0.608   8.449   4.254  0.7288  0.3497  0.3246
11161SOL    HW144162   0.602   8.412   4.347 -2.4174 -2.5682 -0.9189
11161SOL    HW244163   0.645   8.541   4.258  2.2828 -0.3116  4.3010
11162SOL     OW44164   8.271   7.628   4.001 -0.4584 -0.0747  0.3980
11162SOL    HW144165   8.355   7.575   3.992 -0.8843 -0.7279  0.2512
11162SOL    HW244166   8.229   7.610   4.090  0.1688  1.1632  0.9684
11163SOL     OW44167   8.029   4.537   0.955 -0.3641 -0.2580 -0.0557
11163SOL    HW144168   8.015   4.633   0.978 -1.5231 -0.3884 -0.1730
11163SOL    HW244169   8.087   4.530   0.874  1.3241  0.2858  1.0901
11164SOL     OW44170   5.987   8.413   2.877 -0.4332 -0.3062 -0.0786
11164SOL    HW144171   5.890   8.409   2.901 -0.5601 -0.2579 -0.5773
11164SOL    HW244172   6.009   8.340   2.812  0.0788 -0.9188  0.7717
11165SOL     OW44173   9.484   5.537   0.984 -0.2607  0.3227 -0.2585
11165SOL    HW144174   9.446   5.468   0.922 -2.9736  0.6415  0.9752
11165SOL    HW244175   9.443   5.526   1.075 -1.3668  3.9886 -0.2426
11166SOL     OW44176   7.208   9.334   0.904 -0.2652  0.3222 -0.1546
11166SOL    HW144177   7.169   9.256   0.952 -1.2507 -0.8144 -2.7367
11166SOL    HW244178   7.138   9.374   0.844  0.3282  2.9842  0.8544
11167SOL     OW44179   2.206   3.940   1.385  0.4382 -0.5759 -0.2826
11167SOL    HW144180   2.209   3.845   1.416  0.2396 -1.3917 -2.6611
11167SOL    HW244181   2.287   3.959   1.330  0.8971  0.8956  0.8993
11168SOL     OW44182   9.981   2.813   4.488 -0.1875 -0.3412 -0.2193
11168SOL    HW144183  10.056   2.772   4.540 -1.0738 -0.9816  0.5667
11168SOL    HW244184   9.938   2.743   4.432 -0.4564 -0.0589 -0.3613
11169SOL     OW44185   4.605   9.345   2.903  0.1084 -0.1053 -0.2563
11169SOL    HW144186   4.519   9.300   2.878 -1.0142  2.2363 -0.8184
11169SOL    HW244187   4.615   9.345   3.003 -0.6804 -0.1790 -0.1720
11170SOL     OW44188   7.435   4.475   3.823  0.2900  0.8934 -0.3207
11170SOL    HW144189   7.405   4.505   3.732 -3.9953 -0.8857  0.3835
11170SOL    HW244190   7.393   4.387   3.844  2.1669  0.7255  2.9590
11171SOL     OW44191   5.284   8.290   4.518  0.0320 -0.0275  0.4716
11171SOL    HW144192   5.211   8.265   4.454  0.5434  0.5486 -0.3432
11171SOL    HW244193   5.348   8.214   4.527 -0.0489 -0.1152  0.3064
11172SOL     OW44194   0.742   1.991   3.666 -0.0841 -0.0643  0.6034
11172SOL    HW144195   0.704   2.028   3.581 -0.6990 -1.3300  0.3216
11172SOL    HW244196   0.707   2.044   3.744 -0.8874  0.0129  0.1929
11173SOL     OW44197   2.122   9.792   0.790 -0.0661  0.0455 -0.5923
11173SOL    HW144198   2.055   9.840   0.847 -0.5355 -1.0238 -0.2317
11173SOL    HW244199   2.095   9.801   0.693  0.1787  1.0113 -0.5744
11174SOL     OW44200   8.607   4.877   3.736  0.1733  0.0229 -0.7568
11174SOL    HW144201   8.567   4.913   3.652  2.3215  0.7238 -1.4975
11174SOL    HW244202   8.626   4.779   3.725 -2.0790 -0.5274 -0.0904
11175SOL     OW44203   2.487   2.597   2.363 -0.5205 -0.0290 -0.2837
11175SOL    HW144204   2.521   2.540   2.438 -0.6184  2.3932  1.6448
11175SOL    HW244205   2.564   2.642   2.317 -0.7177  1.5613  0.9054
11176SOL     OW44206   2.685   2.503   0.167  0.5431  0.7560 -0.8827
11176SOL    HW144207   2.744   2.503   0.087  0.1601 -0.7110 -1.1809
11176SOL    HW244208   2.732   2.547   0.244  1.2141  1.4460 -1.6863
11177SOL     OW44209   0.142   3.405   0.136 -0.0295  0.9250 -0.1801
11177SOL    HW144210   0.047   3.431   0.118  0.2490  1.8174 -0.3887
11177SOL    HW244211   0.189   3.481   0.182  0.6370  0.5611 -0.2552
11178SOL     OW44212   3.724   6.583   3.566 -0.1949 -0.0796 -0.0949
11178SOL    HW144213   3.672   6.646   3.623 -1.7341 -1.5860  0.2017
11178SOL    HW244214   3.765   6.512   3.623 -1.1898 -1.2114 -0.7592
11179SOL     OW44215   8.385   0.574   1.755 -0.2448  0.1580  0.2470
11179SOL    HW144216   8.383   0.666   1.795 -0.1534 -0.6939  2.2625
11179SOL    HW244217   8.354   0.579   1.660  0.2256  2.3402  0.1684
11180SOL     OW44218   3.756   9.732   2.811 -0.4300 -0.3743  0.1823
11180SOL    HW144219   3.681   9.785   2.773 -1.2073 -2.6202 -1.5138
11180SOL    HW244220   3.725   9.640   2.832  0.9209 -0.2514  2.9923
11181SOL     OW44221   2.851   7.990   2.441  0.7276 -0.0761 -0.0335
11181SOL    HW144222   2.897   8.001   2.530  0.8320 -0.6011 -0.0198
11181SOL    HW244223   2.767   8.044   2.440  0.9712  0.3123  0.2088
11182SOL     OW44224   4.388   2.559   4.636  0.0695  0.0951  0.1369
11182SOL    HW144225   4.423   2.645   4.598  1.0999  0.8820  2.7611
11182SOL    HW244226   4.464   2.507   4.675 -0.4823 -2.2567 -1.8296
11183SOL     OW44227   0.563   3.277   0.630  0.0721 -0.7509 -0.3914
11183SOL    HW144228   0.625   3.220   0.684  1.2143  1.0131  0.2369
11183SOL    HW244229   0.470   3.267   0.664  0.6116 -0.4802  1.2316
11184SOL     OW44230   2.845   4.787   0.164 -0.1018  0.5847  0.1107
11184SOL    HW144231   2.837   4.688   0.153 -0.1348  0.4770  1.0412
11184SOL    HW244232   2.920   4.808   0.226 -1.5293  1.0431  1.7259
11185SOL     OW44233   1.090   8.498   2.021 -0.6347 -0.2517  0.5256
11185SOL    HW144234   1.134   8.408   2.019 -0.0672  0.0246  0.4537
11185SOL    HW244235   1.004   8.494   1.971  0.3782 -0.2473 -1.2400
11186SOL     OW44236   2.319   5.982   0.875  0.2579 -0.7791 -0.2170
11186SOL    HW144237   2.372   5.976   0.790  2.5855  2.6761  0.8936
11186SOL    HW244238   2.360   5.922   0.944  1.8496  0.7417  0.1781
11187SOL     OW44239   8.520   0.205   3.071 -0.3814 -0.0225 -0.1986
11187SOL    HW144240   8.576   0.127   3.043  2.6659  1.5825  1.0887
11187SOL    HW244241   8.475   0.185   3.158  0.0069 -0.5155 -0.1124
11188SOL     OW44242   7.936   6.972   2.202 -0.2555 -0.0518  0.3528
11188SOL    HW144243   8.003   6.994   2.273 -0.2548 -0.4583  0.4798
11188SOL    HW244244   7.947   6.876   2.174 -0.4971  0.0023  0.0667
11189SOL     OW44245   9.859   9.973   0.655 -0.0049 -0.5533  0.4913
11189SOL    HW144246   9.920  10.041   0.614 -0.1669 -0.1273  0.9481
11189SOL    HW244247   9.786   9.950   0.590 -2.7885  3.3596  2.0826
11190SOL     OW44248   3.947   2.756   3.604 -0.0139 -0.5969  0.3759
11190SOL    HW144249   3.872   2.767   3.668  1.3853  1.3284  1.7382
11190SOL    HW244250   3.959   2.840   3.552  1.8385 -0.5247  0.8881
11191SOL     OW44251   4.851   0.428   4.548 -0.3034  1.0223  0.3448
11191SOL    HW144252   4.832   0.442   4.451  0.3039  0.6772  0.1733
11191SOL    HW244253   4.950   0.434   4.564 -0.0016 -2.7735  0.3077
11192SOL     OW44254   1.575   0.181   1.081 -0.3931  0.2623  0.1054
11192SOL    HW144255   1.646   0.169   1.150  0.9422 -1.0894 -1.4788
11192SOL    HW244256   1.597   0.259   1.023 -0.6560  0.3614  0.1359
11193SOL     OW44257   0.276   2.537   1.981  0.2752  0.4671 -1.1918
11193SOL    HW144258   0.313   2.470   2.045 -1.2420  0.9701  0.2662
11193SOL    HW244259   0.246   2.491   1.898 -0.0884 -0.5710 -0.5017
11194SOL     OW44260   4.182   8.541   4.615 -0.4172  0.5499  0.0044
11194SOL    HW144261   4.252   8.519   4.683 -0.0526  1.5756 -0.0159
11194SOL    HW244262   4.176   8.468   4.547  0.3909  0.2883  0.2122
11195SOL     OW44263   1.354   5.111   3.692 -0.2245 -0.0267 -0.6205
11195SOL    HW144264   1.383   5.054   3.615  1.2302  0.1903 -0.2467
11195SOL    HW244265   1.257   5.093   3.712 -0.0189 -1.7126 -1.0605
11196SOL     OW44266   1.438   1.606   0.918 -0.2141 -0.0614  0.1606
11196SOL    HW144267   1.438   1.564   1.009 -2.3640  0.5015  0.4303
11196SOL    HW244268   1.441   1.705   0.927  0.7585 -0.0330 -0.4190
11197SOL     OW44269   1.793   2.355   0.493 -0.6754  0.0480  0.4253
11197SOL    HW144270   1.793   2.429   0.426 -0.4835 -0.9096 -0.6396
11197SOL    HW244271   1.751   2.387   0.578  0.6297  1.8067  0.4444
11198SOL     OW44272   2.057   1.561   1.765  0.2185 -0.5064 -0.1441
11198SOL    HW144273   2.141   1.615   1.774  1.0866 -1.8069 -0.2197
11198SOL    HW244274   2.039   1.543   1.668  0.9210 -1.8400 -0.0394
11199SOL     OW44275   8.485   8.179   0.343 -0.0864  0.1099 -0.2467
11199SOL    HW144276   8.531   8.117   0.406  0.2749  0.0537 -0.5684
11199SOL    HW244277   8.496   8.147   0.249  0.5416  0.9344 -0.4631
11200SOL     OW44278   0.422   3.357   1.962  0.1437  0.4330  0.2272
11200SOL    HW144279   0.377   3.275   1.926  0.9159 -0.1628  0.6003
11200SOL    HW244280   0.354   3.429   1.976 -0.1922  0.6252 -2.2633
11201SOL     OW44281   3.650   3.298   4.097  0.3549 -0.7813  0.0299
11201SOL    HW144282   3.632   3.273   4.193 -2.4029 -0.0516 -0.2354
11201SOL    HW244283   3.639   3.397   4.086  0.1152 -0.9334 -1.1522
11202SOL     OW44284   2.193   2.724   0.144  0.6508 -0.4537  0.0824
11202SOL    HW144285   2.126   2.695   0.077 -0.7110  1.6799  0.4782
11202SOL    HW244286   2.151   2.788   0.209  3.1248  1.2161  0.1260
11203SOL     OW44287   8.424   2.473   2.757 -0.6551 -0.6213 -0.0338
11203SOL    HW144288   8.449   2.550   2.816 -0.3992 -0.6655 -0.0845
11203SOL    HW244289   8.344   2.426   2.795 -1.3093  0.1588 -0.4261
11204SOL     OW44290   2.382   8.270   3.114  0.0454  0.1950 -0.1209
11204SOL    HW144291   2.303   8.331   3.107  0.2953  0.4349 -0.9408
11204SOL    HW244292   2.363   8.186   3.063 -0.3350 -0.4611  1.0823
11205SOL     OW44293   0.366   0.502   0.038 -0.3052 -0.5449 -0.0406
11205SOL    HW144294   0.289   0.555   0.002  0.2239  1.0082  1.0201
11205SOL    HW244295   0.434   0.565   0.077  1.5398 -1.8691 -1.0113
11206SOL     OW44296   0.460   7.328   1.649 -0.1401 -0.1786 -0.2524
11206SOL    HW144297   0.443   7.351   1.745  1.4244  1.4691 -0.3418
11206SOL    HW244298   0.387   7.367   1.592  0.5260  1.4634 -0.0170
11207SOL     OW44299   9.355   1.877   2.962  0.0787 -0.2445  0.0766
11207SOL    HW144300   9.414   1.880   2.882  0.2477  2.1019  0.2572
11207SOL    HW244301   9.261   1.897   2.935  0.0106 -0.2099  0.3316
11208SOL     OW44302   2.217   5.669   3.846  0.0908  0.7808  0.2395
11208SOL    HW144303   2.210   5.658   3.945 -0.5089  0.8628  0.2050
11208SOL    HW244304   2.136   5.630   3.802  1.0380 -0.5933 -0.3247
11209SOL     OW44305   3.362   6.558   4.376 -0.3045 -0.6228 -0.5251
11209SOL    HW144306   3.324   6.474   4.414 -0.2539  0.0508  1.0586
11209SOL    HW244307   3.300   6.596   4.308 -2.1955  0.1293  1.5732
11210SOL     OW44308   5.075   3.329   0.013  0.3122  0.0365  0.5358
11210SOL    HW144309   5.156   3.381   0.041  0.6497 -0.1489 -0.0801
11210SOL    HW244310   4.993   3.385   0.025  0.2144 -0.6437  3.6115
11211SOL     OW44311   2.684   1.782   1.652  0.4130  0.0890  0.3646
11211SOL    HW144312   2.746   1.820   1.583 -1.8307  1.5609 -0.9396
11211SOL    HW244313   2.636   1.703   1.612  1.5652 -1.1807  1.4402
11212SOL     OW44314   0.330   3.438   0.624  0.0952 -0.2883 -0.4057
11212SOL    HW144315   0.423   3.451   0.591  0.6615  0.0775  1.2725
11212SOL    HW244316   0.300   3.520   0.673 -0.0434 -1.4264  1.4791
11213SOL     OW44317   2.404   5.175   1.186 -0.2414 -0.7781 -0.3330
11213SOL    HW144318   2.432   5.123   1.267 -0.3590  0.0475  0.2430
11213SOL    HW244319   2.360   5.260   1.215  0.0598 -0.3017 -1.2633
11214SOL     OW44320   4.870   1.869   2.163  0.5497 -0.6358 -0.1126
11214SOL    HW144321   4.777   1.835   2.176  0.2632 -0.4466 -1.5652
11214SOL    HW244322   4.869   1.944   2.096  1.7735 -0.7834 -0.3129
11215SOL     OW44323   8.072   1.895   2.823  0.4342 -0.1761 -0.3888
11215SOL    HW144324   7.974   1.903   2.843  0.4036 -1.1270 -0.1335
11215SOL    HW244325   8.087   1.911   2.726 -0.0338 -0.5165 -0.5204
11216SOL     OW44326   6.017   0.468   2.851 -0.4097  0.0954  0.0062
11216SOL    HW144327   6.115   0.455   2.862 -0.4705  0.2840  0.8322
11216SOL    HW244328   5.969   0.388   2.888 -0.5400 -0.3226 -1.0669
11217SOL     OW44329   3.596   1.315   0.518  0.1801 -0.4436  0.2428
11217SOL    HW144330   3.663   1.266   0.463 -1.4170 -1.1344 -1.1324
11217SOL    HW244331   3.555   1.251   0.584 -0.1119 -0.3596  0.1428
11218SOL     OW44332   8.663   0.976   0.975 -0.0545 -0.0434  0.3768
11218SOL    HW144333   8.618   0.891   1.002  2.4236 -1.3899  0.4326
11218SOL    HW244334   8.673   1.036   1.054 -2.7191  0.7614  0.1334
11219SOL     OW44335   7.191   8.450   1.696 -0.6360 -0.2536 -0.2120
11219SOL    HW144336   7.174   8.527   1.634 -0.7593  0.2843  0.4825
11219SOL    HW244337   7.127   8.455   1.773  1.5580  0.8872  1.6060
11220SOL     OW44338   2.896   8.041   3.572 -0.1147  0.3895 -0.0930
11220SOL    HW144339   2.887   8.136   3.604 -0.8658  0.4603 -0.4880
11220SOL    HW244340   2.943   8.041   3.484 -1.1663  0.5108 -0.6671
11221SOL     OW44341   3.644   2.253   3.126  0.0209  0.3511 -0.2037
11221SOL    HW144342   3.723   2.194   3.143  1.1031  1.5950 -0.8386
11221SOL    HW244343   3.674   2.349   3.121 -1.5242  0.8377 -0.4299
11222SOL     OW44344   9.996   1.917   0.404 -0.0317  0.1144  0.4750
11222SOL    HW144345  10.020   1.952   0.495  1.5904 -1.0562  0.5311
11222SOL    HW244346   9.916   1.966   0.370 -0.9967  0.2154  2.7530
11223SOL     OW44347   4.574   7.927   2.984 -0.8620  0.0673 -0.1299
11223SOL    HW144348   4.574   7.856   3.055  1.1731 -0.7474 -0.9113
11223SOL    HW244349   4.628   8.005   3.016  1.2450 -0.8764 -1.3050
11224SOL     OW44350   5.386   7.764   3.345 -0.0245  0.2933  0.1353
11224SOL    HW144351   5.404   7.797   3.252 -2.9152  2.9677  0.4386
11224SOL    HW244352   5.454   7.803   3.407  0.3736  0.5461 -0.4462
11225SOL     OW44353   2.626   3.388   3.513 -0.0678  0.1596 -0.0586
11225SOL    HW144354   2.652   3.455   3.443  0.6357  0.2457  0.2880
11225SOL    HW244355   2.610   3.299   3.469 -1.6282  0.6868 -0.6074
11226SOL     OW44356   7.975   2.532   1.976  0.9385  0.1454 -0.4318
11226SOL    HW144357   7.890   2.506   1.928  0.2108  0.0638  0.8806
11226SOL    HW244358   7.957   2.538   2.074  2.1450  1.4258 -0.2792
11227SOL     OW44359   2.433   3.793   0.855 -0.4433  0.7427 -0.5516
11227SOL    HW144360   2.393   3.764   0.942 -0.2666  1.7450 -0.1223
11227SOL    HW244361   2.514   3.849   0.873  1.5338 -1.7716 -1.4130
11228SOL     OW44362   3.840   3.715   2.079  0.3605 -0.4314 -0.8082
11228SOL    HW144363   3.801   3.672   2.161 -0.2550  0.8249 -0.4192
11228SOL    HW244364   3.770   3.773   2.036  1.4372  0.9279 -0.7716
11229SOL     OW44365   8.847   4.149   3.059 -0.6351 -0.3866  0.0867
11229SOL    HW144366   8.898   4.063   3.062 -0.4631 -0.3922 -2.3316
11229SOL    HW244367   8.886   4.209   2.990 -1.2277  1.3607  1.2302
11230SOL     OW44368   8.636   1.143   1.440  0.2461 -0.0253  0.2572
11230SOL    HW144369   8.543   1.123   1.470  0.0507  0.0218 -0.3218
11230SOL    HW244370   8.642   1.238   1.410 -0.1160 -0.6967 -2.0121
11231SOL     OW44371   9.350   8.846   3.476  0.2586 -0.3105  0.1095
11231SOL    HW144372   9.430   8.815   3.527  0.4260  1.2169  0.8108
11231SOL    HW244373   9.374   8.859   3.380 -0.1960 -3.7286 -0.5333
11232SOL     OW44374   9.499   9.258   4.443 -0.6856 -0.2966 -0.2528
11232SOL    HW144375   9.411   9.221   4.473 -0.7575  0.9584  1.1391
11232SOL    HW244376   9.484   9.333   4.380 -0.7543  2.0939  2.4872
11233SOL     OW44377   9.791   7.061   1.048 -0.6723  0.7240  0.2564
11233SOL    HW144378   9.840   7.068   1.135  1.0331  1.1962 -0.7177
11233SOL    HW244379   9.752   6.969   1.039  1.7030 -0.3287  0.2198
11234SOL     OW44380   9.434   7.981   0.179 -0.2473  0.0611 -0.1984
11234SOL    HW144381   9.510   8.021   0.129 -0.6246 -0.5457 -1.2697
11234SOL    HW244382   9.432   8.018   0.272  1.7621 -0.4173  0.0640
11235SOL     OW44383   8.774   3.236   3.413 -0.6806 -0.3011 -0.2126
11235SOL    HW144384   8.855   3.180   3.398  0.8482  1.8758 -0.2534
11235SOL    HW244385   8.769   3.262   3.510  0.7881  2.6897 -0.8951
11236SOL     OW44386   4.619   5.068   1.355  0.3644  0.5773  0.0397
11236SOL    HW144387   4.590   5.141   1.293  1.1316  1.2457  0.4586
11236SOL    HW244388   4.697   5.099   1.409  0.8613 -0.6514  0.0404
11237SOL     OW44389   3.073   4.015   4.610  0.8847 -0.1400  0.1540
11237SOL    HW144390   3.056   3.987   4.704 -0.1681  0.2533  0.0905
11237SOL    HW244391   2.987   4.015   4.559  1.1965  1.1585 -0.3982
11238SOL     OW44392   8.935   9.634   1.546 -0.5398 -0.3382  0.0496
11238SOL    HW144393   8.997   9.567   1.505 -0.6110 -0.2365 -0.2222
11238SOL    HW244394   8.931   9.619   1.645  0.8114  0.4006  0.2252
11239SOL     OW44395   0.611   1.491   1.714 -0.1023 -0.2850  0.1362
11239SOL    HW144396   0.640   1.536   1.798 -1.4375  0.4301  0.2371
11239SOL    HW244397   0.522   1.448   1.729 -0.3518 -0.1383 -0.9115
11240SOL     OW44398   8.750   2.190   1.104 -0.2797 -0.0264  0.0363
11240SOL    HW144399   8.662   2.209   1.148  0.1453 -0.0715  0.9151
11240SOL    HW244400   8.776   2.270   1.049 -1.5482 -0.5630 -1.4014
11241SOL     OW44401   4.230   9.824   2.669 -0.1769  0.1989 -0.0793
11241SOL    HW144402   4.304   9.779   2.619 -0.0001  0.2628  0.1285
11241SOL    HW244403   4.144   9.811   2.619 -0.2564 -0.9754  0.3346
11242SOL     OW44404   9.521   1.547   0.552 -0.3699 -0.6645 -0.3169
11242SOL    HW144405   9.569   1.503   0.475  0.4437 -1.0408  0.4000
11242SOL    HW244406   9.514   1.645   0.534 -1.1467 -0.9012 -1.3774
11243SOL     OW44407   3.658   7.727   0.507  0.1594 -0.3400  0.5473
11243SOL    HW144408   3.710   7.690   0.585 -0.4436 -0.3373  0.9579
11243SOL    HW244409   3.563   7.698   0.515  0.8436 -3.6494 -2.2808
11244SOL     OW44410   2.570   2.151   3.740 -0.5615  0.1741 -0.1017
11244SOL    HW144411   2.532   2.220   3.679  1.0481 -1.6450 -3.2677
11244SOL    HW244412   2.527   2.062   3.721  1.2241 -0.7687  0.1377
11245SOL     OW44413   2.736   5.103   2.739  0.5625 -0.6994 -0.2211
11245SOL    HW144414   2.693   5.074   2.654 -0.9366 -0.8073  0.5477
11245SOL    HW244415   2.711   5.040   2.813  0.4352  0.3437  0.6483
11246SOL     OW44416   1.311   2.391   2.246 -0.1071  0.0464  0.4000
11246SOL    HW144417   1.282   2.479   2.209  0.1633 -0.7155 -1.7279
11246SOL    HW244418   1.395   2.362   2.201  0.2524 -0.9049  1.6761
11247SOL     OW44419   2.401   1.090   3.025 -0.1537 -0.1135  0.3132
11247SOL    HW144420   2.452   1.139   3.096  0.2582 -1.2912  0.8608
11247SOL    HW244421   2.396   1.145   2.943  1.5110  0.2731  0.4508
11248SOL     OW44422   9.933   6.141   1.485  0.0376  0.5914  0.2657
11248SOL    HW144423   9.981   6.123   1.570  0.2318  0.4370  0.1232
11248SOL    HW244424   9.918   6.055   1.436  0.6967  0.7822 -0.2708
11249SOL     OW44425   4.037   9.944   3.824  0.0084 -0.2019 -0.1763
11249SOL    HW144426   3.959   9.881   3.814  0.9823 -1.8989  2.3331
11249SOL    HW244427   4.101   9.929   3.749 -0.3681 -1.3379 -0.2914
11250SOL     OW44428   0.690   9.157   0.391  0.4501  0.1508 -0.1080
11250SOL    HW144429   0.616   9.195   0.334  1.5368  0.4207 -1.3711
11250SOL    HW244430   0.725   9.229   0.450 -1.2299 -0.3343  1.5225
11251SOL     OW44431   4.228   9.514   4.493 -0.0727 -0.0455  0.4096
11251SOL    HW144432   4.254   9.466   4.577 -1.2930  0.1464  0.9068
11251SOL    HW244433   4.238   9.453   4.415 -0.5000 -0.7360  0.8969
11252SOL     OW44434   4.444   0.090   0.518  0.0512  0.3008  0.2738
11252SOL    HW144435   4.445   0.044   0.429  1.5701  0.1541  0.3591
11252SOL    HW244436   4.463   0.024   0.590 -0.5124  0.5497  0.6559
11253SOL     OW44437   1.182   5.135   2.340  0.4962 -0.0773 -0.2915
11253SOL    HW144438   1.114   5.186   2.393  1.4529  1.3791 -0.4246
11253SOL    HW244439   1.273   5.150   2.379  1.3583  1.8460 -2.8664
11254SOL     OW44440   8.381   2.621   2.514  0.4712 -0.1932  0.0181
11254SOL    HW144441   8.366   2.576   2.426  0.1424  0.9949 -0.5362
11254SOL    HW244442   8.385   2.551   2.586  1.7065 -1.2644 -1.0464
11255SOL     OW44443   9.652   9.352   1.821 -0.2597  0.3092  0.0425
11255SOL    HW144444   9.585   9.401   1.766  1.0239  1.1089 -0.8493
11255SOL    HW244445   9.613   9.331   1.910 -0.9881  2.5989  0.2886
11256SOL     OW44446   3.943   1.361   0.605 -0.3063 -0.1833 -0.1518
11256SOL    HW144447   3.892   1.440   0.572 -0.1809  0.6625  1.5923
11256SOL    HW244448   4.041   1.379   0.598 -0.2672 -0.7921 -1.1598
11257SOL     OW44449   7.702   6.506   1.999  0.0029  0.0815  0.7756
11257SOL    HW144450   7.619   6.561   1.993 -0.2754 -0.4493 -0.2935
11257SOL    HW244451   7.711   6.450   1.916  1.9474  0.9020  0.4022
11258SOL     OW44452   8.136   0.526   2.663  0.2590 -0.5426  0.4498
11258SOL    HW144453   8.164   0.590   2.591 -2.5361 -2.0389 -2.1084
11258SOL    HW244454   8.148   0.568   2.752 -1.0388  3.4023 -1.1422
11259SOL     OW44455   5.245   7.701   1.745 -0.2380 -0.1040  0.1792
11259SOL    HW144456   5.146   7.714   1.745 -0.2068  0.6171  3.0134
11259SOL    HW244457   5.267   7.605   1.757 -0.6136 -0.1489  0.4998
11260SOL     OW44458   4.376   8.940   3.521 -0.2138 -0.1418  0.1724
11260SOL    HW144459   4.471   8.972   3.516 -0.3537  0.0377 -1.6441
11260SOL    HW244460   4.376   8.845   3.554  0.8285 -1.0233 -2.2102
11261SOL     OW44461   1.583   8.446   1.900 -0.4233 -0.2499 -0.3610
11261SOL    HW144462   1.511   8.377   1.911 -1.2025  0.3249 -1.7165
11261SOL    HW244463   1.584   8.507   1.979 -1.6441 -0.0630 -0.4821
11262SOL     OW44464   2.222   0.185   0.994 -0.0343  0.7157  0.1042
11262SOL    HW144465   2.213   0.268   0.939  0.5352  1.3322  0.9193
11262SOL    HW244466   2.162   0.191   1.074 -0.5164  0.0278 -0.2011
11263SOL     OW44467   2.499   0.820   0.233 -0.4803  0.0569  0.0195
11263SOL    HW144468   2.448   0.756   0.291  0.6999 -1.8535 -0.9930
11263SOL    HW244469   2.453   0.830   0.145 -1.7004  2.1416  0.8506
11264SOL     OW44470   3.508   3.952   4.127 -0.1321 -0.0039  0.1417
11264SOL    HW144471   3.415   3.988   4.137  0.2721  1.5103 -1.3895
11264SOL    HW244472   3.567   3.993   4.197 -0.1208  0.7281 -0.3002
11265SOL     OW44473   2.160   5.020   4.743  0.5297  0.2290  0.2689
11265SOL    HW144474   2.118   4.930   4.733 -1.0989  1.0685 -0.5608
11265SOL    HW244475   2.224   5.019   4.820 -0.7533 -1.1472  1.3297
11266SOL     OW44476   2.388   2.904   2.486  0.1228 -0.1406  0.0507
11266SOL    HW144477   2.390   2.965   2.566  0.7394 -2.7873  2.0967
11266SOL    HW244478   2.470   2.919   2.431  0.7164  0.2556  1.0205
11267SOL     OW44479   1.257   3.665   3.450 -0.2643 -0.1978 -0.2464
11267SOL    HW144480   1.226   3.576   3.416  0.1994 -0.2481 -0.5382
11267SOL    HW244481   1.310   3.652   3.534 -1.8676 -0.0288  0.8036
11268SOL     OW44482   2.930   5.759   2.710 -0.8713 -0.3142 -0.5878
11268SOL    HW144483   3.009   5.699   2.705 -0.9785 -0.3796 -1.6236
11268SOL    HW244484   2.854   5.710   2.752 -0.7651 -0.6955 -0.8343
11269SOL     OW44485   4.369   7.568   2.714  0.0781  0.1648  1.1809
11269SOL    HW144486   4.387   7.495   2.781  1.2013 -0.3260  0.3710
11269SOL    HW244487   4.338   7.528   2.628  2.1432  0.4970  0.2408
11270SOL     OW44488   2.764   7.183   2.789  0.3209  0.0381  0.2732
11270SOL    HW144489   2.721   7.267   2.756 -0.5956 -0.9013 -0.9665
11270SOL    HW244490   2.707   7.105   2.765  2.0978 -1.1193 -0.2819
11271SOL     OW44491   8.656   9.905   0.758  0.3619  0.0777 -0.5770
11271SOL    HW144492   8.679   9.975   0.826  2.3231 -0.4062 -0.7123
11271SOL    HW244493   8.677   9.814   0.795 -1.1995 -0.3905 -0.7898
11272SOL     OW44494   2.807   0.828   3.647  1.0661 -0.3676  0.0463
11272SOL    HW144495   2.844   0.736   3.658 -2.1721 -1.4275  2.4176
11272SOL    HW244496   2.774   0.862   3.734 -2.2501  1.0758 -1.6867
11273SOL     OW44497   3.216   4.447   3.705 -0.1848 -0.5995 -0.5794
11273SOL    HW144498   3.169   4.532   3.729  0.0664 -1.0480  1.6030
11273SOL    HW244499   3.193   4.377   3.772  2.8283 -1.1040 -0.0288
11274SOL     OW44500   9.222   4.150   3.000 -0.2619  0.6896 -0.3745
11274SOL    HW144501   9.214   4.232   2.943 -0.3749 -0.2844 -1.8026
11274SOL    HW244502   9.309   4.105   2.981 -1.7071 -1.4283 -2.2594
11275SOL     OW44503   8.253   8.768   2.232 -0.3600  0.0199 -0.2905
11275SOL    HW144504   8.303   8.748   2.316 -3.3965  2.1501  2.1415
11275SOL    HW244505   8.202   8.687   2.204 -0.7282 -0.1840  0.9311
11276SOL     OW44506   2.650   8.517   4.243  0.4997  0.1801  0.1893
11276SOL    HW144507   2.731   8.571   4.264  0.7230  0.1355 -0.5379
11276SOL    HW244508   2.635   8.516   4.144 -0.5601  0.4359  0.3429
11277SOL     OW44509   2.060   1.328   1.940 -0.1504  0.1990  0.1055
11277SOL    HW144510   2.024   1.400   1.880 -1.1056 -0.2865  0.0765
11277SOL    HW244511   2.077   1.246   1.886  0.7775  0.3416  0.1699
11278SOL     OW44512   4.079   1.380   2.629  0.4692  0.0590 -0.7130
11278SOL    HW144513   3.995   1.331   2.607 -0.0942  1.0544 -0.7978
11278SOL    HW244514   4.103   1.441   2.554  0.7057  0.5368 -0.2559
11279SOL     OW44515   8.263   0.618   1.505  0.2031 -0.0654 -1.1547
11279SOL    HW144516   8.204   0.681   1.555  0.6396 -0.4240 -0.1821
11279SOL    HW244517   8.210   0.574   1.432 -0.7977 -0.5086 -0.1793
11280SOL     OW44518   4.115   2.496   2.868 -0.1766  0.0002  0.4759
11280SOL    HW144519   4.189   2.429   2.875 -0.1624  0.0164  0.4798
11280SOL    HW244520   4.146   2.576   2.818 -0.0316  0.2352  0.9427
11281SOL     OW44521   6.479   0.034   1.747 -0.0552 -0.1296  0.3721
11281SOL    HW144522   6.439   0.031   1.839  1.4524  0.0331  1.0655
11281SOL    HW244523   6.575   0.063   1.754  0.6202 -1.9020 -1.0807
11282SOL     OW44524   9.798   5.092   1.400  0.5518 -0.0762  0.3409
11282SOL    HW144525   9.774   5.189   1.411 -0.1975 -0.4204  1.9396
11282SOL    HW244526   9.724   5.045   1.351  0.6195  0.0288  0.1375
11283SOL     OW44527   9.881   1.507   1.947  0.0794  0.2345  0.0769
11283SOL    HW144528   9.940   1.587   1.956  2.4216 -1.3543 -0.8460
11283SOL    HW244529   9.814   1.524   1.875  0.1629  1.5816  0.2951
11284SOL     OW44530   1.352   9.478   0.009  0.0856  0.0650  0.3202
11284SOL    HW144531   1.258   9.462  -0.019  0.6413  0.0002 -1.6020
11284SOL    HW244532   1.360   9.568   0.053 -0.3384  1.3924 -2.2193
11285SOL     OW44533   2.238   1.711   3.843  0.5685  0.2462 -0.1629
11285SOL    HW144534   2.304   1.780   3.873 -0.2176  1.5802 -1.4755
11285SOL    HW244535   2.197   1.667   3.923  0.7402  1.6089  0.6866
11286SOL     OW44536   9.568   7.974   1.836  0.3107 -0.2055 -0.1204
11286SOL    HW144537   9.552   8.067   1.803 -1.5245  0.1159  1.5641
11286SOL    HW244538   9.654   7.971   1.887  1.2398  0.1538 -1.6398
11287SOL     OW44539   7.842   4.961   3.620  0.3074 -0.1770  0.1632
11287SOL    HW144540   7.798   5.021   3.687 -2.5019 -0.0236 -1.7519
11287SOL    HW244541   7.896   5.015   3.556  1.2511 -0.1185  1.0042
11288SOL     OW44542   7.884   0.027   2.911 -0.1617  0.1478  0.3691
11288SOL    HW144543   7.863   0.045   2.815  0.8493 -0.6866 -0.0192
11288SOL    HW244544   7.844  -0.060   2.939  1.0288 -0.4797  0.1833
11289SOL     OW44545   2.959   9.517   2.031  0.8336  0.1609  0.3199
11289SOL    HW144546   3.048   9.471   2.022 -0.1716 -1.7290 -0.2654
11289SOL    HW244547   2.965   9.609   1.994  2.5842  0.0850  0.3781
11290SOL     OW44548   6.015   9.041   3.477 -0.0737  0.1766  0.2438
11290SOL    HW144549   6.023   8.964   3.540 -1.3957 -0.4830 -0.3665
11290SOL    HW244550   6.089   9.037   3.409 -0.3903 -0.8061 -0.0454
11291SOL     OW44551   2.837   1.574   3.340 -0.3035 -0.3407  0.1410
11291SOL    HW144552   2.894   1.649   3.307 -1.9640  1.0240  0.2786
11291SOL    HW244553   2.829   1.579   3.439  0.4795 -1.3578  0.2540
11292SOL     OW44554   9.989   8.108   4.388  0.2045 -0.0050 -0.3751
11292SOL    HW144555   9.974   8.028   4.330 -1.1562 -0.0114 -0.0289
11292SOL    HW244556  10.083   8.106   4.425  0.9293 -0.2255 -2.1888
11293SOL     OW44557   5.695   0.447   2.523  0.0484 -0.0333 -0.1046
11293SOL    HW144558   5.776   0.484   2.478  0.3530  1.3128  1.4810
11293SOL    HW244559   5.724   0.387   2.598 -0.3896  0.7710  0.7248
11294SOL     OW44560   2.462   4.136   2.027 -0.3903 -0.2807  0.4580
11294SOL    HW144561   2.430   4.229   2.047 -0.6452 -0.7701  2.3889
11294SOL    HW244562   2.536   4.140   1.961  0.0312  1.3596  1.0083
11295SOL     OW44563   2.606   6.481   2.822  0.3385 -0.5124 -0.6247
11295SOL    HW144564   2.652   6.547   2.763  1.7953 -1.8029 -0.9458
11295SOL    HW244565   2.508   6.501   2.824  0.7299  1.5489 -0.8509
11296SOL     OW44566   8.652   8.025   3.234  0.1591  0.0689  0.0328
11296SOL    HW144567   8.584   8.001   3.165  0.8563  1.2764 -1.1136
11296SOL    HW244568   8.669   7.947   3.293 -0.5179 -0.9659 -1.1230
11297SOL     OW44569   7.992   0.173   3.590 -0.2448 -0.0471 -0.0848
11297SOL    HW144570   7.992   0.265   3.629 -1.4830  0.3097 -0.8803
11297SOL    HW244571   7.906   0.127   3.612  0.2568 -0.9165  0.0803
11298SOL     OW44572   4.910   3.329   0.557 -0.3027  0.3202 -0.3002
11298SOL    HW144573   4.981   3.389   0.519  0.1434  0.2608  0.4373
11298SOL    HW244574   4.883   3.262   0.487 -1.5326  2.0105 -1.4724
11299SOL     OW44575   2.847   3.350   3.261 -0.1701  0.6949 -0.2083
11299SOL    HW144576   2.878   3.357   3.166  1.8412 -0.3167  0.3397
11299SOL    HW244577   2.793   3.430   3.284  1.5719  2.2802 -1.4126
11300SOL     OW44578   1.971   7.777   3.989 -0.0084  0.0147 -0.1544
11300SOL    HW144579   2.066   7.746   3.985  0.2742  0.5604  1.8035
11300SOL    HW244580   1.910   7.697   3.985  0.4985 -0.3053 -1.8368
11301SOL     OW44581   8.221   6.350   1.270 -0.2586 -0.5844  0.0089
11301SOL    HW144582   8.183   6.432   1.227 -1.1199 -0.4983  0.9227
11301SOL    HW244583   8.231   6.279   1.201 -0.3168  0.0060 -0.6223
11302SOL     OW44584   3.093   4.776   0.608 -0.1221  0.2427  0.4112
11302SOL    HW144585   3.177   4.817   0.643 -0.5654  0.7048  0.9478
11302SOL    HW244586   3.046   4.729   0.683  0.4459 -1.3581 -0.2221
11303SOL     OW44587   0.226   9.855   0.975  0.3805 -0.1630  0.6383
11303SOL    HW144588   0.274   9.896   0.898  0.8540 -0.1303  0.9467
11303SOL    HW244589   0.159   9.789   0.941  1.0974 -0.6886  0.2237
11304SOL     OW44590   3.054   7.742   2.428  0.8533 -0.3612  0.4414
11304SOL    HW144591   3.123   7.695   2.374  1.3234  0.2048  0.5398
11304SOL    HW244592   3.029   7.827   2.383 -1.4700 -1.6573 -0.7611
11305SOL     OW44593   8.389   4.494   1.102  0.3517  0.0500 -0.1807
11305SOL    HW144594   8.405   4.461   1.009  0.2313 -0.9622  0.1465
11305SOL    HW244595   8.294   4.476   1.128  0.8240 -1.2031  0.7311
11306SOL     OW44596   8.376   5.852   1.792  0.2485 -0.3702  0.3246
11306SOL    HW144597   8.320   5.877   1.713 -1.0328  0.9833  1.6160
11306SOL    HW244598   8.472   5.873   1.773 -0.3047  1.9835 -0.1122
11307SOL     OW44599   1.264   1.586   1.405  0.6560  0.2778 -0.0424
11307SOL    HW144600   1.238   1.629   1.492  0.9729  0.9530 -0.2764
11307SOL    HW244601   1.183   1.541   1.366  0.5695 -0.2451  0.7162
11308SOL     OW44602   3.038   0.300   1.178 -0.2397 -0.2175  0.0067
11308SOL    HW144603   3.117   0.246   1.209 -1.3075 -1.0917  1.2631
11308SOL    HW244604   3.018   0.279   1.083  1.0807  0.0568 -0.3425
11309SOL     OW44605   8.782   0.167   0.594 -0.0790 -0.8637  0.1916
11309SOL    HW144606   8.856   0.180   0.660 -0.9033  1.0611  0.7580
11309SOL    HW244607   8.814   0.108   0.520  1.2137 -2.1269  1.7084
11310SOL     OW44608   9.730   1.157   2.159 -0.4696 -0.4126 -0.1442
11310SOL    HW144609   9.698   1.067   2.131 -0.6814 -0.5410  0.5015
11310SOL    HW244610   9.802   1.147   2.228  0.2233 -0.1073 -0.8181
11311SOL     OW44611   2.844   3.233   0.308 -0.2797  0.2488 -0.3139
11311SOL    HW144612   2.838   3.240   0.407 -0.9776  1.6516 -0.4454
11311SOL    HW244613   2.863   3.324   0.269  2.2137 -0.6504 -1.3108
11312SOL     OW44614   9.820   6.001   0.864 -0.1777  0.1964 -0.2345
11312SOL    HW144615   9.805   5.915   0.913 -0.8888  0.3932 -0.0893
11312SOL    HW244616   9.803   5.987   0.766  0.7436 -0.0774 -0.3540
11313SOL     OW44617   9.567   7.356   3.336 -0.0480 -0.3937  0.3251
11313SOL    HW144618   9.612   7.274   3.370 -0.6691 -0.2576  1.5022
11313SOL    HW244619   9.492   7.331   3.276  0.3938 -0.6646 -0.1109
11314SOL     OW44620   1.556   2.348   4.360 -0.3820  0.1837 -0.3396
11314SOL    HW144621   1.596   2.264   4.322 -1.6346 -0.0372 -1.1970
11314SOL    HW244622   1.467   2.327   4.400 -1.9395  1.5752 -2.9687
11315SOL     OW44623   0.140   3.677   4.707  0.2490  0.0299  0.2911
11315SOL    HW144624   0.124   3.759   4.652 -0.1453  1.0331  1.8735
11315SOL    HW244625   0.113   3.596   4.656  2.0398  0.7537 -1.8841
11316SOL     OW44626   5.127   3.945   0.495 -0.0897 -0.0618 -0.2447
11316SOL    HW144627   5.085   3.960   0.405  0.5798  0.0847 -0.5370
11316SOL    HW244628   5.185   4.023   0.518 -1.1463  0.4285  0.8292
11317SOL     OW44629   8.304   6.276   1.525  0.7545 -0.0971 -0.2935
11317SOL    HW144630   8.382   6.235   1.478  0.3876 -0.3056 -0.7276
11317SOL    HW244631   8.237   6.306   1.457  0.7872  0.7465  0.0487
11318SOL     OW44632   1.581   6.977   0.962 -0.0776  0.2829 -0.2408
11318SOL    HW144633   1.599   6.976   1.060 -0.4754 -1.3453 -0.1721
11318SOL    HW244634   1.493   6.932   0.944 -0.2899  1.1066 -1.2853
11319SOL     OW44635   3.960   2.502   3.975 -0.4728  0.0794  0.3236
11319SOL    HW144636   4.011   2.584   3.998 -0.0145  0.1873 -1.0232
11319SOL    HW244637   3.980   2.476   3.880 -3.5108  0.6107 -0.5205
11320SOL     OW44638   4.201   8.038   4.156  0.0335 -0.7999  0.0018
11320SOL    HW144639   4.255   8.101   4.211  0.1617 -0.8627 -0.0520
11320SOL    HW244640   4.125   8.002   4.211  0.6065 -1.4565  0.3798
11321SOL     OW44641   2.045   6.893   4.279  0.2835  0.0678 -0.2659
11321SOL    HW144642   1.960   6.934   4.311  0.8153  0.8853  0.1205
11321SOL    HW244643   2.116   6.963   4.274  0.8294 -0.5241 -0.9736
11322SOL     OW44644   9.901   5.856   4.585  0.2644 -0.3342 -1.0616
11322SOL    HW144645   9.918   5.913   4.505  0.5349  0.4423 -0.4545
11322SOL    HW244646   9.803   5.844   4.598  0.2283 -1.2078 -2.0226
11323SOL     OW44647   0.381   3.923   3.279  0.0237 -0.3224 -0.0897
11323SOL    HW144648   0.297   3.974   3.296  0.4106  0.9159 -1.8152
11323SOL    HW244649   0.427   3.905   3.366 -2.3786 -1.6716  0.9611
11324SOL     OW44650   4.068   1.437   3.204  0.0339 -0.1445  0.0722
11324SOL    HW144651   4.022   1.461   3.119 -1.8285  1.8727  1.6197
11324SOL    HW244652   4.028   1.352   3.241  1.8646 -1.8737 -1.7712
11325SOL     OW44653   4.431   3.492   1.176 -1.0049  0.2437 -0.0329
11325SOL    HW144654   4.354   3.520   1.234 -1.3680 -0.8415  0.0221
11325SOL    HW244655   4.406   3.409   1.126 -0.0773  0.2242 -0.4715
11326SOL     OW44656   3.741   9.469   1.902 -0.3793  0.6969 -0.5335
11326SOL    HW144657   3.728   9.451   1.805 -0.3554  0.2123 -0.4485
11326SOL    HW244658   3.687   9.404   1.956  0.7045  0.0477 -0.2069
11327SOL     OW44659   9.233   0.787   0.892  0.0815 -0.4105 -0.0341
11327SOL    HW144660   9.266   0.810   0.983  0.3321  1.2889 -0.5243
11327SOL    HW244661   9.301   0.732   0.844  0.9933  0.6729 -0.0160
11328SOL     OW44662   7.150   7.038   2.578  0.0878  0.0062 -0.0726
11328SOL    HW144663   7.151   6.962   2.514  1.8891 -1.5830  1.7904
11328SOL    HW244664   7.056   7.052   2.611 -0.4122 -0.7907 -1.1360
11329SOL     OW44665   8.726   9.172   2.175 -0.0770 -0.7210 -0.0546
11329SOL    HW144666   8.795   9.112   2.215 -1.0924 -2.0361 -0.2607
11329SOL    HW244667   8.668   9.210   2.248  2.3129  2.2833  0.3731
11330SOL     OW44668   9.590   9.892   0.022  0.6607 -0.6521 -0.4730
11330SOL    HW144669   9.670   9.950   0.005  0.3318  0.4435  1.5564
11330SOL    HW244670   9.621   9.807   0.065  0.9419 -1.1253 -1.6043
11331SOL     OW44671   1.546   0.898   4.385 -0.6873 -0.4806  0.3780
11331SOL    HW144672   1.612   0.841   4.337 -0.9146  1.0388 -1.7958
11331SOL    HW244673   1.488   0.841   4.443 -0.6004 -2.3996 -1.3778
11332SOL     OW44674   9.985   7.062   3.026  0.1203  0.1008 -0.4227
11332SOL    HW144675  10.058   7.121   2.990  0.1974  0.0904 -0.2849
11332SOL    HW244676  10.002   7.044   3.123  1.4131 -2.1366 -1.0309
11333SOL     OW44677   2.427   4.033   2.814  0.1583 -0.1681  0.0739
11333SOL    HW144678   2.329   4.015   2.821  0.0269  1.0465  1.5912
11333SOL    HW244679   2.454   4.036   2.717 -1.2794 -0.5774 -0.3439
11334SOL     OW44680   9.104   7.625   1.819 -0.0906  0.4566 -0.1859
11334SOL    HW144681   9.087   7.594   1.726 -2.0448  2.7534 -0.6360
11334SOL    HW244682   9.181   7.688   1.820  0.4176 -0.1524 -0.0957
11335SOL     OW44683   1.672   8.513   4.540 -0.2304 -0.0222  0.6272
11335SOL    HW144684   1.662   8.612   4.542  0.2647  0.0659 -1.0649
11335SOL    HW244685   1.719   8.485   4.456 -0.8865 -1.7289  0.8062
11336SOL     OW44686   1.514   3.583   0.792  0.4883 -0.1283  0.3792
11336SOL    HW144687   1.583   3.575   0.863  0.8446 -0.5738 -0.0084
11336SOL    HW244688   1.443   3.646   0.821  1.1006  0.3996  0.7511
11337SOL     OW44689   0.848   9.587   1.066  0.3370  0.0347 -0.4681
11337SOL    HW144690   0.864   9.542   1.154  0.3371  1.1099  0.1013
11337SOL    HW244691   0.782   9.535   1.013  2.6212 -2.2983 -1.1400
11338SOL     OW44692   5.253   8.723   1.363  0.3741 -0.1256 -0.4855
11338SOL    HW144693   5.174   8.774   1.399  0.9703  0.0771  0.5479
11338SOL    HW244694   5.247   8.719   1.263 -0.6191  0.4365 -0.4548
11339SOL     OW44695   8.224   7.236   1.060 -0.1076 -0.3212  0.3742
11339SOL    HW144696   8.316   7.261   1.029  0.2961  0.4917  2.1377
11339SOL    HW244697   8.163   7.230   0.982  1.3142 -0.2828 -0.7610
11340SOL     OW44698   6.789   6.667   3.003 -0.1226  0.2044  0.0072
11340SOL    HW144699   6.818   6.664   3.098  0.3595  1.0874 -0.1082
11340SOL    HW244700   6.862   6.704   2.946  0.0920 -1.5752 -0.9153
11341SOL     OW44701   2.214   2.423   2.544 -1.0462  0.6531  0.4316
11341SOL    HW144702   2.139   2.421   2.478 -2.0901  0.5546  1.5996
11341SOL    HW244703   2.239   2.517   2.563 -0.5752  0.6753 -0.2904
11342SOL     OW44704   4.074   7.630   0.834 -0.3046 -0.0064 -0.4408
11342SOL    HW144705   4.159   7.666   0.797 -0.9962 -0.0024 -2.0314
11342SOL    HW244706   4.061   7.536   0.804 -0.3421 -0.3738  0.6814
11343SOL     OW44707   8.888   5.300   0.502 -0.2214  0.1823  0.5245
11343SOL    HW144708   8.802   5.349   0.515 -0.0059  0.4747  0.8626
11343SOL    HW244709   8.874   5.203   0.521 -0.4781  0.2284  0.5794
11344SOL     OW44710   9.847   1.474   4.211  0.3677 -0.3682  0.2161
11344SOL    HW144711   9.852   1.572   4.193  2.4054 -0.1648  1.6613
11344SOL    HW244712   9.754   1.448   4.234  0.2887  1.7152  2.3238
11345SOL     OW44713   0.820   9.249   2.946  0.2551  0.1762 -0.7247
11345SOL    HW144714   0.840   9.327   2.887 -2.6556  1.0254 -0.6743
11345SOL    HW244715   0.905   9.216   2.987  2.2181  0.2764 -4.4506
11346SOL     OW44716   3.227   7.065   3.655 -0.2394  0.3514  0.1815
11346SOL    HW144717   3.259   7.124   3.580  2.6427  0.0871  1.1249
11346SOL    HW244718   3.220   7.118   3.739 -0.1590 -0.0865  0.4678
11347SOL     OW44719   8.085   7.946   4.172 -0.3774  0.1871 -0.7025
11347SOL    HW144720   8.153   7.932   4.100 -1.0673 -0.4198 -1.2392
11347SOL    HW244721   7.998   7.974   4.131 -0.8748 -0.5155 -0.1364
11348SOL     OW44722   6.685   9.990   2.851  0.2709 -0.2950  0.1982
11348SOL    HW144723   6.721   9.946   2.933 -1.0220 -1.5949  0.1028
11348SOL    HW244724   6.756  10.045   2.807  0.8686  0.6955  2.3822
11349SOL     OW44725   8.035   1.299   2.754  0.2043  0.4844  0.1692
11349SOL    HW144726   8.026   1.215   2.806 -1.1378  0.2135 -0.4770
11349SOL    HW244727   7.944   1.330   2.724  0.8627  1.0668 -1.2988
11350SOL     OW44728   8.012   6.467   2.593  0.0876 -0.0977 -0.6913
11350SOL    HW144729   8.059   6.379   2.596 -0.4206 -0.3298  0.5675
11350SOL    HW244730   7.976   6.489   2.684  1.8608  2.2948 -0.5229
11351SOL     OW44731   0.321   8.934   3.284  0.0033  0.4988 -0.0922
11351SOL    HW144732   0.418   8.943   3.260 -0.1975 -0.9110 -1.5189
11351SOL    HW244733   0.312   8.882   3.369  0.4365 -0.6942 -0.7759
11352SOL     OW44734   6.547   1.005   2.026 -0.0030 -0.3192  0.3198
11352SOL    HW144735   6.535   0.906   2.028  0.1227 -0.3195  1.8035
11352SOL    HW244736   6.637   1.028   1.989 -0.1151 -0.7474 -0.2185
11353SOL     OW44737   5.299   2.034   1.222  0.5282  0.2730 -0.2578
11353SOL    HW144738   5.216   2.017   1.275  0.8694  0.8631  0.4851
11353SOL    HW244739   5.306   1.968   1.148 -1.1020  0.8086 -0.9158
11354SOL     OW44740   6.303   6.954   1.968  0.5856  0.2558  0.3134
11354SOL    HW144741   6.370   6.887   2.000 -0.5071  0.3468  2.9131
11354SOL    HW244742   6.224   6.905   1.928 -0.1045 -0.0168  1.9905
11355SOL     OW44743   9.544   4.308   1.816 -0.2287 -0.8653 -0.4517
11355SOL    HW144744   9.455   4.316   1.772 -0.5148 -1.6223 -0.0293
11355SOL    HW244745   9.582   4.217   1.798  0.6415 -0.3951 -0.9746
11356SOL     OW44746   0.485   9.154   4.033 -0.4892 -0.0420 -0.1311
11356SOL    HW144747   0.577   9.118   4.048 -0.9553 -0.3989  2.0792
11356SOL    HW244748   0.419   9.100   4.085 -1.8022  0.9536 -0.7318
11357SOL     OW44749   1.448   4.459   2.444 -0.8012  0.3278  0.0660
11357SOL    HW144750   1.442   4.510   2.530  0.3354  0.3655  0.1259
11357SOL    HW244751   1.371   4.395   2.438 -0.4045 -0.3229  1.5363
11358SOL     OW44752   9.076   7.866   3.324  0.3590 -0.4062 -0.2970
11358SOL    HW144753   9.076   7.881   3.225  0.0777 -1.5606 -0.4795
11358SOL    HW244754   9.045   7.773   3.343  0.7944 -0.3173  0.8605
11359SOL     OW44755   8.723   5.753   1.631  0.2532 -0.3322 -0.3038
11359SOL    HW144756   8.626   5.763   1.608  0.7316  1.1425 -1.7469
11359SOL    HW244757   8.771   5.708   1.556  1.0619  0.7216 -0.4219
11360SOL     OW44758   9.830   8.132   3.388  0.1420  0.2211 -0.0182
11360SOL    HW144759   9.853   8.119   3.484 -0.9354 -2.4942 -0.0788
11360SOL    HW244760   9.909   8.107   3.332  0.3761  0.6612  0.1123
11361SOL     OW44761   1.937   1.885   3.475  0.5169  0.0909 -0.2325
11361SOL    HW144762   1.873   1.844   3.411 -0.0606 -0.5939  0.7672
11361SOL    HW244763   1.959   1.819   3.548  1.6647  0.6238 -0.0827
11362SOL     OW44764   0.285   1.841   1.369 -0.7350  0.1710 -0.2526
11362SOL    HW144765   0.240   1.916   1.321 -0.1939  0.6471 -0.0328
11362SOL    HW244766   0.356   1.879   1.430 -3.0642 -0.2150  2.8047
11363SOL     OW44767   2.295   1.072   4.168  0.2378  0.4111  0.2184
11363SOL    HW144768   2.319   1.149   4.109 -0.7417  1.5642  1.3029
11363SOL    HW244769   2.204   1.038   4.144  0.3978  0.0105  0.1716
11364SOL     OW44770   3.398   6.262   3.526 -0.0540 -0.0120  0.1320
11364SOL    HW144771   3.439   6.245   3.437  1.9321  0.0458  1.0128
11364SOL    HW244772   3.399   6.178   3.580  1.7716  0.7187  1.2833
11365SOL     OW44773   2.180   5.296   4.400  0.3248 -0.0088  0.1236
11365SOL    HW144774   2.100   5.238   4.394  1.1917 -1.4819  2.4243
11365SOL    HW244775   2.259   5.242   4.427  2.0411  1.4928 -1.7078
11366SOL     OW44776   2.690   6.544   0.628  0.0314 -0.3710 -0.2850
11366SOL    HW144777   2.620   6.586   0.687 -1.2546 -1.6341 -0.8841
11366SOL    HW244778   2.729   6.465   0.675  1.2125  0.4335  0.1202
11367SOL     OW44779   4.220   3.727   1.273 -0.5524  0.2238  0.2814
11367SOL    HW144780   4.288   3.800   1.261  0.3129 -0.5081  0.7272
11367SOL    HW244781   4.173   3.740   1.360 -0.0116 -0.0644  0.6173
11368SOL     OW44782   7.401   8.224   1.248  0.1905  0.1259 -0.1356
11368SOL    HW144783   7.353   8.165   1.314  1.4400  1.0212  1.5935
11368SOL    HW244784   7.462   8.286   1.296 -0.4471  2.2662 -2.0192
11369SOL     OW44785   4.584   1.580   0.568  0.3651 -0.3335 -0.3836
11369SOL    HW144786   4.485   1.595   0.566  0.0858 -2.1028 -0.6736
11369SOL    HW244787   4.620   1.606   0.657 -0.4691 -0.2648 -0.0628
11370SOL     OW44788   0.952   5.187   2.988  0.1044 -0.4333 -0.6578
11370SOL    HW144789   0.999   5.189   3.077  1.1918 -0.5245 -1.2260
11370SOL    HW244790   0.859   5.154   3.001 -0.8141  2.5580  0.9283
11371SOL     OW44791   2.769   3.758   1.344 -0.0685 -0.2914  0.4604
11371SOL    HW144792   2.688   3.803   1.381  0.8629  0.8619  1.1667
11371SOL    HW244793   2.754   3.659   1.340 -2.1653  0.0585 -1.1483
11372SOL     OW44794   9.271   1.514   1.340  0.3144  0.6576 -0.1336
11372SOL    HW144795   9.323   1.583   1.390 -1.8441  1.8992  0.4809
11372SOL    HW244796   9.206   1.471   1.402  1.0321 -1.3242 -0.7315
11373SOL     OW44797   1.014   0.573   1.157 -0.0419  0.1419  0.3353
11373SOL    HW144798   1.057   0.500   1.210  0.8587 -0.7206 -1.5257
11373SOL    HW244799   0.915   0.556   1.152  0.1277 -0.8348  0.1182
11374SOL     OW44800   8.308   5.726   4.225 -0.1424  0.5305  0.0526
11374SOL    HW144801   8.219   5.736   4.269 -0.8893 -1.4472 -0.9707
11374SOL    HW244802   8.345   5.817   4.206 -2.1135  1.3841  0.1117
11375SOL     OW44803   1.016   1.609   0.811 -0.1967  0.5013  0.5495
11375SOL    HW144804   1.087   1.651   0.867  0.6606  0.5249 -0.5457
11375SOL    HW244805   1.031   1.631   0.715 -0.8075 -0.7687  0.1478
11376SOL     OW44806   3.999   7.496   1.247 -0.0660 -0.5157  0.2774
11376SOL    HW144807   4.037   7.582   1.213  1.3298 -1.7892 -1.4311
11376SOL    HW244808   3.917   7.516   1.302  0.6594  1.9385  0.5307
11377SOL     OW44809   7.758   9.882   4.371  1.0423 -0.3112 -0.2689
11377SOL    HW144810   7.733   9.785   4.361  0.8744 -0.2503 -0.4539
11377SOL    HW244811   7.691   9.938   4.322  0.3384 -0.0171  1.0143
11378SOL     OW44812   2.437   4.707   2.341 -0.1916  0.1232 -0.6297
11378SOL    HW144813   2.415   4.614   2.310  0.1129 -0.4123  0.7161
11378SOL    HW244814   2.527   4.706   2.385 -0.5262  0.9019  0.0766
11379SOL     OW44815   9.907   0.629   4.364  0.1522  0.6897 -0.0148
11379SOL    HW144816   9.924   0.700   4.431 -1.0177  1.3018 -0.3581
11379SOL    HW244817   9.818   0.644   4.320  1.0222  0.4901 -1.9175
11380SOL     OW44818   2.304   8.159   1.440  0.2886  0.2510 -0.0600
11380SOL    HW144819   2.280   8.232   1.504  0.0707  0.3660 -0.2723
11380SOL    HW244820   2.234   8.087   1.445 -1.3573  1.6471 -2.3527
11381SOL     OW44821   1.301   2.512   4.702  0.1673  0.2864 -0.4919
11381SOL    HW144822   1.236   2.494   4.776  0.8043  0.3621  0.0912
11381SOL    HW244823   1.295   2.440   4.634 -2.6076  1.7992 -1.9232
11382SOL     OW44824   8.484   5.402   0.360 -0.4457  0.4224 -0.4915
11382SOL    HW144825   8.496   5.482   0.301 -1.6637  1.9569  1.2484
11382SOL    HW244826   8.411   5.345   0.325 -0.6213  0.9043 -0.9140
11383SOL     OW44827   7.676   8.738   3.195  0.1413  0.2615 -0.0103
11383SOL    HW144828   7.696   8.678   3.117  0.6079 -0.4113  0.6234
11383SOL    HW244829   7.719   8.827   3.181  0.7749 -0.0742 -0.2098
11384SOL     OW44830   6.933   8.405   1.194  0.4102 -0.1888 -0.5061
11384SOL    HW144831   6.873   8.417   1.273  0.7808 -0.3188 -0.2072
11384SOL    HW244832   6.915   8.477   1.127 -0.9194 -0.9139 -0.9455
11385SOL     OW44833   0.782   0.526   3.870 -0.2678  0.1235 -0.1085
11385SOL    HW144834   0.741   0.617   3.864  0.4518  0.4719  0.1434
11385SOL    HW244835   0.880   0.535   3.891 -0.1587 -0.7028 -0.2464
11386SOL     OW44836   4.169   7.864   2.043 -0.0043 -0.0930 -0.1965
11386SOL    HW144837   4.082   7.873   2.091  0.3131  0.2579  0.3272
11386SOL    HW244838   4.154   7.827   1.951 -0.7481  0.4417 -0.2870
11387SOL     OW44839   0.587   5.523   2.813  0.1922  0.2505 -0.4692
11387SOL    HW144840   0.516   5.467   2.771  1.4781  0.0517 -2.4599
11387SOL    HW244841   0.562   5.620   2.805  0.4503  0.2137 -1.7435
11388SOL     OW44842   5.546   8.873   2.786  1.0356 -0.5054  0.0876
11388SOL    HW144843   5.468   8.922   2.747  1.1306 -0.8951 -0.6195
11388SOL    HW244844   5.558   8.898   2.882  1.0531  0.8115 -0.2451
11389SOL     OW44845   7.196   9.796   0.345  0.5319 -0.1647 -0.4080
11389SOL    HW144846   7.248   9.785   0.260  0.0101 -1.4292 -0.5797
11389SOL    HW244847   7.106   9.832   0.325  0.7037  0.3297 -0.2988
11390SOL     OW44848   4.904   7.522   4.299 -0.0266  0.2277 -0.9446
11390SOL    HW144849   4.870   7.485   4.386 -0.4806  2.7956  0.0171
11390SOL    HW244850   4.911   7.448   4.232 -1.7315 -1.4290  0.6315
11391SOL     OW44851   3.155   5.397   1.818  0.2976 -0.5456 -0.0939
11391SOL    HW144852   3.115   5.305   1.815 -2.5149  0.6392 -0.1662
11391SOL    HW244853   3.144   5.441   1.729  0.0981  0.4957  0.4444
11392SOL     OW44854   8.338   8.968   0.611  0.0722 -0.1110  0.2609
11392SOL    HW144855   8.417   8.919   0.574 -0.7693 -1.6671  0.4666
11392SOL    HW244856   8.298   9.026   0.539  2.3704  2.0097  0.6260
11393SOL     OW44857   8.118   6.119   0.820 -0.5787  0.1642  0.6162
11393SOL    HW144858   8.121   6.019   0.810 -0.0078  0.1475  0.9307
11393SOL    HW244859   8.115   6.160   0.729 -2.2361 -0.1672  0.4943
11394SOL     OW44860   3.347   1.796   2.650  0.1949  0.0318 -0.4193
11394SOL    HW144861   3.331   1.699   2.636  0.8683 -0.0003 -1.0295
11394SOL    HW244862   3.269   1.837   2.696 -0.6541 -0.5373 -1.3363
11395SOL     OW44863   0.075   3.896   4.483 -0.0699  0.2729  0.0572
11395SOL    HW144864   0.158   3.863   4.439  0.1702  2.2248 -1.0101
11395SOL    HW244865  -0.003   3.840   4.454  0.6962 -0.8710  0.2035
11396SOL     OW44866   2.029   5.845   3.026  0.4084  0.1790  0.2958
11396SOL    HW144867   1.931   5.868   3.024  0.6932  1.3656 -0.4590
11396SOL    HW244868   2.075   5.900   3.095  0.8219  0.8176 -0.4740
11397SOL     OW44869   8.833   4.639   2.182 -0.2768  0.3644 -0.1809
11397SOL    HW144870   8.841   4.623   2.280 -1.9406 -0.7421 -0.2089
11397SOL    HW244871   8.746   4.684   2.162 -0.0286  0.4226 -1.1710
11398SOL     OW44872   1.012   9.222   4.066 -0.0161 -0.5122  0.0623
11398SOL    HW144873   1.056   9.135   4.045  2.0769  0.5838 -0.1686
11398SOL    HW244874   1.062   9.269   4.139 -0.5737  0.9122 -0.4367
11399SOL     OW44875   6.049   7.957   3.263  0.0468 -0.4360 -0.1450
11399SOL    HW144876   6.123   7.897   3.294  1.0077  0.3983 -0.7987
11399SOL    HW244877   5.980   7.902   3.215 -0.5940 -1.4709  1.9067
11400SOL     OW44878   3.393   5.587   3.239 -0.2535 -0.1840 -0.2942
11400SOL    HW144879   3.352   5.667   3.195 -0.3049 -0.6081 -1.0342
11400SOL    HW244880   3.462   5.616   3.304 -1.3408  0.5205  0.5697
11401SOL     OW44881   1.204   5.309   2.916 -0.5004 -0.1726 -0.4446
11401SOL    HW144882   1.121   5.270   2.956  0.8657 -1.6210  1.0285
11401SOL    HW244883   1.203   5.294   2.817 -0.9467 -2.1568 -0.1534
11402SOL     OW44884   9.410   2.265   1.276 -0.8222  0.0895 -0.4083
11402SOL    HW144885   9.474   2.198   1.240 -2.8753 -0.4365 -3.2516
11402SOL    HW244886   9.345   2.219   1.337  0.4981  0.3492  1.2327
11403SOL     OW44887   6.668   9.461   0.600 -0.7446 -0.1331  0.0464
11403SOL    HW144888   6.743   9.517   0.634 -1.1938  0.6363 -0.2187
11403SOL    HW244889   6.677   9.368   0.636 -0.7898  0.4613  1.6237
11404SOL     OW44890   7.888   6.959   3.798  0.0488 -0.8777  0.4440
11404SOL    HW144891   7.830   6.937   3.719  0.6020  0.1062 -0.2519
11404SOL    HW244892   7.928   7.050   3.785  0.2022 -0.7314  1.8323
11405SOL     OW44893   0.011   3.207   1.109 -0.0912  0.2334 -0.4242
11405SOL    HW144894   0.107   3.208   1.079 -0.8149 -0.6672 -2.9372
11405SOL    HW244895  -0.048   3.198   1.029 -2.2423 -0.5747  1.2190
11406SOL     OW44896   8.750   1.271   0.548 -0.1172  0.3504 -0.1830
11406SOL    HW144897   8.765   1.359   0.594 -2.1432  0.3583  0.5016
11406SOL    HW244898   8.695   1.212   0.606  0.2394 -0.9467 -1.1440
11407SOL     OW44899   4.227   2.663   0.680  0.2049  0.9830  0.1409
11407SOL    HW144900   4.264   2.702   0.596 -0.4400  0.4976 -0.3711
11407SOL    HW244901   4.182   2.576   0.659 -2.0538  2.0217  0.5983
11408SOL     OW44902   8.795   7.437   2.083  0.7918  0.3528  0.3010
11408SOL    HW144903   8.859   7.375   2.038  1.2043  0.3344  0.9066
11408SOL    HW244904   8.701   7.409   2.062  0.9795  0.1233 -0.2401
11409SOL     OW44905   9.316   3.300   0.620  0.2266  0.3451  0.1949
11409SOL    HW144906   9.385   3.322   0.689 -0.0052  0.1394  0.4924
11409SOL    HW244907   9.254   3.231   0.656  1.2970 -1.2596 -0.9507
11410SOL     OW44908   8.817   7.244   2.337  0.3322  0.0720 -0.1637
11410SOL    HW144909   8.806   7.175   2.265  1.1263 -0.6015  0.3521
11410SOL    HW244910   8.794   7.334   2.301 -0.1286 -0.3826 -1.0144
11411SOL     OW44911   2.868   9.772   0.856 -0.4511  0.5669 -0.0924
11411SOL    HW144912   2.917   9.732   0.934 -1.3606 -0.6515 -0.1350
11411SOL    HW244913   2.842   9.700   0.793 -0.1445  1.4957 -1.3077
11412SOL     OW44914   9.922   9.248   3.535  0.2993 -0.1519 -0.7277
11412SOL    HW144915   9.944   9.158   3.497  1.8536  0.6024 -1.7044
11412SOL    HW244916   9.829   9.247   3.572  0.5742 -2.3658 -0.0099
11413SOL     OW44917   9.392   0.480   2.015 -0.1594  0.0424  0.5260
11413SOL    HW144918   9.328   0.555   1.996  0.1233  0.4017  0.9968
11413SOL    HW244919   9.413   0.477   2.112  0.1881 -0.3620  0.4410
11414SOL     OW44920   4.026   7.645   0.291 -0.6820 -0.2211 -0.7122
11414SOL    HW144921   4.115   7.657   0.247 -0.6560 -1.6929 -1.1035
11414SOL    HW244922   4.014   7.715   0.361  1.2582 -0.6454  0.0997
11415SOL     OW44923   1.060   2.128   2.466 -0.0172  0.3791  0.1671
11415SOL    HW144924   0.969   2.126   2.424  0.0067 -0.2384  0.1388
11415SOL    HW244925   1.070   2.050   2.528  0.6370  0.2167 -0.1327
11416SOL     OW44926   0.851   8.000   0.145 -0.1794 -0.1852  0.3529
11416SOL    HW144927   0.767   8.013   0.198 -1.1120  0.8971 -1.3726
11416SOL    HW244928   0.907   8.082   0.150 -0.0152 -0.2806  0.1001
11417SOL     OW44929   7.042   3.136   4.259 -0.0314  0.4695 -0.5594
11417SOL    HW144930   7.142   3.126   4.250 -0.1861 -2.2027  0.1869
11417SOL    HW244931   7.019   3.155   4.354 -0.3473 -0.7557 -0.3876
11418SOL     OW44932   0.995   0.506   3.210 -0.3990  0.5945 -0.4058
11418SOL    HW144933   1.069   0.573   3.209  0.6835 -0.5456  1.1169
11418SOL    HW244934   0.967   0.489   3.304 -0.4564 -1.3021 -0.7449
11419SOL     OW44935   9.907   6.988   1.554  0.0413 -0.4046  0.4517
11419SOL    HW144936   9.821   6.952   1.590 -0.8589  0.7430 -0.5446
11419SOL    HW244937   9.947   7.051   1.621  0.0722 -0.8805  0.8815
11420SOL     OW44938   1.442   7.325   0.295 -0.8145 -0.5803 -0.0651
11420SOL    HW144939   1.380   7.249   0.310 -3.8664  1.5133 -1.4899
11420SOL    HW244940   1.453   7.377   0.381 -1.0629 -0.9353  0.1795
11421SOL     OW44941   2.600   5.536   1.622  0.5568  0.6266 -0.6179
11421SOL    HW144942   2.579   5.466   1.691  0.9651  0.8356 -0.2854
11421SOL    HW244943   2.516   5.585   1.599  0.9441  2.6925  2.0594
11422SOL     OW44944   9.913   5.912   1.324  0.1207  0.5057 -0.0070
11422SOL    HW144945   9.910   5.868   1.234 -0.4663  0.1560  0.1812
11422SOL    HW244946   9.962   5.852   1.388  0.4680  0.7182 -0.0685
11423SOL     OW44947   2.621   5.773   4.204  0.3386  0.9451  0.5481
11423SOL    HW144948   2.701   5.736   4.157 -1.0999  1.2153 -2.1675
11423SOL    HW244949   2.564   5.698   4.237 -0.4555  0.7111 -1.3072
11424SOL     OW44950   2.065   1.896   0.652 -0.2427 -0.1582 -0.4674
11424SOL    HW144951   1.994   1.873   0.585  0.2068  1.2054 -1.4176
11424SOL    HW244952   2.146   1.930   0.605 -0.3476  1.9688  0.8066
11425SOL     OW44953   1.793   3.288   1.884  0.1346  0.2221  0.2734
11425SOL    HW144954   1.748   3.234   1.955  0.8451 -2.0781 -0.9378
11425SOL    HW244955   1.866   3.343   1.924 -0.1919 -0.2105  1.4817
11426SOL     OW44956   3.657   2.690   1.358 -0.0356  0.8231 -0.0866
11426SOL    HW144957   3.651   2.622   1.431  1.4800  0.7171 -0.0472
11426SOL    HW244958   3.748   2.730   1.357 -0.4608  1.7978 -1.0670
11427SOL     OW44959   3.073   5.552   2.033 -0.4231 -0.2918 -0.3200
11427SOL    HW144960   2.983   5.560   1.990 -0.1776  3.4549 -0.2165
11427SOL    HW244961   3.141   5.534   1.963 -0.7416  0.5313 -0.8421
11428SOL     OW44962   0.958   9.968   2.440  0.4445 -0.2809  0.2480
11428SOL    HW144963   0.874  10.020   2.420 -0.9373 -2.2925  0.6214
11428SOL    HW244964   0.981   9.980   2.537  0.0188 -0.5012  0.3799
11429SOL     OW44965   0.052   0.992   3.855 -0.1814  0.2878 -0.2451
11429SOL    HW144966   0.058   1.024   3.949  1.7547 -0.2284 -0.1718
11429SOL    HW244967   0.016   0.899   3.853  0.8367 -0.1289  0.1012
11430SOL     OW44968   8.321   2.214   0.811  0.0899 -0.2817 -0.3152
11430SOL    HW144969   8.357   2.127   0.778  1.7002  0.4756 -0.6079
11430SOL    HW244970   8.245   2.197   0.874  0.2708 -1.8811 -0.5059
11431SOL     OW44971   6.685   0.531   2.117 -0.0619  0.2574 -0.0494
11431SOL    HW144972   6.714   0.598   2.185  0.5596 -0.2430  0.1867
11431SOL    HW244973   6.677   0.441   2.161  2.0748 -0.4252 -1.0218
11432SOL     OW44974   2.664   3.672   2.015 -0.1921 -0.2858 -0.0635
11432SOL    HW144975   2.642   3.764   2.048  0.7629  0.3093 -1.0549
11432SOL    HW244976   2.727   3.627   2.079  0.2222  0.1754 -0.1455
11433SOL     OW44977   4.574   3.473   4.541  0.3322  0.2993 -0.1334
11433SOL    HW144978   4.638   3.416   4.594  0.5216  1.8663  1.3673
11433SOL    HW244979   4.489   3.484   4.593 -0.0918  0.5517 -0.8726
11434SOL     OW44980   9.584   4.071   1.560  0.7382  0.0604 -0.2660
11434SOL    HW144981   9.575   4.163   1.522  0.9578  0.1526 -0.0944
11434SOL    HW244982   9.524   4.062   1.639  1.2916  0.3056  0.1854
11435SOL     OW44983   3.064   7.941   1.379 -0.7639 -0.0028 -0.2663
11435SOL    HW144984   3.083   7.872   1.448  0.4935  0.6261  0.0306
11435SOL    HW244985   3.100   8.029   1.409 -1.5708  0.6010 -1.0367
11436SOL     OW44986   0.762   2.726   2.702 -0.5649  0.4246 -0.6869
11436SOL    HW144987   0.702   2.803   2.720  1.5527  1.7759  0.8611
11436SOL    HW244988   0.710   2.640   2.710 -2.3498  1.5592  0.2151
11437SOL     OW44989   9.894   5.594   1.660 -0.2814  0.0955 -0.3678
11437SOL    HW144990   9.848   5.526   1.602  0.2773 -0.2060 -0.4576
11437SOL    HW244991   9.956   5.648   1.604  0.9447 -0.8001  0.1150
11438SOL     OW44992   2.912   0.291   2.657 -0.0888 -0.0807 -0.1824
11438SOL    HW144993   2.933   0.271   2.753 -1.4797 -0.8850 -0.0305
11438SOL    HW244994   2.970   0.365   2.625 -1.0745  1.6546  1.9231
11439SOL     OW44995   1.493   2.905   4.003 -0.1755  0.1372  0.0210
11439SOL    HW144996   1.537   2.994   4.002  0.5729 -0.2390 -0.7969
11439SOL    HW244997   1.441   2.894   4.088 -1.1707  1.7840 -0.3577
11440SOL     OW44998   0.391   9.993   0.318 -0.4392 -0.2650 -0.2096
11440SOL    HW144999   0.317   9.946   0.365  0.1838  0.6442  1.7474
11440SOL    HW245000   0.356  10.078   0.277 -0.4116  0.3504  1.0275
11441SOL     OW45001   9.143   9.365   0.221  0.0559 -0.1525 -0.0050
11441SOL    HW145002   9.185   9.278   0.196  1.5791  0.2872  0.9159
11441SOL    HW245003   9.178   9.437   0.160 -0.4749 -0.0299 -0.1642
11442SOL     OW45004   8.990   1.955   0.401  0.0088 -0.4447 -0.4781
11442SOL    HW145005   8.992   1.895   0.321  1.1958  0.0850 -0.8601
11442SOL    HW245006   9.064   2.022   0.395 -0.5555  0.2982  0.5358
11443SOL     OW45007   1.078   1.689   2.290 -0.1714 -0.2003  1.0466
11443SOL    HW145008   1.038   1.735   2.210  1.9551  0.3542  0.2557
11443SOL    HW245009   1.078   1.752   2.368  1.5309  0.7227  0.3240
11444SOL     OW45010   0.168   4.494   3.375  0.6822 -0.0632  0.1786
11444SOL    HW145011   0.165   4.552   3.457 -1.1657  0.0911  0.0393
11444SOL    HW245012   0.144   4.549   3.295  1.8124 -0.3703 -0.3653
11445SOL     OW45013   3.453   9.640   0.752  0.0818  0.2528 -0.5185
11445SOL    HW145014   3.433   9.719   0.695 -0.7529 -0.6114 -1.4532
11445SOL    HW245015   3.394   9.641   0.833 -1.5368 -0.5705 -1.6475
11446SOL     OW45016   2.244   4.862   2.457  0.1853  0.4928 -0.1909
11446SOL    HW145017   2.319   4.806   2.421 -0.5817 -0.0356 -0.9802
11446SOL    HW245018   2.275   4.956   2.467  0.7096  0.4510 -1.3052
11447SOL     OW45019   7.424   6.640   2.448  0.3558 -0.3307  0.1916
11447SOL    HW145020   7.492   6.634   2.376  0.3090 -0.2907  0.1440
11447SOL    HW245021   7.461   6.692   2.525 -0.2711  1.2936 -0.5839
11448SOL     OW45022   0.652   0.764   3.829 -0.4462  0.2667 -0.1750
11448SOL    HW145023   0.564   0.786   3.787 -0.2578  2.3374  0.4625
11448SOL    HW245024   0.726   0.791   3.768 -0.2355 -2.1716 -1.0381
11449SOL     OW45025   8.257   0.185   0.315  0.2994 -0.0329 -0.3608
11449SOL    HW145026   8.302   0.143   0.395 -0.9901 -0.8468 -0.0453
11449SOL    HW245027   8.267   0.284   0.320  0.0019 -0.0615  0.9617
11450SOL     OW45028   1.763   8.580   2.744  0.0349  0.0547 -0.1116
11450SOL    HW145029   1.727   8.613   2.657  0.6765 -1.5313 -0.9848
11450SOL    HW245030   1.716   8.495   2.770  1.3159 -0.6245  0.0328
11451SOL     OW45031   3.958   8.149   0.282  0.2133  0.0536 -0.0841
11451SOL    HW145032   3.900   8.226   0.309  1.4750  1.6642 -1.8286
11451SOL    HW245033   3.902   8.073   0.252 -1.0042  1.7434 -2.1942
11452SOL     OW45034   9.655   6.316   4.740  0.3250 -0.5813  0.0020
11452SOL    HW145035   9.746   6.274   4.749  0.4710 -0.3108 -0.1994
11452SOL    HW245036   9.596   6.258   4.684  0.2173 -1.0037  0.5418
11453SOL     OW45037   3.508   3.673   2.312 -0.2389  0.6251  0.0167
11453SOL    HW145038   3.589   3.620   2.289  0.1103  1.3042 -0.3468
11453SOL    HW245039   3.430   3.612   2.324  0.1807  0.0260 -0.2804
11454SOL     OW45040   9.501   7.856   1.180  0.8625 -0.2247  1.2826
11454SOL    HW145041   9.459   7.899   1.100  0.9202 -1.0751  0.7979
11454SOL    HW245042   9.551   7.774   1.152  2.3708  0.4510  1.9244
11455SOL     OW45043   0.090   0.160   4.327  0.0962 -0.1007 -0.1527
11455SOL    HW145044   0.181   0.195   4.301 -0.1005 -2.0953 -4.0148
11455SOL    HW245045   0.020   0.222   4.292 -0.1062  0.3624  1.0444
11456SOL     OW45046   4.303   1.147   0.849  0.5374 -0.2355 -0.3164
11456SOL    HW145047   4.305   1.055   0.808  0.2228 -0.6350  0.5394
11456SOL    HW245048   4.209   1.169   0.877  0.3373  0.9726 -1.8701
11457SOL     OW45049   8.913   0.951   3.148 -0.7620  0.0730 -0.2761
11457SOL    HW145050   8.937   0.856   3.169 -3.2715 -0.5013  0.1641
11457SOL    HW245051   8.937   0.971   3.053  0.0428 -0.9190 -0.2876
11458SOL     OW45052   2.643   9.011   2.667  0.2956 -0.6762 -0.1523
11458SOL    HW145053   2.559   9.060   2.644  1.4476  0.4753 -2.0793
11458SOL    HW245054   2.719   9.076   2.671  1.6388 -2.1158 -1.5765
11459SOL     OW45055   2.608   1.685   4.505 -0.2873  0.3544  0.1740
11459SOL    HW145056   2.526   1.634   4.479 -1.0254  2.2988 -1.4578
11459SOL    HW245057   2.607   1.703   4.603 -0.7796 -1.4074  0.4954
11460SOL     OW45058   1.807   6.629   3.778  0.9193  0.2915  0.0821
11460SOL    HW145059   1.863   6.565   3.830  1.8298  0.2826 -0.8858
11460SOL    HW245060   1.792   6.712   3.831  0.0490 -0.5617  1.1933
11461SOL     OW45061   0.901   2.084   2.247  0.0350  0.2283 -0.1764
11461SOL    HW145062   0.901   1.996   2.198  0.6846 -0.0297  0.2702
11461SOL    HW245063   0.812   2.128   2.237 -0.2564 -0.4234 -0.5167
11462SOL     OW45064   2.763   9.642   1.439 -0.1151 -0.3007  0.4522
11462SOL    HW145065   2.706   9.668   1.517  1.0593  1.6943  0.6881
11462SOL    HW245066   2.756   9.712   1.368  3.3951  0.9338  1.2295
11463SOL     OW45067   4.018   7.509   3.783  0.0255  0.2293 -0.3093
11463SOL    HW145068   4.048   7.559   3.864 -0.8087 -0.0110  0.1493
11463SOL    HW245069   4.026   7.569   3.703  1.5036  0.2453 -0.1739
11464SOL     OW45070   9.983   2.070   2.205 -0.2202  0.1027  0.3561
11464SOL    HW145071  10.040   2.106   2.278 -0.6536  0.7966  0.3595
11464SOL    HW245072  10.003   2.119   2.120  0.1282 -0.5515  0.0575
11465SOL     OW45073   4.109   3.809   4.183 -0.4703  0.2761  0.2108
11465SOL    HW145074   4.207   3.795   4.193 -0.3970 -0.1466 -1.0088
11465SOL    HW245075   4.087   3.821   4.086 -1.7932 -0.9130  0.3519
11466SOL     OW45076   1.092   0.440   0.621 -0.3310  0.2428 -0.2687
11466SOL    HW145077   1.051   0.436   0.712 -0.4756  1.9734 -0.2343
11466SOL    HW245078   1.020   0.440   0.552 -0.2852  0.7539 -0.3141
11467SOL     OW45079   0.112   8.351   0.218 -0.2913 -0.1029  0.0453
11467SOL    HW145080   0.201   8.387   0.248  0.0387  0.8594 -1.9459
11467SOL    HW245081   0.082   8.403   0.138 -1.2635 -2.3289 -1.0576
11468SOL     OW45082   8.678   0.106   2.450 -0.2695 -0.3005  0.3975
11468SOL    HW145083   8.707   0.011   2.450  0.2435 -0.1542  1.2249
11468SOL    HW245084   8.719   0.153   2.529  1.5250  1.2251 -1.3829
11469SOL     OW45085   5.221   0.876   2.891  0.2875  0.5507 -0.3552
11469SOL    HW145086   5.237   0.785   2.852  0.9350  1.4701 -2.2801
11469SOL    HW245087   5.304   0.931   2.882  0.2028  1.0509  1.6489
11470SOL     OW45088   0.352   4.803   0.679  0.4667 -0.3562  0.3458
11470SOL    HW145089   0.291   4.805   0.759 -0.5233 -1.8667 -0.3519
11470SOL    HW245090   0.404   4.717   0.680 -0.8077 -1.1683 -1.5453
11471SOL     OW45091   0.185   3.040   4.407  0.7291  0.5400  0.3506
11471SOL    HW145092   0.260   2.980   4.434 -0.3873 -0.0267  2.2728
11471SOL    HW245093   0.098   2.998   4.431 -0.2194  1.2174 -1.8311
11472SOL     OW45094   3.696   0.966   1.007 -0.1009  0.6750 -0.4930
11472SOL    HW145095   3.730   0.913   1.084  1.1492  1.6802 -0.3342
11472SOL    HW245096   3.690   0.908   0.926  0.5434  0.1102 -0.1393
11473SOL     OW45097   1.990   3.740   2.885  0.3913  0.1176  0.6247
11473SOL    HW145098   2.018   3.690   2.803  1.9394  0.3081  1.0307
11473SOL    HW245099   1.935   3.819   2.858 -0.8360 -0.9534 -0.1077
11474SOL     OW45100   1.666   4.251   0.651 -0.0938 -0.0993  0.0335
11474SOL    HW145101   1.666   4.178   0.584  1.1696  1.4151 -1.6688
11474SOL    HW245102   1.581   4.249   0.704 -0.3749 -2.3181 -0.4706
11475SOL     OW45103   8.534   9.895   2.064  0.2010  0.5125 -0.4527
11475SOL    HW145104   8.559   9.964   1.997  0.8607  1.0152  0.2999
11475SOL    HW245105   8.435   9.895   2.078 -0.0147 -0.0179 -1.8684
11476SOL     OW45106   3.684   5.160   0.885 -0.4577 -0.4759 -0.3002
11476SOL    HW145107   3.604   5.147   0.943  0.5272  0.1341  1.2052
11476SOL    HW245108   3.764   5.117   0.927  0.4976  0.9160 -0.6438
11477SOL     OW45109   8.972   7.522   0.169 -0.4619  0.6335  0.2946
11477SOL    HW145110   9.046   7.480   0.116 -0.0227  0.0062  1.3881
11477SOL    HW245111   8.980   7.621   0.164 -0.0479  0.5773 -0.2876
11478SOL     OW45112   1.123   4.218   0.222  0.3534 -0.6323 -0.0520
11478SOL    HW145113   1.140   4.267   0.307  1.5470 -0.1353 -0.5679
11478SOL    HW245114   1.127   4.282   0.145  0.4424 -1.2751 -0.5855
11479SOL     OW45115   4.963   7.885   2.005 -0.0971 -0.5492  0.0736
11479SOL    HW145116   4.969   7.808   1.941 -1.8516 -1.0946  0.5555
11479SOL    HW245117   4.873   7.928   1.999 -0.0070 -0.0957  1.5964
11480SOL     OW45118   7.869   2.828   4.131  0.3191  0.5805  0.5408
11480SOL    HW145119   7.881   2.920   4.169 -1.0883  1.0336 -0.1073
11480SOL    HW245120   7.942   2.810   4.065  1.1698  0.8480  1.3985
11481SOL     OW45121   0.742   0.240   3.582 -0.1198  0.4975  0.1407
11481SOL    HW145122   0.769   0.221   3.676  2.1856  2.0189 -0.1627
11481SOL    HW245123   0.697   0.329   3.577 -2.0996 -0.4746  0.0851
11482SOL     OW45124   4.657   7.494   0.882 -0.4025 -0.1703  0.0091
11482SOL    HW145125   4.627   7.463   0.972 -0.5212 -1.1219 -0.3423
11482SOL    HW245126   4.744   7.543   0.890 -1.1069  0.9508  0.8015
11483SOL     OW45127   2.505   5.908   2.483 -0.0114 -0.1624  0.2675
11483SOL    HW145128   2.530   5.919   2.579  1.6097 -0.4745 -0.0902
11483SOL    HW245129   2.524   5.814   2.455  0.4433  0.1816 -0.5963
11484SOL     OW45130   9.634   3.942   0.904 -0.1445 -0.3560  0.2397
11484SOL    HW145131   9.583   3.860   0.879 -0.6716 -0.4312  1.5103
11484SOL    HW245132   9.596   3.981   0.989  0.5856  0.7621  0.0735
11485SOL     OW45133   9.886   4.629   1.592 -0.2813 -1.1455 -0.0019
11485SOL    HW145134   9.827   4.552   1.567 -0.1554 -1.0828 -0.4853
11485SOL    HW245135   9.831   4.713   1.594 -0.5480 -1.3295  1.0965
11486SOL     OW45136   8.790   4.528   3.324  0.4074  0.0497 -0.2370
11486SOL    HW145137   8.805   4.624   3.345  1.2855  0.1363 -1.2102
11486SOL    HW245138   8.706   4.497   3.367  0.4421  1.0884  0.5948
11487SOL     OW45139   4.717   7.953   1.187  0.4926  0.0475  0.2630
11487SOL    HW145140   4.810   7.938   1.152  0.5776  1.9256 -0.3598
11487SOL    HW245141   4.722   7.999   1.276  0.1654  2.0884 -0.7267
11488SOL     OW45142   3.589   8.253   2.227  0.3453 -0.2154  0.0732
11488SOL    HW145143   3.635   8.205   2.302 -0.6060  0.2142  0.9414
11488SOL    HW245144   3.639   8.237   2.142  1.6971 -0.3257  0.8767
11489SOL     OW45145   7.998   5.367   2.445 -0.1891  0.2944 -0.4830
11489SOL    HW145146   8.009   5.457   2.488 -0.4162 -0.3653  0.9658
11489SOL    HW245147   8.065   5.303   2.484 -1.3245 -0.6734 -0.1100
11490SOL     OW45148   4.311   8.353   0.679  0.3646 -0.0343 -0.2098
11490SOL    HW145149   4.331   8.408   0.761 -0.7042 -0.6321  0.4639
11490SOL    HW245150   4.218   8.372   0.649 -0.0918 -1.6277  0.1591
11491SOL     OW45151   0.372   8.888   0.028  1.1819  0.1164  0.4881
11491SOL    HW145152   0.419   8.851  -0.052 -1.5160 -0.1881 -1.0267
11491SOL    HW245153   0.400   8.983   0.041 -0.3395  1.0528 -2.5043
11492SOL     OW45154   8.780   0.858   2.812  0.4016 -0.0908 -0.3400
11492SOL    HW145155   8.780   0.768   2.769  0.7253 -0.0362 -0.4612
11492SOL    HW245156   8.875   0.887   2.828  0.3294  0.6670 -1.2365
11493SOL     OW45157   4.410   2.797   4.542 -0.1325 -0.3466  0.3512
11493SOL    HW145158   4.347   2.853   4.596  0.2583 -0.0976  0.5508
11493SOL    HW245159   4.447   2.851   4.466 -1.0696 -0.8444 -0.4710
11494SOL     OW45160   7.347   6.690   3.402 -0.8798 -1.0406 -0.1898
11494SOL    HW145161   7.427   6.694   3.461 -2.1424 -1.0244  1.5637
11494SOL    HW245162   7.334   6.779   3.357  1.5342 -1.8028 -2.5179
11495SOL     OW45163   4.591   8.496   3.694 -0.8121  0.7055 -0.3857
11495SOL    HW145164   4.565   8.584   3.655  1.7978  1.2913 -0.9551
11495SOL    HW245165   4.680   8.505   3.741 -0.1851 -1.7450 -1.0066
11496SOL     OW45166   8.338   0.847   3.160 -0.1734  0.0202 -0.3923
11496SOL    HW145167   8.425   0.871   3.202 -0.1183  0.0643 -0.5287
11496SOL    HW245168   8.279   0.801   3.226 -0.3793  0.7658 -0.0435
11497SOL     OW45169   9.597   9.361   2.382  0.2061 -0.3574  0.2814
11497SOL    HW145170   9.530   9.421   2.425  1.4413  0.8105  0.6116
11497SOL    HW245171   9.651   9.316   2.453  0.8416 -0.0508  0.0012
11498SOL     OW45172   2.309   8.337   4.648  0.3069  0.2463 -0.4720
11498SOL    HW145173   2.366   8.379   4.577  0.3505  1.1301  0.0728
11498SOL    HW245174   2.368   8.299   4.719  0.2427  0.2459 -0.4196
11499SOL     OW45175   1.947   3.837   4.096  0.2392  0.3791  0.1100
11499SOL    HW145176   1.997   3.905   4.043 -2.5984  0.7088 -2.2370
11499SOL    HW245177   1.898   3.883   4.171 -0.3727  0.6951 -0.4848
11500SOL     OW45178   8.316   4.145   4.586 -1.1261 -0.2182 -0.0198
11500SOL    HW145179   8.257   4.220   4.555 -2.8735 -1.1750  0.9068
11500SOL    HW245180   8.319   4.074   4.515 -0.4542  0.1747 -0.3888
11501SOL     OW45181   9.709   7.303   1.985 -0.0753 -0.3416 -1.0324
11501SOL    HW145182   9.659   7.320   2.070  1.3437 -1.2326 -0.0116
11501SOL    HW245183   9.667   7.227   1.935 -0.9907  0.2736 -1.2134
11502SOL     OW45184   4.202   1.335   4.443 -0.2487 -0.4138 -0.4861
11502SOL    HW145185   4.206   1.402   4.370  0.7147  1.4670  1.2475
11502SOL    HW245186   4.164   1.249   4.408  1.2307  0.0840 -3.4250
11503SOL     OW45187   0.807   0.147   4.475 -0.1625  0.4569  0.1290
11503SOL    HW145188   0.725   0.123   4.527 -0.7072  0.0777 -0.8764
11503SOL    HW245189   0.796   0.238   4.436 -0.5142  0.0304 -0.7881
11504SOL     OW45190   1.904   0.306   2.905  0.0758  0.2291  0.6215
11504SOL    HW145191   1.942   0.256   2.982 -0.6707 -0.6626  0.4263
11504SOL    HW245192   1.804   0.299   2.907  0.0702 -0.1083 -0.6300
11505SOL     OW45193   3.450   5.041   1.775  0.2752  0.6454  0.1919
11505SOL    HW145194   3.431   5.129   1.817  1.3783  0.8668  0.2458
11505SOL    HW245195   3.532   5.001   1.816 -0.6679 -0.7930  0.7534
11506SOL     OW45196   9.486   0.633   1.777 -0.6037  0.5274 -0.8113
11506SOL    HW145197   9.458   0.548   1.822  1.1420  0.2956 -0.1172
11506SOL    HW245198   9.408   0.671   1.726 -1.8109 -0.7093  0.0630
11507SOL     OW45199   4.230   7.860   1.362  0.0088 -0.4135  0.6300
11507SOL    HW145200   4.217   7.816   1.274 -1.1840 -1.6610  1.4099
11507SOL    HW245201   4.284   7.800   1.422  0.9888  0.5095  0.6824
11508SOL     OW45202   1.859   2.115   2.649 -0.0236 -0.2606  0.1174
11508SOL    HW145203   1.910   2.175   2.711  0.4949  0.4766 -0.9963
11508SOL    HW245204   1.793   2.060   2.701  1.9267 -1.2639  1.6079
11509SOL     OW45205   1.174   1.195   2.324  0.0823 -0.0014 -0.0708
11509SOL    HW145206   1.090   1.164   2.280  0.5809 -1.0299 -0.3235
11509SOL    HW245207   1.188   1.292   2.306  1.1187 -0.7225 -3.6283
11510SOL     OW45208   8.639   6.427   1.522  0.5026  0.0011  0.4055
11510SOL    HW145209   8.724   6.398   1.565  0.6432 -0.7582 -0.3866
11510SOL    HW245210   8.604   6.354   1.463 -1.0818  0.0012  1.2904
11511SOL     OW45211   3.677   7.271   3.707  0.0437 -0.1873 -0.5097
11511SOL    HW145212   3.759   7.228   3.669  0.5467 -1.1302  1.5605
11511SOL    HW245213   3.643   7.215   3.782 -1.3494  1.2501 -0.0572
11512SOL     OW45214   5.051   7.784   3.021 -0.9825  0.3268 -0.2413
11512SOL    HW145215   4.977   7.758   2.959 -0.1948 -1.4371 -0.4564
11512SOL    HW245216   5.075   7.707   3.079  0.5874  0.9323 -0.0558
11513SOL     OW45217   8.720   4.720   4.732  0.4690  0.3484  0.2115
11513SOL    HW145218   8.734   4.621   4.728  0.2998  0.3538 -0.6226
11513SOL    HW245219   8.653   4.748   4.663  1.2708  1.1688 -0.2541
11514SOL     OW45220   3.530   5.326   2.615 -0.3367  0.3259  0.2428
11514SOL    HW145221   3.461   5.398   2.620  0.1573  0.8270 -0.0887
11514SOL    HW245222   3.616   5.365   2.582  0.1289 -0.2763  0.7473
11515SOL     OW45223   9.641   3.581   4.121  0.4466 -0.0872 -0.5438
11515SOL    HW145224   9.714   3.650   4.125  0.7612 -0.4373 -0.2147
11515SOL    HW245225   9.602   3.569   4.212  1.2713 -1.2766 -0.3391
11516SOL     OW45226   1.353   7.077   2.413 -0.6900 -0.0896 -0.2730
11516SOL    HW145227   1.341   7.128   2.328  0.7286 -0.3872 -0.6558
11516SOL    HW245228   1.263   7.053   2.450 -1.3188  0.2954 -1.5234
11517SOL     OW45229   5.889   8.974   1.497  0.5630 -0.4281  0.4671
11517SOL    HW145230   5.982   8.942   1.478  0.1999 -1.1311 -0.1168
11517SOL    HW245231   5.890   9.074   1.507  0.9507 -0.1478 -2.1705
11518SOL     OW45232   2.503   8.646   1.909  0.4400 -0.3354  0.0472
11518SOL    HW145233   2.433   8.638   1.838 -0.4758  0.9610  0.7692
11518SOL    HW245234   2.593   8.642   1.868 -0.0798 -0.5392 -1.0809
11519SOL     OW45235   9.504   7.481   0.114  0.8767  0.0626  0.2191
11519SOL    HW145236   9.599   7.481   0.147  1.1967  2.0012 -0.6429
11519SOL    HW245237   9.500   7.525   0.025 -1.0045  1.0071  0.7522
11520SOL     OW45238   0.691   0.261   1.806  0.4769  0.2375  1.1915
11520SOL    HW145239   0.644   0.347   1.826 -0.8701 -0.8487  2.8428
11520SOL    HW245240   0.624   0.188   1.794  1.6715 -0.9709  1.7365
11521SOL     OW45241   3.661   7.755   4.385  0.8005 -0.2247  0.5647
11521SOL    HW145242   3.709   7.768   4.472 -0.4737  0.1286  1.2214
11521SOL    HW245243   3.609   7.837   4.363  0.1924 -0.7502  0.0311
11522SOL     OW45244   9.554   3.654   0.331 -0.0860  0.0887 -0.2920
11522SOL    HW145245   9.541   3.580   0.397 -1.1262  0.2583 -0.3056
11522SOL    HW245246   9.505   3.633   0.247  0.6580  0.2057 -0.7652
11523SOL     OW45247   9.534   8.720   0.595 -0.1567  0.2224 -0.0600
11523SOL    HW145248   9.474   8.798   0.578 -0.6726 -0.5260 -1.7694
11523SOL    HW245249   9.553   8.714   0.693 -1.9848  1.1092  0.3819
11524SOL     OW45250   0.795   9.060   4.067  0.3669 -0.5069 -0.5987
11524SOL    HW145251   0.802   9.040   4.165 -0.8699 -0.7498 -0.5454
11524SOL    HW245252   0.866   9.126   4.041  0.0498  0.3653  0.6849
11525SOL     OW45253   5.062   3.310   2.403  0.2936 -0.8967  0.2097
11525SOL    HW145254   5.042   3.370   2.325  0.2482 -1.5390 -0.2767
11525SOL    HW245255   5.000   3.331   2.478  0.2271 -0.3896  0.0187
11526SOL     OW45256   6.446   9.405   1.808 -0.0514 -0.3837 -0.1356
11526SOL    HW145257   6.399   9.493   1.819  0.7050 -0.0271  0.3070
11526SOL    HW245258   6.545   9.419   1.816  0.2864 -0.8184 -3.0751
11527SOL     OW45259   2.164   5.072   1.080  0.2902  0.0540 -0.2926
11527SOL    HW145260   2.105   5.067   1.161  0.6357 -0.3936 -0.0641
11527SOL    HW245261   2.256   5.101   1.107  0.3649  0.0547 -0.5454
11528SOL     OW45262   9.439   8.776   3.781 -0.4369  0.2589  0.3607
11528SOL    HW145263   9.403   8.846   3.843  2.0143  0.2778  1.8255
11528SOL    HW245264   9.389   8.691   3.793 -1.7775  1.0447  0.3850
11529SOL     OW45265   1.941   7.541   1.475  0.0413  0.0465  0.3148
11529SOL    HW145266   2.017   7.605   1.459  1.7410 -1.1837  3.0345
11529SOL    HW245267   1.948   7.465   1.410  0.4450  0.5285 -0.2150
11530SOL     OW45268   3.897   1.751   4.081  0.1467  0.0862  0.0671
11530SOL    HW145269   3.873   1.814   4.155 -0.2996  0.2922 -0.2547
11530SOL    HW245270   3.929   1.664   4.121  0.8312  0.5346  0.5104
11531SOL     OW45271   8.335   9.399   4.071  0.0044 -0.3255  0.3439
11531SOL    HW145272   8.294   9.426   4.158  1.4061  0.3426  0.7965
11531SOL    HW245273   8.398   9.323   4.086 -1.0516 -1.3625 -0.3595
11532SOL     OW45274   4.411   3.904   2.829 -0.4721  0.1281 -0.8231
11532SOL    HW145275   4.346   3.974   2.802 -2.2953 -1.2197 -0.0851
11532SOL    HW245276   4.381   3.815   2.793  0.0189 -0.7900  0.9851
11533SOL     OW45277   3.793   6.447   1.311  0.7528  0.3741 -0.0038
11533SOL    HW145278   3.790   6.440   1.211 -0.7256 -0.1090  0.0693
11533SOL    HW245279   3.781   6.357   1.352 -2.4614  1.0478  0.6534
11534SOL     OW45280   4.592   1.048   0.032 -0.2867 -0.3839 -0.2761
11534SOL    HW145281   4.669   1.054  -0.031 -0.2991  0.0553 -0.2492
11534SOL    HW245282   4.535   0.969   0.007  0.6644 -1.2642  0.2586
11535SOL     OW45283   2.427   6.059   3.009 -0.1690 -0.0214 -0.1175
11535SOL    HW145284   2.408   6.151   2.976 -2.7163 -0.6586 -0.5253
11535SOL    HW245285   2.526   6.044   3.011  0.1692  1.5508 -3.2227
11536SOL     OW45286   5.247   0.408   1.637 -0.7737  0.3272 -0.1866
11536SOL    HW145287   5.317   0.417   1.566 -1.4701  0.4155 -0.8779
11536SOL    HW245288   5.156   0.414   1.594 -1.1996  1.1734  0.8067
11537SOL     OW45289   7.898   9.035   0.964 -0.3124 -0.0379  0.2203
11537SOL    HW145290   7.940   9.083   1.041 -0.0354 -0.2467  0.1984
11537SOL    HW245291   7.942   9.063   0.879 -0.9061  0.5177  0.0920
11538SOL     OW45292   2.185   9.014   0.839 -0.3208  0.2735 -0.3156
11538SOL    HW145293   2.245   8.937   0.821 -0.9206 -0.6188  1.4044
11538SOL    HW245294   2.131   9.035   0.758  1.1870  0.0928 -1.3736
11539SOL     OW45295   0.845   5.792   3.979 -0.4763  0.0355 -0.2153
11539SOL    HW145296   0.849   5.778   4.078 -0.6471  1.5544  0.0125
11539SOL    HW245297   0.908   5.865   3.953 -1.1197  0.2786 -1.1079
11540SOL     OW45298   8.875   8.562   1.890 -0.1620 -0.2141 -0.0043
11540SOL    HW145299   8.846   8.527   1.801  1.0666  0.9834 -0.9129
11540SOL    HW245300   8.974   8.549   1.901  0.0310  1.3588  0.3535
11541SOL     OW45301   8.188   7.193   2.976 -0.4242 -0.0091  0.2252
11541SOL    HW145302   8.243   7.110   2.985  1.4903  1.0695 -1.3193
11541SOL    HW245303   8.201   7.251   3.056  1.2225  0.5306 -0.4087
11542SOL     OW45304   3.491   2.016   3.953 -0.1315  0.4072  0.7569
11542SOL    HW145305   3.563   2.085   3.944  1.2392 -0.7035  2.7421
11542SOL    HW245306   3.486   1.962   3.870  0.7825  1.0135  0.3026
11543SOL     OW45307   0.945   5.826   4.245  0.1216  0.6210 -0.4464
11543SOL    HW145308   1.031   5.877   4.238 -0.0097  1.1543  1.5198
11543SOL    HW245309   0.956   5.752   4.312 -1.2702  1.3823  0.6426
11544SOL     OW45310   3.180   1.835   4.205 -0.2307  0.1450  0.1501
11544SOL    HW145311   3.138   1.847   4.116  2.0762 -0.0963 -1.0173
11544SOL    HW245312   3.177   1.738   4.230  0.4917 -0.0241 -0.3922
11545SOL     OW45313   0.610   4.464   3.183 -0.5084 -0.5371 -0.3224
11545SOL    HW145314   0.704   4.490   3.160 -0.8840 -1.2425 -2.8247
11545SOL    HW245315   0.585   4.502   3.272  1.9137  0.2206  0.0590
11546SOL     OW45316   8.858   8.707   4.565 -0.3185  0.1934 -0.0497
11546SOL    HW145317   8.947   8.726   4.606 -1.3906 -0.2593  2.6063
11546SOL    HW245318   8.819   8.625   4.607 -2.4484  0.9914 -0.4312
11547SOL     OW45319   8.220   7.314   0.288 -0.5127 -0.1569 -0.1595
11547SOL    HW145320   8.267   7.247   0.230  2.2310  0.7441  0.9708
11547SOL    HW245321   8.198   7.395   0.233  1.1706  0.2838 -0.1835
11548SOL     OW45322   8.583   5.629   3.289 -0.3574  0.1893 -0.3872
11548SOL    HW145323   8.563   5.542   3.335 -0.4472  0.2932 -0.2295
11548SOL    HW245324   8.559   5.705   3.350 -5.5427  0.4746 -2.5258
11549SOL     OW45325   8.435   2.283   1.150 -0.5390 -0.4636 -0.1725
11549SOL    HW145326   8.424   2.184   1.147 -1.4637 -0.4346  1.5936
11549SOL    HW245327   8.419   2.322   1.060  1.2693 -2.0554 -1.2144
11550SOL     OW45328   0.670   0.133   2.653 -0.5733  0.0700  0.2910
11550SOL    HW145329   0.715   0.143   2.565  1.8879 -1.5717  1.3236
11550SOL    HW245330   0.732   0.090   2.718 -2.1132  1.8214  3.0315
11551SOL     OW45331   9.985   9.563   0.198  0.5212  0.8247 -0.0515
11551SOL    HW145332   9.942   9.565   0.107  0.4407  4.1002  0.0211
11551SOL    HW245333   9.942   9.491   0.253 -1.1905  0.5032 -1.7550
11552SOL     OW45334   9.182   4.078   0.527  0.0602  0.0907 -0.2225
11552SOL    HW145335   9.249   4.151   0.542 -0.2527  0.2081  0.6317
11552SOL    HW245336   9.207   4.026   0.446  1.2729  0.0367  0.1824
11553SOL     OW45337   9.373   4.294   3.210  0.4803 -0.1403  0.3058
11553SOL    HW145338   9.417   4.373   3.167  1.9365 -0.8521  0.4541
11553SOL    HW245339   9.290   4.271   3.161  0.4591  1.0046 -0.2093
11554SOL     OW45340   2.709   1.460   3.135  0.3408  0.0797 -0.0012
11554SOL    HW145341   2.652   1.528   3.089  0.7388  0.7438  0.4664
11554SOL    HW245342   2.763   1.505   3.206  2.3280 -0.3041 -1.2175
11555SOL     OW45343   9.160   2.665   4.303  0.2192 -0.5399  0.6225
11555SOL    HW145344   9.199   2.757   4.305 -2.1178  0.4988 -0.2928
11555SOL    HW245345   9.150   2.632   4.397  1.9016 -0.2311  0.9226
11556SOL     OW45346   3.706   3.324   3.179 -0.1041  0.0537  0.1611
11556SOL    HW145347   3.665   3.348   3.267 -0.3260  1.2731 -0.2753
11556SOL    HW245348   3.772   3.250   3.193 -0.0296  0.3350  1.3735
11557SOL     OW45349   8.999   4.138   0.207 -0.4316  0.1426  0.1016
11557SOL    HW145350   8.901   4.145   0.226 -0.5311 -0.4808 -0.1653
11557SOL    HW245351   9.040   4.072   0.270 -0.3270 -0.1716 -0.2973
11558SOL     OW45352   8.020   4.902   3.385 -0.2311  0.1187 -0.3039
11558SOL    HW145353   8.001   5.000   3.380 -0.5192  0.0476 -0.6229
11558SOL    HW245354   8.073   4.883   3.467  0.0424  0.5774 -0.3710
11559SOL     OW45355   8.892   9.356   2.053  0.2127  0.3843 -0.5751
11559SOL    HW145356   8.817   9.296   2.081  0.5941  0.4572  0.6100
11559SOL    HW245357   8.950   9.308   1.987 -0.4527  0.0693 -0.9375
11560SOL     OW45358   7.517   2.031   4.359 -0.2876  0.9282  0.5586
11560SOL    HW145359   7.584   2.065   4.292 -0.4415  0.7102  0.2931
11560SOL    HW245360   7.516   2.092   4.438  0.4155  0.7881  0.6783
11561SOL     OW45361   0.255   3.290   3.668  0.1214  0.2039  0.0623
11561SOL    HW145362   0.179   3.344   3.705 -0.9391 -1.8598  0.9726
11561SOL    HW245363   0.334   3.298   3.728  0.1329  1.1199 -0.0645
11562SOL     OW45364   2.851   7.607   2.552  0.6614  0.1166 -0.0350
11562SOL    HW145365   2.925   7.665   2.517 -0.1254  0.5943 -0.9421
11562SOL    HW245366   2.881   7.512   2.554  1.5449  0.3994  0.2818
11563SOL     OW45367   3.174   4.148   2.671 -0.2486  0.7768  0.5859
11563SOL    HW145368   3.173   4.186   2.763  1.3920 -0.0640  0.9587
11563SOL    HW245369   3.210   4.055   2.673 -1.0077  0.4369 -0.7946
11564SOL     OW45370   1.388   2.482   1.314  0.0851  0.1235 -0.0963
11564SOL    HW145371   1.445   2.402   1.298 -0.6184 -0.2731 -0.6550
11564SOL    HW245372   1.441   2.551   1.363  1.7201  0.6039 -2.4156
11565SOL     OW45373   4.677   3.419   0.686 -0.2943  0.0685 -0.1872
11565SOL    HW145374   4.774   3.412   0.661 -0.1471 -2.2765  0.9517
11565SOL    HW245375   4.625   3.350   0.637 -1.0708 -0.0126  0.7483
11566SOL     OW45376   9.207   0.223   2.395 -0.1260  0.1850 -0.5731
11566SOL    HW145377   9.128   0.162   2.393 -1.0047  1.3485 -2.3052
11566SOL    HW245378   9.182   0.309   2.440 -0.5882  1.4946 -3.2303
11567SOL     OW45379   8.358   6.316   3.984 -0.7689  0.2677  0.2375
11567SOL    HW145380   8.316   6.266   3.908  1.6479  1.0275 -1.6352
11567SOL    HW245381   8.447   6.275   4.006  0.4909  2.6960 -0.2253
11568SOL     OW45382   2.576   0.984   4.326  0.0281  0.1574  0.4850
11568SOL    HW145383   2.544   1.078   4.326  2.9162  1.1963  0.5330
11568SOL    HW245384   2.500   0.922   4.346 -1.8003  2.4894  0.9016
11569SOL     OW45385   2.424   5.759   2.959  0.2714 -0.0371  0.0003
11569SOL    HW145386   2.349   5.824   2.972  0.1853 -0.1151 -0.1033
11569SOL    HW245387   2.427   5.697   3.037  1.2350  0.9660  0.7778
11570SOL     OW45388   7.732   8.263   1.677  0.2038  0.3184  0.0388
11570SOL    HW145389   7.729   8.298   1.771  2.6190 -2.8388  1.3780
11570SOL    HW245390   7.815   8.295   1.631 -0.6399  1.3114 -0.8125
11571SOL     OW45391   2.687   4.703   3.043 -0.4176 -0.3762  0.2632
11571SOL    HW145392   2.661   4.607   3.033  1.0365 -0.8455  0.7794
11571SOL    HW245393   2.670   4.733   3.136  0.9636 -0.7365  0.6531
11572SOL     OW45394   0.797   9.808   3.873 -0.0523 -0.0161  0.7581
11572SOL    HW145395   0.851   9.885   3.906 -0.9452  0.3848  1.2991
11572SOL    HW245396   0.765   9.754   3.951 -0.3891 -0.2753  0.4452
11573SOL     OW45397   1.463   4.636   0.621  0.4784 -0.0546 -0.2453
11573SOL    HW145398   1.459   4.734   0.643  0.6949 -0.2335  0.6135
11573SOL    HW245399   1.556   4.611   0.594 -0.1212  0.4946 -3.0237
11574SOL     OW45400   9.644   9.569   3.687 -0.6783  0.3185  0.3002
11574SOL    HW145401   9.553   9.551   3.725  0.6726  0.8453  4.0171
11574SOL    HW245402   9.671   9.662   3.710  0.5514  0.3589 -1.2857
11575SOL     OW45403   8.439   2.152   3.687  0.2619 -0.7732  0.8072
11575SOL    HW145404   8.460   2.228   3.748  0.2266  1.0050 -1.3427
11575SOL    HW245405   8.340   2.136   3.685  0.0930  0.2929 -0.0510
11576SOL     OW45406   0.495   4.022   2.977 -0.5609  0.2266  0.0868
11576SOL    HW145407   0.475   4.118   2.961 -1.9604  0.1266  1.1319
11576SOL    HW245408   0.459   3.995   3.067  0.7552 -1.0023  0.2619
11577SOL     OW45409   0.038   2.283   0.565 -0.6904  0.4910  0.1952
11577SOL    HW145410   0.126   2.236   0.573 -0.2366  1.4142  0.8267
11577SOL    HW245411   0.046   2.357   0.498 -1.0162  0.5080  0.1763
11578SOL     OW45412   4.095   2.541   3.674 -0.2493 -0.2518  0.4242
11578SOL    HW145413   4.060   2.628   3.639  0.1858 -0.4304 -0.4687
11578SOL    HW245414   4.032   2.467   3.649 -0.7016 -0.1737  1.3243
11579SOL     OW45415   9.111   9.896   0.583 -0.0179  0.2419 -0.1505
11579SOL    HW145416   9.183   9.853   0.637  0.9582  2.8613  0.6942
11579SOL    HW245417   9.022   9.859   0.611  0.8000 -1.4266  0.3142
11580SOL     OW45418   3.595   4.745   2.156 -0.5646 -0.1986 -0.0198
11580SOL    HW145419   3.611   4.796   2.241  1.4375  0.2540 -0.6463
11580SOL    HW245420   3.618   4.649   2.170 -0.4157 -0.1591  0.0004
11581SOL     OW45421   8.158   4.640   4.307 -0.0403 -0.1763  0.1371
11581SOL    HW145422   8.127   4.545   4.307 -1.9328  0.4168  0.6165
11581SOL    HW245423   8.111   4.691   4.235 -0.2301  0.7511  0.8971
11582SOL     OW45424   4.532   6.629   2.390  0.6181 -0.0037  0.4912
11582SOL    HW145425   4.434   6.613   2.372  0.8404 -0.5715 -0.2552
11582SOL    HW245426   4.545   6.724   2.418  0.2918  1.1414 -2.9975
11583SOL     OW45427   4.970   9.304   2.447  0.1940 -0.3198 -0.7532
11583SOL    HW145428   4.906   9.337   2.377 -0.0248  0.1630 -0.3274
11583SOL    HW245429   5.055   9.357   2.442 -0.7122  1.3442  0.9135
11584SOL     OW45430   0.149   4.157   3.546  0.1680  0.1723 -0.4148
11584SOL    HW145431   0.233   4.159   3.600  0.1137  0.5829 -0.3408
11584SOL    HW245432   0.096   4.239   3.566  0.4952  0.6870 -1.6425
11585SOL     OW45433   5.857   1.151   1.843  0.5881  0.7003 -0.8842
11585SOL    HW145434   5.833   1.060   1.811  0.0786  1.3583 -2.4285
11585SOL    HW245435   5.954   1.168   1.823  0.8554  0.2632  0.0020
11586SOL     OW45436   9.038   1.796   3.337  0.1421 -0.5808 -0.0901
11586SOL    HW145437   8.970   1.849   3.388 -0.0995 -0.9906  0.0092
11586SOL    HW245438   9.031   1.699   3.361  1.6933 -0.4546  0.9926
11587SOL     OW45439   6.371   9.569   2.529 -0.3205  0.4020 -0.8042
11587SOL    HW145440   6.471   9.575   2.528 -0.3279  0.5795 -0.2581
11587SOL    HW245441   6.334   9.637   2.466 -0.0712 -0.2078 -1.6278
11588SOL     OW45442   8.303   7.191   0.065  0.1136 -0.2070 -0.3087
11588SOL    HW145443   8.402   7.178   0.061  0.4986  1.9621  1.3154
11588SOL    HW245444   8.274   7.251  -0.009  0.2384  0.2773  0.0273
11589SOL     OW45445   2.948   6.871   3.117  0.5486  0.2556  0.2024
11589SOL    HW145446   2.941   6.815   3.199  1.0177 -0.9595 -0.5788
11589SOL    HW245447   2.997   6.956   3.139 -1.2748  0.9633  1.6767
11590SOL     OW45448   0.827   1.471   0.294  0.1567  0.4416 -0.0634
11590SOL    HW145449   0.760   1.544   0.277  1.0655  1.1844 -0.4994
11590SOL    HW245450   0.806   1.393   0.236  0.4301  1.1732 -1.1698
11591SOL     OW45451   8.363   2.685   0.488  0.4190  0.3758  0.2106
11591SOL    HW145452   8.439   2.625   0.516  0.0272  0.3115  1.1657
11591SOL    HW245453   8.311   2.712   0.569  0.6037  2.0348 -0.2171
11592SOL     OW45454   4.268   8.877   0.095 -0.3003 -0.3800  0.1570
11592SOL    HW145455   4.191   8.825   0.057 -0.9079  0.4951  0.1568
11592SOL    HW245456   4.345   8.816   0.110 -1.1144 -1.3518  0.4972
11593SOL     OW45457   8.018   5.279   2.824 -0.8166 -0.4682 -0.5529
11593SOL    HW145458   7.950   5.269   2.897 -1.7129  0.6342 -1.2356
11593SOL    HW245459   7.993   5.221   2.747 -0.9962 -0.0418 -0.8151
11594SOL     OW45460   9.095   3.646   0.386 -0.0637  0.3958  0.6466
11594SOL    HW145461   9.086   3.559   0.338  1.2392  0.2688  0.6051
11594SOL    HW245462   9.109   3.629   0.484  1.0130  0.5176  0.5226
11595SOL     OW45463   8.570   1.364   2.354  0.0215 -0.4695 -0.4884
11595SOL    HW145464   8.669   1.364   2.369 -0.2295 -0.8192  1.2350
11595SOL    HW245465   8.527   1.296   2.413 -1.3761  0.5239 -0.3471
11596SOL     OW45466   1.305   8.589   4.027 -0.0427 -0.6180 -0.2501
11596SOL    HW145467   1.292   8.634   3.939  0.0238 -3.9510 -2.0480
11596SOL    HW245468   1.379   8.523   4.019 -0.7373 -1.7043  2.0170
11597SOL     OW45469   8.977   8.259   2.517 -0.5334  0.2302 -0.0259
11597SOL    HW145470   9.012   8.321   2.446  1.1419 -1.2329 -0.4957
11597SOL    HW245471   9.051   8.204   2.553 -1.9621 -1.3312  0.5785
11598SOL     OW45472   0.904   6.081   3.351  0.0573  0.5254 -0.7657
11598SOL    HW145473   0.932   6.167   3.308 -0.4624  0.4741 -1.2037
11598SOL    HW245474   0.813   6.091   3.390 -1.7520 -1.0326 -4.3617
11599SOL     OW45475   2.322   5.496   1.527 -0.1474 -0.3302 -0.2159
11599SOL    HW145476   2.317   5.397   1.541 -1.8146 -0.4266 -1.3255
11599SOL    HW245477   2.298   5.543   1.612  0.5348 -0.8773  0.2800
11600SOL     OW45478   3.673   5.538   2.482 -0.3732  0.4913 -0.1247
11600SOL    HW145479   3.731   5.615   2.508 -1.3987 -0.4299  5.6310
11600SOL    HW245480   3.587   5.572   2.446  0.8687  1.9268 -1.8283
11601SOL     OW45481   1.844   8.026   4.411 -0.0428  0.1862 -0.0433
11601SOL    HW145482   1.784   7.975   4.473 -0.7178  1.0520  0.0239
11601SOL    HW245483   1.789   8.086   4.353  0.7781  1.4256  0.4205
11602SOL     OW45484   3.354   0.368   0.844 -0.3708 -0.3136  0.0646
11602SOL    HW145485   3.449   0.356   0.873 -0.1204  0.6637 -0.3101
11602SOL    HW245486   3.297   0.386   0.924  0.0990  1.0850  0.1074
11603SOL     OW45487   1.702   6.327   1.532  0.0899  0.0153 -0.3835
11603SOL    HW145488   1.784   6.357   1.483  1.1665 -1.1543  0.6461
11603SOL    HW245489   1.625   6.320   1.469  0.9564  0.4628 -1.4971
11604SOL     OW45490   2.256   3.839   3.573  0.2246 -0.0086  0.8836
11604SOL    HW145491   2.184   3.770   3.562 -0.2737  0.4332  1.3748
11604SOL    HW245492   2.224   3.911   3.635  0.7467  0.6589  0.3831
11605SOL     OW45493   9.290   5.955   4.276  0.0806 -0.3039 -0.5698
11605SOL    HW145494   9.303   6.054   4.270 -0.8642  0.0256  2.2628
11605SOL    HW245495   9.374   5.913   4.310 -0.4197 -0.1566  0.8609
11606SOL     OW45496   2.195   5.719   2.162 -0.0606  0.3211  0.0036
11606SOL    HW145497   2.194   5.801   2.220 -0.8959 -0.5507  1.2370
11606SOL    HW245498   2.102   5.690   2.143  0.2201  0.0930 -1.0855
11607SOL     OW45499   3.537   6.617   2.044  0.2426 -0.0674 -0.3673
11607SOL    HW145500   3.527   6.557   1.965 -0.0522 -1.1991  0.5060
11607SOL    HW245501   3.539   6.561   2.127  0.4737  1.1094  0.4231
11608SOL     OW45502   8.248   1.554   2.713 -0.4051  0.2588 -0.0023
11608SOL    HW145503   8.309   1.623   2.676 -0.3763  1.7430  2.6472
11608SOL    HW245504   8.295   1.503   2.786 -1.3554 -0.6430  0.0014
11609SOL     OW45505   1.467   4.707   1.305  0.3770 -0.0989 -0.1151
11609SOL    HW145506   1.522   4.747   1.378 -0.6009  1.7427 -0.3736
11609SOL    HW245507   1.388   4.660   1.344 -0.2442  1.0413 -0.0013
11610SOL     OW45508   4.962   4.592   0.894  0.2074 -0.1840 -0.5099
11610SOL    HW145509   5.024   4.522   0.929  1.6773  0.8043 -1.0575
11610SOL    HW245510   4.931   4.565   0.803 -0.2924 -0.7589 -0.1705
11611SOL     OW45511   1.615   2.136   0.970  0.1637 -0.6335 -0.3662
11611SOL    HW145512   1.660   2.093   1.049 -0.4825  0.9586  0.8800
11611SOL    HW245513   1.685   2.161   0.903  0.6727 -2.4727 -0.5652
11612SOL     OW45514   0.796   9.101   0.764  0.6139  0.8115 -0.3681
11612SOL    HW145515   0.825   9.163   0.690 -1.3716  0.0748 -1.8231
11612SOL    HW245516   0.857   9.023   0.768  0.4652  0.6257 -1.5701
11613SOL     OW45517   8.019   0.021   1.015 -0.0618 -0.3636  0.7644
11613SOL    HW145518   8.095   0.053   0.959 -0.0732 -0.6293  0.5999
11613SOL    HW245519   7.976   0.100   1.060 -0.9906  0.0218 -0.7704
11614SOL     OW45520   8.292   0.468   0.608 -0.5045 -0.0043  0.0538
11614SOL    HW145521   8.302   0.464   0.509  0.2865  0.5026  0.1168
11614SOL    HW245522   8.204   0.510   0.631  0.2088  1.7640 -0.4151
11615SOL     OW45523   0.602   5.398   0.306 -0.1091 -0.2804 -0.4324
11615SOL    HW145524   0.604   5.318   0.247  2.3705  0.3839 -1.3141
11615SOL    HW245525   0.561   5.475   0.257 -0.0969 -0.3160 -0.4975
11616SOL     OW45526   0.914   8.060   1.235  0.0390 -0.6475  0.4470
11616SOL    HW145527   0.938   8.103   1.322 -1.2604 -1.7839  1.3907
11616SOL    HW245528   0.941   7.964   1.236 -1.4727 -1.0997  0.2634
11617SOL     OW45529   8.056   7.475   2.094  0.2005  0.0525 -0.3819
11617SOL    HW145530   7.968   7.440   2.128 -0.6978  1.2932 -1.3740
11617SOL    HW245531   8.058   7.575   2.104  1.0116  0.1517 -1.4466
11618SOL     OW45532   1.948   4.293   4.371  0.3995 -0.5481 -0.4745
11618SOL    HW145533   1.937   4.194   4.363  2.9813 -1.0442  1.4149
11618SOL    HW245534   1.947   4.319   4.467 -1.3876  1.4259 -1.0000
11619SOL     OW45535   9.518   9.152   0.681  0.5580 -0.1080 -0.3754
11619SOL    HW145536   9.483   9.194   0.597 -0.9333 -2.4843 -0.9876
11619SOL    HW245537   9.616   9.166   0.687  0.8013 -0.5625 -2.9270
11620SOL     OW45538   2.655   5.188   4.754 -0.3479  0.3925  0.7607
11620SOL    HW145539   2.654   5.192   4.654  0.1341 -2.0084  0.6426
11620SOL    HW245540   2.739   5.143   4.785 -0.7984  0.5427  2.2244
11621SOL     OW45541   7.482   1.057   2.819  0.5481  0.0147  0.1411
11621SOL    HW145542   7.448   1.059   2.913 -2.4998  0.8505 -0.9199
11621SOL    HW245543   7.421   1.001   2.763  1.9167  0.1240 -1.4983
11622SOL     OW45544   4.203   6.783   3.171 -0.1863  0.1384 -0.1128
11622SOL    HW145545   4.266   6.836   3.114 -1.1088  2.1749  0.7076
11622SOL    HW245546   4.247   6.764   3.259 -0.9651  2.2720  0.7752
11623SOL     OW45547   9.993   9.096   1.211 -0.5728 -0.2751 -0.1350
11623SOL    HW145548  10.043   9.135   1.288 -0.9973  2.0395 -0.9948
11623SOL    HW245549  10.049   9.104   1.128 -1.2519 -0.1865 -0.5888
11624SOL     OW45550   0.825   2.502   2.902  0.6025  0.4191  0.3470
11624SOL    HW145551   0.910   2.528   2.857  0.4664  2.2387  1.1125
11624SOL    HW245552   0.758   2.473   2.833  0.7149  2.2728 -0.5593
11625SOL     OW45553   1.379   0.438   3.884 -1.1980 -0.0333 -0.0327
11625SOL    HW145554   1.326   0.379   3.944 -0.7210  0.6793  1.1250
11625SOL    HW245555   1.462   0.390   3.855 -1.2910 -0.2818  0.1115
11626SOL     OW45556   1.519   9.203   3.408  0.4154  0.2101 -0.4216
11626SOL    HW145557   1.546   9.285   3.458  0.5934  0.2355 -0.5596
11626SOL    HW245558   1.419   9.194   3.411  0.2608  1.3437 -1.8413
11627SOL     OW45559   3.723   9.437   1.609 -0.1596  0.0823  0.1805
11627SOL    HW145560   3.776   9.354   1.626  0.6977  0.9138  1.7718
11627SOL    HW245561   3.782   9.505   1.564 -0.7101  0.0142 -0.6557
11628SOL     OW45562   7.680   5.222   2.699  0.3275  0.1453 -0.0940
11628SOL    HW145563   7.704   5.316   2.722  0.3749 -0.2831  1.6784
11628SOL    HW245564   7.589   5.201   2.735  0.7381 -0.8019  0.4083
11629SOL     OW45565   7.602   8.858   2.773 -0.0531  0.5684  0.0371
11629SOL    HW145566   7.530   8.864   2.842 -0.1169  1.8883 -0.1291
11629SOL    HW245567   7.668   8.931   2.787 -1.5499  2.5876 -2.9558
11630SOL     OW45568   4.281   3.828   2.134  0.6330 -0.1205  0.1871
11630SOL    HW145569   4.274   3.864   2.226  2.6439  0.9417 -0.0303
11630SOL    HW245570   4.362   3.768   2.128 -0.3317 -1.3737 -0.5027
11631SOL     OW45571   0.098   4.726   0.059  0.2636 -0.1155 -0.5977
11631SOL    HW145572   0.004   4.694   0.047  0.2728  0.7315 -3.0263
11631SOL    HW245573   0.100   4.826   0.054  1.1685 -0.0638  0.5383
11632SOL     OW45574   1.802   1.683   4.057 -1.0954 -0.1376  0.2478
11632SOL    HW145575   1.749   1.687   3.972 -2.1518 -2.0589  0.7905
11632SOL    HW245576   1.746   1.715   4.133 -0.4911  0.6179  0.3763
11633SOL     OW45577   4.369   8.826   3.882  0.3415 -0.4148 -0.1878
11633SOL    HW145578   4.338   8.797   3.792  0.7736  0.0653 -0.4944
11633SOL    HW245579   4.469   8.834   3.882  0.2010  1.6469 -0.2908
11634SOL     OW45580   2.542   1.125   2.200 -0.4743  0.4245  0.1649
11634SOL    HW145581   2.475   1.051   2.188 -0.0312  0.2903 -1.7132
11634SOL    HW245582   2.502   1.198   2.255 -0.6445 -1.5450  2.7387
11635SOL     OW45583   0.356   6.156   0.284  0.4387 -0.5209 -0.3545
11635SOL    HW145584   0.330   6.207   0.365  0.2687  0.4562 -1.0103
11635SOL    HW245585   0.455   6.163   0.270  0.7052 -2.0604  0.6798
11636SOL     OW45586   3.233   3.837   2.181 -0.5111  0.3132  0.3456
11636SOL    HW145587   3.236   3.815   2.084 -1.5908 -0.6035  0.5069
11636SOL    HW245588   3.251   3.935   2.194 -0.6473  0.4973 -0.7973
11637SOL     OW45589   3.344   3.289   2.350  0.2220 -0.0201 -0.0455
11637SOL    HW145590   3.391   3.327   2.430  1.0098 -0.7587 -0.1556
11637SOL    HW245591   3.302   3.363   2.298  1.1065  0.6334  0.1585
11638SOL     OW45592   4.365   6.946   1.472  0.0950  0.0609  0.0024
11638SOL    HW145593   4.367   6.873   1.540 -0.4674  0.2065  0.1771
11638SOL    HW245594   4.273   6.987   1.470 -0.2868 -0.8325 -1.7717
11639SOL     OW45595   0.819   3.034   2.183  0.0530  0.0924 -0.0891
11639SOL    HW145596   0.721   3.052   2.181 -0.5386 -2.9754 -1.8293
11639SOL    HW245597   0.842   2.974   2.260  0.2021 -0.9080 -0.8945
11640SOL     OW45598   1.280   4.277   1.292  0.2281  0.3237 -0.3213
11640SOL    HW145599   1.292   4.199   1.354  0.1224  0.2299 -0.4192
11640SOL    HW245600   1.317   4.253   1.202 -1.4831 -0.2876 -0.8813
11641SOL     OW45601   0.975   0.422   4.558  0.5132 -0.7175  1.0326
11641SOL    HW145602   0.999   0.514   4.529  0.8607 -1.0883  0.1159
11641SOL    HW245603   1.038   0.356   4.517 -1.1110 -1.5648 -0.1884
11642SOL     OW45604   8.842   0.627   2.687 -0.4162 -0.5578  0.1324
11642SOL    HW145605   8.794   0.547   2.724  0.6193 -1.5822 -0.7016
11642SOL    HW245606   8.883   0.604   2.599 -0.2112  0.9439 -0.1833
11643SOL     OW45607   0.722   4.735   3.784  0.1415  0.6688  0.8486
11643SOL    HW145608   0.668   4.651   3.786  2.8558 -1.1077  1.3961
11643SOL    HW245609   0.697   4.788   3.703 -0.6043 -1.3551 -0.2963
11644SOL     OW45610   4.871   9.737   1.192 -0.6387 -0.9741 -0.8317
11644SOL    HW145611   4.792   9.752   1.251 -0.8513 -0.8416 -1.1491
11644SOL    HW245612   4.885   9.639   1.179  0.8431 -1.0879  1.3676
11645SOL     OW45613   2.975   0.902   3.045  0.7049  0.4052 -0.3244
11645SOL    HW145614   3.047   0.859   3.099  0.8842 -0.2558 -1.0810
11645SOL    HW245615   2.906   0.941   3.107  2.1326  1.7922  0.4069
11646SOL     OW45616   8.537   8.779   1.484  0.2574 -0.1847  0.0048
11646SOL    HW145617   8.627   8.811   1.452 -0.3022  2.5666  1.0105
11646SOL    HW245618   8.546   8.745   1.578  0.8917 -3.3050 -1.1336
11647SOL     OW45619   8.734   2.901   0.910  0.2366  0.6208  0.2248
11647SOL    HW145620   8.707   2.971   0.976 -1.3570 -1.1954  1.5815
11647SOL    HW245621   8.728   2.811   0.953 -0.4064 -0.5810 -2.2621
11648SOL     OW45622   0.997   0.984   4.341 -0.2934  0.1395  0.4357
11648SOL    HW145623   0.988   0.984   4.440 -1.8993 -1.0336  0.3031
11648SOL    HW245624   1.090   1.011   4.316  0.3481 -0.3164  2.2692
11649SOL     OW45625   6.897   0.098   1.571  0.0959  0.7644  0.2064
11649SOL    HW145626   6.924   0.194   1.577  1.6395  0.2904  1.0456
11649SOL    HW245627   6.937   0.057   1.489 -2.5309  1.4331 -1.4604
11650SOL     OW45628   8.167   0.370   4.611 -0.2665 -0.3408 -0.1160
11650SOL    HW145629   8.071   0.342   4.622 -0.0405 -1.3704 -0.6825
11650SOL    HW245630   8.227   0.292   4.629  0.5066  0.4294  0.7649
11651SOL     OW45631   8.967   3.008   3.081  0.5764 -0.1096 -0.1356
11651SOL    HW145632   9.003   3.061   3.158  0.3008  0.2441 -0.2496
11651SOL    HW245633   8.868   3.021   3.074  0.3907 -1.2251  0.2845
11652SOL     OW45634   1.993   9.293   1.072 -0.0750  0.0849 -0.3523
11652SOL    HW145635   1.985   9.388   1.043 -1.1181  0.1807  0.2028
11652SOL    HW245636   2.088   9.264   1.068  0.1471  0.9387 -1.1965
11653SOL     OW45637   1.548   9.373   0.937 -0.0616 -0.4959 -0.1599
11653SOL    HW145638   1.536   9.311   1.015  0.4388 -0.0958  0.2447
11653SOL    HW245639   1.465   9.373   0.881  0.3463 -2.3764 -0.7909
11654SOL     OW45640   3.183   8.512   3.462 -0.0299 -0.0627  0.0361
11654SOL    HW145641   3.169   8.420   3.500 -0.2327  0.4534  1.2198
11654SOL    HW245642   3.095   8.557   3.452  0.2222  0.6622  1.1024
11655SOL     OW45643   8.691   1.383   3.210 -0.7710  0.0860  0.0389
11655SOL    HW145644   8.648   1.442   3.141 -1.5285  1.9584  2.0355
11655SOL    HW245645   8.623   1.357   3.278  0.4930  0.3212  1.4119
11656SOL     OW45646   3.825   1.588   2.558  0.2829  0.4037  0.2751
11656SOL    HW145647   3.904   1.643   2.583 -0.1101  0.9257  0.3745
11656SOL    HW245648   3.828   1.568   2.460  0.3353  0.7487  0.2065
11657SOL     OW45649   1.126   7.245   3.121 -0.4883  0.3438  0.1757
11657SOL    HW145650   1.207   7.249   3.179 -0.4606  1.9155  0.0410
11657SOL    HW245651   1.142   7.181   3.045  0.6227  0.6588  0.1375
11658SOL     OW45652   9.754   3.980   1.859  0.1286 -1.1997  0.1949
11658SOL    HW145653   9.664   3.938   1.875 -0.2480 -1.0798 -1.5001
11658SOL    HW245654   9.769   4.051   1.927 -1.1562 -1.0789  0.3810
11659SOL     OW45655   0.911   2.835   2.361  0.2907 -0.5498 -0.2691
11659SOL    HW145656   0.931   2.823   2.458  0.0090 -0.6731 -0.2238
11659SOL    HW245657   0.940   2.753   2.311  1.9284  0.1707 -0.5308
11660SOL     OW45658   9.985   1.742   1.597  0.1761  0.1629 -0.2909
11660SOL    HW145659   9.957   1.664   1.540  0.9287 -2.0527  2.2688
11660SOL    HW245660  10.085   1.742   1.606  0.1493  1.2065  0.0491
11661SOL     OW45661   8.748   3.629   4.232  0.1296 -1.1259 -0.4176
11661SOL    HW145662   8.738   3.704   4.167 -0.8070 -1.9503 -1.2534
11661SOL    HW245663   8.699   3.651   4.316  2.3609  0.4636  0.4998
11662SOL     OW45664   9.849   8.746   4.268 -0.2257  0.1059 -0.5905
11662SOL    HW145665   9.946   8.724   4.267 -0.3819 -0.6097 -2.0011
11662SOL    HW245666   9.806   8.708   4.350  0.4477 -0.6099 -0.5705
11663SOL     OW45667   1.674   6.804   4.441 -0.0940 -0.2602 -0.7517
11663SOL    HW145668   1.685   6.843   4.533  0.3005 -1.9927 -0.0583
11663SOL    HW245669   1.578   6.811   4.414 -0.1737  0.4697 -0.3115
  10.00000  10.00000   4.75771
