chitosan Film  in water:acetic acid 2%
45669
    1CHTO  H203    1   4.985   6.066   3.880  0.4182  0.5292  0.2546
    1CHTO   O82    2   5.034   6.097   3.805 -0.2458 -0.4892 -0.6101
    1CHTO  C123    3   5.163   6.037   3.813 -0.2393  0.0031 -0.0010
    1CHTO  H227    4   5.181   5.995   3.913  0.9650  3.2213  1.2123
    1CHTO   O77    5   5.148   5.938   3.714  0.2564  0.1653 -0.7284
    1CHTO  C118    6   5.264   5.852   3.701  0.7756 -0.1165 -0.8074
    1CHTO  H222    7   5.277   5.817   3.805 -0.1475  1.8732  0.0056
    1CHTO  C125    8   5.223   5.728   3.603 -0.2463 -0.4302 -0.3425
    1CHTO   O84    9   5.117   5.649   3.661  0.9201 -0.2007 -0.1623
    1CHTO  H205   10   5.153   5.617   3.742 -1.0218  2.5711  1.8864
    1CHTO  C114   11   5.388   5.930   3.649 -1.1266  0.2729 -0.1894
    1CHTO  H218   12   5.368   5.965   3.548  0.3809  0.1297 -0.5487
    1CHTO  C116   13   5.413   6.050   3.753  0.1163 -0.2993  0.1797
    1CHTO  H220   14   5.444   6.001   3.848 -1.2526  1.1400  1.3967
    1CHTO   O79   15   5.525   6.121   3.697 -0.0930 -0.0750  0.2462
    1CHTO  H201   16   5.592   6.060   3.675 -0.1859 -0.2005  0.3134
    1CHTO  C120   17   5.277   6.133   3.773  0.9593  0.1459 -0.5284
    1CHTO  H224   18   5.265   6.175   3.671 -1.1279  2.2114  0.5135
    1CHTO   N21   19   5.298   6.235   3.881 -0.2473 -0.0923 -0.6080
    1CHTO  H211   20   5.206   6.264   3.931  0.9051  0.8585  1.0048
    1CHTO  H212   21   5.384   6.215   3.942  0.3270  1.0913 -1.0069
    1CHTO   O75   22   5.493   5.825   3.639  0.0025 -0.0036 -0.5193
    1CHTO  C112   23   5.600   5.845   3.514  0.7160 -0.5363 -0.4853
    1CHTO  H216   24   5.582   5.949   3.483 -1.0858 -1.2959 -2.0515
    1CHTO   O73   25   5.560   5.749   3.410  0.4928 -0.0545  0.6205
    1CHTO  C113   26   5.631   5.771   3.290 -0.3440  0.3950  0.1670
    1CHTO  H217   27   5.631   5.879   3.264 -0.1471  0.3249 -0.1384
    1CHTO  C124   28   5.559   5.700   3.175 -0.1290  0.4747 -0.2419
    1CHTO   O83   29   5.541   5.559   3.199  0.2680 -0.0408 -0.6665
    1CHTO  H204   30   5.620   5.509   3.191 -0.9904 -2.0975 -0.6286
    1CHTO  C109   31   5.784   5.741   3.310  0.3530  0.1409  0.4946
    1CHTO  H213   32   5.788   5.637   3.346 -1.3461 -0.0974  0.0408
    1CHTO  C110   33   5.841   5.832   3.422 -0.1058 -0.8574 -0.7389
    1CHTO  H214   34   5.838   5.935   3.385  0.7304 -0.8651 -0.8317
    1CHTO   O78   35   5.977   5.801   3.453 -0.1409 -0.2317 -0.5501
    1CHTO  H200   36   6.018   5.760   3.380  1.4287  0.9618 -0.3666
    1CHTO  C111   37   5.758   5.824   3.556 -0.3998 -0.9762 -0.1959
    1CHTO  H215   38   5.764   5.720   3.592 -2.3842 -1.3450 -0.8690
    1CHTO   N19   39   5.784   5.913   3.673  0.7917  0.2448 -0.3524
    1CHTO  H207   40   5.749   5.867   3.764  1.0599 -0.3652 -0.5504
    1CHTO  H208   41   5.892   5.922   3.673  0.7613  0.6325 -0.0800
    1CHTO   O74   42   5.840   5.756   3.178 -0.1530  0.3734 -0.0363
    1CHTO  C115   43   5.894   5.604   3.124  0.0055  0.3446 -0.3050
    1CHTO  H219   44   5.910   5.535   3.207 -1.7709  0.6508  0.3097
    1CHTO   O76   45   5.780   5.526   3.027 -0.5977 -0.2863 -0.2908
    1CHTO  C122   46   5.802   5.545   2.889  0.2981  0.3028  0.6377
    1CHTO  H226   47   5.805   5.651   2.864  0.5024 -0.6750 -3.8529
    1CHTO  C126   48   5.677   5.480   2.814 -0.0856 -0.5047  0.0364
    1CHTO   O85   49   5.695   5.481   2.672  0.5759  0.6162 -0.4476
    1CHTO  H206   50   5.760   5.544   2.649 -1.2058  2.7600  0.2808
    1CHTO  C121   51   5.938   5.492   2.837  0.4773  0.0669 -0.7688
    1CHTO  H225   52   5.928   5.386   2.805  2.1570 -0.6466  0.9937
    1CHTO   O81   53   5.977   5.576   2.729 -0.2007 -0.2691  0.6318
    1CHTO  H202   54   6.014   5.659   2.750  2.1509 -0.7495 -1.4194
    1CHTO  C119   55   6.049   5.501   2.945  0.0747 -0.2385 -0.7110
    1CHTO  H223   56   6.032   5.413   3.008  1.7491  0.4731  0.7843
    1CHTO  C117   57   6.031   5.623   3.047  0.6368 -0.5346 -0.0450
    1CHTO  H221   58   6.014   5.722   3.005  0.8723 -0.5519 -0.1800
    1CHTO   N20   59   6.146   5.638   3.141 -0.5223  0.1788 -0.4047
    1CHTO  H209   60   6.114   5.686   3.232 -0.6444 -1.6362  0.5222
    1CHTO  H210   61   6.230   5.685   3.092 -1.1935 -0.1454 -1.9311
    1CHTO   O80   62   6.187   5.486   2.891  0.5063  0.0218  0.6501
    1CHTO  C103   63   6.250   5.342   2.868 -0.7591 -0.1775 -0.2626
    1CHTO  H190   64   6.262   5.295   2.965 -2.0477 -0.3994 -0.2094
    1CHTO  C101   65   6.176   5.245   2.768  0.4054 -0.2610  0.1285
    1CHTO  H188   66   6.149   5.314   2.688  1.2954  1.8497  1.6049
    1CHTO   O68   67   6.057   5.179   2.815 -0.1672  0.1576 -0.2942
    1CHTO  H168   68   6.005   5.235   2.869  1.4181  0.4773  0.9488
    1CHTO   C99   69   6.280   5.133   2.709  0.3408  0.2693  0.2167
    1CHTO  H186   70   6.305   5.059   2.789  0.7200  1.8912  1.6241
    1CHTO   N17   71   6.226   5.063   2.585  0.0668  0.4242  0.0558
    1CHTO  H174   72   6.291   5.073   2.499 -0.5917  1.0336 -0.3783
    1CHTO  H175   73   6.201   4.961   2.609  3.3951 -0.4477  0.1714
    1CHTO   C97   74   6.416   5.199   2.671  0.3164  0.0343  0.3127
    1CHTO  H184   75   6.403   5.266   2.585  1.4237  0.8940  0.8019
    1CHTO   O64   76   6.463   5.263   2.790 -0.1352 -0.4597 -0.2525
    1CHTO  C104   77   6.394   5.387   2.807 -0.2157 -0.2499  0.0381
    1CHTO  H191   78   6.377   5.441   2.714  1.0494 -0.6750 -0.4391
    1CHTO  C108   79   6.474   5.484   2.899  0.2617  1.0927 -0.3242
    1CHTO   O71   80   6.595   5.512   2.827 -0.4159 -0.0739 -0.6029
    1CHTO  H171   81   6.660   5.521   2.894 -0.7300 -1.0265 -0.1564
    1CHTO   O62   82   6.528   5.107   2.646  0.1567  0.5164  0.2836
    1CHTO   C91   83   6.633   5.148   2.555 -0.5229  0.1271  0.2280
    1CHTO  H178   84   6.619   5.256   2.550 -0.1032  0.2778  2.0955
    1CHTO   C92   85   6.608   5.088   2.410  0.3494 -0.1180  0.1386
    1CHTO  H179   86   6.502   5.098   2.384  0.2062 -1.9664 -0.0045
    1CHTO   O66   87   6.680   5.167   2.320  0.3591  0.0484 -0.2247
    1CHTO  H166   88   6.774   5.159   2.326  0.1475 -1.1597  2.0026
    1CHTO   C93   89   6.661   4.937   2.401  0.5090 -0.5271  0.0737
    1CHTO  H180   90   6.684   4.919   2.295  0.6124 -0.2283  0.0454
    1CHTO   N16   91   6.552   4.844   2.440 -0.0600  0.2658  0.6067
    1CHTO  H172   92   6.485   4.866   2.358 -0.6108 -0.4557  0.8581
    1CHTO  H173   93   6.590   4.743   2.432 -1.3688 -0.1464 -0.6690
    1CHTO   C94   94   6.794   4.920   2.485 -0.0231 -0.1490  0.5828
    1CHTO  H181   95   6.780   4.868   2.580  1.8235  0.3789  1.1672
    1CHTO   O61   96   6.858   5.044   2.523  0.1869  0.0878  0.5063
    1CHTO   C95   97   6.776   5.126   2.614 -0.5496  0.0605 -0.3683
    1CHTO  H182   98   6.757   5.070   2.705  1.8582 -0.8314 -0.3617
    1CHTO  C106   99   6.852   5.251   2.664  0.9281 -0.6145  0.4217
    1CHTO   O69  100   6.970   5.213   2.741  0.3590  0.3934 -0.2592
    1CHTO  H169  101   7.044   5.262   2.711  1.0525 -0.7358 -0.4464
    1CHTO   O63  102   6.893   4.849   2.389  0.2095 -0.3689  0.2550
    1CHTO   C96  103   6.956   4.730   2.436 -0.9922  0.1697  0.8855
    1CHTO  H183  104   6.877   4.665   2.473 -0.6691 -2.0746 -2.1838
    1CHTO   C98  105   7.064   4.760   2.545  0.2673  0.1816  0.5722
    1CHTO  H185  106   7.033   4.838   2.615 -0.6829  0.9270 -0.6545
    1CHTO   O67  107   7.084   4.636   2.622  0.4011 -0.5364 -0.1837
    1CHTO  H167  108   7.094   4.646   2.714 -0.2153  0.8618 -0.2633
    1CHTO  C102  109   7.205   4.800   2.490  0.3632  0.2750  0.3115
    1CHTO  H189  110   7.265   4.810   2.581 -1.0148  2.1188  1.0405
    1CHTO   N18  111   7.213   4.937   2.430  0.2229  0.5495 -0.2716
    1CHTO  H176  112   7.286   4.996   2.482 -0.2481  1.1056 -0.2313
    1CHTO  H177  113   7.255   4.919   2.332  1.6069 -1.1659  0.6142
    1CHTO  C105  114   7.259   4.689   2.393  0.0390  0.0453  0.2435
    1CHTO  H192  115   7.301   4.731   2.301 -0.5249 -0.2246 -0.1475
    1CHTO   O65  116   7.155   4.598   2.339 -0.7045  1.1907 -0.3428
    1CHTO  C100  117   7.029   4.666   2.311 -0.8413  0.2498 -0.1296
    1CHTO  H187  118   7.049   4.746   2.238 -1.4927  0.6141  0.0839
    1CHTO  C107  119   6.927   4.567   2.243  0.1490  0.2866  0.1484
    1CHTO   O70  120   6.993   4.508   2.129 -0.6493 -0.2938 -0.1418
    1CHTO  H170  121   7.070   4.455   2.141 -1.6466 -1.3563  1.6557
    1CHTO   O57  122   7.370   4.632   2.469 -0.4136  0.0356 -0.0650
    1CHTO   C85  123   7.505   4.622   2.420  0.1040 -0.5232 -0.0952
    1CHTO  H157  124   7.510   4.600   2.312  0.4129 -1.8178  0.1759
    1CHTO   C83  125   7.564   4.504   2.506 -0.6237 -0.0323 -0.4205
    1CHTO  H155  126   7.511   4.417   2.466 -0.0462 -0.6024  0.0451
    1CHTO   O56  127   7.514   4.511   2.639 -0.3257 -0.1537  1.0864
    1CHTO  H135  128   7.548   4.589   2.679  0.2805 -1.3399  2.9378
    1CHTO   C81  129   7.713   4.492   2.482  0.1099  0.7205 -0.1179
    1CHTO  H153  130   7.731   4.475   2.376 -1.4408 -0.8602 -0.1392
    1CHTO   N14  131   7.769   4.379   2.563 -0.5118 -0.0568 -0.2266
    1CHTO  H141  132   7.722   4.373   2.659  1.3580 -0.8587  0.6571
    1CHTO  H142  133   7.747   4.287   2.514 -0.8593 -0.5088  0.7777
    1CHTO   C79  134   7.780   4.632   2.524  0.1912 -0.8049  0.5438
    1CHTO  H151  135   7.882   4.629   2.484 -0.0444  1.0053 -0.2218
    1CHTO   O52  136   7.728   4.746   2.460  0.2341 -0.1089 -0.2843
    1CHTO   C86  137   7.585   4.758   2.452 -0.0874  0.5725 -0.2003
    1CHTO  H158  138   7.551   4.802   2.548  0.6920  0.9937 -0.1229
    1CHTO   C90  139   7.551   4.858   2.345  0.7333  0.0621 -0.2322
    1CHTO   O60  140   7.602   4.987   2.373 -0.0057 -0.4100  0.0791
    1CHTO  H138  141   7.575   5.041   2.301  0.0511 -0.5163 -0.0227
    1CHTO   O50  142   7.786   4.663   2.661  0.1966  0.4794 -0.0532
    1CHTO   C73  143   7.834   4.738   2.769  0.2309 -0.6466 -0.8757
    1CHTO  H145  144   7.938   4.721   2.801 -0.1048 -1.2331 -0.1042
    1CHTO   C74  145   7.746   4.712   2.890 -0.4106 -0.4488  0.1595
    1CHTO  H146  146   7.751   4.604   2.906  0.6445 -0.4617 -0.2734
    1CHTO   O54  147   7.811   4.776   3.001 -0.1327  0.7160 -0.7561
    1CHTO  H133  148   7.757   4.773   3.077  1.9210 -3.2480  0.7540
    1CHTO   C75  149   7.594   4.769   2.867 -0.2691 -0.4643 -0.0894
    1CHTO  H147  150   7.559   4.716   2.776 -0.7046  0.2269 -0.3268
    1CHTO   N13  151   7.496   4.738   2.973 -0.2452 -0.2418  0.5374
    1CHTO  H139  152   7.405   4.703   2.926  0.6860 -0.9943 -0.7539
    1CHTO  H140  153   7.523   4.671   3.053 -0.6509  0.2563  1.0968
    1CHTO   C76  154   7.618   4.926   2.821  0.2448  0.0190 -0.6729
    1CHTO  H148  155   7.665   4.982   2.903 -0.1448 -1.6259  0.7053
    1CHTO   O49  156   7.692   4.930   2.695 -0.0246  0.4324 -0.1184
    1CHTO   C77  157   7.830   4.894   2.733 -0.5013 -0.0813  0.0086
    1CHTO  H149  158   7.865   4.942   2.824 -0.0825 -0.1783 -0.1008
    1CHTO   C88  159   7.927   4.921   2.614  0.1124  0.3015  0.1714
    1CHTO   O58  160   8.072   4.877   2.661  0.0376 -0.2772 -0.2468
    1CHTO  H136  161   8.132   4.871   2.589 -0.0472 -1.9199 -0.1882
    1CHTO   O51  162   7.484   4.985   2.776  0.1419 -0.3872  0.4408
    1CHTO   C78  163   7.457   5.151   2.831 -0.1845  0.3125 -0.1732
    1CHTO  H150  164   7.553   5.204   2.814 -0.5141  0.9246 -0.1428
    1CHTO   C80  165   7.423   5.158   2.983 -0.1295  0.5366 -0.1284
    1CHTO  H152  166   7.338   5.092   3.009  0.1541  0.7968  1.5493
    1CHTO   O55  167   7.523   5.094   3.066  0.3738 -0.3385  0.0010
    1CHTO  H134  168   7.610   5.124   3.051  0.6429 -1.4444 -0.7278
    1CHTO   C84  169   7.393   5.306   3.026 -0.2699  0.1556  0.1267
    1CHTO  H156  170   7.478   5.373   3.019  1.1692 -1.4221  1.8984
    1CHTO   N15  171   7.340   5.304   3.165 -0.8134  0.1261 -0.2221
    1CHTO  H143  172   7.239   5.271   3.166 -0.1349 -2.0364  0.0255
    1CHTO  H144  173   7.397   5.242   3.231 -0.9842 -1.3635 -1.4541
    1CHTO   C87  174   7.280   5.366   2.934 -0.0984 -0.0884  0.4634
    1CHTO  H159  175   7.184   5.316   2.943  0.3742 -1.0524  0.2665
    1CHTO   O53  176   7.332   5.353   2.773  0.2996 -0.5351 -0.8488
    1CHTO   C82  177   7.351   5.215   2.742 -0.5698  0.3905 -0.2023
    1CHTO  H154  178   7.255   5.165   2.754 -1.4819  1.7775 -1.4918
    1CHTO   C89  179   7.388   5.211   2.585  0.2576  0.4083  0.3194
    1CHTO   O59  180   7.497   5.302   2.558 -0.4061  0.5299  0.0077
    1CHTO  H137  181   7.479   5.380   2.607  1.0625 -1.3538  3.7835
    1CHTO   O45  182   7.254   5.524   2.947 -0.0436  0.3127  0.4482
    1CHTO   C67  183   7.122   5.574   2.912 -0.2620 -0.0721 -0.1475
    1CHTO  H124  184   7.093   5.537   2.814  0.4063  1.5416 -0.9809
    1CHTO   C65  185   7.011   5.526   3.017  0.4492  0.2398  0.5943
    1CHTO  H122  186   7.033   5.426   3.052  1.3024  0.1674 -0.1538
    1CHTO   O44  187   6.886   5.531   2.949  0.8101  0.0129  0.4666
    1CHTO  H102  188   6.887   5.488   2.865  0.0615  2.3063 -0.7846
    1CHTO   C63  189   7.027   5.613   3.141  0.1443  0.1404 -0.4160
    1CHTO  H120  190   7.132   5.612   3.170 -0.5278  1.7902  2.1921
    1CHTO   N11  191   6.966   5.550   3.267 -0.0549 -0.4816  0.5232
    1CHTO  H108  192   6.900   5.621   3.314 -0.9083 -0.7887 -0.1972
    1CHTO  H109  193   6.916   5.458   3.246  2.0309 -1.6754  0.6192
    1CHTO   C61  194   6.994   5.759   3.111  1.0451  0.3345  0.2595
    1CHTO  H118  195   7.049   5.828   3.176  2.7765  0.0415 -0.8753
    1CHTO   O40  196   7.027   5.799   2.973  0.1656  0.5489  0.0223
    1CHTO   C68  197   7.130   5.735   2.896  0.0037  0.2601 -0.2472
    1CHTO  H125  198   7.232   5.760   2.931  0.2505  0.1660 -0.8973
    1CHTO   C72  199   7.124   5.780   2.750 -0.2623  0.5550  0.5358
    1CHTO   O48  200   7.178   5.684   2.651  0.0367  0.0397 -0.2821
    1CHTO  H105  201   7.229   5.726   2.584  1.8537  0.7169  1.4729
    1CHTO   O38  202   6.851   5.781   3.117 -0.7232  0.1023 -0.3320
    1CHTO   C55  203   6.804   5.910   3.176 -0.2532  0.2346  0.5104
    1CHTO  H112  204   6.889   5.960   3.224 -0.6242  2.1820 -0.8136
    1CHTO   C56  205   6.683   5.891   3.276  0.4513  0.1397 -0.3819
    1CHTO  H113  206   6.601   5.842   3.222  0.1980  1.0627 -0.8410
    1CHTO   O42  207   6.732   5.795   3.381  0.2765 -0.4256 -0.7868
    1CHTO  H100  208   6.724   5.706   3.351  3.4607 -1.3292  0.8270
    1CHTO   C57  209   6.634   6.033   3.330 -0.0019  0.6237 -0.0432
    1CHTO  H114  210   6.717   6.085   3.378  0.4044  0.9356 -1.0742
    1CHTO   N10  211   6.524   6.027   3.427 -0.3838  0.3341  0.5631
    1CHTO  H106  212   6.433   6.034   3.369  0.3400  0.3391 -0.5796
    1CHTO  H107  213   6.519   5.932   3.478  1.4570  0.6207  1.3175
    1CHTO   C58  214   6.605   6.123   3.209 -0.0147 -0.4151  0.3510
    1CHTO  H115  215   6.516   6.081   3.157 -0.1647  0.3359 -0.0161
    1CHTO   O37  216   6.715   6.135   3.116 -0.2624 -0.2087  0.1131
    1CHTO   C59  217   6.748   6.009   3.057  0.7768 -0.7415  0.8498
    1CHTO  H116  218   6.655   5.968   3.017  1.1978  1.2005 -2.3189
    1CHTO   C70  219   6.832   6.042   2.935  0.5007 -0.1354 -0.6992
    1CHTO   O46  220   6.770   6.125   2.837  0.6286 -0.1184 -0.1483
    1CHTO  H103  221   6.792   6.089   2.753 -0.6322 -0.9077 -0.1572
    1CHTO   O39  222   6.558   6.277   3.257 -0.4015 -0.1868  0.0070
    1CHTO   C60  223   6.456   6.332   3.170 -0.3461 -0.0944 -0.9324
    1CHTO  H117  224   6.461   6.283   3.072  0.9635  0.4468 -1.1431
    1CHTO   C62  225   6.319   6.311   3.244 -0.0377  0.2173  0.6731
    1CHTO  H119  226   6.320   6.200   3.256  2.5460  0.2229  0.8815
    1CHTO   O43  227   6.316   6.391   3.369 -0.1595 -0.1339 -0.2474
    1CHTO  H101  228   6.273   6.353   3.444  2.9026 -0.7231  1.2835
    1CHTO   C66  229   6.204   6.345   3.141  0.1363  0.5269  0.0549
    1CHTO  H123  230   6.225   6.289   3.050  1.4831  1.1866 -0.0656
    1CHTO   N12  231   6.068   6.297   3.181  0.4564 -0.2987  0.2817
    1CHTO  H110  232   6.028   6.243   3.097 -0.8794 -0.0793  0.7600
    1CHTO  H111  233   6.069   6.228   3.264  1.8636 -0.3668  0.2201
    1CHTO   C69  234   6.214   6.487   3.099 -0.2867 -0.6784 -0.8780
    1CHTO  H126  235   6.174   6.549   3.182  2.2558 -0.5078  0.2911
    1CHTO   O41  236   6.362   6.541   3.063  0.1364  0.3824  0.3966
    1CHTO   C64  237   6.475   6.477   3.143 -0.5888 -0.2132  0.6003
    1CHTO  H121  238   6.489   6.525   3.242 -1.8974  2.1807 -0.3189
    1CHTO   C71  239   6.608   6.486   3.060 -0.2182 -0.6326 -0.2208
    1CHTO   O47  240   6.598   6.455   2.919  0.2592 -0.4113 -0.1556
    1CHTO  H104  241   6.641   6.375   2.896 -0.8011 -2.0214  3.1308
    1CHTO   O34  242   6.115   6.502   2.975  0.0558  0.1182 -0.5143
    1CHTO   C49  243   6.179   6.524   2.821 -0.2510  0.6014  0.0078
    1CHTO   H91  244   6.251   6.607   2.822  1.4973 -0.8632 -1.4094
    1CHTO   C47  245   6.064   6.562   2.728  0.5151 -0.4385 -0.4879
    1CHTO   H89  246   6.110   6.589   2.631 -0.4088 -1.6814 -1.2989
    1CHTO   O33  247   5.992   6.678   2.778  0.1929  0.1896 -0.1132
    1CHTO   H70  248   6.010   6.755   2.728 -1.5283  0.4121 -0.4223
    1CHTO   C45  249   5.958   6.437   2.713 -0.4880  0.0108 -0.1124
    1CHTO   H87  250   5.936   6.398   2.813  1.5915  0.5274  0.5811
    1CHTO    N8  251   5.828   6.455   2.645 -0.3321 -0.5368 -0.2622
    1CHTO   H75  252   5.831   6.548   2.589 -0.8639 -0.1910  0.2769
    1CHTO   H76  253   5.744   6.451   2.713  0.1669 -0.6551  0.3469
    1CHTO   C43  254   6.038   6.317   2.640  0.1017 -0.2287  0.2145
    1CHTO   H85  255   5.976   6.228   2.627 -1.3389  0.9070 -0.9288
    1CHTO   O29  256   6.154   6.291   2.722  0.1120 -0.3384 -0.0995
    1CHTO   C50  257   6.247   6.399   2.761  0.3922 -0.2772 -0.7652
    1CHTO   H92  258   6.310   6.365   2.843 -1.4116  0.1007  0.8196
    1CHTO   C54  259   6.346   6.418   2.642 -0.3582  0.2742 -0.3391
    1CHTO   O36  260   6.453   6.506   2.677 -0.4369  0.1522  0.2619
    1CHTO   H72  261   6.425   6.595   2.688 -1.8742 -0.6375  3.4273
    1CHTO   O27  262   6.082   6.353   2.506 -0.3201  0.0060  0.1192
    1CHTO   C37  263   6.154   6.328   2.386  0.3619 -1.4394 -0.6950
    1CHTO   H79  264   6.258   6.362   2.394 -0.5909  1.5178 -0.1448
    1CHTO   C38  265   6.161   6.177   2.358 -0.2255 -1.1484 -0.3380
    1CHTO   H80  266   6.057   6.141   2.348 -1.4045  0.6283  4.0712
    1CHTO   O31  267   6.231   6.121   2.468 -0.4195  0.1129 -0.0135
    1CHTO   H68  268   6.322   6.138   2.482 -0.3157 -1.8757  2.0558
    1CHTO   C39  269   6.248   6.158   2.227 -0.4226  0.1464 -0.3230
    1CHTO   H81  270   6.350   6.181   2.258  0.2331 -2.1024 -0.7364
    1CHTO    N7  271   6.256   6.012   2.181 -0.1590 -0.1116  0.3572
    1CHTO   H73  272   6.154   5.981   2.167 -0.5136  1.4191 -0.6117
    1CHTO   H74  273   6.313   5.994   2.092  0.4905  0.4811  0.6479
    1CHTO   C40  274   6.192   6.253   2.114 -0.3745 -0.3886 -0.4859
    1CHTO   H82  275   6.108   6.212   2.059  0.5206 -0.4038 -1.8736
    1CHTO   O26  276   6.171   6.389   2.147 -0.6545 -0.0523 -0.2298
    1CHTO   C41  277   6.091   6.408   2.270 -0.4624  0.7842  0.0650
    1CHTO   H83  278   5.990   6.372   2.243  0.5678  0.5771 -3.8164
    1CHTO   C52  279   6.082   6.560   2.282  0.0580  0.3239 -0.1200
    1CHTO   O35  280   5.969   6.586   2.347  0.0964 -0.4333  0.0075
    1CHTO   H71  281   5.977   6.669   2.390 -1.2545  0.1752 -0.8756
    1CHTO   O28  282   6.291   6.257   2.007  0.4787 -0.5014  0.9493
    1CHTO   C42  283   6.437   6.284   2.003 -0.6015  0.0141 -0.4060
    1CHTO   H84  284   6.481   6.215   2.076  0.0874 -0.1666 -0.9894
    1CHTO   C44  285   6.485   6.424   2.039 -0.1017  1.0072  0.4929
    1CHTO   H86  286   6.435   6.490   1.967 -0.9022  0.8106  0.8615
    1CHTO   O32  287   6.438   6.450   2.179 -0.6956 -0.4327 -0.5615
    1CHTO   H69  288   6.375   6.520   2.179  0.4534  0.6207  0.3001
    1CHTO   C48  289   6.638   6.456   2.021 -0.3780 -0.4440 -0.4339
    1CHTO   H90  290   6.699   6.404   2.094  1.2536  3.3369  1.0165
    1CHTO    N9  291   6.675   6.603   2.046 -0.6997 -0.0823  0.0903
    1CHTO   H77  292   6.778   6.609   2.080 -0.6750 -0.3888  0.0670
    1CHTO   H78  293   6.607   6.658   2.109  1.1470  2.2131  0.1842
    1CHTO   C51  294   6.667   6.411   1.873  0.3464 -1.0072 -0.2892
    1CHTO   H93  295   6.626   6.480   1.800  0.7144  0.5611  0.9372
    1CHTO   O30  296   6.631   6.278   1.847 -0.0658  0.5224  0.0914
    1CHTO   C46  297   6.491   6.242   1.866  0.0704 -0.1317  0.3271
    1CHTO   H88  298   6.423   6.287   1.793 -0.5529  0.0713  1.0231
    1CHTO   C53  299   6.482   6.084   1.842 -0.5647  0.5413  0.6934
    1CHTO   O72  300   6.555   6.038   1.729  0.4491  0.5811  0.3458
    1CHTO  H199  301   6.632   6.000   1.768  0.9381  1.0984 -0.1112
    1CHTO   O22  302   6.812   6.417   1.863  0.1488  0.4701  0.1489
    1CHTO   C31  303   6.881   6.434   1.732 -0.4862  0.1452  0.9554
    1CHTO   H59  304   6.803   6.458   1.657  1.2182  2.3707 -0.1650
    1CHTO   C29  305   6.975   6.558   1.734 -0.2941  0.1637  0.0179
    1CHTO   H57  306   7.044   6.524   1.813 -1.5300 -2.1415  0.1724
    1CHTO   O21  307   6.888   6.666   1.782 -0.0217  0.3247 -0.3337
    1CHTO   H37  308   6.921   6.749   1.756  1.5537  0.0530  0.7473
    1CHTO   C27  309   7.051   6.592   1.601  0.1279  0.2886  0.3496
    1CHTO   H55  310   6.982   6.621   1.521  1.8437  1.3272 -0.7933
    1CHTO    N5  311   7.145   6.706   1.622  0.7217  0.1503 -0.3581
    1CHTO   H43  312   7.198   6.692   1.714 -0.4545  1.0064  0.4686
    1CHTO   H44  313   7.098   6.802   1.633  0.2316 -0.3633  2.2411
    1CHTO   C25  314   7.121   6.462   1.556  0.3271 -0.1758 -0.2218
    1CHTO   H53  315   7.207   6.433   1.619  0.2225 -0.2227 -0.0993
    1CHTO   O17  316   7.024   6.353   1.548  0.4135 -0.3487  0.2470
    1CHTO   C32  317   6.962   6.313   1.676  1.5167  0.2852 -0.1066
    1CHTO   H60  318   7.046   6.284   1.741  0.4534  1.6081  1.9021
    1CHTO   C36  319   6.862   6.204   1.643  0.4638  0.2248 -0.2755
    1CHTO   O25  320   6.746   6.233   1.566 -0.5225  0.2053  0.1457
    1CHTO   H40  321   6.682   6.272   1.621 -1.3751 -1.6571  0.5327
    1CHTO   O15  322   7.176   6.482   1.399  0.6889 -0.1652  0.1113
    1CHTO   C19  323   7.143   6.549   1.282 -0.1601  0.1577  0.2715
    1CHTO   H47  324   7.076   6.633   1.306 -1.3030 -0.0883 -1.9129
    1CHTO   C20  325   7.269   6.622   1.224  0.3077 -0.0165  0.0200
    1CHTO   H48  326   7.349   6.549   1.206  0.6879  0.2932  0.4654
    1CHTO   O19  327   7.312   6.707   1.332  0.2265 -0.1683 -0.3290
    1CHTO   H35  328   7.403   6.725   1.318 -0.2889  1.4147 -1.7890
    1CHTO   C21  329   7.246   6.694   1.079 -0.4986 -0.3231  0.2091
    1CHTO   H49  330   7.193   6.788   1.093 -2.2186 -1.1090 -0.8490
    1CHTO    N4  331   7.365   6.732   1.011 -0.1379 -0.1272  0.2724
    1CHTO   H41  332   7.421   6.796   1.078  0.4499 -0.1719 -0.1697
    1CHTO   H42  333   7.337   6.790   0.925  3.2023  2.1347  0.6215
    1CHTO   C22  334   7.152   6.625   0.982  0.7015 -0.5064 -0.1604
    1CHTO   H50  335   7.205   6.543   0.934  0.6913 -1.9222  2.1429
    1CHTO   O14  336   7.039   6.569   1.057  0.1356 -0.4717  0.9521
    1CHTO   C23  337   7.068   6.472   1.163  0.5555  0.0541  0.0458
    1CHTO   H51  338   7.131   6.391   1.124  0.1426 -0.8283  1.1635
    1CHTO   C34  339   6.943   6.398   1.219  0.5476 -0.0281  0.1693
    1CHTO   O23  340   6.853   6.487   1.264  0.6964  0.1504 -0.0857
    1CHTO   H38  341   6.834   6.484   1.355  0.0445  0.1704 -0.2205
    1CHTO   O16  342   7.088   6.704   0.882  0.4690  0.1187 -0.1318
    1CHTO   C24  343   7.021   6.615   0.763 -0.1084 -0.0261  0.5408
    1CHTO   H52  344   6.999   6.513   0.794  3.5115 -0.9850  0.1227
    1CHTO   C26  345   7.122   6.619   0.649 -0.0996 -0.1134  0.5049
    1CHTO   H54  346   7.155   6.724   0.636  0.0449 -0.0701  1.1691
    1CHTO   O20  347   7.244   6.551   0.679 -0.1671  0.2827  0.1886
    1CHTO   H36  348   7.310   6.612   0.708 -0.3069  0.3963  0.2679
    1CHTO   C30  349   7.060   6.565   0.513 -0.1743 -0.0503 -0.0768
    1CHTO   H58  350   7.047   6.456   0.517 -0.7917 -0.0430 -1.6331
    1CHTO    N6  351   7.148   6.595   0.399 -0.1627 -0.0546  0.3390
    1CHTO   H45  352   7.092   6.582   0.307  1.4644  1.0700 -0.8554
    1CHTO   H46  353   7.183   6.697   0.407 -2.8430  1.0311 -1.1061
    1CHTO   C33  354   6.918   6.614   0.480  0.6931 -0.4191 -0.7179
    1CHTO   H61  355   6.920   6.718   0.444  3.0893 -1.0138 -2.3954
    1CHTO   O18  356   6.837   6.610   0.601  0.0655  0.5270  0.1832
    1CHTO   C28  357   6.888   6.679   0.713 -0.0196 -0.0026  0.1526
    1CHTO   H56  358   6.905   6.782   0.684 -0.2330 -0.2595 -0.9052
    1CHTO   C35  359   6.786   6.677   0.830  0.4742 -0.6724 -0.0241
    1CHTO   O24  360   6.771   6.544   0.880 -0.4601  0.3883  0.2928
    1CHTO   H39  361   6.686   6.522   0.913 -0.0237  0.5292  1.5555
    1CHTO    O9  362   6.859   6.544   0.372 -0.0041  0.1644  0.0470
    1CHTO   C13  363   6.748   6.635   0.284 -0.4752  0.5745 -0.2393
    1CHTO   H26  364   6.807   6.724   0.254 -0.1375  0.7654  0.9543
    1CHTO   C11  365   6.619   6.677   0.372 -0.1812 -0.1671 -0.6503
    1CHTO   H24  366   6.639   6.763   0.438  1.1038  0.9390 -2.4437
    1CHTO    O8  367   6.592   6.564   0.458 -0.3060 -0.0585  0.0687
    1CHTO    H3  368   6.558   6.494   0.405  0.1936 -0.5740  0.4250
    1CHTO    C9  369   6.501   6.708   0.276 -0.0985 -0.0297 -0.0968
    1CHTO   H22  370   6.538   6.790   0.213 -0.0807  0.0163 -0.0264
    1CHTO    N2  371   6.382   6.768   0.333  0.2226  0.1070  0.0036
    1CHTO   H10  372   6.420   6.846   0.397 -0.5561 -1.1253  2.0289
    1CHTO   H11  373   6.323   6.701   0.394 -0.9674  0.9878 -0.1790
    1CHTO    C7  374   6.461   6.586   0.188 -0.4764 -0.1142 -0.1946
    1CHTO   H20  375   6.390   6.616   0.108  0.8763 -1.4440 -1.9320
    1CHTO    O4  376   6.574   6.518   0.133 -0.2260  0.0198  0.1423
    1CHTO   C14  377   6.710   6.569   0.142 -0.9030  0.4838 -0.2762
    1CHTO   H27  378   6.718   6.646   0.062 -0.6343 -1.3370 -2.0437
    1CHTO   C18  379   6.803   6.454   0.098  0.3800 -0.0780 -0.6326
    1CHTO   O13  380   6.933   6.498   0.064  0.3571 -0.0977 -0.2204
    1CHTO    H7  381   6.940   6.536  -0.022  0.9720 -0.1946 -0.2134
    1CHTO    O2  382   6.376   6.481   0.293 -0.4034 -0.2513  0.2330
    1CHTO    C1  383   6.307   6.368   0.232  0.5907 -0.0871  0.2951
    1CHTO   H14  384   6.330   6.364   0.124 -0.0047 -1.3170  0.1957
    1CHTO    C2  385   6.143   6.373   0.253  0.4715  0.5554 -0.1402
    1CHTO   H15  386   6.124   6.371   0.361 -0.4280 -0.5469 -0.3187
    1CHTO    O6  387   6.083   6.488   0.199 -0.1599  0.0811 -0.4034
    1CHTO    H1  388   6.108   6.560   0.254  0.2515 -1.4829  1.4837
    1CHTO    C3  389   6.077   6.237   0.195  0.0499  0.0814 -0.4280
    1CHTO   H16  390   6.102   6.231   0.088  1.3414  0.1351 -0.1377
    1CHTO    N1  391   5.926   6.231   0.212 -0.7000  0.2649 -0.7360
    1CHTO    H8  392   5.886   6.136   0.180 -0.2589 -1.6649  3.9690
    1CHTO    H9  393   5.884   6.313   0.157 -0.2968  1.4065  0.6384
    1CHTO    C4  394   6.146   6.119   0.267  0.4620  0.6909  0.4905
    1CHTO   H17  395   6.127   6.125   0.374 -0.9757  0.6810  0.2442
    1CHTO    O1  396   6.291   6.119   0.242 -0.0199 -0.2193  0.4145
    1CHTO    C5  397   6.361   6.232   0.294  0.0371 -0.3788  0.7105
    1CHTO   H18  398   6.335   6.231   0.400 -1.1830  0.6281  0.4342
    1CHTO   C16  399   6.515   6.200   0.279 -0.2585  0.6990 -0.2771
    1CHTO   O11  400   6.586   6.284   0.364  0.0187 -0.6157  0.3121
    1CHTO    H5  401   6.568   6.374   0.344  0.6923 -1.0775 -2.6099
    1CHTO    O3  402   6.102   5.985   0.225  0.3575 -0.5789 -0.2094
    1CHTO    C6  403   6.104   5.872   0.313  0.1843 -0.0842 -0.0536
    1CHTO   H19  404   6.147   5.900   0.409 -1.5791  3.2087 -0.1359
    1CHTO    C8  405   5.950   5.837   0.332  0.4826 -0.0493  0.3720
    1CHTO   H21  406   5.904   5.827   0.234  1.8744 -0.9563 -0.2134
    1CHTO    O7  407   5.892   5.949   0.402  0.5149 -0.0718  0.9013
    1CHTO    H2  408   5.903   6.030   0.355  1.3295  0.4679  2.0049
    1CHTO   C12  409   5.933   5.703   0.411  0.6160 -0.3572 -0.4440
    1CHTO   H25  410   5.951   5.728   0.518 -1.4094  3.2995 -0.8743
    1CHTO    N3  411   5.796   5.648   0.397 -0.4743 -0.2407  0.2442
    1CHTO   H12  412   5.768   5.640   0.293 -0.5856 -1.0503  0.3309
    1CHTO   H13  413   5.733   5.717   0.451 -0.0209 -1.4801  2.3865
    1CHTO   C15  414   6.039   5.591   0.367  0.1212 -0.3244 -0.1958
    1CHTO   H28  415   6.002   5.551   0.272 -0.4712  0.2500 -0.2110
    1CHTO   O10  416   6.059   5.499   0.456 -0.1969  0.8649 -0.1189
    1CHTO    H4  417   6.042   5.516   0.546 -0.6325  2.1832 -0.4398
    1CHTO    O5  418   6.170   5.637   0.342 -0.2477 -0.1935 -0.0285
    1CHTO   C10  419   6.176   5.751   0.253 -0.2022 -0.2230  0.2499
    1CHTO   H23  420   6.116   5.719   0.167 -1.9462  0.3716  1.2133
    1CHTO   C17  421   6.322   5.767   0.204 -0.2395  0.2126  0.1338
    1CHTO   O12  422   6.339   5.842   0.081 -0.0833 -0.0842  0.0679
    1CHTO    H6  423   6.330   5.933   0.100  0.6039  0.1639 -0.8066
    2CHTO  H203  424   5.789   3.847   5.243  0.0477  2.1060  0.3065
    2CHTO   O82  425   5.700   3.850   5.215  0.2273  0.4163 -0.4795
    2CHTO  C123  426   5.687   3.842   5.071  0.2580 -0.3599 -0.1067
    2CHTO  H227  427   5.742   3.755   5.033  1.2008 -0.1148  0.6666
    2CHTO   O77  428   5.534   3.820   5.041  0.8442 -0.5072 -0.0577
    2CHTO  C118  429   5.492   3.812   4.905 -0.1789  0.1241 -0.7405
    2CHTO  H222  430   5.551   3.742   4.843 -0.2302  2.8965 -4.0375
    2CHTO  C125  431   5.339   3.776   4.892  0.0487 -0.1588 -0.0855
    2CHTO   O84  432   5.287   3.714   5.009  0.2045  0.3257 -0.7236
    2CHTO  H205  433   5.193   3.717   5.014  0.2382  2.7735 -0.5717
    2CHTO  C114  434   5.526   3.953   4.838  0.1925 -0.3772 -0.7661
    2CHTO  H218  435   5.477   4.027   4.901  0.7299  0.0848 -0.8840
    2CHTO  C116  436   5.676   3.975   4.843  0.1710 -0.2808 -0.5896
    2CHTO  H220  437   5.729   3.896   4.786  1.4804  0.4102 -0.3455
    2CHTO   O79  438   5.696   4.105   4.788  0.0991 -0.2877  0.5705
    2CHTO  H201  439   5.727   4.108   4.700  0.0500 -0.3043  0.5534
    2CHTO  C120  440   5.734   3.975   4.995 -0.3356 -0.2669 -0.4797
    2CHTO  H224  441   5.686   4.062   5.045 -0.0833 -0.5289  0.2304
    2CHTO   N21  442   5.881   3.987   4.998  0.0140 -0.5401 -0.5353
    2CHTO  H211  443   5.916   4.033   5.089  0.5371 -2.5654  0.3047
    2CHTO  H212  444   5.928   3.891   4.983 -0.1249 -0.8697  1.0716
    2CHTO   O75  445   5.470   3.963   4.706  0.2385 -0.3522  0.6198
    2CHTO  C112  446   5.410   4.116   4.642 -0.0424 -0.0305  0.1733
    2CHTO  H216  447   5.481   4.194   4.675  0.9433 -1.9273  2.6787
    2CHTO   O73  448   5.283   4.139   4.692  0.1798 -0.4415  0.1710
    2CHTO  C113  449   5.228   4.270   4.657 -0.0524 -0.3369  0.9845
    2CHTO  H217  450   5.296   4.348   4.697 -0.9531  1.0078 -0.0542
    2CHTO  C124  451   5.092   4.296   4.723 -0.9086  0.5164  0.2091
    2CHTO   O83  452   5.090   4.302   4.867 -0.2586 -0.0859 -0.0679
    2CHTO  H204  453   5.005   4.332   4.892 -0.1793  0.7006 -0.7291
    2CHTO  C109  454   5.218   4.289   4.499 -0.0735  0.3253 -0.2537
    2CHTO  H213  455   5.143   4.215   4.467  2.0349 -1.9047 -0.1644
    2CHTO  C110  456   5.352   4.250   4.439  0.0942 -0.1564 -0.1483
    2CHTO  H214  457   5.415   4.334   4.467 -1.4299  0.0353  2.8749
    2CHTO   O78  458   5.338   4.253   4.298  0.1045 -0.1177 -0.1306
    2CHTO  H200  459   5.417   4.296   4.271 -0.0456  1.2429  1.4820
    2CHTO  C111  460   5.403   4.118   4.488  0.0821 -0.4810  0.4106
    2CHTO  H215  461   5.336   4.037   4.456 -0.8181 -0.7206  2.7975
    2CHTO   N19  462   5.539   4.095   4.435  0.2504 -0.2654 -0.2818
    2CHTO  H207  463   5.607   4.063   4.513 -0.3036  1.0575  0.7551
    2CHTO  H208  464   5.534   4.025   4.352  2.0793 -1.7174  0.7893
    2CHTO   O74  465   5.170   4.422   4.459  0.1012 -0.1181  0.1255
    2CHTO  C115  466   5.061   4.420   4.356  0.4874  0.2998  0.3971
    2CHTO  H219  467   5.072   4.341   4.282 -3.6863  0.9407 -1.0339
    2CHTO   O76  468   4.922   4.393   4.421  0.3691  0.1094  0.5514
    2CHTO  C122  469   4.860   4.517   4.468  0.0398  0.0646 -0.0877
    2CHTO  H226  470   4.924   4.559   4.545 -1.6169  0.9763  0.8326
    2CHTO  C126  471   4.728   4.473   4.546  0.2843  0.3559  0.0649
    2CHTO   O85  472   4.635   4.407   4.456 -0.5592 -0.2575 -0.0319
    2CHTO  H206  473   4.597   4.470   4.398  0.5003  1.5251  1.1683
    2CHTO  C121  474   4.823   4.627   4.357 -0.2522  0.8796  0.1858
    2CHTO  H225  475   4.721   4.609   4.316  0.0203 -0.8036  0.2170
    2CHTO   O81  476   4.832   4.766   4.409  0.2475  0.2462  0.1828
    2CHTO  H202  477   4.924   4.783   4.418  0.2635 -0.3932  1.3135
    2CHTO  C119  478   4.922   4.605   4.239  0.6406  1.3814  0.2289
    2CHTO  H223  479   4.882   4.517   4.189 -0.7692  1.7668  0.6343
    2CHTO  C117  480   5.069   4.559   4.287  0.5203 -0.3833 -0.2674
    2CHTO  H221  481   5.115   4.621   4.364 -2.9208  2.0111 -0.0227
    2CHTO   N20  482   5.159   4.566   4.170  0.1058  0.0305  0.5210
    2CHTO  H209  483   5.248   4.621   4.197  0.5811 -0.8953  0.8543
    2CHTO  H210  484   5.170   4.464   4.137  0.1840  0.1159  0.2759
    2CHTO   O80  485   4.901   4.718   4.126  0.3562 -0.2230 -0.3843
    2CHTO  C103  486   4.835   4.697   3.983 -0.2030  0.3566  0.3033
    2CHTO  H190  487   4.898   4.745   3.908 -0.1659 -1.0148 -0.5540
    2CHTO  C101  488   4.806   4.550   3.924 -0.2693 -0.1946  0.5187
    2CHTO  H188  489   4.759   4.482   3.995 -2.7944  1.1405  0.1937
    2CHTO   O68  490   4.943   4.480   3.866 -0.0404  0.4335  0.0217
    2CHTO  H168  491   4.940   4.463   3.774  0.3789  1.6852 -0.2403
    2CHTO   C99  492   4.700   4.568   3.800  0.0897 -0.3511 -0.1830
    2CHTO  H186  493   4.759   4.618   3.721  1.7189 -2.2904 -0.2256
    2CHTO   N17  494   4.654   4.436   3.751  0.1703  0.3754 -0.5086
    2CHTO  H174  495   4.588   4.463   3.671 -2.4571 -1.8309  0.8334
    2CHTO  H175  496   4.599   4.394   3.835  0.8312 -1.2682 -0.8770
    2CHTO   C97  497   4.579   4.664   3.834  0.0672 -0.2656 -0.1025
    2CHTO  H184  498   4.515   4.620   3.912 -4.6814  2.1054 -2.4324
    2CHTO   O64  499   4.634   4.794   3.873 -0.1842 -0.3055  1.1169
    2CHTO  C104  500   4.702   4.791   3.996  0.2281 -0.4613 -1.4076
    2CHTO  H191  501   4.633   4.751   4.070  0.3184  0.6966 -0.6927
    2CHTO  C108  502   4.730   4.936   4.041  0.3248  0.9532 -0.0362
    2CHTO   O71  503   4.617   5.023   4.047  0.1549 -0.0512 -0.3161
    2CHTO  H171  504   4.630   5.092   4.108  0.8378 -0.8271  0.4185
    2CHTO   O62  505   4.482   4.704   3.731 -0.1449  0.2445 -0.2886
    2CHTO   C91  506   4.348   4.750   3.783  0.7816 -0.3092  0.6940
    2CHTO  H178  507   4.349   4.779   3.889  0.5230  0.4221  0.5008
    2CHTO   C92  508   4.244   4.634   3.771 -0.1682 -0.0375 -0.4855
    2CHTO  H179  509   4.287   4.541   3.810 -0.5889 -0.1180 -0.2105
    2CHTO   O66  510   4.128   4.665   3.847 -0.1674  0.0508 -0.1755
    2CHTO  H166  511   4.151   4.690   3.935  0.8434  0.4475 -0.5568
    2CHTO   C93  512   4.193   4.617   3.626  0.9045  0.2589  0.4905
    2CHTO  H180  513   4.097   4.564   3.632  1.4616 -0.8028  0.0818
    2CHTO   N16  514   4.271   4.530   3.538  0.0738 -0.6860  0.0752
    2CHTO  H172  515   4.368   4.568   3.510 -0.5768  0.9660 -0.0560
    2CHTO  H173  516   4.213   4.487   3.457  0.3843 -0.9104 -0.0270
    2CHTO   C94  517   4.173   4.760   3.549 -0.1025  0.0130 -0.5739
    2CHTO  H181  518   4.261   4.787   3.491  0.6095 -3.2282 -1.0615
    2CHTO   O61  519   4.161   4.862   3.651 -0.2639 -0.2664 -0.0059
    2CHTO   C95  520   4.290   4.892   3.711  0.1704  0.4335  0.6961
    2CHTO  H182  521   4.361   4.923   3.634  0.5677 -1.3674  0.3114
    2CHTO  C106  522   4.279   5.010   3.810  0.1012  0.2477 -0.0555
    2CHTO   O69  523   4.214   5.124   3.745  0.5873  0.4717  0.0832
    2CHTO  H169  524   4.175   5.176   3.813 -1.3862 -0.0674 -0.5883
    2CHTO   O63  525   4.047   4.754   3.465 -0.1072  0.2443 -0.1146
    2CHTO   C96  526   3.955   4.889   3.449 -0.3673 -0.1773  0.1690
    2CHTO  H183  527   3.961   4.938   3.547 -0.8709  0.4520 -0.1069
    2CHTO   C98  528   3.808   4.874   3.414  0.5300 -0.5549 -0.4107
    2CHTO  H185  529   3.799   4.816   3.321  1.5147  0.3325 -1.0682
    2CHTO   O67  530   3.758   4.795   3.520 -0.2076  0.2916 -0.7274
    2CHTO  H167  531   3.664   4.796   3.520 -0.2797 -0.1258  2.9135
    2CHTO  C102  532   3.739   5.018   3.395  0.0523  0.0791 -0.8516
    2CHTO  H189  533   3.767   5.076   3.484 -0.3469 -0.8732 -0.0956
    2CHTO   N18  534   3.595   5.030   3.391  0.0641 -0.8562  0.4231
    2CHTO  H176  535   3.548   4.970   3.315  0.2294  0.2347 -0.5487
    2CHTO  H177  536   3.555   5.005   3.489  2.4665 -0.8744  1.4289
    2CHTO  C105  537   3.810   5.079   3.270  0.7749  0.3189  0.4592
    2CHTO  H192  538   3.743   5.060   3.187  0.8562  0.3255  0.3922
    2CHTO   O65  539   3.937   5.026   3.240  0.2888 -0.2498  0.4618
    2CHTO  C100  540   4.028   4.991   3.352  0.6510 -0.0059  0.3347
    2CHTO  H187  541   4.108   4.934   3.302 -0.2355 -0.7264 -0.2707
    2CHTO  C107  542   4.090   5.119   3.421  0.2347  0.2203  0.1415
    2CHTO   O70  543   4.023   5.201   3.501 -0.3327  0.5401  0.3137
    2CHTO  H170  544   4.068   5.237   3.575 -0.9280 -1.4055  1.6486
    2CHTO   O57  545   3.815   5.230   3.298  0.4284  0.3105 -0.4525
    2CHTO   C85  546   3.797   5.325   3.190 -0.4119  0.0103  0.1770
    2CHTO  H157  547   3.709   5.293   3.130 -1.1422  0.3782  1.0328
    2CHTO   C83  548   3.921   5.324   3.098  0.7654 -0.3747  0.0657
    2CHTO  H155  549   3.927   5.225   3.054 -2.9398  0.0507 -1.5202
    2CHTO   O56  550   4.045   5.345   3.169 -0.5013 -0.1708 -0.1915
    2CHTO  H135  551   4.078   5.276   3.223 -0.6321  0.1716  0.3365
    2CHTO   C81  552   3.882   5.423   2.986 -0.5614  0.2291 -0.4967
    2CHTO  H153  553   3.786   5.396   2.944  0.7861 -1.0289 -2.8495
    2CHTO   N14  554   3.972   5.401   2.871 -0.6427  0.2284 -0.1807
    2CHTO  H141  555   3.912   5.399   2.782 -0.7548 -0.7479 -0.0830
    2CHTO  H142  556   4.051   5.473   2.867  2.0013 -2.5699 -0.2554
    2CHTO   C79  557   3.874   5.566   3.043  0.1811 -0.0729 -0.7048
    2CHTO  H151  558   3.845   5.628   2.958 -2.4368 -0.7439 -0.3586
    2CHTO   O52  559   3.762   5.560   3.130  0.2097  0.0327  0.2409
    2CHTO   C86  560   3.775   5.470   3.243  0.2546  0.4227 -0.2928
    2CHTO  H158  561   3.867   5.506   3.294  1.0875 -3.2060  0.8567
    2CHTO   C90  562   3.660   5.491   3.346  0.8019 -0.2956  0.5639
    2CHTO   O60  563   3.666   5.620   3.419  0.1384 -0.3292 -0.2649
    2CHTO  H138  564   3.578   5.649   3.433  0.0585 -0.4212 -0.5736
    2CHTO   O50  565   4.000   5.614   3.098 -0.1772 -0.5214 -0.0873
    2CHTO   C73  566   4.058   5.744   3.088 -0.7516 -0.6275 -0.3300
    2CHTO  H145  567   3.999   5.810   3.023  0.2102 -0.0710 -0.6493
    2CHTO   C74  568   4.197   5.728   3.021 -0.4815 -0.0230  1.2096
    2CHTO  H146  569   4.189   5.672   2.927 -0.3431  0.7366  0.7460
    2CHTO   O54  570   4.248   5.858   2.987 -0.2400  0.2190 -0.0014
    2CHTO  H133  571   4.327   5.852   2.937 -1.2357 -0.1977 -1.5505
    2CHTO   C75  572   4.295   5.651   3.122  0.1022 -0.0439 -0.0919
    2CHTO  H147  573   4.259   5.547   3.131 -0.9528  0.0554 -2.7264
    2CHTO   N13  574   4.430   5.631   3.064 -0.2000  0.4634  0.4592
    2CHTO  H139  575   4.427   5.561   2.982 -2.4601  1.0964 -0.0266
    2CHTO  H140  576   4.495   5.607   3.147 -1.5107  1.8949  1.9170
    2CHTO   C76  577   4.306   5.731   3.257  0.1153  0.5120  0.1543
    2CHTO  H148  578   4.351   5.827   3.232  0.3927 -0.1765 -2.0307
    2CHTO   O49  579   4.166   5.754   3.314  0.5157  0.0671 -0.0198
    2CHTO   C77  580   4.071   5.820   3.229 -0.9695 -0.0495  0.2161
    2CHTO  H149  581   4.107   5.921   3.210 -1.4530  0.2959  1.1214
    2CHTO   C88  582   3.939   5.820   3.311 -0.2590  1.1547  0.0509
    2CHTO   O58  583   3.820   5.906   3.252  0.2606 -0.4166 -0.1438
    2CHTO  H136  584   3.850   5.995   3.250 -1.2176  0.0658 -1.6340
    2CHTO   O51  585   4.391   5.651   3.372  0.6032  0.2268  0.1367
    2CHTO   C78  586   4.446   5.744   3.461 -0.4671 -0.2094 -0.1964
    2CHTO  H150  587   4.380   5.833   3.461 -1.1209 -0.6900 -0.0796
    2CHTO   C80  588   4.589   5.787   3.427 -0.2607 -0.5280 -0.5742
    2CHTO  H152  589   4.652   5.701   3.398  3.0970  1.5706  0.2553
    2CHTO   O55  590   4.579   5.880   3.317 -0.4078 -0.3537 -0.0794
    2CHTO  H134  591   4.586   5.832   3.237  0.9534 -0.8786  0.3314
    2CHTO   C84  592   4.673   5.854   3.546  1.1341 -0.6135 -0.4954
    2CHTO  H156  593   4.641   5.958   3.550  2.2417 -0.3484  2.4741
    2CHTO   N15  594   4.820   5.875   3.517 -0.0779  0.4627  0.4339
    2CHTO  H143  595   4.825   5.929   3.425 -0.9033 -0.7847 -0.3516
    2CHTO  H144  596   4.871   5.928   3.595  2.7131 -1.9297  0.3304
    2CHTO   C87  597   4.645   5.780   3.679 -0.5348 -0.2067 -0.0876
    2CHTO  H159  598   4.696   5.683   3.678  1.5833  0.8841 -1.2263
    2CHTO   O53  599   4.495   5.757   3.700  0.4473  0.4220 -0.1624
    2CHTO   C82  600   4.438   5.674   3.599 -0.1300  0.2598 -0.3810
    2CHTO  H154  601   4.480   5.573   3.598  0.4769  0.5146 -0.5347
    2CHTO   C89  602   4.291   5.662   3.633  0.5139 -0.5094 -0.1422
    2CHTO   O59  603   4.271   5.597   3.759 -0.3954 -0.2715 -0.5260
    2CHTO  H137  604   4.291   5.664   3.822  0.8098  0.9960 -2.2072
    2CHTO   O45  605   4.692   5.873   3.801  0.4820  0.2879  0.0571
    2CHTO   C67  606   4.696   5.805   3.928  0.1087 -0.4253  0.2684
    2CHTO  H124  607   4.657   5.703   3.936  1.1389 -1.0029 -1.6144
    2CHTO   C65  608   4.849   5.798   3.968 -0.1352 -0.4342  0.2330
    2CHTO  H122  609   4.892   5.894   3.941  2.0553 -1.1155  1.1532
    2CHTO   O44  610   4.915   5.708   3.875  0.3904 -0.1010  0.0578
    2CHTO  H102  611   4.989   5.740   3.829  0.3181 -0.0849 -0.0478
    2CHTO   C63  612   4.874   5.765   4.116 -0.4502  0.1612 -0.5612
    2CHTO  H120  613   4.885   5.860   4.169  0.4774 -0.9977  1.4178
    2CHTO   N11  614   5.008   5.703   4.151 -0.3594  0.8268 -0.0426
    2CHTO  H108  615   5.078   5.783   4.163  1.4860 -0.6261 -0.8664
    2CHTO  H109  616   5.039   5.641   4.069 -0.6308  1.5281 -0.6815
    2CHTO   C61  617   4.742   5.708   4.183 -0.3504 -0.2698  0.0584
    2CHTO  H118  618   4.765   5.715   4.291 -1.6258 -1.5471  0.4256
    2CHTO   O40  619   4.636   5.805   4.155  0.0588  0.4192  0.0777
    2CHTO   C68  620   4.617   5.885   4.040 -0.5007  0.2021  0.2679
    2CHTO  H125  621   4.662   5.987   4.046 -1.4316  0.4808  3.2432
    2CHTO   C72  622   4.466   5.902   3.997 -0.5323  0.3783 -0.0568
    2CHTO   O48  623   4.385   5.967   4.091  0.0415  0.7260  0.2580
    2CHTO  H105  624   4.326   5.906   4.131  0.5240  0.1607  0.1010
    2CHTO   O38  625   4.710   5.576   4.146 -0.2725 -0.5352  0.2717
    2CHTO   C55  626   4.663   5.492   4.256 -0.7999  0.7295  0.4301
    2CHTO  H112  627   4.620   5.551   4.337  0.2149  0.0367  1.5018
    2CHTO   C56  628   4.772   5.392   4.309 -0.1763 -0.2507  0.8287
    2CHTO  H113  629   4.822   5.331   4.232 -1.4454  0.6714 -0.7516
    2CHTO   O42  630   4.875   5.472   4.369 -0.5833 -0.2778 -0.1339
    2CHTO  H100  631   4.848   5.500   4.454  1.4753 -1.7746  1.0673
    2CHTO   C57  632   4.706   5.294   4.409 -0.7632 -0.1621  0.1687
    2CHTO  H114  633   4.653   5.356   4.482 -2.4230 -1.4026  0.0344
    2CHTO   N10  634   4.798   5.207   4.485  0.8264 -0.5519 -0.2480
    2CHTO  H106  635   4.759   5.170   4.578  0.9414 -0.4984 -0.1776
    2CHTO  H107  636   4.894   5.255   4.499  1.0963 -1.6999  2.0035
    2CHTO   C58  637   4.602   5.206   4.327  0.3114 -0.3541 -0.4269
    2CHTO  H115  638   4.657   5.164   4.240 -0.7770  0.2245 -1.4026
    2CHTO   O37  639   4.502   5.301   4.276 -0.1935  0.1854  0.2485
    2CHTO   C59  640   4.551   5.408   4.192  0.1961 -0.1644 -0.1914
    2CHTO  H116  641   4.579   5.371   4.093 -1.3668  1.3277 -1.2149
    2CHTO   C70  642   4.429   5.494   4.161 -0.7568 -0.3511 -0.3972
    2CHTO   O46  643   4.331   5.415   4.087 -0.3200  0.1520 -0.3001
    2CHTO  H103  644   4.264   5.473   4.056  0.3144  0.3111 -1.3946
    2CHTO   O39  645   4.531   5.081   4.421 -0.1139 -0.5278 -0.0034
    2CHTO   C60  646   4.398   5.037   4.374 -0.4305  0.0896  0.4077
    2CHTO  H117  647   4.367   5.102   4.293 -1.6774 -0.7670  0.1779
    2CHTO   C62  648   4.394   4.895   4.319 -0.2822  0.3144 -0.3190
    2CHTO  H119  649   4.472   4.890   4.240 -0.2854 -0.3430 -0.2837
    2CHTO   O43  650   4.446   4.795   4.416 -0.4964  0.1074  0.0624
    2CHTO  H101  651   4.427   4.708   4.387 -0.1381 -0.4983  1.5984
    2CHTO   C66  652   4.256   4.858   4.253 -0.5511 -0.4551 -0.3904
    2CHTO  H123  653   4.231   4.936   4.181  0.1736 -1.5475 -1.8556
    2CHTO   N12  654   4.265   4.737   4.166  0.2449  0.3025  0.0058
    2CHTO  H110  655   4.236   4.638   4.200 -0.7380  0.4333 -0.4281
    2CHTO  H111  656   4.236   4.753   4.063 -1.1345  0.0799  0.3479
    2CHTO   C69  657   4.143   4.870   4.361  0.6999  0.4912 -0.3694
    2CHTO  H126  658   4.147   4.785   4.431 -2.2424  1.2739  0.8331
    2CHTO   O41  659   4.152   5.008   4.437 -0.4152 -0.1741  0.4235
    2CHTO   C64  660   4.292   5.050   4.486  0.4859 -0.3298 -0.2142
    2CHTO  H121  661   4.336   4.995   4.572  0.2050  1.1372  0.8789
    2CHTO   C71  662   4.278   5.198   4.522  0.0760 -0.4811  0.6142
    2CHTO   O47  663   4.196   5.230   4.633  0.2752  0.0720  0.3468
    2CHTO  H104  664   4.140   5.304   4.621 -0.2689  0.3380  3.8824
    2CHTO   O34  665   4.009   4.860   4.304 -0.3474  0.1286  0.1828
    2CHTO   C49  666   3.878   4.968   4.253 -0.1110 -0.0855 -0.1622
    2CHTO   H91  667   3.827   4.995   4.346 -0.1193  0.1894 -0.2481
    2CHTO   C47  668   3.777   4.907   4.147  0.2988 -0.3440 -0.0221
    2CHTO   H89  669   3.692   4.976   4.129  0.6016  0.4081  1.3240
    2CHTO   O33  670   3.733   4.778   4.196  0.1933  0.6877  0.2551
    2CHTO   H70  671   3.676   4.785   4.271 -0.7459 -1.6565 -0.2074
    2CHTO   C45  672   3.857   4.886   4.015 -0.3005 -0.0474  0.6005
    2CHTO   H87  673   3.946   4.830   4.048  0.1744  0.9639  1.0610
    2CHTO    N8  674   3.780   4.812   3.913 -0.3453  0.1075  0.0861
    2CHTO   H75  675   3.848   4.798   3.830  0.9159 -0.4111  1.1728
    2CHTO   H76  676   3.699   4.875   3.881  1.1410  1.7410 -0.5540
    2CHTO   C43  677   3.907   5.032   3.960  0.1517  0.1006 -0.4136
    2CHTO   H85  678   3.968   5.005   3.873  0.8780 -1.2775  0.5009
    2CHTO   O29  679   3.985   5.086   4.066 -0.3859  0.7764  0.0749
    2CHTO   C50  680   3.930   5.102   4.198 -0.2912  0.5010 -0.2194
    2CHTO   H92  681   4.003   5.142   4.270 -0.2869  0.0577  0.0232
    2CHTO   C54  682   3.823   5.214   4.216 -0.2574 -0.2097 -0.8029
    2CHTO   O36  683   3.881   5.342   4.244  0.4754 -0.1373  0.1956
    2CHTO   H72  684   3.826   5.413   4.218 -1.8102 -1.5646  1.0442
    2CHTO   O27  685   3.794   5.112   3.917  0.0667  0.2152 -0.2444
    2CHTO   C37  686   3.740   5.210   3.817 -0.0486  0.3691 -0.7713
    2CHTO   H79  687   3.771   5.188   3.714 -3.7607 -2.2289 -1.4096
    2CHTO   C38  688   3.581   5.206   3.805 -0.3903 -0.7154 -0.0054
    2CHTO   H80  689   3.536   5.204   3.905 -1.3056  2.6779 -0.2826
    2CHTO   O31  690   3.552   5.075   3.752 -0.0876 -0.0434 -0.0134
    2CHTO   H68  691   3.494   5.094   3.681 -1.2369  0.3702  1.0124
    2CHTO   C39  692   3.520   5.334   3.726  0.0830 -0.0273  0.0702
    2CHTO   H81  693   3.540   5.338   3.619 -3.6445 -0.1366 -0.6794
    2CHTO    N7  694   3.375   5.336   3.730  0.1725  0.7003  0.4158
    2CHTO   H73  695   3.345   5.340   3.834  1.3210  1.1723  0.7379
    2CHTO   H74  696   3.326   5.414   3.674  1.2709  0.5456 -0.7662
    2CHTO   C40  697   3.582   5.465   3.787  0.2241  0.5225  0.1775
    2CHTO   H82  698   3.543   5.480   3.888 -0.5199  1.0277 -0.1718
    2CHTO   O26  699   3.727   5.450   3.788  0.2702 -0.9795  0.8482
    2CHTO   C41  700   3.793   5.348   3.864  0.5915  0.5933  0.0280
    2CHTO   H83  701   3.780   5.360   3.972  1.6379 -0.9256  0.3331
    2CHTO   C52  702   3.941   5.367   3.846  0.0501  0.3980 -0.4601
    2CHTO   O35  703   4.001   5.489   3.945 -0.2517  0.6133  0.0573
    2CHTO   H71  704   4.055   5.453   4.013 -0.1997  0.1624 -0.2227
    2CHTO   O28  705   3.550   5.586   3.708  0.5478  0.0951 -0.0548
    2CHTO   C42  706   3.571   5.714   3.777 -0.7406 -0.0281  0.3332
    2CHTO   H84  707   3.557   5.786   3.697 -0.1262 -0.5145 -0.2108
    2CHTO   C44  708   3.721   5.736   3.828  0.4645 -0.1097 -0.7060
    2CHTO   H86  709   3.747   5.664   3.906 -0.4401  0.5399  0.2114
    2CHTO   O32  710   3.818   5.720   3.721  0.0248 -0.6762  0.1099
    2CHTO   H69  711   3.908   5.724   3.749 -0.6633 -1.3638  2.6053
    2CHTO   C48  712   3.742   5.875   3.897 -0.0242  0.3829  0.7225
    2CHTO   H90  713   3.733   5.954   3.823 -1.0077 -0.9230 -0.5801
    2CHTO    N9  714   3.877   5.883   3.957  0.3186 -0.0702 -0.3214
    2CHTO   H77  715   3.889   5.800   4.026 -0.6838  1.4901  1.7716
    2CHTO   H78  716   3.948   5.876   3.875 -0.9930 -1.9885 -1.3213
    2CHTO   C51  717   3.624   5.905   3.998 -0.1836 -0.6058  0.5285
    2CHTO   H93  718   3.637   5.840   4.085 -1.1214 -0.1677  1.0097
    2CHTO   O30  719   3.496   5.877   3.936  0.3322 -0.1846  0.2248
    2CHTO   C46  720   3.466   5.743   3.888  0.2830 -0.4011 -0.3465
    2CHTO   H88  721   3.476   5.668   3.967 -2.0522 -0.2239  0.1322
    2CHTO   C53  722   3.322   5.750   3.834  0.6835 -0.1466  0.7621
    2CHTO   O72  723   3.222   5.765   3.935 -0.1008  0.0691 -0.3688
    2CHTO  H199  724   3.185   5.851   3.934 -0.4526 -0.0758  0.1428
    2CHTO   O22  725   3.622   6.043   4.042 -0.3518 -0.7083 -1.1672
    2CHTO   C31  726   3.588   6.080   4.179 -0.5758  0.4433 -0.1033
    2CHTO   H59  727   3.564   6.188   4.175  1.9640  0.9851 -3.7092
    2CHTO   C29  728   3.464   6.004   4.226 -0.1731 -0.2770 -0.5001
    2CHTO   H57  729   3.469   5.898   4.197  0.3115 -1.4284  3.4157
    2CHTO   O21  730   3.348   6.045   4.150  0.1002 -0.3256 -0.4403
    2CHTO   H37  731   3.289   5.972   4.141 -0.0869 -0.2877  0.4653
    2CHTO   C27  732   3.439   6.010   4.384 -0.2505  0.1506 -0.4887
    2CHTO   H55  733   3.418   6.116   4.406 -1.3269 -0.1999  0.2217
    2CHTO    N5  734   3.325   5.919   4.431  0.2560 -0.8590 -0.5244
    2CHTO   H43  735   3.342   5.819   4.394 -0.8697 -0.7627 -1.3552
    2CHTO   H44  736   3.332   5.920   4.539  0.7283 -1.5552 -0.5428
    2CHTO   C25  737   3.582   5.992   4.455  0.3003 -0.2939 -0.1882
    2CHTO   H53  738   3.627   5.895   4.432  0.4046 -0.3004  0.0445
    2CHTO   O17  739   3.677   6.086   4.403  0.0986 -0.1076  0.6185
    2CHTO   C32  740   3.719   6.068   4.268  0.0186 -0.0491  0.4719
    2CHTO   H60  741   3.755   5.966   4.250 -1.3433  0.1440 -3.8355
    2CHTO   C36  742   3.836   6.166   4.239 -0.3052 -0.5660 -0.6250
    2CHTO   O25  743   3.809   6.301   4.280 -0.1069  0.0979 -0.1540
    2CHTO   H40  744   3.881   6.322   4.336 -1.7453  2.1986  1.2470
    2CHTO   O15  745   3.568   6.011   4.587  0.3161  0.4188  0.1877
    2CHTO   C19  746   3.507   6.013   4.724 -0.1728  0.1309 -0.3725
    2CHTO   H47  747   3.404   6.048   4.712 -0.7860 -0.6211  2.3357
    2CHTO   C20  748   3.506   5.876   4.793  0.3716  0.4503 -0.1183
    2CHTO   H48  749   3.605   5.835   4.814  0.0670 -1.0126 -1.4320
    2CHTO   O19  750   3.438   5.774   4.711  0.3336 -0.6526  0.1264
    2CHTO   H35  751   3.354   5.813   4.695 -0.6421 -1.9934  1.7603
    2CHTO   C21  752   3.445   5.884   4.942  0.6068  0.5406 -0.1637
    2CHTO   H49  753   3.336   5.890   4.932  0.6282  0.7947 -0.2449
    2CHTO    N4  754   3.449   5.761   5.022 -0.2204  0.2450 -0.4512
    2CHTO   H41  755   3.550   5.740   5.052 -0.5593 -2.0031 -0.7764
    2CHTO   H42  756   3.384   5.771   5.109 -0.8374  0.3891 -0.9227
    2CHTO   C22  757   3.504   6.003   5.021 -0.6900 -0.7885  0.1469
    2CHTO   H50  758   3.596   5.975   5.072  0.1845 -1.6907 -1.8891
    2CHTO   O14  759   3.510   6.127   4.946 -0.1124 -0.2962  0.0166
    2CHTO   C23  760   3.583   6.118   4.821 -0.2812  0.6602  0.2828
    2CHTO   H51  761   3.684   6.081   4.844  0.5234  3.7141  1.8320
    2CHTO   C34  762   3.605   6.262   4.759  0.5570  0.0611 -0.1273
    2CHTO   O23  763   3.474   6.325   4.751 -0.3056  0.2279  0.5312
    2CHTO   H38  764   3.414   6.282   4.808 -3.1756  0.3735 -2.2395
    2CHTO   O16  765   3.417   6.048   5.131  0.2734  0.1582 -0.1063
    2CHTO   C24  766   3.489   6.123   5.230  0.2776  1.2243 -0.0871
    2CHTO   H52  767   3.584   6.161   5.193  0.6699  1.6273  1.3101
    2CHTO   C26  768   3.506   6.018   5.344  0.2378 -0.1707  0.2390
    2CHTO   H54  769   3.407   5.972   5.368 -0.7734 -0.1332 -3.6228
    2CHTO   O20  770   3.580   5.907   5.300  0.5230  0.0772  0.9063
    2CHTO   H36  771   3.644   5.933   5.236 -0.9712  1.2969 -0.1297
    2CHTO   C30  772   3.572   6.099   5.466 -0.4126  0.2085  0.5020
    2CHTO   H58  773   3.675   6.133   5.447 -0.5219  0.7102  0.8105
    2CHTO    N6  774   3.596   6.007   5.580  0.3665  0.7673 -0.1382
    2CHTO   H45  775   3.522   6.007   5.659 -0.9704 -2.6348 -1.2998
    2CHTO   H46  776   3.690   6.038   5.625 -0.2026  0.0503  1.5851
    2CHTO   C33  777   3.486   6.220   5.509 -0.0866 -0.7571  0.9334
    2CHTO   H61  778   3.383   6.189   5.533 -0.8080  0.3044 -0.6742
    2CHTO   O18  779   3.469   6.309   5.395 -0.5660  0.6533  0.4616
    2CHTO   C28  780   3.400   6.249   5.278  0.0912  0.7362  0.4641
    2CHTO   H56  781   3.300   6.217   5.307 -0.1222 -0.5046 -1.5665
    2CHTO   C35  782   3.403   6.348   5.162 -0.0701 -0.3075  0.1634
    2CHTO   O24  783   3.333   6.471   5.179 -0.4743 -0.2550 -0.4365
    2CHTO   H39  784   3.385   6.539   5.142 -0.0083 -0.3771 -0.0250
    2CHTO    O9  785   3.533   6.290   5.625  0.4732  0.1721 -0.2328
    2CHTO   C13  786   3.424   6.398   5.666  0.6902 -0.3795 -0.6506
    2CHTO   H26  787   3.321   6.376   5.632  0.5935  2.5629 -2.4616
    2CHTO   C11  788   3.473   6.539   5.601 -0.1886 -0.4450 -0.6555
    2CHTO   H24  789   3.463   6.536   5.492 -0.2814  0.4932 -0.6837
    2CHTO    O8  790   3.617   6.555   5.609  0.3308  0.2765 -0.0895
    2CHTO    H3  791   3.637   6.539   5.700 -1.0819 -0.7153  0.0666
    2CHTO    C9  792   3.397   6.655   5.666  0.3756 -0.1097  0.5629
    2CHTO   H22  793   3.291   6.635   5.644  0.5379  1.3449 -1.6964
    2CHTO    N2  794   3.420   6.779   5.596  0.0168 -0.3680 -0.1272
    2CHTO   H10  795   3.417   6.780   5.488 -0.9925  1.1415 -0.0898
    2CHTO   H11  796   3.354   6.855   5.636 -0.9172 -0.0400 -2.2192
    2CHTO    C7  797   3.429   6.660   5.819  0.2339  0.1574  0.9123
    2CHTO   H20  798   3.329   6.673   5.865 -0.6933 -2.3140 -0.2939
    2CHTO    O4  799   3.468   6.529   5.877  0.2868  0.0419  0.9349
    2CHTO   C14  800   3.405   6.413   5.822 -0.3923  0.5643 -0.1426
    2CHTO   H27  801   3.296   6.424   5.835 -0.3013  1.2903  0.0652
    2CHTO   C18  802   3.456   6.295   5.910  0.0290 -0.7000  0.3767
    2CHTO   O13  803   3.403   6.178   5.848 -0.4242  0.5241  0.1539
    2CHTO    H7  804   3.464   6.107   5.848 -1.4404 -0.3546  0.8807
    2CHTO    O2  805   3.556   6.766   5.848 -0.2528  0.0019  0.8152
    2CHTO    C1  806   3.568   6.824   5.974  0.1236  1.2529 -0.2682
    2CHTO   H14  807   3.487   6.785   6.039  0.5750 -0.9686 -1.0033
    2CHTO    C2  808   3.549   6.978   5.952  0.1269  0.8176 -0.3712
    2CHTO   H15  809   3.604   7.010   5.862  1.9053  0.3039  0.5051
    2CHTO    O6  810   3.408   6.995   5.937 -0.5952 -0.3037  0.2788
    2CHTO    H1  811   3.367   7.041   6.008 -0.7401  4.3581 -2.6176
    2CHTO    C3  812   3.609   7.066   6.071 -0.0969 -0.0121  0.6502
    2CHTO   H16  813   3.533   7.069   6.151 -0.9623 -1.4023 -0.1028
    2CHTO    N1  814   3.626   7.211   6.034  0.2025  0.4889 -0.2518
    2CHTO    H8  815   3.697   7.264   6.095 -0.1498 -0.1690  0.7440
    2CHTO    H9  816   3.662   7.200   5.933 -0.2973 -1.1009 -0.2740
    2CHTO    C4  817   3.738   7.005   6.139  0.4844  0.0464  0.9638
    2CHTO   H17  818   3.822   7.039   6.078 -0.0847  1.2146  0.8016
    2CHTO    O1  819   3.731   6.859   6.160 -0.2726  0.0072  0.0779
    2CHTO    C5  820   3.712   6.805   6.027  0.0861  0.7592 -0.0574
    2CHTO   H18  821   3.773   6.853   5.950 -0.7905  2.2884  0.1958
    2CHTO   C16  822   3.754   6.658   6.029  0.5559  0.1354 -0.0008
    2CHTO   O11  823   3.896   6.647   6.029  0.0057  0.3227 -0.7564
    2CHTO    H5  824   3.915   6.556   6.018 -1.5391 -0.1226  0.1718
    2CHTO    O3  825   3.768   7.060   6.271  0.1985  0.1113  0.0688
    2CHTO    C6  826   3.909   7.093   6.304  0.2568  0.3096  0.3354
    2CHTO   H19  827   3.980   7.047   6.235 -1.0305  1.1297 -1.5702
    2CHTO    C8  828   3.939   7.249   6.321  0.7262  0.7559  0.3693
    2CHTO   H21  829   3.854   7.298   6.368 -1.2805  0.1657 -2.4945
    2CHTO    O7  830   3.946   7.301   6.183 -0.2505 -0.1590 -0.3536
    2CHTO    H2  831   4.023   7.268   6.141  0.3930  2.1143 -0.9747
    2CHTO   C12  832   4.070   7.290   6.392 -0.5133  0.3257 -0.1267
    2CHTO   H25  833   4.158   7.277   6.326 -0.3102 -0.9639  0.3970
    2CHTO    N3  834   4.067   7.434   6.419 -0.5004 -0.3214  0.3732
    2CHTO   H12  835   3.982   7.465   6.479 -0.1618  0.4808  0.4481
    2CHTO   H13  836   4.076   7.486   6.325  3.5507 -0.0676  0.8095
    2CHTO   C15  837   4.087   7.206   6.521 -0.4416  0.1837 -0.1246
    2CHTO   H28  838   4.020   7.233   6.603 -1.3568  0.4050 -0.9381
    2CHTO   O10  839   4.243   7.228   6.578 -0.2953 -0.3972  0.1434
    2CHTO    H4  840   4.261   7.170   6.650  2.7164  1.7675  1.2179
    2CHTO    O5  841   4.081   7.067   6.485 -0.3149 -0.2520  0.7284
    2CHTO   C10  842   3.942   7.031   6.451  0.1686 -0.1646 -0.5987
    2CHTO   H23  843   3.878   7.063   6.533  2.9313  1.1233  1.1269
    2CHTO   C17  844   3.923   6.878   6.441 -0.1508 -0.1985 -0.0764
    2CHTO   O12  845   3.923   6.806   6.565 -0.0716 -0.2622 -0.4689
    2CHTO    H6  846   3.903   6.717   6.544  0.5960 -0.0022 -2.3252
    3CHTO  H203  847   5.808   2.770   2.478  2.7382 -0.6640  3.6917
    3CHTO   O82  848   5.868   2.837   2.449  0.3846 -0.1594 -0.3448
    3CHTO  C123  849   5.918   2.801   2.317  0.5330 -0.5730 -0.6458
    3CHTO  H227  850   5.934   2.692   2.315  1.4480 -0.4640  0.5878
    3CHTO   O77  851   5.798   2.825   2.229 -0.3397  0.3892  0.3598
    3CHTO  C118  852   5.811   2.800   2.091 -0.7648 -0.1975  0.4168
    3CHTO  H222  853   5.827   2.692   2.075 -0.1694 -0.1186  0.4693
    3CHTO  C125  854   5.675   2.841   2.015 -0.4521 -0.0958  0.4822
    3CHTO   O84  855   5.563   2.785   2.072 -0.3972 -0.1666 -0.0333
    3CHTO  H205  856   5.486   2.789   2.019 -0.6401 -1.3406  0.2158
    3CHTO  C114  857   5.918   2.896   2.040 -0.2341  0.6356 -0.1484
    3CHTO  H218  858   5.891   3.000   2.061  1.2369  0.9096  0.4549
    3CHTO  C116  859   6.055   2.883   2.114 -0.6606 -0.1615 -0.4418
    3CHTO  H220  860   6.107   2.788   2.089  1.3224  0.8458 -0.2516
    3CHTO   O79  861   6.144   2.980   2.050 -0.8878  0.3582  0.5981
    3CHTO  H201  862   6.162   3.056   2.102 -0.0555  1.6906 -1.5756
    3CHTO  C120  863   6.033   2.899   2.265 -0.0350  0.2018 -0.3667
    3CHTO  H224  864   5.997   3.002   2.286 -0.4313 -0.2599  1.3074
    3CHTO   N21  865   6.160   2.870   2.337 -0.0877 -0.4912  0.1066
    3CHTO  H211  866   6.140   2.835   2.438  1.1606  1.1158  0.9341
    3CHTO  H212  867   6.217   2.961   2.339 -1.3950  0.4467 -2.5429
    3CHTO   O75  868   5.927   2.879   1.895  0.2457 -0.0844 -0.3874
    3CHTO  C112  869   6.019   2.770   1.825 -0.4600 -0.5397  0.0548
    3CHTO  H216  870   6.008   2.675   1.879 -0.9638 -0.1807  0.5861
    3CHTO   O73  871   6.152   2.823   1.832 -1.0289 -0.0537  0.3286
    3CHTO  C113  872   6.254   2.738   1.775  0.2589 -1.3147  0.5640
    3CHTO  H217  873   6.257   2.640   1.829  2.4793 -0.5662  1.8631
    3CHTO  C124  874   6.393   2.792   1.813  0.4904 -0.0193  0.7328
    3CHTO   O83  875   6.406   2.926   1.769 -0.2854  0.1391 -0.2811
    3CHTO  H204  876   6.493   2.935   1.734  0.4037 -3.5872  0.2788
    3CHTO  C109  877   6.224   2.716   1.628  0.3376  0.0372 -0.2006
    3CHTO  H213  878   6.228   2.814   1.579 -1.9001  1.5114  2.4520
    3CHTO  C110  879   6.081   2.658   1.604 -0.1561 -0.1588 -0.0172
    3CHTO  H214  880   6.084   2.556   1.642  1.8088 -0.4950 -1.0309
    3CHTO   O78  881   6.071   2.649   1.460 -0.4504 -0.0428  0.4786
    3CHTO  H200  882   6.077   2.735   1.423  0.1408  1.1901  3.3282
    3CHTO  C111  883   5.982   2.754   1.674 -0.7506  0.3474  0.3574
    3CHTO  H215  884   5.987   2.851   1.623  0.4664 -0.2000 -0.5881
    3CHTO   N19  885   5.842   2.707   1.652 -0.3657 -0.5453 -0.2263
    3CHTO  H207  886   5.813   2.724   1.550 -1.1755 -0.8435 -0.0511
    3CHTO  H208  887   5.777   2.761   1.719 -1.1559  0.6156 -1.9009
    3CHTO   O74  888   6.323   2.632   1.583 -0.3543 -0.7935  0.0290
    3CHTO  C115  889   6.386   2.680   1.431 -0.3484  0.2293 -0.0642
    3CHTO  H219  890   6.326   2.759   1.385  3.7512  3.6937  0.2984
    3CHTO   O76  891   6.511   2.740   1.446 -0.6879 -0.3101  0.1441
    3CHTO  C122  892   6.605   2.674   1.528  0.5826  0.6663  0.1733
    3CHTO  H226  893   6.565   2.679   1.629 -2.5759  0.0378 -0.9913
    3CHTO  C126  894   6.747   2.739   1.528 -0.6995  0.1111  0.0747
    3CHTO   O85  895   6.835   2.678   1.626  0.1017 -0.2507  0.4197
    3CHTO  H206  896   6.850   2.734   1.701 -0.1270  1.2177 -0.6095
    3CHTO  C121  897   6.625   2.524   1.483 -0.0025 -0.7289  0.1999
    3CHTO  H225  898   6.730   2.501   1.455 -0.0861 -0.2957 -0.4818
    3CHTO   O81  899   6.597   2.439   1.594 -0.2689  0.0306 -0.0350
    3CHTO  H202  900   6.509   2.446   1.624 -0.1411 -1.9585  0.8907
    3CHTO  C119  901   6.537   2.494   1.349 -0.1149 -0.1042 -0.2182
    3CHTO  H223  902   6.596   2.546   1.273  0.5507  0.1998  0.4999
    3CHTO  C117  903   6.393   2.549   1.342  0.1649 -1.2180  0.5365
    3CHTO  H221  904   6.313   2.486   1.382 -1.0452 -0.1787 -0.1910
    3CHTO   N20  905   6.350   2.569   1.203  0.2971 -0.5809  0.2305
    3CHTO  H209  906   6.277   2.493   1.180  0.3552 -0.7854  0.7149
    3CHTO  H210  907   6.312   2.668   1.183  1.1160 -0.3296 -0.0906
    3CHTO   O80  908   6.543   2.333   1.297 -0.0775 -0.0442  0.8398
    3CHTO  C103  909   6.510   2.197   1.407  0.7640 -0.7672  0.6716
    3CHTO  H190  910   6.584   2.197   1.487  1.2521  4.4404  0.4282
    3CHTO  C101  911   6.367   2.192   1.466  0.1656 -0.3394 -0.0411
    3CHTO  H188  912   6.298   2.218   1.386  0.9267  0.6349 -0.3957
    3CHTO   O68  913   6.363   2.297   1.559  0.3678  0.0643 -0.3119
    3CHTO  H168  914   6.282   2.344   1.564  1.1078  1.4844 -1.2283
    3CHTO   C99  915   6.336   2.051   1.534  0.6533  0.1132 -0.0693
    3CHTO  H186  916   6.416   2.035   1.610  1.2143  0.5101 -0.5641
    3CHTO   N17  917   6.196   2.029   1.585  0.0234 -0.2515 -0.4336
    3CHTO  H174  918   6.141   2.122   1.592  1.3588  0.5495 -0.3470
    3CHTO  H175  919   6.202   1.974   1.677  1.5081 -0.9112 -0.9069
    3CHTO   C97  920   6.370   1.937   1.430  0.5095 -0.6850 -0.2584
    3CHTO  H184  921   6.302   1.948   1.344  1.0993  0.9271 -0.5415
    3CHTO   O64  922   6.510   1.952   1.391 -0.1701 -0.0816  0.3522
    3CHTO  C104  923   6.529   2.073   1.315 -0.1147 -0.1957  0.2876
    3CHTO  H191  924   6.458   2.074   1.233 -0.7318 -2.6994  0.7189
    3CHTO  C108  925   6.666   2.067   1.255  0.6972  0.9464  0.5780
    3CHTO   O71  926   6.773   2.069   1.351  0.1577  0.5974  0.3246
    3CHTO  H171  927   6.850   2.092   1.303 -0.1451 -0.1038 -0.5091
    3CHTO   O62  928   6.357   1.803   1.484  0.1618 -0.5867 -0.0439
    3CHTO   C91  929   6.256   1.707   1.438 -0.1891 -0.0348 -0.0616
    3CHTO  H178  930   6.166   1.761   1.408 -0.5196  0.1553  1.2670
    3CHTO   C92  931   6.212   1.611   1.551 -0.4792 -0.4911 -0.1307
    3CHTO  H179  932   6.299   1.560   1.594  0.5698  1.8599  0.5981
    3CHTO   O66  933   6.177   1.683   1.678 -0.3006  0.3222 -0.2538
    3CHTO  H166  934   6.158   1.774   1.662 -1.3891  0.0735 -0.3995
    3CHTO   C93  935   6.095   1.517   1.498 -0.6101  0.1841  0.1952
    3CHTO  H180  936   6.000   1.558   1.536  0.0843  3.7110 -1.5964
    3CHTO   N16  937   6.101   1.390   1.572 -0.2369 -0.0844  0.0628
    3CHTO  H172  938   6.127   1.403   1.676  2.1265  1.4869 -0.6864
    3CHTO  H173  939   6.015   1.326   1.556  0.3100 -0.3614 -1.8156
    3CHTO   C94  940   6.072   1.509   1.352  0.0628 -0.4900 -0.2314
    3CHTO  H181  941   6.023   1.415   1.325  1.0975 -1.7172  1.9831
    3CHTO   O61  942   6.189   1.527   1.272  0.4024  0.4567  0.6832
    3CHTO   C95  943   6.295   1.617   1.307  0.4588  0.1540 -0.4182
    3CHTO  H182  944   6.384   1.557   1.324 -0.7713 -1.8506 -0.9015
    3CHTO  C106  945   6.321   1.713   1.182  0.8421  0.5313 -0.1635
    3CHTO   O69  946   6.445   1.779   1.202 -0.6207  0.1333  0.0138
    3CHTO  H169  947   6.512   1.719   1.226 -1.5478 -0.6799  0.6045
    3CHTO   O63  948   5.981   1.620   1.313  0.0718  0.1468 -0.0715
    3CHTO   C96  949   5.841   1.575   1.234 -0.8068 -0.2055  0.3606
    3CHTO  H183  950   5.789   1.494   1.285 -1.0040 -0.5834 -0.4360
    3CHTO   C98  951   5.866   1.544   1.080  0.2110  1.2097 -0.2255
    3CHTO  H185  952   5.921   1.629   1.036 -0.5735  0.8579 -1.9155
    3CHTO   O67  953   5.954   1.428   1.062 -0.6548 -0.6044 -0.8843
    3CHTO  H167  954   5.906   1.352   1.035 -0.8508 -0.2964 -1.4126
    3CHTO  C102  955   5.723   1.533   0.999 -0.4165  0.3431 -0.4959
    3CHTO  H189  956   5.669   1.449   1.046 -0.6199  0.5387 -0.3779
    3CHTO   N18  957   5.739   1.503   0.854 -0.4639 -0.2159  0.3115
    3CHTO  H176  958   5.814   1.425   0.850  3.7154  3.4658  2.5557
    3CHTO  H177  959   5.765   1.584   0.787  1.0927  0.0066  1.1578
    3CHTO  C105  960   5.646   1.662   1.022 -0.3024  0.4488 -0.1307
    3CHTO  H192  961   5.700   1.748   0.982 -0.5973  0.3522 -0.7458
    3CHTO   O65  962   5.629   1.706   1.160  0.1491  0.4573  0.7287
    3CHTO  C100  963   5.745   1.707   1.245 -0.2116 -0.4986 -0.0715
    3CHTO  H187  964   5.804   1.799   1.232 -0.2317 -0.4861 -0.0725
    3CHTO  C107  965   5.693   1.726   1.387 -0.7693 -0.3268  0.3894
    3CHTO   O70  966   5.609   1.841   1.393 -0.1018  0.2755  0.6821
    3CHTO  H170  967   5.537   1.838   1.333 -1.7965  0.9297  2.6421
    3CHTO   O57  968   5.490   1.630   0.942 -0.6809 -0.2158 -0.3319
    3CHTO   C85  969   5.437   1.702   0.835 -0.7114 -0.3515  0.3116
    3CHTO  H157  970   5.506   1.680   0.751 -0.6398 -0.3096  0.3600
    3CHTO   C83  971   5.436   1.857   0.863 -0.4430 -0.2992 -0.4893
    3CHTO  H155  972   5.541   1.885   0.870 -0.7228  0.7960 -0.5561
    3CHTO   O56  973   5.378   1.870   0.992  0.1484 -0.1432  0.1034
    3CHTO  H135  974   5.395   1.954   1.029  2.0064 -0.0252 -0.9451
    3CHTO   C81  975   5.370   1.943   0.757  0.5178 -0.4571  0.2885
    3CHTO  H153  976   5.423   1.924   0.663 -2.2598  1.7254 -1.8397
    3CHTO   N14  977   5.400   2.089   0.774  0.4356 -0.3455 -0.3763
    3CHTO  H141  978   5.448   2.143   0.694 -0.2747  1.3181  0.3124
    3CHTO  H142  979   5.309   2.136   0.803  1.0947 -0.1663  1.4422
    3CHTO   C79  980   5.223   1.896   0.730 -0.2274 -0.1557 -0.6583
    3CHTO  H151  981   5.191   1.936   0.633  0.3509  0.2668 -0.6810
    3CHTO   O52  982   5.222   1.751   0.704  0.3893  0.2442 -0.3272
    3CHTO   C86  983   5.286   1.661   0.798 -0.4292 -0.1921 -0.3879
    3CHTO  H158  984   5.221   1.662   0.888  2.7299  0.4131  1.9843
    3CHTO   C90  985   5.289   1.510   0.751 -0.6173 -0.4151  0.7477
    3CHTO   O60  986   5.358   1.482   0.625 -0.4483  0.3427  0.2576
    3CHTO  H138  987   5.318   1.534   0.559  1.7842  0.8696 -0.7373
    3CHTO   O50  988   5.130   1.937   0.832  0.2048  0.2150 -0.3054
    3CHTO   C73  989   4.982   1.943   0.839 -0.2928 -0.0446 -0.3574
    3CHTO  H145  990   4.944   1.855   0.786 -2.9545 -1.7908  4.2676
    3CHTO   C74  991   4.924   2.068   0.769  0.1530 -0.4071  0.4626
    3CHTO  H146  992   4.948   2.060   0.662 -2.2358 -2.7117  0.0562
    3CHTO   O54  993   4.781   2.056   0.769 -0.3996 -0.2121 -0.1429
    3CHTO  H133  994   4.757   2.034   0.857 -1.2299  2.4231  0.3500
    3CHTO   C75  995   4.986   2.190   0.837 -0.4716 -0.0612  0.0570
    3CHTO  H147  996   5.095   2.190   0.827 -0.3746  1.0775  0.9468
    3CHTO   N13  997   4.953   2.316   0.777 -0.7697  1.0837  0.2641
    3CHTO  H139  998   4.859   2.354   0.814 -1.2604  1.3485 -1.1971
    3CHTO  H140  999   5.029   2.391   0.788 -0.4531  0.5781  1.5322
    3CHTO   C76 1000   4.950   2.189   0.993  0.2456  0.6113  0.1352
    3CHTO  H148 1001   4.843   2.199   1.008  0.2917  1.5820 -0.1415
    3CHTO   O49 1002   4.992   2.060   1.052 -0.4126 -0.1025  0.0835
    3CHTO   C77 1003   4.946   1.941   0.989 -0.2964  0.0439  0.5574
    3CHTO  H149 1004   4.837   1.936   0.994 -0.3707  0.6500 -0.2581
    3CHTO   C88 1005   5.010   1.820   1.061 -0.1468  0.1373  0.2791
    3CHTO   O58 1006   4.982   1.695   0.994  0.0703  0.4111 -0.0517
    3CHTO  H136 1007   4.890   1.675   0.998  0.1516 -0.0254 -0.2683
    3CHTO   O51 1008   5.053   2.316   1.072  0.0295 -0.3307 -0.4726
    3CHTO   C78 1009   5.049   2.310   1.225  0.7746  0.0748  0.2291
    3CHTO  H150 1010   4.983   2.226   1.256 -0.6835  1.0749 -0.1298
    3CHTO   C80 1011   5.001   2.446   1.278 -0.3343  0.1605 -0.0454
    3CHTO  H152 1012   5.059   2.528   1.232 -1.0750  0.0483 -1.1924
    3CHTO   O55 1013   4.864   2.462   1.242  0.1456  0.1110  0.1374
    3CHTO  H134 1014   4.809   2.391   1.269  0.7622  0.4843  2.5223
    3CHTO   C84 1015   5.013   2.463   1.436  0.1696 -0.4782  0.1091
    3CHTO  H156 1016   4.945   2.390   1.478 -1.8236 -0.0076 -2.1661
    3CHTO   N15 1017   4.965   2.592   1.496 -1.1611 -0.3511  0.9974
    3CHTO  H143 1018   5.042   2.629   1.559 -1.1129 -0.3802  0.9545
    3CHTO  H144 1019   4.880   2.574   1.559 -1.1744 -1.4924  0.6771
    3CHTO   C87 1020   5.163   2.423   1.466  0.0838 -0.7484  0.1627
    3CHTO  H159 1021   5.228   2.499   1.424  0.9757  0.2254  3.1905
    3CHTO   O53 1022   5.205   2.277   1.405  0.8092  0.0190 -0.1942
    3CHTO   C82 1023   5.193   2.280   1.267  0.4923  0.4830  0.1370
    3CHTO  H154 1024   5.254   2.359   1.223  0.1933  1.2072  0.9915
    3CHTO   C89 1025   5.252   2.145   1.219  0.1098  0.5919  0.0993
    3CHTO   O59 1026   5.324   2.155   1.095 -0.0400 -0.1896 -0.0786
    3CHTO  H137 1027   5.385   2.224   1.113 -1.9815  1.6527 -0.3224
    3CHTO   O45 1028   5.177   2.408   1.598 -0.5186  0.6017  0.1102
    3CHTO   C67 1029   5.312   2.403   1.652 -0.0094  0.2037 -0.3900
    3CHTO  H124 1030   5.386   2.382   1.574 -0.2292  0.0361 -0.5524
    3CHTO   C65 1031   5.345   2.541   1.728 -0.9467  0.1727  0.3396
    3CHTO  H122 1032   5.294   2.621   1.676 -0.7356 -0.1056 -0.3012
    3CHTO   O44 1033   5.488   2.567   1.725  0.0889  0.1215  0.5784
    3CHTO  H102 1034   5.530   2.500   1.776 -0.5039  0.7375  1.8799
    3CHTO   C63 1035   5.287   2.530   1.870 -0.0128 -0.3017 -0.2563
    3CHTO  H120 1036   5.184   2.495   1.868 -0.7804  1.9394 -2.4603
    3CHTO   N11 1037   5.283   2.660   1.951  0.0866  0.4162 -0.0529
    3CHTO  H108 1038   5.382   2.700   1.962  0.7556 -1.1860 -0.1983
    3CHTO  H109 1039   5.238   2.641   2.046  0.5927 -1.4704 -0.1879
    3CHTO   C61 1040   5.374   2.421   1.949  0.2360  0.4694 -0.3744
    3CHTO  H118 1041   5.322   2.387   2.039  2.3917  3.2500  2.0389
    3CHTO   O40 1042   5.409   2.309   1.868 -0.0413  0.3520 -0.0452
    3CHTO   C68 1043   5.317   2.277   1.752 -0.1778 -0.6401  0.0794
    3CHTO  H125 1044   5.218   2.256   1.799 -0.2722  0.2168  0.2763
    3CHTO   C72 1045   5.366   2.145   1.686 -0.3359  0.1724 -0.1803
    3CHTO   O48 1046   5.500   2.149   1.636  0.1610  0.1878 -0.0900
    3CHTO  H105 1047   5.530   2.078   1.584 -0.0121  0.3117 -0.3629
    3CHTO   O38 1048   5.498   2.472   1.997 -0.4192 -0.2609  0.6790
    3CHTO   C55 1049   5.584   2.386   2.075  0.5318  0.5005  0.6537
    3CHTO  H112 1050   5.563   2.278   2.063 -0.8382  0.8544 -0.2151
    3CHTO   C56 1051   5.569   2.432   2.225  0.3449  0.4484  0.5327
    3CHTO  H113 1052   5.566   2.541   2.239 -0.7807  0.4846  0.0309
    3CHTO   O42 1053   5.446   2.385   2.278  0.4026 -0.4682 -0.2779
    3CHTO  H100 1054   5.423   2.433   2.355  0.7490  0.0229 -0.4745
    3CHTO   C57 1055   5.692   2.384   2.312  0.0746  0.2195  0.1084
    3CHTO  H114 1056   5.676   2.277   2.318 -0.4482  0.4393  3.9073
    3CHTO   N10 1057   5.708   2.447   2.452 -0.0338  0.2509 -0.3792
    3CHTO  H106 1058   5.645   2.386   2.515  0.3842 -1.0557 -1.2021
    3CHTO  H107 1059   5.671   2.549   2.451  1.4218  0.8529  1.6043
    3CHTO   C58 1060   5.825   2.405   2.234 -0.0996  0.1915  0.2230
    3CHTO  H115 1061   5.853   2.513   2.231  3.6372 -0.6417  1.6563
    3CHTO   O37 1062   5.826   2.342   2.106  0.0676 -0.2751 -0.0282
    3CHTO   C59 1063   5.733   2.408   2.020  0.1525 -0.1390  0.0637
    3CHTO  H116 1064   5.749   2.514   2.005 -0.0548 -0.2660 -1.1340
    3CHTO   C70 1065   5.751   2.349   1.875 -0.0194 -0.0986  0.6266
    3CHTO   O46 1066   5.868   2.390   1.810 -0.2549 -0.0557 -0.1535
    3CHTO  H103 1067   5.910   2.311   1.780  1.2396  0.6202  0.1109
    3CHTO   O39 1068   5.957   2.331   2.305  0.3224 -0.3007 -0.3455
    3CHTO   C60 1069   6.091   2.388   2.291 -0.1539 -0.0790  0.7734
    3CHTO  H117 1070   6.085   2.469   2.218  0.9516 -1.2496 -0.6261
    3CHTO   C62 1071   6.136   2.452   2.427  0.4010 -0.0537  0.1647
    3CHTO  H119 1072   6.062   2.531   2.448 -0.6549 -1.0763  0.3876
    3CHTO   O43 1073   6.123   2.347   2.530 -0.2772 -0.5056 -0.4245
    3CHTO  H101 1074   6.185   2.367   2.597  0.9145 -0.5086 -1.4978
    3CHTO   C66 1075   6.289   2.503   2.406  0.1508  0.1349  0.4453
    3CHTO  H123 1076   6.290   2.568   2.319 -0.0091 -1.3573 -0.6844
    3CHTO   N12 1077   6.339   2.588   2.522 -0.5373  0.4949 -0.3997
    3CHTO  H110 1078   6.260   2.662   2.518 -0.1172  0.9739  0.0531
    3CHTO  H111 1079   6.437   2.617   2.487 -0.1877  1.0808  1.0275
    3CHTO   C69 1080   6.387   2.391   2.362  0.2152 -0.4862 -0.5826
    3CHTO  H126 1081   6.389   2.314   2.442 -0.6679  1.2981  1.2124
    3CHTO   O41 1082   6.341   2.339   2.244  0.6039 -0.1759  0.4532
    3CHTO   C64 1083   6.201   2.283   2.240  0.4590  0.0503 -0.4235
    3CHTO  H121 1084   6.200   2.191   2.302 -1.8613  0.8109  0.7290
    3CHTO   C71 1085   6.159   2.237   2.095 -0.2848  0.7140  0.2848
    3CHTO   O47 1086   6.247   2.141   2.035  0.0563 -1.1735 -0.3740
    3CHTO  H104 1087   6.206   2.058   2.019 -0.9831 -1.0635  1.5390
    3CHTO   O34 1088   6.533   2.461   2.331 -0.2771  0.4300  0.3106
    3CHTO   C49 1089   6.670   2.426   2.278  0.6177  0.0770  0.6387
    3CHTO   H91 1090   6.744   2.468   2.345  0.0646  0.9560  0.7068
    3CHTO   C47 1091   6.684   2.489   2.142  0.7508 -0.4092  0.1836
    3CHTO   H89 1092   6.787   2.456   2.113  1.1086 -0.2684  1.2795
    3CHTO   O33 1093   6.680   2.638   2.150  0.4817 -0.5649  0.6405
    3CHTO   H70 1094   6.595   2.663   2.180 -0.5542 -0.2033 -2.4094
    3CHTO   C45 1095   6.580   2.421   2.039 -0.4091 -0.8081  0.7916
    3CHTO   H87 1096   6.477   2.445   2.071 -0.1218  3.1537 -0.9520
    3CHTO    N8 1097   6.602   2.484   1.903 -0.0530  0.1042 -0.2067
    3CHTO   H75 1098   6.562   2.585   1.907 -0.0032  0.0633  2.6809
    3CHTO   H76 1099   6.550   2.425   1.829  0.7350  0.9502 -1.4394
    3CHTO   C43 1100   6.591   2.266   2.035 -0.0770  0.8071  0.0658
    3CHTO   H85 1101   6.499   2.233   1.986 -0.4607  1.4759  0.3430
    3CHTO   O29 1102   6.606   2.210   2.169 -0.3057 -0.2622 -0.5079
    3CHTO   C50 1103   6.688   2.274   2.269 -0.0711 -0.1356  0.5645
    3CHTO   H92 1104   6.666   2.230   2.368  1.4687 -1.1805  0.4665
    3CHTO   C54 1105   6.834   2.221   2.250  0.2223  0.1558  0.1119
    3CHTO   O36 1106   6.913   2.281   2.353  0.0789 -0.1831  0.4661
    3CHTO   H72 1107   6.992   2.231   2.363 -0.2116 -0.8592 -0.5968
    3CHTO   O27 1108   6.692   2.209   1.949 -0.0715 -0.0471 -0.6456
    3CHTO   C37 1109   6.724   2.079   1.898 -0.3876 -0.3607  0.1159
    3CHTO   H79 1110   6.802   2.029   1.957  0.6686  0.9925 -0.1297
    3CHTO   C38 1111   6.596   1.985   1.906 -0.0983 -0.3388  1.1460
    3CHTO   H80 1112   6.518   2.027   1.842 -0.5776  0.7341  2.4080
    3CHTO   O31 1113   6.547   1.971   2.041  0.3471 -0.1769  0.0608
    3CHTO   H68 1114   6.494   2.044   2.068 -0.6971 -1.0018  0.2402
    3CHTO   C39 1115   6.624   1.843   1.853  0.0975 -0.0917  0.1989
    3CHTO   H81 1116   6.699   1.807   1.923  1.2786  1.2875 -0.3306
    3CHTO    N7 1117   6.505   1.755   1.848 -0.8889 -0.4313  0.3667
    3CHTO   H73 1118   6.474   1.751   1.951  1.7517 -1.3030  1.1497
    3CHTO   H74 1119   6.420   1.789   1.790  1.0014  1.5341 -1.3580
    3CHTO   C40 1120   6.690   1.852   1.714  0.9863  0.4920  0.1450
    3CHTO   H82 1121   6.623   1.879   1.633 -1.3254  1.8886  2.4387
    3CHTO   O26 1122   6.803   1.941   1.719  0.4584 -0.0310  0.5876
    3CHTO   C41 1123   6.756   2.075   1.744 -0.1400  0.0945 -0.4660
    3CHTO   H83 1124   6.660   2.102   1.697 -1.3238  0.6160  2.1727
    3CHTO   C52 1125   6.867   2.171   1.701 -0.2169  0.1053 -0.4208
    3CHTO   O35 1126   6.843   2.314   1.697 -0.1064  0.1231 -0.1172
    3CHTO   H71 1127   6.792   2.337   1.622 -2.6447  0.1683  1.5770
    3CHTO   O28 1128   6.751   1.722   1.685 -0.0931 -0.4317 -0.2069
    3CHTO   C42 1129   6.779   1.674   1.552 -0.2970  0.2968 -0.2959
    3CHTO   H84 1130   6.862   1.606   1.572  1.2871  2.5345  1.0031
    3CHTO   C44 1131   6.839   1.776   1.445  0.5628 -0.6975 -0.2429
    3CHTO   H86 1132   6.758   1.845   1.421 -0.0135 -0.2931  2.6118
    3CHTO   O32 1133   6.954   1.848   1.496 -0.0036  0.1345 -0.1894
    3CHTO   H69 1134   7.000   1.898   1.431 -0.9633  0.2996 -0.7511
    3CHTO   C48 1135   6.870   1.704   1.305 -0.0468  0.3258 -0.5262
    3CHTO   H90 1136   6.944   1.626   1.324 -0.8523 -0.0519  1.1280
    3CHTO    N9 1137   6.917   1.800   1.196  0.1781  0.0390 -0.3960
    3CHTO   H77 1138   6.834   1.860   1.164  0.4616  0.6809  0.0515
    3CHTO   H78 1139   6.960   1.751   1.110 -2.0018  0.6864 -1.8998
    3CHTO   C51 1140   6.753   1.609   1.258 -0.0359  0.4243 -0.3372
    3CHTO   H93 1141   6.665   1.665   1.227 -1.6097 -1.8715 -0.0680
    3CHTO   O30 1142   6.722   1.523   1.370 -0.3224 -0.8579 -0.0174
    3CHTO   C46 1143   6.667   1.598   1.483 -0.0405  0.4848  0.2857
    3CHTO   H88 1144   6.590   1.659   1.435 -0.9368 -2.5648 -2.2961
    3CHTO   C53 1145   6.604   1.505   1.591 -0.8616  0.5013 -0.3313
    3CHTO   O72 1146   6.511   1.412   1.536 -0.3210  0.2139  0.5060
    3CHTO  H199 1147   6.471   1.363   1.605  0.8857 -1.0366  0.3480
    3CHTO   O22 1148   6.792   1.519   1.150 -0.5563 -0.6983 -0.1000
    3CHTO   C31 1149   6.710   1.483   1.039  0.3976  0.7130 -0.2500
    3CHTO   H59 1150   6.760   1.399   0.987 -1.0104  0.4070 -1.1094
    3CHTO   C29 1151   6.570   1.427   1.085  0.1267  0.3588  0.0969
    3CHTO   H57 1152   6.519   1.501   1.149  0.4907 -1.8664  3.0222
    3CHTO   O21 1153   6.598   1.324   1.184  0.0353  0.1188 -0.1132
    3CHTO   H37 1154   6.530   1.303   1.245  0.9631 -0.6268  0.6705
    3CHTO   C27 1155   6.480   1.382   0.963 -0.1007 -0.6207 -0.1146
    3CHTO   H55 1156   6.526   1.303   0.903  1.7902  1.8467 -2.0279
    3CHTO    N5 1157   6.345   1.333   1.005  0.7930 -0.2513  0.0772
    3CHTO   H43 1158   6.345   1.225   1.003  0.4787 -0.2862  1.4962
    3CHTO   H44 1159   6.327   1.367   1.106 -6.1085 -0.5235 -0.8807
    3CHTO   C25 1160   6.473   1.508   0.867  0.6435 -0.4477 -0.2926
    3CHTO   H53 1161   6.419   1.590   0.916 -0.5857 -1.0937 -0.5470
    3CHTO   O17 1162   6.604   1.558   0.834  0.0148  0.5471  0.1102
    3CHTO   C32 1163   6.696   1.599   0.933 -0.0893  0.7939 -0.2779
    3CHTO   H60 1164   6.653   1.683   0.988  1.6640  0.9754  0.8481
    3CHTO   C36 1165   6.829   1.636   0.860 -0.5770  0.3762 -0.1649
    3CHTO   O25 1166   6.880   1.520   0.791 -0.3708 -0.2904 -0.2683
    3CHTO   H40 1167   6.821   1.502   0.720  0.1579  1.1637 -1.0933
    3CHTO   O15 1168   6.389   1.477   0.738  0.1426  0.3070  0.8480
    3CHTO   C19 1169   6.319   1.557   0.646 -0.0014  0.1157  0.0202
    3CHTO   H47 1170   6.292   1.485   0.567  0.4608  0.2590 -0.2659
    3CHTO   C20 1171   6.189   1.624   0.708  0.5067  0.2811 -0.4324
    3CHTO   H48 1172   6.209   1.665   0.808 -1.4898 -3.1397  1.4639
    3CHTO   O19 1173   6.116   1.503   0.740 -0.1530 -0.1523 -0.1622
    3CHTO   H35 1174   6.031   1.523   0.773  0.3476  3.4618 -0.8182
    3CHTO   C21 1175   6.119   1.731   0.618 -0.8379  0.6352 -0.0826
    3CHTO   H49 1176   6.072   1.682   0.532 -0.6910 -0.8436  0.6671
    3CHTO    N4 1177   6.010   1.798   0.694 -0.3403 -0.0306 -0.2779
    3CHTO   H41 1178   6.023   1.906   0.695  0.4408 -0.1208 -0.1072
    3CHTO   H42 1179   6.005   1.760   0.794  1.3023  0.0871 -0.1241
    3CHTO   C22 1180   6.230   1.829   0.566  0.0520 -0.2954 -0.7889
    3CHTO   H50 1181   6.270   1.889   0.647 -3.3020  0.8493  0.0797
    3CHTO   O14 1182   6.333   1.748   0.496 -0.1406  0.1356  0.1566
    3CHTO   C23 1183   6.410   1.662   0.581  0.0198  0.5190 -0.1963
    3CHTO   H51 1184   6.458   1.728   0.655  0.3860  0.1076 -0.0636
    3CHTO   C34 1185   6.519   1.608   0.495  0.3232  0.4102 -0.1606
    3CHTO   O23 1186   6.578   1.711   0.417 -0.0663  0.1239  0.1030
    3CHTO   H38 1187   6.536   1.704   0.334  0.0776 -1.2031  0.1348
    3CHTO   O16 1188   6.186   1.914   0.460 -0.3263  0.0019  0.0095
    3CHTO   C24 1189   6.216   2.087   0.484 -0.2761 -0.8461  0.4352
    3CHTO   H52 1190   6.262   2.108   0.581 -0.1388  0.9756 -0.0138
    3CHTO   C26 1191   6.090   2.169   0.484 -0.5305  0.0229  0.5600
    3CHTO   H54 1192   6.024   2.126   0.405  1.5370 -2.9574  0.3969
    3CHTO   O20 1193   6.020   2.152   0.610  0.1496  0.2029 -0.2943
    3CHTO   H36 1194   5.954   2.085   0.607  2.1905 -2.0238  2.1040
    3CHTO   C30 1195   6.114   2.325   0.468  0.6009  0.4151  0.4758
    3CHTO   H58 1196   6.137   2.365   0.568  0.0573  1.6929  0.0912
    3CHTO    N6 1197   5.988   2.402   0.432 -0.4635  0.1856 -0.6823
    3CHTO   H45 1198   5.928   2.437   0.515  1.2275  2.4952 -0.3816
    3CHTO   H46 1199   6.010   2.482   0.363 -0.4118  2.8554  2.3026
    3CHTO   C33 1200   6.237   2.363   0.378 -0.0158  0.3525  0.0690
    3CHTO   H61 1201   6.207   2.358   0.272 -1.5260 -0.3857  0.5076
    3CHTO   O18 1202   6.351   2.275   0.397 -0.0236  0.7279 -0.1435
    3CHTO   C28 1203   6.318   2.140   0.372  0.0236 -0.0721  0.6572
    3CHTO   H56 1204   6.272   2.126   0.275  0.7577  0.4836  0.2166
    3CHTO   C35 1205   6.451   2.054   0.358 -0.2884 -0.1330  0.3161
    3CHTO   O24 1206   6.548   2.044   0.460  0.1679 -0.4938  0.4362
    3CHTO   H39 1207   6.615   1.979   0.445  0.9230  0.7694 -1.9337
    3CHTO    O9 1208   6.272   2.503   0.406 -0.5368  0.6485  0.4660
    3CHTO   C13 1209   6.289   2.607   0.302 -0.2427 -0.4223 -0.1584
    3CHTO   H26 1210   6.200   2.601   0.236  0.5784  0.8198 -1.4164
    3CHTO   C11 1211   6.422   2.583   0.223  0.0297 -0.2323 -0.6079
    3CHTO   H24 1212   6.410   2.488   0.168 -1.0440  0.5593 -1.7582
    3CHTO    O8 1213   6.534   2.559   0.311  0.1048  0.0281  0.2117
    3CHTO    H3 1214   6.592   2.633   0.320  1.2263 -0.6869 -1.0152
    3CHTO    C9 1215   6.432   2.698   0.111  0.1138  0.5002 -0.3428
    3CHTO   H22 1216   6.349   2.672   0.045 -0.4291  0.8468  0.2008
    3CHTO    N2 1217   6.557   2.703   0.033  0.3515 -0.0564 -0.7147
    3CHTO   H10 1218   6.542   2.654  -0.062 -1.6680  1.1425 -1.0454
    3CHTO   H11 1219   6.639   2.664   0.092  1.9216 -0.0060 -2.7837
    3CHTO    C7 1220   6.402   2.844   0.170  0.4292 -0.4475 -0.0291
    3CHTO   H20 1221   6.301   2.863   0.129  0.6528  2.3280  0.5776
    3CHTO    O4 1222   6.383   2.837   0.312 -0.0163  0.0421 -0.3130
    3CHTO   C14 1223   6.279   2.751   0.368  0.3749  0.0933  0.1727
    3CHTO   H27 1224   6.185   2.801   0.339  0.0266 -0.5085  0.2400
    3CHTO   C18 1225   6.294   2.761   0.527  0.0856  0.7881  0.2200
    3CHTO   O13 1226   6.173   2.724   0.590  0.2702  0.1418 -0.5809
    3CHTO    H7 1227   6.104   2.756   0.535 -0.4215  1.0964  0.8057
    3CHTO    O2 1228   6.499   2.960   0.147  0.1392 -0.2377  0.1626
    3CHTO    C1 1229   6.458   3.100   0.127 -0.1138  0.2846 -0.1172
    3CHTO   H14 1230   6.536   3.165   0.172  1.2232 -0.4635 -1.2844
    3CHTO    C2 1231   6.323   3.131   0.204 -0.5542  0.3826 -0.1384
    3CHTO   H15 1232   6.245   3.059   0.174  0.6398 -0.6256 -0.8615
    3CHTO    O6 1233   6.354   3.116   0.345  0.0850 -0.1492 -0.2862
    3CHTO    H1 1234   6.296   3.165   0.400 -2.1958 -1.7586 -1.1729
    3CHTO    C3 1235   6.266   3.269   0.178  0.2573 -0.4256  0.2397
    3CHTO   H16 1236   6.332   3.346   0.220  0.6718 -1.0104  0.6593
    3CHTO    N1 1237   6.131   3.296   0.240 -0.2455 -0.1253  0.0089
    3CHTO    H8 1238   6.160   3.371   0.313  0.8691  0.0323 -0.5939
    3CHTO    H9 1239   6.068   3.344   0.166  0.4827  0.2896 -0.3510
    3CHTO    C4 1240   6.265   3.290   0.021 -0.2516  0.0817 -0.3089
    3CHTO   H17 1241   6.191   3.223  -0.024  0.5357 -0.6255 -0.5639
    3CHTO    O1 1242   6.388   3.266  -0.044 -0.0601  0.2906 -0.5616
    3CHTO    C5 1243   6.444   3.134  -0.025  0.5690  0.3718  0.4398
    3CHTO   H18 1244   6.374   3.058  -0.059 -0.7022  1.0086  1.5775
    3CHTO   C16 1245   6.570   3.133  -0.114 -0.5153 -0.5569  0.1069
    3CHTO   O11 1246   6.669   3.228  -0.064  0.3177  0.2057 -0.3938
    3CHTO    H5 1247   6.745   3.223  -0.120 -0.2950 -0.5088 -1.1621
    3CHTO    O3 1248   6.238   3.429  -0.017 -0.2565  0.1579 -0.1966
    3CHTO    C6 1249   6.169   3.461  -0.147 -0.2857 -0.2508 -0.0221
    3CHTO   H19 1250   6.173   3.375  -0.214 -1.0635 -1.2149  1.1216
    3CHTO    C8 1251   6.024   3.500  -0.113  0.5464 -0.0548 -0.4006
    3CHTO   H21 1252   6.024   3.582  -0.041  1.4395 -1.2276  0.9631
    3CHTO    O7 1253   5.961   3.380  -0.052 -0.0668  0.5980  0.4953
    3CHTO    H2 1254   5.893   3.413   0.003 -1.7853 -1.5011 -0.2449
    3CHTO   C12 1255   5.951   3.549  -0.240 -0.8055  0.3141  0.1055
    3CHTO   H25 1256   5.950   3.465  -0.312  2.3217  0.4284 -0.1578
    3CHTO    N3 1257   5.810   3.594  -0.216 -0.1275 -0.3240 -0.1827
    3CHTO   H12 1258   5.773   3.656  -0.297 -0.4142 -1.3721 -0.8591
    3CHTO   H13 1259   5.809   3.648  -0.123 -1.7721  1.7676 -1.3636
    3CHTO   C15 1260   6.035   3.669  -0.315 -0.0872  0.0136 -0.3885
    3CHTO   H28 1261   6.046   3.752  -0.245 -1.3895  0.4633 -0.7064
    3CHTO   O10 1262   5.988   3.710  -0.452 -0.0230 -0.5940  0.7468
    3CHTO    H4 1263   5.902   3.678  -0.470  0.2260 -2.1341  2.0842
    3CHTO    O5 1264   6.166   3.617  -0.341 -0.1907 -0.0971  1.1496
    3CHTO   C10 1265   6.242   3.580  -0.223 -0.1648  0.3742 -0.5511
    3CHTO   H23 1266   6.250   3.667  -0.157  0.2603  0.8144 -1.1670
    3CHTO   C17 1267   6.392   3.549  -0.252 -0.1948 -0.4085 -0.2817
    3CHTO   O12 1268   6.401   3.443  -0.351 -0.3994  0.0450 -0.4294
    3CHTO    H6 1269   6.348   3.367  -0.340 -1.7153  0.5644 -2.7062
    4CHTO  H203 1270   6.180   6.646   1.629 -0.7508 -0.0951  0.0278
    4CHTO   O82 1271   6.215   6.618   1.712 -0.1823  0.7451  0.0840
    4CHTO  C123 1272   6.348   6.664   1.731 -0.2206 -0.1548  1.0472
    4CHTO  H227 1273   6.397   6.597   1.803 -0.7157 -0.8267  0.7635
    4CHTO   O77 1274   6.415   6.658   1.598  0.4774  0.4819  0.0834
    4CHTO  C118 1275   6.553   6.697   1.607 -0.4761 -0.4540 -0.3580
    4CHTO  H222 1276   6.609   6.640   1.683  1.0961  0.6542 -0.6631
    4CHTO  C125 1277   6.620   6.662   1.461 -0.6480 -0.0789  0.3360
    4CHTO   O84 1278   6.551   6.732   1.357 -0.1510 -0.3976  0.6271
    4CHTO  H205 1279   6.499   6.664   1.319 -1.5668  0.8055  0.3457
    4CHTO  C114 1280   6.567   6.844   1.645 -0.7522  0.3152  0.4871
    4CHTO  H218 1281   6.510   6.902   1.572 -0.3231  0.4264  0.2391
    4CHTO  C116 1282   6.500   6.868   1.779  0.5482  0.0325 -0.0856
    4CHTO  H220 1283   6.557   6.816   1.859 -1.1038 -0.8975  0.5018
    4CHTO   O79 1284   6.515   7.006   1.803  0.4110  0.3745 -0.3040
    4CHTO  H201 1285   6.568   7.024   1.878 -0.1260  1.1201 -0.1069
    4CHTO  C120 1286   6.356   6.818   1.783 -0.1374  0.2069 -0.1158
    4CHTO  H224 1287   6.297   6.887   1.718  0.0519  1.5088  1.0777
    4CHTO   N21 1288   6.292   6.830   1.915  1.1120  0.3957  0.2043
    4CHTO  H211 1289   6.368   6.806   1.989 -0.1529 -2.3671  0.6709
    4CHTO  H212 1290   6.208   6.763   1.920  2.3226 -1.1473  0.2347
    4CHTO   O75 1291   6.709   6.869   1.657 -0.5918 -0.0890 -0.3250
    4CHTO  C112 1292   6.784   6.977   1.547 -0.3456  0.4536  0.6349
    4CHTO  H216 1293   6.706   7.042   1.505  0.9249  0.4317 -1.8857
    4CHTO   O73 1294   6.846   6.905   1.440 -0.5635  0.6726  0.1653
    4CHTO  C113 1295   6.894   6.983   1.331 -0.0702 -0.0072  0.3807
    4CHTO  H217 1296   6.811   7.044   1.291  1.4555  1.0555 -1.2364
    4CHTO  C124 1297   6.938   6.887   1.219 -0.0992  0.2375 -0.3493
    4CHTO   O83 1298   6.838   6.798   1.177 -0.0801 -0.4177 -0.6136
    4CHTO  H204 1299   6.874   6.751   1.103  0.9754  2.5582 -2.0589
    4CHTO  C109 1300   7.008   7.080   1.373  0.1620  0.1717 -0.3061
    4CHTO  H213 1301   7.093   7.017   1.404 -0.0517  1.0950  2.2579
    4CHTO  C110 1302   6.965   7.160   1.507 -1.0933 -0.3805  0.1418
    4CHTO  H214 1303   6.899   7.245   1.487 -0.3664  0.3918  0.9761
    4CHTO   O78 1304   7.080   7.225   1.566 -0.1299  0.6340 -0.4303
    4CHTO  H200 1305   7.065   7.296   1.625  0.5653  0.1762  0.3196
    4CHTO  C111 1306   6.897   7.069   1.616  0.6999 -0.5434 -0.0845
    4CHTO  H215 1307   6.977   7.002   1.652  1.6778 -0.5057 -2.1189
    4CHTO   N19 1308   6.843   7.135   1.736 -0.0809 -0.3842 -0.2907
    4CHTO  H207 1309   6.928   7.170   1.794  0.3587 -2.0646  0.1143
    4CHTO  H208 1310   6.776   7.216   1.711 -0.4278 -0.2897  0.9102
    4CHTO   O74 1311   7.046   7.168   1.261 -0.3559 -0.0674  0.0092
    4CHTO  C115 1312   7.162   7.276   1.287  1.0648  0.2094  0.1605
    4CHTO  H219 1313   7.127   7.353   1.355 -0.2156  0.8272 -1.1760
    4CHTO   O76 1314   7.275   7.214   1.361 -0.0840  0.0272  0.0627
    4CHTO  C122 1315   7.333   7.114   1.275 -0.0607 -0.2197 -0.2510
    4CHTO  H226 1316   7.253   7.044   1.251 -1.2298  0.2179  2.2003
    4CHTO  C126 1317   7.429   7.028   1.364 -0.4366  0.4288  0.0329
    4CHTO   O85 1318   7.342   6.968   1.460  0.0727 -0.9738  0.3982
    4CHTO  H206 1319   7.299   6.900   1.413  1.9439 -1.0027 -1.3366
    4CHTO  C121 1320   7.410   7.178   1.148  0.0586  0.1894 -0.2847
    4CHTO  H225 1321   7.517   7.189   1.176  0.0427  0.1552 -0.2119
    4CHTO   O81 1322   7.387   7.108   1.026 -0.0796  0.6245  0.8214
    4CHTO  H202 1323   7.473   7.079   1.003 -0.0399  2.5749 -1.7224
    4CHTO  C119 1324   7.358   7.326   1.132 -0.1834 -0.3966  0.2549
    4CHTO  H223 1325   7.403   7.376   1.218 -1.0646  1.2343 -0.2064
    4CHTO  C117 1326   7.199   7.335   1.144 -0.5864 -0.1183  0.2670
    4CHTO  H221 1327   7.148   7.277   1.068  0.4451  1.0979 -1.3958
    4CHTO   N20 1328   7.144   7.477   1.136 -0.6549  0.6216  0.4003
    4CHTO  H209 1329   7.054   7.490   1.194 -0.6170  1.0010  0.3764
    4CHTO  H210 1330   7.157   7.514   1.035 -2.6353  0.9347  0.2485
    4CHTO   O80 1331   7.422   7.414   1.012 -0.4056 -0.4706  0.4027
    4CHTO  C103 1332   7.556   7.501   1.028  1.0506 -0.3503  0.1918
    4CHTO  H190 1333   7.552   7.564   1.117 -0.3008 -0.4420  0.2047
    4CHTO  C101 1334   7.692   7.429   1.021 -0.2532 -1.0467 -0.5771
    4CHTO  H188 1335   7.696   7.349   0.947 -0.8942 -1.5281 -0.1010
    4CHTO   O68 1336   7.708   7.359   1.153  0.1603  0.1039 -0.0855
    4CHTO  H168 1337   7.747   7.414   1.219  1.1080 -1.0283  0.3397
    4CHTO   C99 1338   7.812   7.537   0.996 -0.7147  0.0275  0.1093
    4CHTO  H186 1339   7.817   7.612   1.077  0.3533  1.5874 -1.3454
    4CHTO   N17 1340   7.950   7.483   0.976  0.0239 -0.1395 -0.4585
    4CHTO  H174 1341   7.949   7.380   0.944 -0.0746  0.9545 -4.2247
    4CHTO  H175 1342   7.994   7.540   0.895  0.1061  0.5571  0.0711
    4CHTO   C97 1343   7.775   7.623   0.876  0.6121 -0.1928  0.0901
    4CHTO  H184 1344   7.771   7.551   0.793 -0.1965  0.2962 -0.2957
    4CHTO   O64 1345   7.645   7.688   0.898  0.3496  0.2222  1.0200
    4CHTO  C104 1346   7.538   7.590   0.902  0.3554  0.4819  0.1412
    4CHTO  H191 1347   7.535   7.533   0.809 -0.3404 -0.0066  0.4653
    4CHTO  C108 1348   7.402   7.670   0.909  0.2899 -0.1818  0.2572
    4CHTO   O71 1349   7.390   7.751   0.793  0.2224 -0.1452  0.1702
    4CHTO  H171 1350   7.379   7.689   0.723  0.0481 -0.2234  0.2681
    4CHTO   O62 1351   7.869   7.726   0.837 -0.3510 -0.2471 -0.3861
    4CHTO   C91 1352   7.909   7.743   0.699 -0.8087  0.3314  0.1645
    4CHTO  H178 1353   7.946   7.645   0.669 -0.2761  0.9655 -1.3032
    4CHTO   C92 1354   8.036   7.835   0.697  0.0569  0.0148 -0.5090
    4CHTO  H179 1355   8.020   7.927   0.756  0.4009 -0.2825  0.0423
    4CHTO   O66 1356   8.150   7.759   0.747  0.7946 -0.0860 -0.0424
    4CHTO  H166 1357   8.113   7.709   0.817 -3.3535  1.1518 -1.1631
    4CHTO   C93 1358   8.073   7.891   0.549 -0.4609  0.2074 -0.0198
    4CHTO  H180 1359   8.110   7.811   0.483  0.7131 -1.6114  2.7649
    4CHTO   N16 1360   8.185   7.990   0.553  0.4624  0.7404  0.2870
    4CHTO  H172 1361   8.156   8.090   0.522  2.0354  0.3010 -2.7745
    4CHTO  H173 1362   8.289   7.964   0.540  0.8486  1.9859  0.7720
    4CHTO   C94 1363   7.937   7.945   0.492  0.0380  0.1771 -0.4765
    4CHTO  H181 1364   7.886   8.011   0.562 -0.0630 -0.3686 -0.0317
    4CHTO   O61 1365   7.850   7.832   0.472  0.3681 -0.1023 -0.2142
    4CHTO   C95 1366   7.795   7.779   0.595 -0.2929  0.1382 -0.5828
    4CHTO  H182 1367   7.726   7.851   0.638  0.1981  1.7587 -2.4498
    4CHTO  C106 1368   7.693   7.677   0.547  0.5458 -0.5746  0.0069
    4CHTO   O69 1369   7.568   7.730   0.503  0.2980 -0.2090  0.1410
    4CHTO  H169 1370   7.574   7.746   0.411  0.9229  2.6343  0.6149
    4CHTO   O63 1371   7.960   8.026   0.355 -0.1353  0.8085 -0.0366
    4CHTO   C96 1372   7.825   8.084   0.294 -0.2443  0.3072  0.1887
    4CHTO  H183 1373   7.744   8.052   0.359 -0.5652 -1.3379 -0.9815
    4CHTO   C98 1374   7.785   8.027   0.154  0.6027  0.5439  0.5272
    4CHTO  H185 1375   7.864   8.039   0.078  1.2953  0.4616  1.2299
    4CHTO   O67 1376   7.769   7.884   0.170  0.3268 -0.0920 -0.6408
    4CHTO  H167 1377   7.682   7.870   0.201  1.1888  0.3850  2.1261
    4CHTO  C102 1378   7.660   8.095   0.100 -0.2945 -0.7147  0.4358
    4CHTO  H189 1379   7.578   8.056   0.161 -0.6636 -1.0325 -0.2617
    4CHTO   N18 1380   7.623   8.054  -0.038  0.2158  0.2778  0.4664
    4CHTO  H176 1381   7.703   8.060  -0.110 -0.7895 -1.4239 -0.8534
    4CHTO  H177 1382   7.577   7.956  -0.033 -3.0888  1.8385  2.2194
    4CHTO  C105 1383   7.676   8.247   0.116 -0.3646 -0.0570  0.5637
    4CHTO  H192 1384   7.664   8.287   0.016 -0.6183 -1.0123  0.2065
    4CHTO   O65 1385   7.804   8.292   0.163 -0.8872  0.1009 -0.7242
    4CHTO  C100 1386   7.848   8.240   0.290  0.1311 -0.5205 -0.2415
    4CHTO  H187 1387   7.956   8.258   0.289 -0.0004  0.2535 -0.7592
    4CHTO  C107 1388   7.780   8.315   0.410  0.7107  0.1681  0.3197
    4CHTO   O70 1389   7.856   8.271   0.526 -0.1862  0.0143  0.3166
    4CHTO  H170 1390   7.822   8.197   0.572  0.2004 -0.0845  0.4462
    4CHTO   O57 1391   7.541   8.282   0.202 -0.1759 -0.2030  0.4979
    4CHTO   C85 1392   7.457   8.396   0.169 -0.1042 -0.0253 -0.3079
    4CHTO  H157 1393   7.505   8.426   0.074  2.2452 -2.7597 -0.0588
    4CHTO   C83 1394   7.480   8.510   0.272  0.0794 -0.4733 -0.0898
    4CHTO  H155 1395   7.587   8.535   0.269 -0.0476 -0.0487 -2.7598
    4CHTO   O56 1396   7.470   8.444   0.401  0.0266 -0.0982 -0.1614
    4CHTO  H135 1397   7.391   8.397   0.418  0.8862 -1.4182  0.2545
    4CHTO   C81 1398   7.396   8.634   0.233  0.3883 -0.0862 -0.8390
    4CHTO  H153 1399   7.435   8.668   0.137  1.0715 -0.7090 -0.7934
    4CHTO   N14 1400   7.427   8.748   0.324 -0.4577 -0.1686 -0.0519
    4CHTO  H141 1401   7.445   8.837   0.266 -1.3066 -0.3623 -0.6080
    4CHTO  H142 1402   7.357   8.768   0.402 -0.8326 -3.1931  0.4371
    4CHTO   C79 1403   7.245   8.595   0.222 -0.4640 -0.3368 -0.0249
    4CHTO  H151 1404   7.192   8.682   0.184 -0.1612 -0.0365  0.2376
    4CHTO   O52 1405   7.232   8.493   0.125 -0.0746  0.0507 -0.5599
    4CHTO   C86 1406   7.309   8.372   0.158 -0.4705 -0.2408  0.2733
    4CHTO  H158 1407   7.278   8.340   0.259  0.0146 -1.4628  0.0469
    4CHTO   C90 1408   7.263   8.259   0.060 -0.5731  0.3608  0.4543
    4CHTO   O60 1409   7.131   8.266   0.012  0.0567 -0.2774  0.3769
    4CHTO  H138 1410   7.117   8.349  -0.029 -0.6745 -0.2625  0.6345
    4CHTO   O50 1411   7.187   8.567   0.352 -0.4892 -0.4041  0.0369
    4CHTO   C73 1412   7.076   8.545   0.441  0.0911  0.6543  0.2878
    4CHTO  H145 1413   7.017   8.638   0.436  1.4783  1.4998 -0.5170
    4CHTO   C74 1414   7.128   8.515   0.588  0.5332 -0.6231  0.3510
    4CHTO  H146 1415   7.199   8.598   0.601 -1.6188  1.3071  0.1482
    4CHTO   O54 1416   7.015   8.537   0.674 -0.1044 -0.3425 -0.0015
    4CHTO  H133 1417   7.009   8.464   0.733 -0.1176  1.2998  2.0390
    4CHTO   C75 1418   7.196   8.379   0.600  0.4924  0.5248  0.3223
    4CHTO  H147 1419   7.284   8.381   0.533 -0.4405 -0.0890 -0.9447
    4CHTO   N13 1420   7.267   8.356   0.730  0.1808 -0.7809 -0.2127
    4CHTO  H139 1421   7.350   8.288   0.715  0.1108 -1.0189  0.4680
    4CHTO  H140 1422   7.303   8.453   0.762  0.9505 -0.8976 -0.7078
    4CHTO   C76 1423   7.088   8.262   0.554 -0.0733  0.9765 -0.7031
    4CHTO  H148 1424   7.008   8.271   0.628  2.3087 -0.2090  2.1270
    4CHTO   O49 1425   7.041   8.291   0.413  0.7553 -0.0502 -0.2499
    4CHTO   C77 1426   6.983   8.420   0.399 -0.1580 -1.0652 -0.1603
    4CHTO  H149 1427   6.895   8.423   0.465 -0.2909 -0.9599 -0.3410
    4CHTO   C88 1428   6.935   8.430   0.254 -0.0736 -0.1029 -0.7237
    4CHTO   O58 1429   6.838   8.343   0.206  0.1261 -0.3215  0.1000
    4CHTO  H136 1430   6.851   8.251   0.224 -0.6615 -0.3071  0.8123
    4CHTO   O51 1431   7.157   8.110   0.553  0.0632 -0.5524 -0.6096
    4CHTO   C78 1432   7.190   8.044   0.419 -0.0695 -0.1684  0.4799
    4CHTO  H150 1433   7.187   8.117   0.335  1.1113 -1.0486 -0.3575
    4CHTO   C80 1434   7.096   7.926   0.389 -0.0572  0.4443 -0.3817
    4CHTO  H152 1435   7.100   7.850   0.470 -1.4363  0.2984 -0.4308
    4CHTO   O55 1436   6.962   7.973   0.373 -0.0948  0.3151  0.1169
    4CHTO  H134 1437   6.913   8.009   0.445 -0.0848  0.5999 -0.0209
    4CHTO   C84 1438   7.149   7.866   0.251  0.5362 -0.3931 -0.6608
    4CHTO  H156 1439   7.156   7.951   0.184 -2.6693  0.0876 -0.4795
    4CHTO   N15 1440   7.057   7.772   0.185 -0.3981  0.1061 -0.6268
    4CHTO  H143 1441   7.025   7.809   0.090  2.6536  1.3392 -1.2431
    4CHTO  H144 1442   6.969   7.744   0.239 -0.7431  1.9483 -0.2120
    4CHTO   C87 1443   7.286   7.801   0.276 -0.5786  0.1111 -0.3049
    4CHTO  H159 1444   7.285   7.726   0.355  1.2339  1.0612  0.6696
    4CHTO   O53 1445   7.378   7.909   0.328 -0.0817  0.0695  0.6670
    4CHTO   C82 1446   7.336   7.987   0.442  0.1337 -0.7758 -0.3727
    4CHTO  H154 1447   7.328   7.928   0.534 -1.8332  1.5600  1.0422
    4CHTO   C89 1448   7.436   8.101   0.473 -0.1076 -0.3088  0.1702
    4CHTO   O59 1449   7.557   8.045   0.526 -0.4230  0.0583 -0.3837
    4CHTO  H137 1450   7.634   8.099   0.530  0.5066 -1.4018  4.2870
    4CHTO   O45 1451   7.341   7.733   0.126 -0.0032 -0.9219  0.0024
    4CHTO   C67 1452   7.475   7.683   0.129 -0.2304  0.1681  0.7792
    4CHTO  H124 1453   7.540   7.755   0.178 -2.0413  0.8949  2.1864
    4CHTO   C65 1454   7.468   7.552   0.212 -0.0975 -0.6559 -0.2267
    4CHTO  H122 1455   7.417   7.569   0.307 -0.9369 -1.0503 -0.5956
    4CHTO   O44 1456   7.600   7.511   0.236  0.5211 -0.4119  0.1487
    4CHTO  H102 1457   7.663   7.517   0.167 -0.4496 -0.6552 -0.7712
    4CHTO   C63 1458   7.377   7.448   0.132 -0.3793 -0.2698 -0.9246
    4CHTO  H120 1459   7.279   7.493   0.120  0.2705  1.0518 -1.3840
    4CHTO   N11 1460   7.336   7.318   0.204  0.4480 -0.3526 -0.0281
    4CHTO  H108 1461   7.274   7.356   0.282 -0.0658 -1.1892 -0.0207
    4CHTO  H109 1462   7.286   7.257   0.132 -1.2269 -0.0947  0.8834
    4CHTO   C61 1463   7.427   7.434  -0.020  0.8213 -0.4081 -0.3876
    4CHTO  H118 1464   7.346   7.382  -0.073  0.2785  0.9669 -0.9189
    4CHTO   O40 1465   7.447   7.560  -0.091  0.4665  0.2942  0.2428
    4CHTO   C68 1466   7.519   7.665  -0.020  0.2268  0.2563 -0.1125
    4CHTO  H125 1467   7.495   7.758  -0.076 -0.5604  0.3641  0.3958
    4CHTO   C72 1468   7.667   7.646  -0.038 -0.4124  0.1991  0.1053
    4CHTO   O48 1469   7.712   7.707  -0.155  0.4516 -0.1188  0.0066
    4CHTO  H105 1470   7.806   7.706  -0.159  0.5569  0.6751  1.7547
    4CHTO   O38 1471   7.543   7.339  -0.027  0.5903 -0.6547 -0.2149
    4CHTO   C55 1472   7.539   7.249  -0.145  0.8262 -0.7742  0.3140
    4CHTO  H112 1473   7.450   7.274  -0.204  1.2135  1.1868  0.5316
    4CHTO   C56 1474   7.529   7.105  -0.094  0.1197  0.4484  0.2037
    4CHTO  H113 1475   7.613   7.085  -0.026  1.5122  0.0029 -1.6197
    4CHTO   O42 1476   7.410   7.093  -0.008 -0.1488 -0.5737  0.4230
    4CHTO  H100 1477   7.331   7.134  -0.038 -0.0143  0.3944  1.3467
    4CHTO   C57 1478   7.530   7.002  -0.219 -0.3973 -0.3621 -0.5436
    4CHTO  H114 1479   7.442   7.025  -0.280 -1.1083 -2.1091 -0.2081
    4CHTO   N10 1480   7.520   6.855  -0.188 -0.5397 -0.0680  0.2531
    4CHTO  H106 1481   7.464   6.804  -0.265  0.4369 -0.1506 -0.4131
    4CHTO  H107 1482   7.477   6.833  -0.092  1.4493  0.3735  1.2826
    4CHTO   C58 1483   7.658   7.034  -0.298  0.0784 -0.0323 -0.0883
    4CHTO  H115 1484   7.750   7.016  -0.239  0.6886  1.9685 -0.3958
    4CHTO   O37 1485   7.659   7.169  -0.349  0.7192 -0.0432  0.1284
    4CHTO   C59 1486   7.648   7.274  -0.251 -0.1076 -0.0416 -0.7157
    4CHTO  H116 1487   7.746   7.288  -0.205 -1.1284  1.7621  0.9368
    4CHTO   C70 1488   7.618   7.404  -0.324  0.5849  0.3460  0.3827
    4CHTO   O46 1489   7.730   7.457  -0.400  0.1736 -0.3803  0.4637
    4CHTO  H103 1490   7.756   7.541  -0.368 -0.2341 -1.7396  4.6525
    4CHTO   O39 1491   7.679   6.955  -0.432  0.1204  0.1231  0.1700
    4CHTO   C60 1492   7.581   6.927  -0.533  0.0129  0.1454 -0.2712
    4CHTO  H117 1493   7.484   6.907  -0.488 -0.2107  2.2594  0.2154
    4CHTO   C62 1494   7.553   7.038  -0.623  0.1639 -0.6903  0.2506
    4CHTO  H119 1495   7.522   7.123  -0.559  0.2306  0.6020 -1.3995
    4CHTO   O43 1496   7.674   7.087  -0.681  0.3357  0.3128  0.2113
    4CHTO  H101 1497   7.664   7.129  -0.764  1.3322 -0.5733 -0.3771
    4CHTO   C66 1498   7.435   7.015  -0.728 -0.0834 -0.0723 -0.1196
    4CHTO  H123 1499   7.346   6.980  -0.675 -1.8173  1.4775 -1.9072
    4CHTO   N12 1500   7.391   7.137  -0.800  0.2009  0.1430  0.4692
    4CHTO  H110 1501   7.305   7.106  -0.858 -0.2907 -0.0604  1.2985
    4CHTO  H111 1502   7.362   7.207  -0.724 -2.8376  0.3268 -0.7763
    4CHTO   C69 1503   7.480   6.893  -0.812  0.5066 -0.1990  0.6023
    4CHTO  H126 1504   7.572   6.918  -0.869  0.8941 -1.0570  0.8373
    4CHTO   O41 1505   7.523   6.768  -0.712  0.4220  0.2747  0.2093
    4CHTO   C64 1506   7.624   6.796  -0.614 -0.2633 -0.2614  0.2053
    4CHTO  H121 1507   7.720   6.813  -0.669 -0.9397  0.9269 -0.6463
    4CHTO   C71 1508   7.629   6.676  -0.518  0.0012 -0.2738  0.6231
    4CHTO   O47 1509   7.749   6.671  -0.441  0.2724  0.2539  0.3423
    4CHTO  H104 1510   7.739   6.726  -0.366 -0.8257 -2.5507  2.3353
    4CHTO   O34 1511   7.366   6.849  -0.909 -0.3646  0.3969 -0.4733
    4CHTO   C49 1512   7.348   6.757  -1.018  0.1869 -1.3179 -0.8903
    4CHTO   H91 1513   7.446   6.710  -1.025  0.7628 -0.1853 -0.5748
    4CHTO   C47 1514   7.325   6.844  -1.145  0.0490 -0.5407  0.0045
    4CHTO   H89 1515   7.326   6.785  -1.239 -0.2872  2.0929 -1.6947
    4CHTO   O33 1516   7.438   6.936  -1.146 -0.3935 -0.1745  0.1131
    4CHTO   H70 1517   7.468   6.966  -1.062  1.8066 -3.0310  0.4361
    4CHTO   C45 1518   7.174   6.916  -1.138  0.1268 -0.2825  0.8176
    4CHTO   H87 1519   7.161   6.964  -1.040 -2.2976  0.4504  0.1606
    4CHTO    N8 1520   7.156   7.022  -1.241  0.4464  0.2082 -0.0151
    4CHTO   H75 1521   7.126   6.970  -1.331  1.9515 -0.0608 -0.3719
    4CHTO   H76 1522   7.074   7.089  -1.219  0.7600  1.1671 -1.6219
    4CHTO   C43 1523   7.064   6.799  -1.129 -0.5099  0.2545  0.3496
    4CHTO   H85 1524   6.974   6.859  -1.113 -0.5545  1.4110 -3.6318
    4CHTO   O29 1525   7.098   6.709  -1.020  0.1252 -0.4380  0.4357
    4CHTO   C50 1526   7.231   6.657  -1.006 -0.5034  0.4417 -0.1914
    4CHTO   H92 1527   7.236   6.616  -0.904  0.3265  1.6843  0.2823
    4CHTO   C54 1528   7.257   6.522  -1.096  0.2523  0.2397  0.0011
    4CHTO   O36 1529   7.174   6.417  -1.042 -0.9085 -0.0520  0.2067
    4CHTO   H72 1530   7.191   6.337  -1.087 -0.3188 -0.1051  0.5291
    4CHTO   O27 1531   7.047   6.718  -1.249  0.0354  0.0729 -0.2368
    4CHTO   C37 1532   6.969   6.622  -1.325 -0.2619  0.4102 -0.2463
    4CHTO   H79 1533   6.892   6.680  -1.379 -1.1643  0.6654  1.2741
    4CHTO   C38 1534   7.057   6.539  -1.433  0.1276 -0.0741 -0.3070
    4CHTO   H80 1535   7.146   6.508  -1.376 -1.8560 -2.2825  1.6521
    4CHTO   O31 1536   7.100   6.638  -1.529  0.4004 -1.5543 -0.4101
    4CHTO   H68 1537   7.185   6.621  -1.566  0.5139  0.8087 -1.3489
    4CHTO   C39 1538   6.990   6.407  -1.488 -0.0842 -0.4409  0.2559
    4CHTO   H81 1539   6.909   6.436  -1.555  0.2248  0.4349  0.2525
    4CHTO    N7 1540   7.085   6.324  -1.572  0.2964 -0.3109 -0.0023
    4CHTO   H73 1541   7.125   6.386  -1.650 -0.0394  0.3269  0.3263
    4CHTO   H74 1542   7.163   6.301  -1.500  1.3553 -0.1928 -1.1048
    4CHTO   C40 1543   6.923   6.336  -1.364  0.3895 -0.1978 -0.0107
    4CHTO   H82 1544   7.006   6.304  -1.301  0.9283  0.2027 -0.5146
    4CHTO   O26 1545   6.831   6.419  -1.290 -0.8040  0.1141  0.0250
    4CHTO   C41 1546   6.901   6.523  -1.223 -0.2903 -0.1082 -1.1240
    4CHTO   H83 1547   6.975   6.480  -1.154 -1.5247  0.1772  0.4210
    4CHTO   C52 1548   6.800   6.601  -1.126 -0.6172 -0.4069 -0.5703
    4CHTO   O35 1549   6.734   6.522  -1.021 -0.5848 -0.0509 -0.0469
    4CHTO   H71 1550   6.697   6.440  -1.046  0.1367 -0.3074 -0.2755
    4CHTO   O28 1551   6.849   6.222  -1.407  0.3087  0.0269  0.1071
    4CHTO   C42 1552   6.789   6.116  -1.328  0.6826 -0.2213  0.0968
    4CHTO   H84 1553   6.746   6.057  -1.408 -1.3313  2.0663 -0.5497
    4CHTO   C44 1554   6.669   6.151  -1.232 -0.7703 -0.8600  1.1546
    4CHTO   H86 1555   6.701   6.227  -1.161 -0.4779 -0.0419  0.1460
    4CHTO   O32 1556   6.572   6.206  -1.314 -0.5133 -0.2618  0.2415
    4CHTO   H69 1557   6.504   6.256  -1.272  0.5248  1.7781 -0.4522
    4CHTO   C48 1558   6.622   6.031  -1.158 -0.0740  0.8434  0.2000
    4CHTO   H90 1559   6.578   5.962  -1.230  1.5634 -0.4901  0.4448
    4CHTO    N9 1560   6.514   6.062  -1.064 -0.0412  0.7692  0.5587
    4CHTO   H77 1561   6.430   6.103  -1.118  0.9236  0.7612 -0.9819
    4CHTO   H78 1562   6.482   5.975  -1.009 -1.2601  1.1331  0.4397
    4CHTO   C51 1563   6.734   5.951  -1.087 -0.0719  0.4990 -0.3245
    4CHTO   H93 1564   6.779   6.012  -1.009  0.7378 -0.0808 -0.3304
    4CHTO   O30 1565   6.828   5.914  -1.189 -0.3146  0.3578  0.0313
    4CHTO   C46 1566   6.887   6.037  -1.256 -0.2318 -0.1953  0.1482
    4CHTO   H88 1567   6.932   6.099  -1.179 -0.3829 -0.9149  0.8248
    4CHTO   C53 1568   6.994   5.992  -1.358 -0.2598 -0.1608  0.2067
    4CHTO   O72 1569   7.090   5.915  -1.293  0.4539  0.0211 -0.4965
    4CHTO  H199 1570   7.128   5.857  -1.355  0.3743 -1.2263  0.6010
    4CHTO   O22 1571   6.697   5.822  -1.034  0.6441  0.0011  0.2219
    4CHTO   C31 1572   6.703   5.789  -0.888  0.4768  0.6729  0.3024
    4CHTO   H59 1573   6.734   5.682  -0.889 -0.5424  0.3386 -2.4215
    4CHTO   C29 1574   6.806   5.866  -0.805  0.3541  0.2342  0.2489
    4CHTO   H57 1575   6.802   5.975  -0.818  1.5312  0.1751 -0.6780
    4CHTO   O21 1576   6.932   5.843  -0.873  0.3134  0.4098 -0.4842
    4CHTO   H37 1577   7.001   5.903  -0.854  2.7416 -2.0770 -0.9987
    4CHTO   C27 1578   6.809   5.830  -0.652  0.1584 -0.1562  0.0341
    4CHTO   H55 1579   6.837   5.725  -0.638  0.4719 -0.1456 -0.4960
    4CHTO    N5 1580   6.902   5.915  -0.571 -0.6959 -0.6011  0.5060
    4CHTO   H43 1581   6.852   5.972  -0.495 -0.1460 -1.8419  1.8130
    4CHTO   H44 1582   6.956   5.845  -0.510 -1.5927 -1.3221  0.4859
    4CHTO   C25 1583   6.669   5.849  -0.594  0.1862 -0.3952 -0.2476
    4CHTO   H53 1584   6.636   5.954  -0.599  1.2638 -0.0590 -0.4256
    4CHTO   O17 1585   6.580   5.759  -0.670  0.1369 -0.1209 -0.2686
    4CHTO   C32 1586   6.561   5.786  -0.811  0.2492  0.2696 -0.0303
    4CHTO   H60 1587   6.516   5.885  -0.818 -1.5862 -0.3289  2.6832
    4CHTO   C36 1588   6.463   5.675  -0.867 -0.4725 -0.3802 -0.3133
    4CHTO   O25 1589   6.412   5.717  -0.997  0.1005  0.3731 -0.1162
    4CHTO   H40 1590   6.362   5.643  -1.025  1.2186 -0.7265  0.7592
    4CHTO   O15 1591   6.654   5.807  -0.435 -0.2110 -0.2938 -0.4277
    4CHTO   C19 1592   6.694   5.706  -0.336  0.2023  1.0642  0.1087
    4CHTO   H47 1593   6.599   5.655  -0.318  1.6809 -1.0472  2.0841
    4CHTO   C20 1594   6.802   5.598  -0.379  0.4876 -0.2227 -0.1553
    4CHTO   H48 1595   6.897   5.646  -0.407 -0.3088  0.5872 -1.5378
    4CHTO   O19 1596   6.752   5.523  -0.489  0.6969  0.0979  0.2718
    4CHTO   H35 1597   6.762   5.561  -0.575 -0.4547  0.3663  0.2440
    4CHTO   C21 1598   6.831   5.496  -0.259 -0.1565 -0.7393 -0.4760
    4CHTO   H49 1599   6.738   5.449  -0.228  0.1038 -0.7068  0.3787
    4CHTO    N4 1600   6.937   5.392  -0.282  0.0255 -0.2678  0.3093
    4CHTO   H41 1601   7.035   5.434  -0.300  0.9289 -2.1203  0.8290
    4CHTO   H42 1602   6.947   5.326  -0.197  0.0540 -0.1742  0.3796
    4CHTO   C22 1603   6.871   5.588  -0.135  0.1615  0.5636 -0.3696
    4CHTO   H50 1604   6.959   5.647  -0.159 -0.5861  2.2383  0.8543
    4CHTO   O14 1605   6.753   5.671  -0.101  0.3882 -0.1455  0.3644
    4CHTO   C23 1606   6.727   5.777  -0.200  0.1064 -0.1198  0.0001
    4CHTO   H51 1607   6.817   5.841  -0.205 -0.7335  1.0979  0.2487
    4CHTO   C34 1608   6.604   5.863  -0.148 -0.1581 -0.1127  0.1288
    4CHTO   O23 1609   6.625   5.925  -0.021 -0.3543  0.2365  0.3331
    4CHTO   H38 1610   6.611   5.868   0.052  0.4232 -0.3718  0.0089
    4CHTO   O16 1611   6.898   5.515  -0.016  0.1049  0.0861  0.7881
    4CHTO   C24 1612   6.959   5.589   0.093 -0.0555  0.1281 -0.3075
    4CHTO   H52 1613   6.936   5.695   0.093 -1.1470 -0.0850  2.0658
    4CHTO   C26 1614   7.118   5.576   0.086 -0.0581  0.2897  0.6555
    4CHTO   H54 1615   7.151   5.471   0.074 -2.4675 -0.4144 -0.0036
    4CHTO   O20 1616   7.164   5.640  -0.034  0.2398 -0.1436 -0.0782
    4CHTO   H36 1617   7.203   5.725  -0.025 -1.2576  0.6176 -0.6344
    4CHTO   C30 1618   7.188   5.630   0.212 -0.3447 -0.4717 -0.5133
    4CHTO   H58 1619   7.177   5.740   0.210  0.8682 -0.3412 -0.2198
    4CHTO    N6 1620   7.329   5.602   0.222  0.0944 -0.4448 -0.0169
    4CHTO   H45 1621   7.355   5.619   0.325 -0.3694 -0.2550  0.0707
    4CHTO   H46 1622   7.359   5.502   0.196  1.0801 -0.1289 -0.1154
    4CHTO   C33 1623   7.117   5.591   0.346  0.0407  0.1402 -0.4125
    4CHTO   H61 1624   7.132   5.485   0.372 -0.8401  0.0297 -0.3275
    4CHTO   O18 1625   6.977   5.611   0.331 -0.0193  0.4091 -0.1123
    4CHTO   C28 1626   6.914   5.540   0.225 -0.6214 -0.2457 -0.4540
    4CHTO   H56 1627   6.934   5.433   0.232  0.6165 -0.1363 -2.2596
    4CHTO   C35 1628   6.762   5.565   0.233  0.6607  0.6619 -0.1815
    4CHTO   O24 1629   6.708   5.524   0.360  0.3386 -0.5618 -0.0778
    4CHTO   H39 1630   6.743   5.563   0.438 -0.1109  1.1112 -0.6958
    4CHTO    O9 1631   7.169   5.668   0.455 -0.2774 -0.2388  0.0808
    4CHTO   C13 1632   7.226   5.587   0.575  0.1228 -0.6057  0.4439
    4CHTO   H26 1633   7.250   5.483   0.544 -0.4274 -1.4217  2.6426
    4CHTO   C11 1634   7.115   5.587   0.687 -0.2352 -0.0197  0.1868
    4CHTO   H24 1635   7.027   5.536   0.646 -2.0413  1.9503  1.4778
    4CHTO    O8 1636   7.063   5.719   0.715 -0.2357 -0.6676 -0.2474
    4CHTO    H3 1637   7.137   5.776   0.718  1.2845 -2.6129  0.0057
    4CHTO    C9 1638   7.171   5.507   0.803  0.3429 -1.1087 -0.7346
    4CHTO   H22 1639   7.192   5.406   0.765  1.0663 -1.5800  0.8600
    4CHTO    N2 1640   7.066   5.478   0.904  0.3298 -0.1781  0.2329
    4CHTO   H10 1641   7.100   5.434   0.997  1.3464 -0.6276 -0.3497
    4CHTO   H11 1642   7.016   5.571   0.929  1.1291  0.2532  0.2131
    4CHTO    C7 1643   7.310   5.558   0.863  0.4684 -0.0983  0.1751
    4CHTO   H20 1644   7.351   5.479   0.928 -0.5332 -0.6526  0.1450
    4CHTO    O4 1645   7.398   5.600   0.756 -0.0452 -0.5237  0.2142
    4CHTO   C14 1646   7.362   5.658   0.630  0.0595  0.0836  0.3299
    4CHTO   H27 1647   7.442   5.632   0.558 -0.0413  1.3247 -0.2566
    4CHTO   C18 1648   7.345   5.808   0.631 -0.0436  0.5392  0.1342
    4CHTO   O13 1649   7.466   5.878   0.612 -0.0544  0.1140 -0.4457
    4CHTO    H7 1650   7.529   5.859   0.679  1.2868  1.4017 -1.3335
    4CHTO    O2 1651   7.277   5.684   0.953  0.3743  0.2714  0.3385
    4CHTO    C1 1652   7.389   5.762   1.002  0.3535  0.0663 -0.1694
    4CHTO   H14 1653   7.455   5.803   0.923  1.1370 -2.8098 -1.0652
    4CHTO    C2 1654   7.475   5.682   1.106  0.8401 -0.3810 -0.7861
    4CHTO   H15 1655   7.401   5.621   1.161  1.4686 -0.1581  0.3112
    4CHTO    O6 1656   7.547   5.580   1.039 -0.3390  0.7146  0.8242
    4CHTO    H1 1657   7.633   5.612   1.021  0.0204 -1.1053 -0.8094
    4CHTO    C3 1658   7.585   5.775   1.187 -0.3671  0.2459 -0.0407
    4CHTO   H16 1659   7.663   5.800   1.114 -0.7472  2.2619  0.2366
    4CHTO    N1 1660   7.665   5.719   1.301 -0.3046 -0.2070  0.1120
    4CHTO    H8 1661   7.615   5.711   1.397  1.5473  1.7325  1.2828
    4CHTO    H9 1662   7.703   5.620   1.279  0.9027  0.6324 -1.6708
    4CHTO    C4 1663   7.525   5.915   1.229 -0.0887  0.1472  0.2252
    4CHTO   H17 1664   7.480   5.904   1.327  1.1894  1.7603  0.9948
    4CHTO    O1 1665   7.422   5.957   1.140 -0.1784  0.0818 -0.1019
    4CHTO    C5 1666   7.322   5.876   1.085  0.1815  0.4754 -0.8931
    4CHTO   H18 1667   7.264   5.839   1.168  1.7708  0.1323  0.0882
    4CHTO   C16 1668   7.235   5.975   1.011  0.3021 -0.5422  0.5234
    4CHTO   O11 1669   7.171   6.069   1.103 -0.0573 -0.3065  0.6785
    4CHTO    H5 1670   7.087   6.030   1.116  0.8861 -3.3089 -1.7534
    4CHTO    O3 1671   7.627   6.012   1.221 -0.0737  0.1825 -0.0863
    4CHTO    C6 1672   7.626   6.114   1.326  0.2389 -0.1127 -0.4225
    4CHTO   H19 1673   7.530   6.098   1.376 -0.0921  0.1343 -0.9810
    4CHTO    C8 1674   7.744   6.107   1.428 -0.7607  0.1837  0.2756
    4CHTO   H21 1675   7.839   6.102   1.374 -0.3759 -1.3082  1.0532
    4CHTO    O7 1676   7.713   5.987   1.508 -0.5446  0.2422  0.4913
    4CHTO    H2 1677   7.789   5.970   1.561 -0.1699  1.1861  0.2646
    4CHTO   C12 1678   7.755   6.234   1.520 -0.1962  0.4165 -0.4829
    4CHTO   H25 1679   7.663   6.229   1.581 -1.2946 -1.2084 -2.2454
    4CHTO    N3 1680   7.866   6.225   1.616  0.4071  0.5804  0.7270
    4CHTO   H12 1681   7.967   6.250   1.584  1.2763  1.0293  3.6369
    4CHTO   H13 1682   7.863   6.123   1.652 -1.8206  0.1732 -0.5346
    4CHTO   C15 1683   7.748   6.369   1.437 -0.2285 -0.9570  0.6698
    4CHTO   H28 1684   7.831   6.385   1.369 -0.0109  1.2777  1.4240
    4CHTO   O10 1685   7.724   6.494   1.512  0.4705  0.0387  0.0288
    4CHTO    H4 1686   7.807   6.514   1.553  0.1356 -0.9927  1.2410
    4CHTO    O5 1687   7.629   6.367   1.349 -0.2299  0.2522 -0.0669
    4CHTO   C10 1688   7.615   6.252   1.258  0.5782 -0.6146 -0.0301
    4CHTO   H23 1689   7.696   6.265   1.186  0.4553 -0.8166 -0.2012
    4CHTO   C17 1690   7.483   6.252   1.182 -0.2161  0.1527 -0.2046
    4CHTO   O12 1691   7.361   6.267   1.258 -0.1147  0.0238 -0.2322
    4CHTO    H6 1692   7.354   6.355   1.287  1.0953  0.1309 -0.2345
    5CHTO  H203 1693   7.244   3.412   2.474 -0.9212 -0.1075  2.5619
    5CHTO   O82 1694   7.224   3.503   2.481  0.2186  0.4478 -0.4575
    5CHTO  C123 1695   7.231   3.525   2.623 -0.3698 -0.4469  0.6636
    5CHTO  H227 1696   7.336   3.548   2.649  0.3564 -2.5431 -0.3062
    5CHTO   O77 1697   7.151   3.641   2.653 -0.1833 -0.0496  0.9267
    5CHTO  C118 1698   7.168   3.707   2.779 -1.0849  0.0296  0.6087
    5CHTO  H222 1699   7.271   3.743   2.793 -0.7465 -0.3924 -0.6851
    5CHTO  C125 1700   7.080   3.836   2.769 -0.1021  0.3481  0.0959
    5CHTO   O84 1701   6.943   3.799   2.738 -0.3014  0.8983  0.0858
    5CHTO  H205 1702   6.936   3.738   2.668  0.4504 -1.9110  2.3523
    5CHTO  C114 1703   7.137   3.602   2.888  0.7732 -0.1970 -0.3586
    5CHTO  H218 1704   7.032   3.572   2.881  0.6304  0.7911 -2.9875
    5CHTO  C116 1705   7.208   3.465   2.863  0.2478 -0.8311  0.7625
    5CHTO  H220 1706   7.318   3.477   2.875  0.5151 -1.6244 -0.7627
    5CHTO   O79 1707   7.174   3.359   2.957  0.2255 -1.0335  0.3467
    5CHTO  H201 1708   7.081   3.346   2.965  0.0550  0.0329  0.2699
    5CHTO  C120 1709   7.187   3.407   2.716 -0.1381  0.1249 -0.3707
    5CHTO  H224 1710   7.078   3.395   2.698 -0.5892  3.0212  0.1926
    5CHTO   N21 1711   7.249   3.271   2.680  0.3401 -0.2035  0.0250
    5CHTO  H211 1712   7.193   3.189   2.721  1.1436  0.1664  1.9565
    5CHTO  H212 1713   7.355   3.266   2.704  0.5721  1.3989 -0.6204
    5CHTO   O75 1714   7.160   3.661   3.017 -0.0375 -0.8094 -0.0518
    5CHTO  C112 1715   7.033   3.633   3.117  0.0981 -0.2504 -0.5706
    5CHTO  H216 1716   7.017   3.526   3.138 -0.1798  0.0271  0.6947
    5CHTO   O73 1717   6.922   3.697   3.056  0.0326  0.6849 -0.4938
    5CHTO  C113 1718   6.797   3.682   3.116  0.3728 -0.0496 -0.2866
    5CHTO  H217 1719   6.771   3.574   3.122  0.7567 -0.0946  0.6399
    5CHTO  C124 1720   6.697   3.741   3.017 -0.2721 -0.7523  0.2475
    5CHTO   O83 1721   6.728   3.880   2.994 -0.1846 -0.0208  1.0138
    5CHTO  H204 1722   6.656   3.938   2.976  0.0471  0.0115  0.1419
    5CHTO  C109 1723   6.799   3.772   3.250 -0.0976  0.3359  0.5873
    5CHTO  H213 1724   6.820   3.876   3.221  1.4985 -0.1337 -0.0306
    5CHTO  C110 1725   6.920   3.729   3.342  0.2533  0.3002 -0.5395
    5CHTO  H214 1726   6.890   3.639   3.396  0.0539  0.9163  0.3891
    5CHTO   O78 1727   6.929   3.820   3.449  0.8081  0.1876 -0.3823
    5CHTO  H200 1728   6.899   3.904   3.419  0.7642  1.0430  1.9654
    5CHTO  C111 1729   7.051   3.716   3.252 -0.1060 -0.3941  0.3443
    5CHTO  H215 1730   7.090   3.816   3.228  2.4293 -0.6421  3.0722
    5CHTO   N19 1731   7.165   3.651   3.327  0.6640  0.2727  0.1167
    5CHTO  H207 1732   7.197   3.714   3.409 -0.4308  1.3982 -0.3046
    5CHTO  H208 1733   7.133   3.554   3.364 -0.0750  1.0761  1.6407
    5CHTO   O74 1734   6.671   3.761   3.315  0.1449 -0.3109  0.6115
    5CHTO  C115 1735   6.616   3.918   3.345  0.6225  0.4102 -0.3124
    5CHTO  H219 1736   6.677   3.970   3.419 -0.3153  0.3042  0.5378
    5CHTO   O76 1737   6.627   4.009   3.214 -0.3233  0.5507 -0.0207
    5CHTO  C122 1738   6.534   4.113   3.199  0.0293 -0.5354 -0.2882
    5CHTO  H226 1739   6.529   4.124   3.091  1.9954  0.8712 -0.2623
    5CHTO  C126 1740   6.591   4.244   3.258  0.1826 -0.1203  0.4812
    5CHTO   O85 1741   6.718   4.274   3.197  0.3468 -0.0363  0.8592
    5CHTO  H206 1742   6.702   4.295   3.107 -0.3898  0.1327  1.0276
    5CHTO  C121 1743   6.385   4.092   3.249 -0.6720  0.1503  0.3633
    5CHTO  H225 1744   6.341   4.194   3.257  0.9076  0.6886  2.6408
    5CHTO   O81 1745   6.312   4.013   3.155  0.1883 -0.0997 -0.4695
    5CHTO  H202 1746   6.333   4.039   3.068 -1.3158  2.0184 -0.2379
    5CHTO  C119 1747   6.389   4.041   3.389 -0.4163 -0.3084 -0.0025
    5CHTO  H223 1748   6.447   4.110   3.449 -0.5712 -0.9012  0.8548
    5CHTO  C117 1749   6.470   3.906   3.391 -0.1022  0.0722 -0.4685
    5CHTO  H221 1750   6.429   3.824   3.330 -0.5476  0.1683 -0.3007
    5CHTO   N20 1751   6.471   3.849   3.523 -0.5382 -0.0552  0.0737
    5CHTO  H209 1752   6.497   3.744   3.514 -0.2427  0.0099  0.1693
    5CHTO  H210 1753   6.373   3.857   3.568  0.2840 -0.1906  1.9263
    5CHTO   O80 1754   6.249   4.052   3.461  0.0389 -0.3329 -0.1550
    5CHTO  C103 1755   6.099   4.003   3.385 -0.0464 -0.9373  0.6039
    5CHTO  H190 1756   6.096   4.012   3.276  1.8543 -0.9911  0.5350
    5CHTO  C101 1757   6.060   3.849   3.403  0.6398 -0.1024 -0.0378
    5CHTO  H188 1758   6.062   3.820   3.508  0.7531 -1.0453 -0.2913
    5CHTO   O68 1759   6.152   3.758   3.331  0.0517  0.1033 -0.1683
    5CHTO  H168 1760   6.096   3.701   3.282 -0.3397  0.4459 -0.1192
    5CHTO   C99 1761   5.907   3.829   3.362  0.4472  0.1380  0.2723
    5CHTO  H186 1762   5.886   3.843   3.254  1.8808 -0.8624 -0.1480
    5CHTO   N17 1763   5.862   3.686   3.393 -0.4803 -0.2986 -0.5345
    5CHTO  H174 1764   5.859   3.669   3.500 -0.4685  0.2478 -0.4461
    5CHTO  H175 1765   5.777   3.659   3.331 -0.5960  1.5926 -1.2354
    5CHTO   C97 1766   5.820   3.932   3.443  0.6342 -0.7198 -0.4658
    5CHTO  H184 1767   5.848   3.920   3.548 -1.1848  0.3447  0.1581
    5CHTO   O64 1768   5.861   4.058   3.386 -0.0390 -0.6658  0.4658
    5CHTO  C104 1769   5.988   4.095   3.442  0.2677 -0.6219 -0.2661
    5CHTO  H191 1770   5.991   4.098   3.551 -1.7749 -0.0207 -0.2020
    5CHTO  C108 1771   6.017   4.238   3.399  0.4587 -0.0830 -0.0509
    5CHTO   O71 1772   5.924   4.332   3.461  0.1865 -0.6031 -0.1154
    5CHTO  H171 1773   5.963   4.418   3.461  2.4124 -1.5059 -3.6244
    5CHTO   O62 1774   5.678   3.929   3.432  0.2581  0.0659  0.0378
    5CHTO   C91 1775   5.606   3.958   3.307 -0.1330  0.7116  0.6078
    5CHTO  H178 1776   5.658   4.040   3.258  1.1325 -1.0149 -0.9909
    5CHTO   C92 1777   5.458   3.996   3.333 -0.4534 -0.2566 -0.3243
    5CHTO  H179 1778   5.462   4.076   3.408 -1.3742 -0.4509 -0.0631
    5CHTO   O66 1779   5.389   4.054   3.216 -0.0783  0.6219  0.0879
    5CHTO  H166 1780   5.374   3.990   3.149 -0.6310  0.3313  0.4848
    5CHTO   C93 1781   5.370   3.876   3.379 -0.9224 -0.2622 -0.1270
    5CHTO  H180 1782   5.265   3.904   3.362 -1.8180 -2.0905  2.1248
    5CHTO   N16 1783   5.357   3.852   3.521  0.0653 -0.2956  0.1232
    5CHTO  H172 1784   5.300   3.929   3.572 -0.4652 -1.1469  0.8278
    5CHTO  H173 1785   5.316   3.752   3.528 -1.2853  0.3452  2.0506
    5CHTO   C94 1786   5.405   3.745   3.301 -0.5416  0.0553  0.1349
    5CHTO  H181 1787   5.481   3.685   3.351  0.4052 -1.0864 -2.5805
    5CHTO   O61 1788   5.472   3.776   3.176  0.4525  0.1801  0.5732
    5CHTO   C95 1789   5.601   3.839   3.192  0.8188 -0.1220  0.1853
    5CHTO  H182 1790   5.672   3.764   3.225  1.7906  1.6225  2.2230
    5CHTO  C106 1791   5.651   3.885   3.049  0.2762 -0.7631  0.4027
    5CHTO   O69 1792   5.784   3.935   3.042  0.2161 -0.0466  0.2703
    5CHTO  H169 1793   5.802   3.936   2.950 -1.2664 -0.2074 -0.0295
    5CHTO   O63 1794   5.289   3.681   3.272 -0.4955 -0.1524 -0.2567
    5CHTO   C96 1795   5.310   3.527   3.238 -0.4635  0.1462 -0.0963
    5CHTO  H183 1796   5.333   3.474   3.330 -3.2562  0.1386  0.6432
    5CHTO   C98 1797   5.428   3.479   3.142 -0.6035  0.8625  0.2776
    5CHTO  H185 1798   5.517   3.536   3.173  0.7426 -0.8269 -0.3978
    5CHTO   O67 1799   5.452   3.343   3.188 -0.2719  0.5835  0.4408
    5CHTO  H167 1800   5.479   3.344   3.278 -2.1643  0.9602  1.0406
    5CHTO  C102 1801   5.395   3.469   2.986 -0.3139 -0.0911  0.2704
    5CHTO  H189 1802   5.485   3.422   2.944  0.1156  0.0611  1.0001
    5CHTO   N18 1803   5.391   3.599   2.916 -0.1718 -0.1447  0.1184
    5CHTO  H176 1804   5.304   3.656   2.945 -0.4909 -0.7452  0.3480
    5CHTO  H177 1805   5.477   3.660   2.940  0.2139 -0.4201 -0.5462
    5CHTO  C105 1806   5.262   3.383   2.963 -0.1420  0.1917 -0.1573
    5CHTO  H192 1807   5.200   3.432   2.888 -0.3730 -1.1490 -0.8555
    5CHTO   O65 1808   5.190   3.360   3.087  0.0915  0.3673  0.6123
    5CHTO  C100 1809   5.171   3.464   3.184  0.3163  0.2186  0.3340
    5CHTO  H187 1810   5.116   3.544   3.133  0.0558  1.2550  2.2003
    5CHTO  C107 1811   5.092   3.414   3.302 -0.6465  0.2111 -0.0077
    5CHTO   O70 1812   4.963   3.356   3.265 -0.1944  0.4264  0.0673
    5CHTO  H170 1813   4.911   3.419   3.219 -0.4131  0.2397  0.0613
    5CHTO   O57 1814   5.322   3.253   2.881  0.2670  0.2931  0.0541
    5CHTO   C85 1815   5.222   3.155   2.835 -0.3537  0.0479  0.1493
    5CHTO  H157 1816   5.131   3.218   2.834 -0.2301  0.2284  0.2954
    5CHTO   C83 1817   5.202   3.035   2.933  0.8405  0.4757 -0.2776
    5CHTO  H155 1818   5.168   3.074   3.029 -3.2596 -0.4422 -1.2832
    5CHTO   O56 1819   5.331   2.982   2.958  0.2234 -0.3443  0.0928
    5CHTO  H135 1820   5.330   2.946   3.045 -2.0584 -0.2524  0.1331
    5CHTO   C81 1821   5.105   2.925   2.880  0.2486  0.0212  0.2143
    5CHTO  H153 1822   5.006   2.969   2.869  0.3605  0.1441 -0.3264
    5CHTO   N14 1823   5.087   2.813   2.981  0.2261  0.7235 -0.3286
    5CHTO  H141 1824   4.982   2.795   2.988  0.2393  0.6436 -0.3274
    5CHTO  H142 1825   5.134   2.725   2.942 -1.7482  0.3684 -1.9536
    5CHTO   C79 1826   5.150   2.886   2.735  0.2695  0.2639 -0.2103
    5CHTO  H151 1827   5.073   2.819   2.696  1.0955 -0.6315 -0.3247
    5CHTO   O52 1828   5.153   3.003   2.645 -0.0162  0.0925 -0.1284
    5CHTO   C86 1829   5.259   3.095   2.695 -0.1361  0.0480  0.0966
    5CHTO  H158 1830   5.349   3.030   2.692  0.2083  0.5472 -0.5852
    5CHTO   C90 1831   5.273   3.211   2.591 -0.4112  0.5870 -0.3003
    5CHTO   O60 1832   5.301   3.170   2.458  0.1912  0.5361  0.0195
    5CHTO  H138 1833   5.394   3.153   2.460  0.0737 -0.0963  0.0414
    5CHTO   O50 1834   5.275   2.811   2.732  0.4758  0.0621  0.0140
    5CHTO   C73 1835   5.334   2.695   2.672  0.2328  0.5342  0.2442
    5CHTO  H145 1836   5.265   2.649   2.599  1.3308  0.7743 -0.9406
    5CHTO   C74 1837   5.368   2.583   2.772  0.5645 -0.2736  0.5969
    5CHTO  H146 1838   5.269   2.549   2.806 -0.0517 -0.5676 -1.4180
    5CHTO   O54 1839   5.437   2.467   2.721  0.3386  0.2034 -0.0573
    5CHTO  H133 1840   5.377   2.407   2.682 -0.6063  0.9001  0.3031
    5CHTO   C75 1841   5.444   2.659   2.887 -0.3193 -0.1442 -0.5963
    5CHTO  H147 1842   5.390   2.746   2.927  0.2423  0.8533 -1.9944
    5CHTO   N13 1843   5.463   2.580   3.013  0.3843 -0.4826  0.9916
    5CHTO  H139 1844   5.560   2.599   3.056  1.3336 -3.0905  0.0944
    5CHTO  H140 1845   5.457   2.475   2.989 -0.8439 -0.2137  0.0662
    5CHTO   C76 1846   5.583   2.709   2.828 -0.2466 -0.3725  0.0133
    5CHTO  H148 1847   5.647   2.625   2.800 -0.5377 -0.2731 -0.9467
    5CHTO   O49 1848   5.557   2.797   2.711  0.1750  0.3543 -0.2157
    5CHTO   C77 1849   5.468   2.738   2.610 -0.4441 -0.1634  0.3293
    5CHTO  H149 1850   5.514   2.655   2.556  1.6708  0.8418  0.5229
    5CHTO   C88 1851   5.453   2.848   2.502 -0.1981  0.3487 -0.4344
    5CHTO   O58 1852   5.594   2.897   2.443 -0.4649  0.4835  0.1884
    5CHTO  H136 1853   5.646   2.941   2.508  0.1479 -0.2585  0.2169
    5CHTO   O51 1854   5.673   2.815   2.940  0.3732 -0.0632  0.1667
    5CHTO   C78 1855   5.774   2.921   2.875 -0.5298  0.4633 -0.2116
    5CHTO  H150 1856   5.734   2.963   2.780  0.9847  0.4339 -0.8747
    5CHTO   C80 1857   5.911   2.859   2.837 -0.4003 -0.8747  0.6061
    5CHTO  H152 1858   5.942   2.778   2.907  0.5952  0.3940  1.6525
    5CHTO   O55 1859   5.894   2.779   2.717  0.0614 -0.8240 -0.1607
    5CHTO  H134 1860   5.824   2.716   2.718 -1.1378  0.3798 -2.8127
    5CHTO   C84 1861   6.037   2.969   2.816  0.4214  0.1441  0.1349
    5CHTO  H156 1862   6.018   3.025   2.724  1.1566 -0.6184 -0.4838
    5CHTO   N15 1863   6.167   2.899   2.803  0.2115 -0.0332  0.4541
    5CHTO  H143 1864   6.174   2.813   2.866  0.2210  0.1230  0.6659
    5CHTO  H144 1865   6.181   2.871   2.701 -0.0334  0.4838  0.2784
    5CHTO   C87 1866   6.029   3.073   2.934  0.3539 -0.5196  0.4204
    5CHTO  H159 1867   6.045   3.011   3.022 -0.9601 -0.1182  0.9535
    5CHTO   O53 1868   5.886   3.140   2.937  0.4789 -0.0373  0.0236
    5CHTO   C82 1869   5.789   3.038   2.979  0.2119  0.9792  0.3289
    5CHTO  H154 1870   5.818   2.997   3.075 -1.3123 -0.2598  0.2900
    5CHTO   C89 1871   5.659   3.112   2.995 -0.2037  0.6066 -0.8568
    5CHTO   O59 1872   5.667   3.184   3.119  0.3884 -0.6721  0.1094
    5CHTO  H137 1873   5.588   3.196   3.169 -0.0876 -1.8301 -0.3511
    5CHTO   O45 1874   6.147   3.214   2.916  0.1402 -0.3619  0.0661
    5CHTO   C67 1875   6.192   3.258   3.044 -0.0167 -0.4261  0.5167
    5CHTO  H124 1876   6.104   3.244   3.106 -0.7134  0.9022 -0.1378
    5CHTO   C65 1877   6.325   3.185   3.105 -0.6446  0.2672  0.4546
    5CHTO  H122 1878   6.385   3.150   3.022  0.1223  1.7797  0.3532
    5CHTO   O44 1879   6.281   3.073   3.175 -0.4225 -0.1993 -0.6676
    5CHTO  H102 1880   6.278   2.997   3.120  1.0961 -0.8785  0.1364
    5CHTO   C63 1881   6.428   3.287   3.174  0.1518 -0.3404 -0.2213
    5CHTO  H120 1882   6.473   3.347   3.095  1.1734  0.5006  0.9928
    5CHTO   N11 1883   6.537   3.224   3.250  0.6102  0.1668  0.4070
    5CHTO  H108 1884   6.615   3.296   3.256  1.6987 -0.8256 -1.4453
    5CHTO  H109 1885   6.575   3.138   3.197 -0.6112  0.6939 -1.3759
    5CHTO   C61 1886   6.349   3.383   3.261  0.5906 -0.1749 -0.9380
    5CHTO  H118 1887   6.427   3.449   3.303 -0.9000  0.0342  1.6019
    5CHTO   O40 1888   6.267   3.467   3.169  0.1058 -0.2763  0.1866
    5CHTO   C68 1889   6.215   3.413   3.044 -0.5499 -0.4469  0.2406
    5CHTO  H125 1890   6.289   3.432   2.964 -1.7548  0.8681 -0.5842
    5CHTO   C72 1891   6.094   3.497   3.004  0.2256  0.4747 -0.2735
    5CHTO   O48 1892   6.121   3.635   2.974 -0.0600  0.3878  0.0262
    5CHTO  H105 1893   6.064   3.667   2.907 -1.4965  1.0404  1.5135
    5CHTO   O38 1894   6.266   3.324   3.365  0.7186  0.6042 -0.4189
    5CHTO   C55 1895   6.169   3.408   3.428  0.0311  0.6725 -0.0297
    5CHTO  H112 1896   6.139   3.483   3.353 -0.9902 -1.2830 -1.6259
    5CHTO   C56 1897   6.233   3.472   3.554 -0.4003 -0.4043  0.3593
    5CHTO  H113 1898   6.290   3.391   3.601 -2.5825 -1.0834  1.9212
    5CHTO   O42 1899   6.318   3.578   3.508 -0.1125  0.4845 -0.4537
    5CHTO  H100 1900   6.340   3.640   3.575 -1.5330  0.4609  0.0600
    5CHTO   C57 1901   6.129   3.523   3.666 -0.1980 -0.2928 -0.4984
    5CHTO  H114 1902   6.095   3.619   3.628  3.3595  0.2440 -2.5386
    5CHTO   N10 1903   6.194   3.550   3.800 -0.1883 -0.2006  0.2110
    5CHTO  H106 1904   6.300   3.566   3.786 -0.6667  1.4931 -1.6046
    5CHTO  H107 1905   6.153   3.644   3.831 -1.8877 -0.8449 -0.0395
    5CHTO   C58 1906   6.008   3.426   3.674  0.1746  0.7502  0.1521
    5CHTO  H115 1907   6.045   3.333   3.720  0.0428  0.9572  0.6843
    5CHTO   O37 1908   5.953   3.408   3.544  0.1216  0.0535  0.7235
    5CHTO   C59 1909   6.035   3.325   3.458 -0.7406 -0.2468  0.7100
    5CHTO  H116 1910   6.050   3.231   3.511 -0.4037 -0.2552  0.6009
    5CHTO   C70 1911   5.949   3.291   3.332  0.0469  0.0398  0.1661
    5CHTO   O46 1912   5.834   3.207   3.360  0.4234 -0.2088 -0.4167
    5CHTO  H103 1913   5.793   3.170   3.284  0.7961 -2.5475  0.4569
    5CHTO   O39 1914   5.894   3.506   3.786 -0.0010 -0.3029  0.3218
    5CHTO   C60 1915   5.756   3.499   3.757 -0.0275 -0.1817 -0.6768
    5CHTO  H117 1916   5.740   3.543   3.659 -0.0427  2.7970  0.6118
    5CHTO   C62 1917   5.705   3.357   3.756  0.3843  0.1411 -0.8194
    5CHTO  H119 1918   5.753   3.314   3.665  1.3172  1.0346 -0.7674
    5CHTO   O43 1919   5.735   3.287   3.881  0.7167  0.1322 -0.2824
    5CHTO  H101 1920   5.816   3.309   3.923 -0.6279 -0.9484  3.0225
    5CHTO   C66 1921   5.542   3.364   3.726 -0.5641  0.6391 -0.1126
    5CHTO  H123 1922   5.529   3.427   3.639 -2.0666 -0.7276 -0.8975
    5CHTO   N12 1923   5.478   3.234   3.692  0.2099  0.0631  0.2916
    5CHTO  H110 1924   5.374   3.226   3.720  0.3129  1.5669  1.1639
    5CHTO  H111 1925   5.497   3.212   3.588 -1.5480 -2.5868  0.4732
    5CHTO   C69 1926   5.467   3.440   3.840  0.1410 -0.2939 -0.0009
    5CHTO  H126 1927   5.494   3.396   3.938  0.6584 -0.7841 -0.3592
    5CHTO   O41 1928   5.515   3.576   3.834 -0.0338  0.3616 -0.4940
    5CHTO   C64 1929   5.670   3.594   3.852  1.0617  0.3575  0.1970
    5CHTO  H121 1930   5.698   3.570   3.956  0.6413  0.7410  0.3968
    5CHTO   C71 1931   5.701   3.745   3.829  0.0515  0.3179 -0.2792
    5CHTO   O47 1932   5.639   3.799   3.714 -0.8259 -0.1173 -0.2204
    5CHTO  H104 1933   5.679   3.883   3.698  1.5279 -1.0432  0.5290
    5CHTO   O34 1934   5.303   3.446   3.805  0.3190  0.4798  0.4200
    5CHTO   C49 1935   5.213   3.341   3.897  0.0429  0.2855  0.2900
    5CHTO   H91 1936   5.282   3.262   3.924 -2.0398 -1.0548  1.9001
    5CHTO   C47 1937   5.092   3.300   3.806 -0.0801 -0.2024  0.2472
    5CHTO   H89 1938   5.034   3.219   3.855  2.1048 -1.7702  0.2778
    5CHTO   O33 1939   5.140   3.252   3.681  0.2815 -0.0676  0.6878
    5CHTO   H70 1940   5.175   3.166   3.693 -0.0122 -0.4874 -1.2732
    5CHTO   C45 1941   4.993   3.427   3.781  0.5833 -0.4725 -0.0623
    5CHTO   H87 1942   5.061   3.507   3.749  1.1845 -1.4773 -1.3076
    5CHTO    N8 1943   4.897   3.407   3.673  0.5223 -0.2026  0.3373
    5CHTO   H75 1944   4.958   3.381   3.588  1.4291 -1.6598  1.3913
    5CHTO   H76 1945   4.853   3.501   3.644  0.0326 -1.3391 -2.7710
    5CHTO   C43 1946   4.940   3.474   3.917  0.1589 -0.1539 -0.0167
    5CHTO   H85 1947   4.878   3.559   3.890  0.9933  0.2896 -0.5704
    5CHTO   O29 1948   5.047   3.509   4.006 -0.8082  0.1929 -0.6823
    5CHTO   C50 1949   5.156   3.412   4.027  0.4014 -0.3723  0.2412
    5CHTO   H92 1950   5.242   3.458   4.079 -0.3964 -0.3898  1.5804
    5CHTO   C54 1951   5.119   3.311   4.137 -0.5322 -0.2960  0.1855
    5CHTO   O36 1952   5.067   3.372   4.259  0.0308 -0.5850 -0.4040
    5CHTO   H72 1953   5.140   3.414   4.300 -0.1177 -0.2336 -0.4882
    5CHTO   O27 1954   4.858   3.370   3.971 -0.0932  0.0934  0.3074
    5CHTO   C37 1955   4.752   3.281   4.002  0.1831  0.2938 -0.2551
    5CHTO   H79 1956   4.663   3.320   3.950 -0.4872 -0.9328 -0.0483
    5CHTO   C38 1957   4.779   3.134   3.969 -0.0785 -0.4760  0.1692
    5CHTO   H80 1958   4.883   3.110   3.995  0.5271  3.4207  1.7133
    5CHTO   O31 1959   4.759   3.131   3.825  0.1033 -0.0770  0.2030
    5CHTO   H68 1960   4.827   3.172   3.776 -0.5502 -0.5903 -1.1617
    5CHTO   C39 1961   4.686   3.036   4.054  1.1161  0.1380  0.0527
    5CHTO   H81 1962   4.582   3.040   4.020  1.4412  1.2618 -0.8489
    5CHTO    N7 1963   4.727   2.896   4.025 -0.3005 -0.0944  0.4384
    5CHTO   H73 1964   4.834   2.886   4.040 -0.2978  0.2063  0.6290
    5CHTO   H74 1965   4.691   2.858   3.931  0.9643 -0.9087  0.2773
    5CHTO   C40 1966   4.693   3.068   4.207 -0.3264 -0.0179  0.7371
    5CHTO   H82 1967   4.796   3.058   4.243 -1.1187 -3.5479  2.1670
    5CHTO   O26 1968   4.642   3.204   4.216 -0.1840 -0.3096 -0.0572
    5CHTO   C41 1969   4.734   3.298   4.155 -0.0579 -0.8933  0.1708
    5CHTO   H83 1970   4.835   3.287   4.199  0.1141 -0.0463  0.0027
    5CHTO   C52 1971   4.683   3.442   4.201 -0.1469  0.2253  0.1262
    5CHTO   O35 1972   4.795   3.548   4.210  0.6487  0.4579  0.1200
    5CHTO   H71 1973   4.867   3.531   4.151  3.5008 -0.5851  3.7551
    5CHTO   O28 1974   4.609   2.996   4.300  0.0227 -0.3843  0.2412
    5CHTO   C42 1975   4.620   3.004   4.444 -0.5665  0.5052  0.7254
    5CHTO   H84 1976   4.538   2.940   4.477 -0.8423 -0.5603 -1.8823
    5CHTO   C44 1977   4.599   3.143   4.506 -0.1556  0.2508  0.0765
    5CHTO   H86 1978   4.684   3.203   4.472 -0.8065  0.4510 -1.2230
    5CHTO   O32 1979   4.479   3.200   4.462  0.3502  0.5101  0.0381
    5CHTO   H69 1980   4.405   3.144   4.474 -0.0742  0.7920 -1.1447
    5CHTO   C48 1981   4.606   3.131   4.663  0.5710 -0.4460  0.2897
    5CHTO   H90 1982   4.526   3.070   4.707 -1.0839  2.3672  1.3509
    5CHTO    N9 1983   4.588   3.268   4.731 -0.4972  0.4364 -0.1150
    5CHTO   H77 1984   4.671   3.336   4.721  0.2204 -0.2646  1.1003
    5CHTO   H78 1985   4.494   3.304   4.691 -1.9034 -0.8783  1.9132
    5CHTO   C51 1986   4.748   3.067   4.693  1.0245  0.7401 -0.4196
    5CHTO   H93 1987   4.818   3.136   4.647  0.2123  0.9967 -1.2737
    5CHTO   O30 1988   4.749   2.941   4.632  0.3195  0.4136 -0.2505
    5CHTO   C46 1989   4.751   2.935   4.494  0.6833  0.5639  0.3592
    5CHTO   H88 1990   4.835   2.995   4.457  0.0222  0.5865 -1.1190
    5CHTO   C53 1991   4.754   2.780   4.437 -1.0032 -0.1516  0.0318
    5CHTO   O72 1992   4.867   2.710   4.491 -0.0775  0.3289 -0.1574
    5CHTO  H199 1993   4.877   2.731   4.582  2.3998 -1.5824  0.0590
    5CHTO   O22 1994   4.774   3.041   4.832  0.0791  0.4431 -0.7523
    5CHTO   C31 1995   4.916   3.036   4.875 -0.0006  0.0883 -0.5023
    5CHTO   H59 1996   4.922   2.981   4.970  3.0181 -1.3978 -1.4802
    5CHTO   C29 1997   5.015   2.962   4.776 -0.4409  0.1382  0.1293
    5CHTO   H57 1998   5.003   3.008   4.677 -1.5504  1.1458  0.7287
    5CHTO   O21 1999   4.970   2.827   4.772  0.6707  0.3825 -0.1173
    5CHTO   H37 2000   4.985   2.780   4.852 -0.6567 -0.7322 -0.4977
    5CHTO   C27 2001   5.172   2.972   4.814 -0.4312 -0.2445  0.5487
    5CHTO   H55 2002   5.192   2.921   4.909 -0.0447  2.5692  2.0307
    5CHTO    N5 2003   5.266   2.918   4.708  0.6318 -0.1515 -0.0818
    5CHTO   H43 2004   5.327   2.995   4.663  0.6025 -0.5208 -0.7604
    5CHTO   H44 2005   5.332   2.858   4.768  1.0970  1.9856  1.6287
    5CHTO   C25 2006   5.196   3.120   4.842  0.2109 -0.1741 -0.6276
    5CHTO   H53 2007   5.170   3.172   4.748 -2.0915  1.5748  0.9435
    5CHTO   O17 2008   5.105   3.167   4.952 -0.2459  0.3317  0.5146
    5CHTO   C32 2009   4.966   3.177   4.906 -0.7481  0.3491  0.4584
    5CHTO   H60 2010   4.965   3.237   4.815 -0.2628 -1.0472 -0.4856
    5CHTO   C36 2011   4.888   3.242   5.022  0.1337  0.4215  0.1471
    5CHTO   O25 2012   4.963   3.360   5.064  0.0904 -0.6056 -0.4266
    5CHTO   H40 2013   4.977   3.365   5.157 -3.0312  0.0435  0.0554
    5CHTO   O15 2014   5.331   3.155   4.888 -0.2858 -0.4763 -0.0543
    5CHTO   C19 2015   5.390   3.294   4.882  0.1517  0.3252 -0.3854
    5CHTO   H47 2016   5.309   3.368   4.883 -1.8673 -1.7879 -0.7062
    5CHTO   C20 2017   5.478   3.320   5.011  0.0529 -0.2690 -0.0740
    5CHTO   H48 2018   5.555   3.242   5.026  2.6479  2.2695  0.1556
    5CHTO   O19 2019   5.389   3.324   5.119 -0.2021  0.1768  1.2265
    5CHTO   H35 2020   5.425   3.375   5.189 -0.3686 -1.0181  2.2000
    5CHTO   C21 2021   5.562   3.452   4.993  0.0463 -0.7415 -0.1695
    5CHTO   H49 2022   5.491   3.534   4.999 -0.8342 -1.4402 -0.7454
    5CHTO    N4 2023   5.649   3.484   5.112 -0.3723  0.1553  0.2563
    5CHTO   H41 2024   5.716   3.400   5.124  0.6119  0.8229 -0.5239
    5CHTO   H42 2025   5.703   3.576   5.093 -1.1092  0.4179 -0.5883
    5CHTO   C22 2026   5.636   3.441   4.855 -0.7929 -0.9655  0.8951
    5CHTO   H50 2027   5.701   3.353   4.854 -0.4022 -0.6693 -0.4317
    5CHTO   O14 2028   5.544   3.433   4.747  0.4355 -0.2098  0.1723
    5CHTO   C23 2029   5.474   3.309   4.748 -0.0170 -0.2378 -0.4180
    5CHTO   H51 2030   5.555   3.234   4.742  0.7627  0.4624  1.0417
    5CHTO   C34 2031   5.389   3.298   4.623  0.0344 -0.1876 -0.3337
    5CHTO   O23 2032   5.466   3.313   4.504 -0.4164  0.4551 -0.4512
    5CHTO   H38 2033   5.421   3.334   4.424 -1.0108 -0.5774 -0.3978
    5CHTO   O16 2034   5.717   3.558   4.834  0.6376  0.3841  0.3296
    5CHTO   C24 2035   5.855   3.547   4.751 -0.1166 -0.1240  0.0327
    5CHTO   H52 2036   5.875   3.445   4.719 -1.1189 -1.1775  2.5950
    5CHTO   C26 2037   5.973   3.582   4.845 -0.4533  0.0631 -1.0685
    5CHTO   H54 2038   5.961   3.685   4.884  2.7182 -0.2387  0.8562
    5CHTO   O20 2039   5.974   3.494   4.956  0.5108  0.0464 -0.1174
    5CHTO   H36 2040   5.957   3.407   4.925 -0.2413  0.0773  0.1881
    5CHTO   C30 2041   6.105   3.563   4.767 -0.0056  0.1215  0.1402
    5CHTO   H58 2042   6.134   3.459   4.743  1.9295  0.8766 -0.9208
    5CHTO    N6 2043   6.226   3.611   4.835 -0.3363  0.0283  0.2467
    5CHTO   H45 2044   6.237   3.718   4.831  1.5191 -0.1530  0.0694
    5CHTO   H46 2045   6.320   3.567   4.804  0.0324  0.8051  0.2453
    5CHTO   C33 2046   6.099   3.639   4.627  0.6283  0.4909 -0.1626
    5CHTO   H61 2047   6.093   3.747   4.649  0.1797 -0.3570  4.3264
    5CHTO   O18 2048   5.979   3.602   4.552 -0.5708 -0.6930  0.1439
    5CHTO   C28 2049   5.860   3.634   4.627  0.1181  0.3191 -0.9703
    5CHTO   H56 2050   5.865   3.739   4.655 -0.0914  0.2560 -0.6984
    5CHTO   C35 2051   5.746   3.594   4.542 -0.0871  0.0755  0.4473
    5CHTO   O24 2052   5.629   3.665   4.581 -0.0416  0.3675  0.2156
    5CHTO   H39 2053   5.570   3.668   4.508  0.0381 -0.8589  0.0978
    5CHTO    O9 2054   6.217   3.630   4.544 -0.5461  0.0661  0.4799
    5CHTO   C13 2055   6.277   3.468   4.519 -0.6685  0.0240  0.0510
    5CHTO   H26 2056   6.211   3.398   4.574 -3.2295  2.0993 -0.3213
    5CHTO   C11 2057   6.430   3.455   4.563 -0.0058  0.3677 -0.6697
    5CHTO   H24 2058   6.440   3.466   4.672  1.2790 -0.1212 -0.7313
    5CHTO    O8 2059   6.501   3.563   4.516  0.3289 -0.2507 -0.1342
    5CHTO    H3 2060   6.548   3.550   4.436  2.0572  0.3136  0.7657
    5CHTO    C9 2061   6.484   3.323   4.509 -0.4727  0.1608 -0.4164
    5CHTO   H22 2062   6.421   3.242   4.548 -0.3106 -0.3906 -1.2921
    5CHTO    N2 2063   6.618   3.290   4.565 -0.6667 -1.0171 -0.3498
    5CHTO   H10 2064   6.616   3.218   4.646 -0.5226 -0.4043  0.2021
    5CHTO   H11 2065   6.691   3.271   4.488  0.2513  1.7680 -0.2268
    5CHTO    C7 2066   6.472   3.319   4.350 -1.0496 -0.2506 -0.9352
    5CHTO   H20 2067   6.447   3.214   4.323 -0.4169 -0.3403 -1.1637
    5CHTO    O4 2068   6.377   3.421   4.301  0.0595 -0.0380 -0.3881
    5CHTO   C14 2069   6.254   3.415   4.375 -0.2640  0.6237  0.1295
    5CHTO   H27 2070   6.222   3.309   4.377  0.3437  0.4641  2.1611
    5CHTO   C18 2071   6.143   3.490   4.293 -0.2427  0.2458  0.2120
    5CHTO   O13 2072   6.016   3.429   4.321 -0.2202 -0.2585  0.2630
    5CHTO    H7 2073   6.006   3.348   4.275  1.8938  0.6998 -2.0134
    5CHTO    O2 2074   6.617   3.356   4.276  0.1656 -0.0589  0.0119
    5CHTO    C1 2075   6.634   3.292   4.149  0.4136 -0.8712 -0.8047
    5CHTO   H14 2076   6.534   3.260   4.112  0.8979 -2.6665 -0.6126
    5CHTO    C2 2077   6.722   3.166   4.146  0.4150 -0.1497 -0.4838
    5CHTO   H15 2078   6.817   3.185   4.197 -0.6309 -0.5758  1.6619
    5CHTO    O6 2079   6.656   3.063   4.224 -1.1685  0.2534 -0.0203
    5CHTO    H1 2080   6.581   3.034   4.174 -1.5403 -0.7697  1.0919
    5CHTO    C3 2081   6.753   3.116   4.003  0.0587  0.2130  0.2064
    5CHTO   H16 2082   6.659   3.077   3.962  0.7252 -0.8905 -0.3093
    5CHTO    N1 2083   6.851   3.001   3.997  0.5972 -0.3225  0.2962
    5CHTO    H8 2084   6.802   2.922   4.053 -0.6315 -1.7074 -2.6308
    5CHTO    H9 2085   6.943   3.026   4.048 -0.2716 -0.3108  1.9116
    5CHTO    C4 2086   6.795   3.229   3.907 -0.0914 -0.3117  0.3566
    5CHTO   H17 2087   6.895   3.267   3.927 -0.6225  1.0291  0.5355
    5CHTO    O1 2088   6.697   3.337   3.916  0.0495 -0.2591 -0.2435
    5CHTO    C5 2089   6.688   3.397   4.049 -0.9125  0.0923 -0.6575
    5CHTO   H18 2090   6.790   3.428   4.073 -1.5493  2.8966 -1.3593
    5CHTO   C16 2091   6.603   3.523   4.050 -0.7320 -0.2882  0.2653
    5CHTO   O11 2092   6.647   3.632   3.973 -0.9406 -0.4370  0.0152
    5CHTO    H5 2093   6.628   3.715   4.013  0.2236  0.6274 -1.5520
    5CHTO    O3 2094   6.784   3.189   3.768 -0.3981 -0.2999  0.8593
    5CHTO    C6 2095   6.875   3.243   3.672 -0.4516 -0.5055 -0.7747
    5CHTO   H19 2096   6.924   3.329   3.718  2.2364 -1.2179 -2.2057
    5CHTO    C8 2097   6.994   3.149   3.639  0.3947  0.4806 -0.3189
    5CHTO   H21 2098   6.950   3.051   3.618  2.0156 -0.0242 -1.5050
    5CHTO    O7 2099   7.084   3.145   3.753  0.7291  0.2332  0.1644
    5CHTO    H2 2100   7.138   3.068   3.745  1.4133  0.7144  0.0993
    5CHTO   C12 2101   7.080   3.201   3.512  0.6516  0.5406 -0.7345
    5CHTO   H25 2102   7.144   3.287   3.541  0.0036  0.3817  1.2819
    5CHTO    N3 2103   7.183   3.096   3.474 -0.1475 -0.2835 -0.7734
    5CHTO   H12 2104   7.254   3.095   3.556 -0.7494  0.9117 -0.2312
    5CHTO   H13 2105   7.237   3.112   3.382  1.5828 -1.6239 -0.0304
    5CHTO   C15 2106   6.991   3.244   3.398  0.4552  0.0836  0.5897
    5CHTO   H28 2107   6.936   3.156   3.365  0.7616  0.7147 -1.6605
    5CHTO   O10 2108   7.044   3.315   3.296  0.4285 -0.6432 -0.5822
    5CHTO    H4 2109   7.109   3.266   3.249  0.6259  0.4556 -1.4685
    5CHTO    O5 2110   6.898   3.339   3.448 -0.2343  0.4943 -0.8724
    5CHTO   C10 2111   6.800   3.295   3.542 -0.0543 -0.4821  0.5394
    5CHTO   H23 2112   6.748   3.209   3.500 -0.7533  0.4603 -0.5466
    5CHTO   C17 2113   6.701   3.405   3.573 -0.2960  0.3066 -0.0212
    5CHTO   O12 2114   6.569   3.381   3.630 -0.5934  0.5625 -0.3692
    5CHTO    H6 2115   6.505   3.426   3.579 -1.2524 -0.1861 -0.2237
    6CHTO  H203 2116   7.166   4.731   0.908  4.1681  0.3194 -0.7553
    6CHTO   O82 2117   7.150   4.728   0.815  0.0357 -0.0161 -0.1188
    6CHTO  C123 2118   7.070   4.836   0.763  0.1035 -0.3956  0.2375
    6CHTO  H227 2119   7.134   4.902   0.701 -0.9977 -0.1089 -0.6018
    6CHTO   O77 2120   6.984   4.755   0.683 -0.0659 -0.4423 -0.1308
    6CHTO  C118 2121   6.878   4.817   0.605  0.3954  0.0706  0.0265
    6CHTO  H222 2122   6.925   4.862   0.517 -1.2375  0.6634 -0.5640
    6CHTO  C125 2123   6.779   4.696   0.553  0.0812  0.3545  0.2802
    6CHTO   O84 2124   6.843   4.611   0.457  0.0101  0.0986 -0.1396
    6CHTO  H205 2125   6.862   4.660   0.379  2.4406 -0.0018  0.3365
    6CHTO  C114 2126   6.793   4.911   0.691 -0.1492 -0.2680  0.4820
    6CHTO  H218 2127   6.726   4.854   0.755 -1.5612  0.7757 -0.0381
    6CHTO  C116 2128   6.879   5.007   0.784 -0.1916 -0.5948  0.3222
    6CHTO  H220 2129   6.929   5.077   0.714  1.7559 -0.7791  1.4769
    6CHTO   O79 2130   6.789   5.084   0.868 -0.5189 -0.2041 -0.3444
    6CHTO  H201 2131   6.822   5.102   0.954 -0.6149 -0.5072 -0.2442
    6CHTO  C120 2132   6.981   4.916   0.862  0.1865  0.0891 -0.7283
    6CHTO  H224 2133   6.918   4.849   0.924  2.5936 -0.6613  0.9503
    6CHTO   N21 2134   7.064   4.990   0.954  0.0732  0.6503 -0.4334
    6CHTO  H211 2135   7.034   4.985   1.058  0.2981 -0.3622 -0.4172
    6CHTO  H212 2136   7.074   5.094   0.925 -1.0074  0.4134 -1.6595
    6CHTO   O75 2137   6.715   4.977   0.589  0.2722  0.0594 -0.0072
    6CHTO  C112 2138   6.544   4.988   0.650  0.3487  0.1244  0.4637
    6CHTO  H216 2139   6.553   4.984   0.759  0.1283 -1.6357  0.4402
    6CHTO   O73 2140   6.475   4.869   0.601  0.7608  0.0215  0.0854
    6CHTO  C113 2141   6.352   4.850   0.667  0.4352  0.0936 -0.0825
    6CHTO  H217 2142   6.368   4.842   0.777  2.3637 -1.7845 -0.4664
    6CHTO  C124 2143   6.279   4.722   0.610  0.0646 -0.2307 -0.2936
    6CHTO   O83 2144   6.353   4.602   0.633 -0.1607  0.4079  0.2159
    6CHTO  H204 2145   6.390   4.568   0.554  1.1445 -0.7255  1.3008
    6CHTO  C109 2146   6.262   4.972   0.634 -0.2876 -0.0530 -0.1761
    6CHTO  H213 2147   6.238   4.965   0.527 -1.3648  0.2252  0.0404
    6CHTO  C110 2148   6.328   5.116   0.663  0.1153  0.6079 -0.2998
    6CHTO  H214 2149   6.333   5.128   0.771 -1.5790  1.9124 -0.3372
    6CHTO   O78 2150   6.231   5.208   0.615  0.2285  0.2044  0.4115
    6CHTO  H200 2151   6.254   5.232   0.527 -1.2523 -2.6240 -0.8227
    6CHTO  C111 2152   6.471   5.119   0.601  0.0080 -0.3706 -0.1107
    6CHTO  H215 2153   6.466   5.117   0.491  0.0253  0.0548 -0.1198
    6CHTO   N19 2154   6.549   5.238   0.642 -0.3946  0.5922  0.1224
    6CHTO  H207 2155   6.636   5.209   0.699  0.7223 -0.5708 -2.0996
    6CHTO  H208 2156   6.566   5.300   0.555  0.6594  0.2648  0.0981
    6CHTO   O74 2157   6.132   4.963   0.709 -0.1032  0.1470  0.0438
    6CHTO  C115 2158   6.160   4.941   0.882 -0.6636  0.1208 -0.3020
    6CHTO  H219 2159   6.230   4.861   0.906  0.1282  0.6138 -0.9073
    6CHTO   O76 2160   6.217   5.065   0.946  0.0144  0.0334 -0.1697
    6CHTO  C122 2161   6.133   5.184   0.943 -0.9149  0.1384 -0.6127
    6CHTO  H226 2162   6.106   5.201   0.839 -0.8719 -2.4864 -1.0872
    6CHTO  C126 2163   6.219   5.305   0.990 -0.3351  0.0838 -0.0800
    6CHTO   O85 2164   6.163   5.434   0.975 -0.2772  0.1173  0.6567
    6CHTO  H206 2165   6.086   5.435   1.029 -0.5047  0.3866  0.3282
    6CHTO  C121 2166   6.009   5.158   1.037 -0.2168 -0.3464 -0.2096
    6CHTO  H225 2167   6.026   5.198   1.138 -1.8414  0.8564 -0.3919
    6CHTO   O81 2168   5.906   5.245   0.984 -0.4846  0.0849 -0.0099
    6CHTO  H202 2169   5.821   5.244   1.022  0.4088  0.9381  2.0890
    6CHTO  C119 2170   5.963   5.007   1.046  0.3686 -0.1731 -0.9603
    6CHTO  H223 2171   5.988   4.976   1.147 -2.0914 -1.2637 -0.6554
    6CHTO  C117 2172   6.022   4.898   0.946 -0.5199 -0.6251 -0.3650
    6CHTO  H221 2173   5.962   4.889   0.855 -2.4290 -0.4184  0.8401
    6CHTO   N20 2174   6.018   4.763   1.012 -0.6595  0.3197 -0.4356
    6CHTO  H209 2175   6.096   4.709   0.959 -0.5511 -0.1356  0.1866
    6CHTO  H210 2176   6.042   4.780   1.116  0.1294  1.8587 -0.8517
    6CHTO   O80 2177   5.800   4.989   1.057  0.1351  0.0777  0.0065
    6CHTO  C103 2178   5.715   5.041   1.197  0.5002 -0.2205 -0.5081
    6CHTO  H190 2179   5.768   5.002   1.283  0.0008 -1.7742 -0.8835
    6CHTO  C101 2180   5.692   5.200   1.206 -0.2286  0.3527 -0.1024
    6CHTO  H188 2181   5.676   5.237   1.104 -1.0383 -0.2747 -0.2139
    6CHTO   O68 2182   5.807   5.263   1.261 -0.0011  0.1319 -0.0969
    6CHTO  H168 2183   5.876   5.277   1.199  1.3935 -1.7047  0.9720
    6CHTO   C99 2184   5.561   5.233   1.306  0.2403  0.3239  0.3982
    6CHTO  H186 2185   5.598   5.201   1.405 -3.1810 -2.8306  0.7846
    6CHTO   N17 2186   5.518   5.379   1.308 -0.6273  0.0392  0.7368
    6CHTO  H174 2187   5.458   5.404   1.222 -0.5995 -1.8356  0.1477
    6CHTO  H175 2188   5.608   5.439   1.305 -0.7387  0.1426 -1.0245
    6CHTO   C97 2189   5.442   5.142   1.278  0.2757  0.4737 -0.1326
    6CHTO  H184 2190   5.402   5.168   1.178  1.0925 -0.4547 -0.7124
    6CHTO   O64 2191   5.483   5.009   1.284 -0.1420  0.1397 -0.1306
    6CHTO  C104 2192   5.577   4.958   1.190 -0.1821 -0.2529 -0.2093
    6CHTO  H191 2193   5.530   4.949   1.091 -1.1451 -0.9832  0.3015
    6CHTO  C108 2194   5.608   4.820   1.231 -0.1798 -0.0149  0.0567
    6CHTO   O71 2195   5.688   4.741   1.139 -0.4050 -0.5937  0.3494
    6CHTO  H171 2196   5.777   4.750   1.168 -0.3826  1.0699 -0.1842
    6CHTO   O62 2197   5.343   5.149   1.387 -0.6732 -0.1740 -0.3145
    6CHTO   C91 2198   5.196   5.157   1.375 -0.4141  0.1183 -0.0999
    6CHTO  H178 2199   5.167   5.262   1.362  0.2550  0.0350 -2.5476
    6CHTO   C92 2200   5.142   5.121   1.511  0.0950  0.0751 -0.1022
    6CHTO  H179 2201   5.211   5.176   1.576  1.2736 -0.9434 -0.4822
    6CHTO   O66 2202   5.012   5.182   1.537  1.0274 -0.0171  0.2136
    6CHTO  H166 2203   5.007   5.275   1.544 -2.2682 -0.2827  2.7200
    6CHTO   C93 2204   5.143   4.966   1.539  0.7972 -0.4838 -0.0223
    6CHTO  H180 2205   5.061   4.957   1.612 -0.1679  1.9896 -0.7437
    6CHTO   N16 2206   5.276   4.923   1.590 -0.1303 -0.1787 -0.0419
    6CHTO  H172 2207   5.292   4.818   1.569 -0.1246 -0.0164 -0.8656
    6CHTO  H173 2208   5.355   4.978   1.540  0.6197  0.1885  1.5298
    6CHTO   C94 2209   5.102   4.878   1.410 -0.1578 -0.0970  0.1438
    6CHTO  H181 2210   5.188   4.841   1.355  0.4481  0.8951  0.4050
    6CHTO   O61 2211   5.028   4.970   1.322 -0.4692  0.7363  0.3562
    6CHTO   C95 2212   5.129   5.060   1.274  0.2819 -0.2344  0.4899
    6CHTO  H182 2213   5.207   5.002   1.226 -1.3169 -3.0501  1.2176
    6CHTO  C106 2214   5.069   5.139   1.154  0.4876 -0.1328 -0.0693
    6CHTO   O69 2215   5.157   5.237   1.095  0.3410  0.5547  0.3491
    6CHTO  H169 2216   5.226   5.249   1.157 -0.6941  1.6070  1.3185
    6CHTO   O63 2217   5.006   4.756   1.459 -0.2115 -0.0888  0.3316
    6CHTO   C96 2218   5.056   4.616   1.405 -0.2101  0.2900 -0.2821
    6CHTO  H183 2219   5.163   4.609   1.420 -0.3162  0.9164  0.8091
    6CHTO   C98 2220   5.036   4.581   1.256  0.2330 -0.2706 -0.4152
    6CHTO  H185 2221   4.927   4.591   1.244  0.3721 -0.0484 -1.5424
    6CHTO   O67 2222   5.085   4.690   1.173 -0.4893  0.0478  0.5380
    6CHTO  H167 2223   5.043   4.677   1.090  1.1699  0.9930 -0.4670
    6CHTO  C102 2224   5.089   4.446   1.206 -0.3005 -0.1954  0.0124
    6CHTO  H189 2225   5.197   4.464   1.191 -0.3096  0.4394  0.6748
    6CHTO   N18 2226   5.039   4.408   1.071 -0.2337 -0.6351 -0.1607
    6CHTO  H176 2227   5.062   4.305   1.047  0.4932 -0.2957 -0.9758
    6CHTO  H177 2228   5.083   4.480   1.003 -1.8812  1.2529  0.7574
    6CHTO  C105 2229   5.071   4.338   1.318 -0.0114 -0.3025  0.8455
    6CHTO  H192 2230   5.040   4.244   1.272 -1.0099  0.6406 -0.4439
    6CHTO   O65 2231   4.969   4.378   1.415  0.6029 -0.2328  0.7591
    6CHTO  C100 2232   4.992   4.502   1.487 -0.6943 -0.7109 -0.3791
    6CHTO  H187 2233   4.893   4.542   1.516  0.0974  0.9850  0.0320
    6CHTO  C107 2234   5.056   4.470   1.625 -0.4839 -0.2893 -0.1878
    6CHTO   O70 2235   5.096   4.586   1.697  0.5256 -0.3633  0.1374
    6CHTO  H170 2236   5.138   4.551   1.773  0.9557  0.4606  0.2894
    6CHTO   O57 2237   5.200   4.326   1.389  0.0917  0.2534  0.2267
    6CHTO   C85 2238   5.277   4.206   1.356  0.4458  0.1140  0.2008
    6CHTO  H157 2239   5.268   4.194   1.246  1.5774 -1.6929  0.2890
    6CHTO   C83 2240   5.214   4.078   1.414 -0.8935  0.4796  0.9255
    6CHTO  H155 2241   5.122   4.064   1.357 -0.8790 -1.5931  1.3779
    6CHTO   O56 2242   5.171   4.107   1.552  0.3294  0.6938 -0.4355
    6CHTO  H135 2243   5.094   4.162   1.546 -1.0688 -1.2027 -0.3280
    6CHTO   C81 2244   5.302   3.949   1.390  0.8577 -0.6546 -0.2216
    6CHTO  H153 2245   5.321   3.938   1.284  1.4495 -1.6309 -0.0117
    6CHTO   N14 2246   5.224   3.829   1.431  0.3314  0.0231  0.2090
    6CHTO  H141 2247   5.286   3.743   1.443 -1.8943 -1.3903  1.7126
    6CHTO  H142 2248   5.154   3.810   1.353  2.7259  1.9068 -2.5529
    6CHTO   C79 2249   5.443   3.970   1.459  0.0542  0.4473 -0.2783
    6CHTO  H151 2250   5.509   3.893   1.418  2.0382  2.1601 -0.3616
    6CHTO   O52 2251   5.504   4.091   1.401 -0.0321  0.1610 -0.0954
    6CHTO   C86 2252   5.424   4.220   1.398 -0.0032  0.2700  0.5350
    6CHTO  H158 2253   5.430   4.260   1.501  2.0712  0.7201  0.2643
    6CHTO   C90 2254   5.493   4.330   1.311  0.2942 -0.0146  0.3079
    6CHTO   O60 2255   5.526   4.299   1.175  0.0653  0.1552  0.7736
    6CHTO  H138 2256   5.492   4.367   1.121 -1.0427 -1.2299 -0.3288
    6CHTO   O50 2257   5.441   3.971   1.600  0.6395  0.3343 -0.0441
    6CHTO   C73 2258   5.493   3.968   1.733  0.9870  0.4632 -0.2554
    6CHTO  H145 2259   5.501   3.863   1.762  0.0656  0.2832 -0.6334
    6CHTO   C74 2260   5.383   4.042   1.821 -0.0035  0.7561 -0.4002
    6CHTO  H146 2261   5.287   3.990   1.804  0.7529 -0.7334 -0.2081
    6CHTO   O54 2262   5.418   4.020   1.963  0.1088  0.0294 -0.3031
    6CHTO  H133 2263   5.364   4.077   2.014 -0.1493  1.6116 -2.2766
    6CHTO   C75 2264   5.379   4.194   1.783  0.3365  0.0058 -0.2292
    6CHTO  H147 2265   5.331   4.206   1.685  0.7950  2.0919 -0.2123
    6CHTO   N13 2266   5.292   4.274   1.874 -0.3478  0.8459 -0.1234
    6CHTO  H139 2267   5.214   4.326   1.819  0.4093  1.4960 -0.5955
    6CHTO  H140 2268   5.239   4.218   1.949 -0.2705 -0.7961 -1.2779
    6CHTO   C76 2269   5.526   4.255   1.767  0.5166 -0.2386  0.2638
    6CHTO  H148 2270   5.565   4.268   1.867 -0.3460 -0.5072  0.6424
    6CHTO   O49 2271   5.617   4.170   1.695  0.5679 -0.3023  0.3364
    6CHTO   C77 2272   5.630   4.039   1.753  0.5954 -0.7534 -0.1146
    6CHTO  H149 2273   5.648   4.065   1.857  0.4628  1.3969 -0.6021
    6CHTO   C88 2274   5.756   3.965   1.700  0.7299  0.1496 -0.0190
    6CHTO   O58 2275   5.739   3.924   1.539  0.5887  0.1448 -0.4440
    6CHTO  H136 2276   5.781   3.984   1.481  2.5974  0.1406  0.9531
    6CHTO   O51 2277   5.514   4.392   1.669  0.4360  0.2056  0.0060
    6CHTO   C78 2278   5.623   4.499   1.705 -0.0704  0.0401  0.0902
    6CHTO  H150 2279   5.669   4.476   1.803 -0.0089  0.8233  0.2545
    6CHTO   C80 2280   5.560   4.640   1.711  0.0496  0.2320 -0.1893
    6CHTO  H152 2281   5.515   4.661   1.612 -0.4577  1.6764  0.3364
    6CHTO   O55 2282   5.456   4.633   1.814  0.2279 -0.1355 -0.0979
    6CHTO  H134 2283   5.389   4.579   1.777  1.1230 -1.5601  0.3538
    6CHTO   C84 2284   5.672   4.741   1.759 -0.0567  0.9232 -0.1400
    6CHTO  H156 2285   5.708   4.705   1.855 -1.5586 -1.3069 -0.3787
    6CHTO   N15 2286   5.623   4.880   1.780 -0.0758  0.6582  0.1870
    6CHTO  H143 2287   5.519   4.872   1.802  0.3455 -0.0123  2.0860
    6CHTO  H144 2288   5.665   4.928   1.866  0.6769  1.2682 -0.5135
    6CHTO   C87 2289   5.797   4.745   1.662 -0.2518  0.1349 -0.2762
    6CHTO  H159 2290   5.771   4.788   1.566 -2.3761 -0.6992 -0.0942
    6CHTO   O53 2291   5.838   4.591   1.641 -0.2659  0.3057  0.1702
    6CHTO   C82 2292   5.733   4.508   1.598 -0.3117  0.1560 -0.1060
    6CHTO  H154 2293   5.688   4.545   1.506  0.7467 -0.1342 -0.7399
    6CHTO   C89 2294   5.801   4.371   1.566 -0.1080  0.4046  0.3381
    6CHTO   O59 2295   5.885   4.305   1.658  0.5762 -0.1270  0.2862
    6CHTO  H137 2296   5.825   4.279   1.725 -0.1743  1.1765  0.1230
    6CHTO   O45 2297   5.931   4.821   1.733  0.1116  0.3171 -0.4592
    6CHTO   C67 2298   6.044   4.850   1.650 -0.6692  0.0581 -0.0040
    6CHTO  H124 2299   6.068   4.758   1.596  0.2336  0.0140  0.4646
    6CHTO   C65 2300   6.017   4.970   1.545  0.2705  0.2915  0.1765
    6CHTO  H122 2301   5.932   5.029   1.578 -1.1384 -2.4258  1.6088
    6CHTO   O44 2302   5.971   4.901   1.428 -0.3626 -0.6358  0.7146
    6CHTO  H102 2303   5.961   4.961   1.357 -0.1234 -0.3580  0.9149
    6CHTO   C63 2304   6.132   5.078   1.527 -0.4399  0.6302  0.0886
    6CHTO  H120 2305   6.121   5.156   1.601  2.0986  1.3197 -0.1899
    6CHTO   N11 2306   6.134   5.150   1.400 -0.2279 -0.1045  0.5407
    6CHTO  H108 2307   6.192   5.239   1.395  0.7475 -0.7065  0.9077
    6CHTO  H109 2308   6.034   5.166   1.365  0.2648 -2.6634 -2.2772
    6CHTO   C61 2309   6.271   5.010   1.553  0.3302 -0.8420  0.8772
    6CHTO  H118 2310   6.350   5.087   1.550 -0.1558 -0.3891 -1.9110
    6CHTO   O40 2311   6.280   4.947   1.685  0.3495 -0.1307  0.1526
    6CHTO   C68 2312   6.164   4.883   1.738  0.0880 -0.4628  0.0662
    6CHTO  H125 2313   6.110   4.950   1.807  1.4170  1.9818 -1.1974
    6CHTO   C72 2314   6.214   4.761   1.816  0.3764 -0.7056  0.2176
    6CHTO   O48 2315   6.294   4.674   1.738  0.3816 -0.4137 -0.3656
    6CHTO  H105 2316   6.297   4.596   1.791 -1.0655 -0.7543 -0.7655
    6CHTO   O38 2317   6.301   4.902   1.462 -0.4918 -0.3087 -0.9623
    6CHTO   C55 2318   6.430   4.898   1.390 -0.9392  0.0911  0.3193
    6CHTO  H112 2319   6.473   4.998   1.396 -0.0821 -0.2558  0.0263
    6CHTO   C56 2320   6.400   4.857   1.242 -0.4131 -0.5058 -0.2551
    6CHTO  H113 2321   6.340   4.766   1.235 -0.4671 -0.3418 -2.0856
    6CHTO   O42 2322   6.323   4.961   1.179  0.0478 -0.0446 -0.3654
    6CHTO  H100 2323   6.304   4.935   1.091  0.1588 -1.6442  0.0563
    6CHTO   C57 2324   6.538   4.838   1.167 -0.2213  0.4796 -0.0520
    6CHTO  H114 2325   6.588   4.933   1.152  0.7657 -0.0182  0.0106
    6CHTO   N10 2326   6.518   4.793   1.030  0.0867  0.4289 -0.0586
    6CHTO  H106 2327   6.488   4.690   1.035 -0.4913  0.5735 -0.4304
    6CHTO  H107 2328   6.611   4.795   0.976  0.6896 -2.1925  0.8292
    6CHTO   C58 2329   6.632   4.740   1.242 -0.4998 -0.6276 -0.5401
    6CHTO  H115 2330   6.588   4.639   1.245  1.6237 -1.5752 -0.1248
    6CHTO   O37 2331   6.653   4.793   1.372  0.1588  0.3238 -0.3581
    6CHTO   C59 2332   6.533   4.801   1.457  0.2060 -0.3068  0.1563
    6CHTO  H116 2333   6.486   4.703   1.464  2.4949 -1.4209  0.4065
    6CHTO   C70 2334   6.575   4.854   1.594  0.6276  0.6035  0.2743
    6CHTO   O46 2335   6.687   4.774   1.639 -0.5463 -0.5334 -0.2759
    6CHTO  H103 2336   6.762   4.786   1.584  1.1873  0.4767  2.2039
    6CHTO   O39 2337   6.783   4.745   1.177  0.1536 -0.3852 -0.4428
    6CHTO   C60 2338   6.886   4.660   1.239  0.3014 -0.0127 -0.2495
    6CHTO  H117 2339   6.851   4.632   1.339 -0.8938  0.3512 -0.5563
    6CHTO   C62 2340   6.899   4.526   1.153  0.0499  1.3044 -0.0899
    6CHTO  H119 2341   6.798   4.482   1.167 -0.4207  2.1119 -0.8926
    6CHTO   O43 2342   6.923   4.563   1.017 -0.3044  0.0976 -0.1282
    6CHTO  H101 2343   6.901   4.494   0.957 -0.2030 -0.1389  0.1035
    6CHTO   C66 2344   7.014   4.422   1.211 -0.8291  0.4177 -0.7346
    6CHTO  H123 2345   6.992   4.395   1.315  3.4306 -0.3605  0.0644
    6CHTO   N12 2346   7.022   4.296   1.137 -0.5732  0.2572  0.6944
    6CHTO  H110 2347   7.054   4.305   1.034 -0.6563 -0.0223  0.6437
    6CHTO  H111 2348   6.935   4.237   1.161 -1.8989  1.9890  0.2410
    6CHTO   C69 2349   7.145   4.502   1.218  0.3897  0.1463  0.5807
    6CHTO  H126 2350   7.176   4.540   1.118 -2.0056  1.3165  0.2585
    6CHTO   O41 2351   7.134   4.633   1.304 -0.4570  0.0095 -0.1083
    6CHTO   C64 2352   7.020   4.740   1.252  0.3238  0.2846 -0.1221
    6CHTO  H121 2353   7.042   4.791   1.157 -2.5795  0.0590 -0.9535
    6CHTO   C71 2354   6.994   4.855   1.352 -0.2633  0.4825 -0.6408
    6CHTO   O47 2355   7.120   4.912   1.389  0.0737 -0.6363 -0.2902
    6CHTO  H104 2356   7.100   5.002   1.410 -0.1993 -0.9321  0.7452
    6CHTO   O34 2357   7.273   4.414   1.294 -0.6968  0.2258 -0.2907
    6CHTO   C49 2358   7.404   4.362   1.256  0.1454 -0.0655  0.0789
    6CHTO   H91 2359   7.386   4.283   1.184  1.8323  2.0383 -2.7451
    6CHTO   C47 2360   7.476   4.310   1.381 -0.0240  0.1259  0.2841
    6CHTO   H89 2361   7.571   4.268   1.340  0.6845  2.4157 -0.4722
    6CHTO   O33 2362   7.399   4.210   1.459  0.5969  0.1951 -0.8308
    6CHTO   H70 2363   7.459   4.167   1.516  0.3824  0.2327 -0.5776
    6CHTO   C45 2364   7.520   4.434   1.473  0.0062 -1.0152  0.0980
    6CHTO   H87 2365   7.452   4.438   1.560 -0.9331  1.0404 -0.6872
    6CHTO    N8 2366   7.656   4.417   1.528 -0.1900 -0.4748 -0.3669
    6CHTO   H75 2367   7.729   4.397   1.450  0.3502  1.3084 -0.3534
    6CHTO   H76 2368   7.656   4.359   1.618 -1.2863 -1.5699 -1.0519
    6CHTO   C43 2369   7.497   4.582   1.397 -0.2699 -0.7072  0.1470
    6CHTO   H85 2370   7.390   4.603   1.392  0.0284  0.3669 -2.4879
    6CHTO   O29 2371   7.554   4.576   1.260 -0.1373 -0.4957  0.3146
    6CHTO   C50 2372   7.498   4.474   1.179 -0.2912 -0.6492  0.4059
    6CHTO   H92 2373   7.433   4.526   1.108 -0.4698  0.6365  1.4858
    6CHTO   C54 2374   7.612   4.424   1.094 -0.5246 -0.3666  0.0436
    6CHTO   O36 2375   7.655   4.523   1.001 -0.3489 -0.1884  0.2561
    6CHTO   H72 2376   7.679   4.483   0.920 -1.3139 -0.9763  0.3532
    6CHTO   O27 2377   7.554   4.692   1.469  0.3010 -0.3454  1.0050
    6CHTO   C37 2378   7.600   4.825   1.490  0.4692  0.6632  1.2826
    6CHTO   H79 2379   7.707   4.830   1.466  0.2464  2.3117  0.5739
    6CHTO   C38 2380   7.534   4.919   1.390  0.8070 -0.9540  0.0886
    6CHTO   H80 2381   7.428   4.888   1.395  0.8906 -1.0186  1.9132
    6CHTO   O31 2382   7.579   4.896   1.255 -0.0893 -0.0600 -0.0351
    6CHTO   H68 2383   7.511   4.865   1.199  1.1825  0.1891 -1.7966
    6CHTO   C39 2384   7.557   5.077   1.429 -0.2443  0.0276 -0.7965
    6CHTO   H81 2385   7.662   5.106   1.423 -0.7771  2.5054  1.2248
    6CHTO    N7 2386   7.481   5.168   1.341  0.2026 -0.0440  0.1044
    6CHTO   H73 2387   7.481   5.145   1.235  0.3001 -0.6486  0.2333
    6CHTO   H74 2388   7.391   5.200   1.391  2.0484  2.4833  1.8789
    6CHTO   C40 2389   7.520   5.104   1.581 -0.6271  0.0048  0.2164
    6CHTO   H82 2390   7.416   5.093   1.613 -0.4171 -0.7376  0.6558
    6CHTO   O26 2391   7.604   5.013   1.652  0.0279 -0.2907  0.0841
    6CHTO   C41 2392   7.570   4.874   1.632  0.1002  0.2581 -0.3494
    6CHTO   H83 2393   7.464   4.860   1.658 -0.1979  1.2899 -0.9950
    6CHTO   C52 2394   7.649   4.792   1.738  0.0876  0.3096  0.2801
    6CHTO   O35 2395   7.628   4.835   1.886  0.0185  0.4488  0.4116
    6CHTO   H71 2396   7.710   4.856   1.927 -0.2159  2.7203 -0.1937
    6CHTO   O28 2397   7.561   5.236   1.618 -0.3793 -0.3108 -0.0787
    6CHTO   C42 2398   7.547   5.293   1.748 -0.8401 -0.5967 -0.0516
    6CHTO   H84 2399   7.640   5.349   1.745 -0.1079 -1.8411 -1.1237
    6CHTO   C44 2400   7.559   5.212   1.873 -0.2983 -0.0655  0.0859
    6CHTO   H86 2401   7.512   5.115   1.854 -0.9263  0.1368  0.5743
    6CHTO   O32 2402   7.694   5.169   1.887  0.1603 -0.1151 -0.3053
    6CHTO   H69 2403   7.744   5.218   1.949  1.0554 -0.1436 -0.9848
    6CHTO   C48 2404   7.503   5.268   2.005  0.9972  0.2463 -0.2539
    6CHTO   H90 2405   7.576   5.333   2.054 -0.2859  1.5654 -0.0404
    6CHTO    N9 2406   7.479   5.161   2.106  0.1833 -0.1349  0.2315
    6CHTO   H77 2407   7.445   5.195   2.203 -1.4233 -2.9988  0.7292
    6CHTO   H78 2408   7.422   5.076   2.071  0.6684 -0.9725  1.4167
    6CHTO   C51 2409   7.379   5.372   1.996 -1.2343  0.1879  0.3776
    6CHTO   H93 2410   7.283   5.322   1.978 -0.9042 -0.2835 -0.0707
    6CHTO   O30 2411   7.414   5.465   1.890 -0.1290  0.5401  0.0309
    6CHTO   C46 2412   7.426   5.396   1.756 -0.1024 -0.4507  0.0920
    6CHTO   H88 2413   7.337   5.337   1.738  0.6668 -1.3600 -0.7606
    6CHTO   C53 2414   7.426   5.515   1.656  0.2081 -0.5501  0.4596
    6CHTO   O72 2415   7.528   5.617   1.680  0.1960  0.1565 -0.4915
    6CHTO  H199 2416   7.548   5.615   1.771 -2.3287  1.7196  0.1331
    6CHTO   O22 2417   7.360   5.451   2.116 -0.2404 -0.0172  0.1749
    6CHTO   C31 2418   7.233   5.514   2.141 -0.6297  0.1677  0.9992
    6CHTO   H59 2419   7.244   5.556   2.243  0.9972  1.0726  0.4772
    6CHTO   C29 2420   7.186   5.630   2.044 -0.8207 -0.2529 -0.3945
    6CHTO   H57 2421   7.182   5.593   1.941 -0.2695 -1.3574 -0.0302
    6CHTO   O21 2422   7.292   5.727   2.059  0.0609  0.1481 -0.1410
    6CHTO   H37 2423   7.363   5.696   2.006  0.4316  0.2513  0.2891
    6CHTO   C27 2424   7.048   5.685   2.084  0.2566 -0.3468  1.2289
    6CHTO   H55 2425   7.055   5.744   2.176  0.8504 -0.3864  1.2123
    6CHTO    N5 2426   7.002   5.767   1.972 -0.2424 -0.0253  0.7823
    6CHTO   H43 2427   6.895   5.782   1.978 -0.6187 -2.4838  1.1281
    6CHTO   H44 2428   7.025   5.723   1.876  1.4060 -1.5930  1.8490
    6CHTO   C25 2429   6.948   5.569   2.108  0.0652  0.2773  0.3516
    6CHTO   H53 2430   6.926   5.519   2.013  0.0739  0.6525  0.1504
    6CHTO   O17 2431   6.992   5.462   2.193 -0.8469 -0.0781 -0.7466
    6CHTO   C32 2432   7.116   5.409   2.156 -0.5970 -0.1790 -0.3475
    6CHTO   H60 2433   7.103   5.364   2.058  1.8147 -0.6130 -0.4930
    6CHTO   C36 2434   7.156   5.290   2.243 -0.4886  0.1494 -0.3200
    6CHTO   O25 2435   7.157   5.320   2.384  0.1997 -0.2323  0.3121
    6CHTO   H40 2436   7.089   5.382   2.405  0.2612 -0.1497  0.2697
    6CHTO   O15 2437   6.821   5.621   2.167  0.1136 -0.0038 -0.4088
    6CHTO   C19 2438   6.744   5.612   2.288  0.3843 -0.1735 -0.5540
    6CHTO   H47 2439   6.735   5.504   2.305  0.1492  0.0525  0.7791
    6CHTO   C20 2440   6.821   5.668   2.411 -0.6136 -0.0066 -0.0191
    6CHTO   H48 2441   6.857   5.771   2.393  2.8943 -0.9825  0.9255
    6CHTO   O19 2442   6.932   5.587   2.443  0.2861 -0.3157 -0.0035
    6CHTO   H35 2443   6.990   5.578   2.370  2.0178  1.9224  1.0194
    6CHTO   C21 2444   6.723   5.676   2.537 -0.0484  0.6715  0.1363
    6CHTO   H49 2445   6.712   5.576   2.577 -1.1226  1.9951  3.3059
    6CHTO    N4 2446   6.783   5.746   2.652  0.4558  0.3446 -0.0979
    6CHTO   H41 2447   6.710   5.745   2.732 -0.0814  1.1060 -0.5669
    6CHTO   H42 2448   6.807   5.846   2.621 -0.0287  0.5799  0.2863
    6CHTO   C22 2449   6.590   5.736   2.500  0.3835 -0.2469  0.4726
    6CHTO   H50 2450   6.600   5.841   2.474  0.7742 -0.8870 -2.2083
    6CHTO   O14 2451   6.525   5.668   2.389  0.4144 -0.1832  0.4768
    6CHTO   C23 2452   6.597   5.668   2.269 -0.6622  0.7378  0.1485
    6CHTO   H51 2453   6.596   5.771   2.229 -0.8592  0.9109  0.6003
    6CHTO   C34 2454   6.514   5.584   2.170 -0.3252  0.8658 -0.0221
    6CHTO   O23 2455   6.395   5.651   2.124 -0.3082 -0.7900  0.7630
    6CHTO   H38 2456   6.325   5.654   2.187 -1.9849  0.4005 -1.0957
    6CHTO   O16 2457   6.491   5.714   2.605 -0.0595  0.6842  0.2286
    6CHTO   C24 2458   6.367   5.818   2.614  0.4729 -0.2964  0.6348
    6CHTO   H52 2459   6.366   5.886   2.528  0.4362 -0.0418  0.8350
    6CHTO   C26 2460   6.384   5.891   2.746  0.1652  0.2709 -0.3188
    6CHTO   H54 2461   6.388   5.820   2.831  2.4198  1.6074  0.7545
    6CHTO   O20 2462   6.502   5.975   2.749  0.4510 -0.1663  0.6638
    6CHTO   H36 2463   6.581   5.924   2.760  1.0712  1.1249  2.3645
    6CHTO   C30 2464   6.258   5.978   2.782  0.0530  0.1728  0.2537
    6CHTO   H58 2465   6.258   6.060   2.709  0.4727  1.1020  1.2756
    6CHTO    N6 2466   6.270   6.034   2.920  0.3901  0.1095 -1.0169
    6CHTO   H45 2467   6.307   5.957   2.985 -3.2731  0.4120  1.5426
    6CHTO   H46 2468   6.331   6.123   2.925  0.4408  0.0238 -0.1139
    6CHTO   C33 2469   6.123   5.908   2.757 -0.1842 -0.4064 -0.1788
    6CHTO   H61 2470   6.117   5.829   2.834  0.7637 -0.3390 -0.0340
    6CHTO   O18 2471   6.126   5.843   2.629 -0.6576  0.0751  0.1488
    6CHTO   C28 2472   6.228   5.743   2.621  0.3659 -0.4288  0.4477
    6CHTO   H56 2473   6.234   5.680   2.710  2.5209 -1.3581 -0.3208
    6CHTO   C35 2474   6.211   5.645   2.497  0.2781 -0.7158 -0.5164
    6CHTO   O24 2475   6.186   5.707   2.376 -0.1033 -0.3952 -0.1243
    6CHTO   H39 2476   6.146   5.652   2.312 -2.2105  0.9927 -0.0395
    6CHTO    O9 2477   6.008   5.991   2.778  0.7848 -0.4087  0.0662
    6CHTO   C13 2478   5.869   5.914   2.787 -0.2665  0.1168  0.1037
    6CHTO   H26 2479   5.890   5.806   2.801 -0.1767  0.0611 -0.4510
    6CHTO   C11 2480   5.792   5.941   2.649  0.9740  0.6773  0.3298
    6CHTO   H24 2481   5.844   5.900   2.561  1.0647 -0.3585  0.8690
    6CHTO    O8 2482   5.781   6.081   2.626  0.7687 -0.3900 -0.8131
    6CHTO    H3 2483   5.857   6.132   2.648 -0.9947  0.5207  3.6406
    6CHTO    C9 2484   5.657   5.867   2.651  0.1606 -0.0810 -0.2232
    6CHTO   H22 2485   5.683   5.761   2.664  1.0105 -0.0020 -1.1686
    6CHTO    N2 2486   5.582   5.874   2.520  0.7371  0.3237  0.0848
    6CHTO   H10 2487   5.634   5.814   2.447 -1.5139 -1.2969 -0.2627
    6CHTO   H11 2488   5.486   5.827   2.537  0.2188  1.5314  0.5836
    6CHTO    C7 2489   5.580   5.908   2.786 -0.5653 -0.4073 -0.1062
    6CHTO   H20 2490   5.565   5.811   2.837  1.5653 -0.1792  1.0057
    6CHTO    O4 2491   5.650   5.995   2.875 -0.3440  0.3811 -0.0635
    6CHTO   C14 2492   5.778   5.938   2.912  0.2792 -0.2483  0.6412
    6CHTO   H27 2493   5.763   5.847   2.974  1.0050 -1.3125 -0.7311
    6CHTO   C18 2494   5.831   6.048   3.007  0.2112 -0.2501  0.5675
    6CHTO   O13 2495   5.764   6.055   3.132  0.7288 -0.3662 -0.5203
    6CHTO    H7 2496   5.820   6.101   3.192  3.2933 -1.1894 -2.1916
    6CHTO    O2 2497   5.434   5.985   2.763 -0.2099 -0.1962 -0.1026
    6CHTO    C1 2498   5.338   5.967   2.867  0.0341  0.1876  0.3409
    6CHTO   H14 2499   5.246   6.022   2.838  1.1808  1.3248 -1.2509
    6CHTO    C2 2500   5.381   6.001   3.009 -0.0181 -0.4317 -0.5306
    6CHTO   H15 2501   5.471   5.943   3.033 -0.2467  0.2610  2.2175
    6CHTO    O6 2502   5.420   6.138   3.010 -0.1545  0.1125  0.1929
    6CHTO    H1 2503   5.485   6.157   2.945 -0.4555 -0.8390 -0.3850
    6CHTO    C3 2504   5.259   5.971   3.110  0.0598 -0.2709  0.0175
    6CHTO   H16 2505   5.173   6.032   3.079 -0.0623  0.2224  1.2945
    6CHTO    N1 2506   5.283   6.010   3.252  0.2938 -0.0613  0.4511
    6CHTO    H8 2507   5.374   5.964   3.286  1.0013 -0.5213 -1.9732
    6CHTO    H9 2508   5.194   5.996   3.312 -0.6415  0.9233 -0.6822
    6CHTO    C4 2509   5.213   5.825   3.093 -0.5585 -0.1431  0.0817
    6CHTO   H17 2510   5.291   5.757   3.128 -0.5337  0.4298  1.1690
    6CHTO    O1 2511   5.176   5.801   2.954  0.6962 -0.3863 -0.5835
    6CHTO    C5 2512   5.288   5.822   2.865 -0.6829 -0.0393  0.1741
    6CHTO   H18 2513   5.367   5.758   2.903  0.4784  1.1733 -0.1570
    6CHTO   C16 2514   5.238   5.766   2.732 -0.2017 -0.1651  0.0091
    6CHTO   O11 2515   5.116   5.826   2.685 -0.6139 -0.6485  0.0420
    6CHTO    H5 2516   5.061   5.756   2.656 -0.9732 -0.0662 -0.6855
    6CHTO    O3 2517   5.090   5.793   3.163 -0.1446  0.4196 -0.1611
    6CHTO    C6 2518   5.054   5.651   3.163  0.2483 -0.0664 -0.3323
    6CHTO   H19 2519   5.106   5.598   3.083  0.6055 -0.9305  0.4719
    6CHTO    C8 2520   5.089   5.582   3.300  0.4981  0.4666  0.0658
    6CHTO   H21 2521   5.044   5.642   3.379  0.0527 -2.4238  2.0786
    6CHTO    O7 2522   5.232   5.574   3.314  0.0375 -0.0108  0.6897
    6CHTO    H2 2523   5.276   5.533   3.243 -0.1135  0.3899  0.3586
    6CHTO   C12 2524   5.024   5.433   3.312  0.1743  0.4140  1.1279
    6CHTO   H25 2525   5.070   5.363   3.239 -2.1428  0.8153 -0.7828
    6CHTO    N3 2526   5.051   5.375   3.446  0.5497 -0.0373 -0.3896
    6CHTO   H12 2527   5.020   5.442   3.525  2.2141  0.8475 -0.4431
    6CHTO   H13 2528   5.003   5.279   3.456  2.0334 -0.5344  2.8393
    6CHTO   C15 2529   4.869   5.448   3.280  0.0243  0.4971  0.6645
    6CHTO   H28 2530   4.822   5.513   3.353 -1.0883  0.4839 -0.0281
    6CHTO   O10 2531   4.793   5.308   3.251 -0.3945  0.0018  0.2476
    6CHTO    H4 2532   4.827   5.238   3.303  1.9173 -0.7294 -2.1730
    6CHTO    O5 2533   4.851   5.510   3.151  0.0097  0.7617  0.0096
    6CHTO   C10 2534   4.903   5.641   3.132 -0.4479  0.2883  0.5156
    6CHTO   H23 2535   4.848   5.703   3.203 -0.1246 -1.1870  2.0717
    6CHTO   C17 2536   4.854   5.678   2.988 -0.4895  0.4487  0.2245
    6CHTO   O12 2537   4.861   5.820   2.961  0.2256 -0.0152  0.5958
    6CHTO    H6 2538   4.831   5.830   2.873  1.2336  0.0590  0.2573
    7CHTO  H203 2539   5.124   2.764   3.527  1.7086 -1.8697  1.2666
    7CHTO   O82 2540   5.117   2.709   3.452  0.3343  0.3333 -0.2802
    7CHTO  C123 2541   5.241   2.697   3.377 -0.7025 -0.4254  0.2837
    7CHTO  H227 2542   5.227   2.650   3.278  2.0273 -2.4643  0.8190
    7CHTO   O77 2543   5.287   2.837   3.353 -0.6780 -0.0502 -0.1445
    7CHTO  C118 2544   5.414   2.843   3.295 -0.4517 -0.0667  0.8333
    7CHTO  H222 2545   5.425   2.776   3.208  1.3288  1.9532 -0.5433
    7CHTO  C125 2546   5.436   2.997   3.255 -0.3460  0.3861 -0.1746
    7CHTO   O84 2547   5.449   3.077   3.369 -0.2212 -0.3746 -0.1490
    7CHTO  H205 2548   5.483   3.160   3.339 -1.2339 -0.5024 -1.7491
    7CHTO  C114 2549   5.521   2.783   3.398  0.2897  0.0771  0.8434
    7CHTO  H218 2550   5.507   2.832   3.494 -1.6501  1.4404 -0.0913
    7CHTO  C116 2551   5.494   2.635   3.429 -0.1980 -0.3446 -0.1220
    7CHTO  H220 2552   5.530   2.569   3.348  3.3396  0.3912  0.7785
    7CHTO   O79 2553   5.579   2.609   3.538  0.3295  0.3370 -0.1288
    7CHTO  H201 2554   5.564   2.517   3.549 -1.2206  0.4994 -0.8376
    7CHTO  C120 2555   5.345   2.608   3.465 -0.1424 -0.2152 -0.3942
    7CHTO  H224 2556   5.341   2.640   3.571 -2.6243 -1.7264 -0.0040
    7CHTO   N21 2557   5.318   2.466   3.473  0.2237  0.0893 -0.5006
    7CHTO  H211 2558   5.352   2.414   3.561 -4.3850 -0.7953  0.8458
    7CHTO  H212 2559   5.219   2.439   3.438  1.0916 -1.6610 -1.7140
    7CHTO   O75 2560   5.650   2.817   3.339  0.1501 -0.2734  0.0377
    7CHTO  C112 2561   5.790   2.809   3.434  0.1066  0.4537  0.8637
    7CHTO  H216 2562   5.808   2.706   3.467  2.9656  0.7727  0.4883
    7CHTO   O73 2563   5.772   2.902   3.543 -0.1255  0.3898 -0.3120
    7CHTO  C113 2564   5.878   2.907   3.644  0.4443  0.0250  0.2761
    7CHTO  H217 2565   5.902   2.810   3.693  1.9767 -0.2269 -0.9435
    7CHTO  C124 2566   5.825   3.002   3.747 -0.4239  0.0780  0.2994
    7CHTO   O83 2567   5.923   3.024   3.853  0.1026 -0.3328 -0.8623
    7CHTO  H204 2568   5.917   3.108   3.894 -1.7275 -0.7656 -0.2262
    7CHTO  C109 2569   6.012   2.944   3.574  0.5097 -0.3280  0.6038
    7CHTO  H213 2570   6.002   3.048   3.538  1.0693  0.2452  2.0714
    7CHTO  C110 2571   6.044   2.854   3.448 -0.1935 -0.3191 -0.1198
    7CHTO  H214 2572   6.052   2.751   3.481 -0.8089 -0.5179 -0.5747
    7CHTO   O78 2573   6.166   2.906   3.393 -0.1482  0.3356  0.0493
    7CHTO  H200 2574   6.140   2.989   3.357 -2.0048  0.2084  1.0152
    7CHTO  C111 2575   5.921   2.861   3.355  0.4276 -0.5233 -0.1402
    7CHTO  H215 2576   5.913   2.963   3.313 -0.3308 -0.6526 -0.3093
    7CHTO   N19 2577   5.931   2.772   3.237 -0.0646  0.0871  0.6031
    7CHTO  H207 2578   6.022   2.714   3.243 -0.4331 -0.3288  2.2646
    7CHTO  H208 2579   5.846   2.706   3.226  0.3840 -0.7744  2.2392
    7CHTO   O74 2580   6.121   2.945   3.670  1.1980  0.1974 -0.6409
    7CHTO  C115 2581   6.215   3.046   3.673 -0.3550  0.3254  0.0138
    7CHTO  H219 2582   6.207   3.109   3.584  1.7408 -0.3208 -0.6559
    7CHTO   O76 2583   6.199   3.145   3.796 -0.3008 -0.7332  0.1726
    7CHTO  C122 2584   6.222   3.094   3.930 -0.6116  1.1123  0.3372
    7CHTO  H226 2585   6.148   3.020   3.960 -1.1426  1.4533 -0.1065
    7CHTO  C126 2586   6.229   3.205   4.042 -0.1152  0.2589  0.0787
    7CHTO   O85 2587   6.104   3.272   4.037  0.0625 -0.3500  0.0048
    7CHTO  H206 2588   6.098   3.324   3.959  0.8720 -0.7322 -0.3269
    7CHTO  C121 2589   6.365   3.028   3.936  0.5597 -0.5570 -0.2407
    7CHTO  H225 2590   6.438   3.111   3.920  0.9657 -0.8643 -0.0141
    7CHTO   O81 2591   6.384   2.962   4.062  0.0091  0.3557  0.4434
    7CHTO  H202 2592   6.472   2.968   4.092  0.7698 -0.6703 -1.5141
    7CHTO  C119 2593   6.384   2.923   3.821 -0.7243 -0.1134  0.2590
    7CHTO  H223 2594   6.486   2.889   3.832 -0.3165  1.5388  1.8015
    7CHTO  C117 2595   6.358   2.978   3.677 -0.4691  0.0947  0.0420
    7CHTO  H221 2596   6.350   2.900   3.602  2.3966  2.3782 -2.7758
    7CHTO   N20 2597   6.470   3.065   3.624  0.5794  0.0894 -0.4931
    7CHTO  H209 2598   6.534   3.076   3.710  1.2715  1.5365 -1.1708
    7CHTO  H210 2599   6.520   3.012   3.544  0.7411 -2.4099  1.1862
    7CHTO   O80 2600   6.309   2.796   3.844  0.4139 -0.1354  0.0822
    7CHTO  C103 2601   6.329   2.679   3.755  0.5680  0.5509  0.7830
    7CHTO  H190 2602   6.293   2.701   3.654  2.9302  1.6577  0.1551
    7CHTO  C101 2603   6.479   2.624   3.742 -0.2064  0.2332 -0.1288
    7CHTO  H188 2604   6.529   2.643   3.837  1.4423  1.8572 -1.2765
    7CHTO   O68 2605   6.553   2.705   3.634 -0.2561  0.4322 -0.1948
    7CHTO  H168 2606   6.644   2.683   3.640  0.0727  1.8523  0.1167
    7CHTO   C99 2607   6.476   2.463   3.714 -0.1563  0.4887 -0.3506
    7CHTO  H186 2608   6.456   2.448   3.606  0.4890 -0.3108 -0.3630
    7CHTO   N17 2609   6.599   2.398   3.750 -0.0156 -0.4445 -0.0554
    7CHTO  H174 2610   6.685   2.444   3.703 -1.4675  0.8055 -1.5143
    7CHTO  H175 2611   6.610   2.364   3.852 -2.2614 -2.7488 -0.5329
    7CHTO   C97 2612   6.359   2.391   3.791  0.1005 -0.3441  0.0487
    7CHTO  H184 2613   6.387   2.388   3.897  2.5697  0.5634 -0.5512
    7CHTO   O64 2614   6.232   2.451   3.776 -0.0826 -0.2020 -0.1284
    7CHTO  C104 2615   6.224   2.581   3.826  0.2915  0.6158 -0.1750
    7CHTO  H191 2616   6.244   2.585   3.933  1.0656  2.6330 -0.3705
    7CHTO  C108 2617   6.077   2.625   3.818  0.0177 -0.2897 -1.0482
    7CHTO   O71 2618   5.990   2.563   3.917  0.2258 -0.1201 -0.1717
    7CHTO  H171 2619   5.961   2.633   3.971  1.1787  1.1675 -1.3008
    7CHTO   O62 2620   6.325   2.256   3.748 -0.7072 -0.5980  0.7177
    7CHTO   C91 2621   6.289   2.156   3.844 -0.7443  0.6206  0.5791
    7CHTO  H178 2622   6.263   2.075   3.775  0.6395  1.1175 -0.5472
    7CHTO   C92 2623   6.166   2.200   3.938 -0.2091  0.2663 -0.7762
    7CHTO  H179 2624   6.175   2.301   3.982 -0.0494  0.6257 -1.6131
    7CHTO   O66 2625   6.049   2.210   3.852 -0.1271  0.2472 -0.0711
    7CHTO  H166 2626   6.044   2.290   3.804  1.3245  0.3397 -0.0929
    7CHTO   C93 2627   6.132   2.111   4.066 -0.1942  0.2207 -0.4653
    7CHTO  H180 2628   6.057   2.035   4.038 -1.1855  1.3050 -0.7960
    7CHTO   N16 2629   6.054   2.183   4.172 -0.6931  0.2110 -0.0860
    7CHTO  H172 2630   6.122   2.227   4.244 -2.0452  2.3207 -0.0355
    7CHTO  H173 2631   5.982   2.110   4.208 -0.3576  0.5348  1.2863
    7CHTO   C94 2632   6.267   2.039   4.120 -0.2469  0.0780  0.4501
    7CHTO  H181 2633   6.332   2.107   4.174  1.2900 -0.7496 -0.2898
    7CHTO   O61 2634   6.350   1.988   4.012 -0.4572  0.5534 -0.0408
    7CHTO   C95 2635   6.404   2.096   3.928  0.1448 -0.0877  0.6498
    7CHTO  H182 2636   6.450   2.173   3.991  3.0197  0.0959 -1.5638
    7CHTO  C106 2637   6.522   2.042   3.840  0.3464  0.2891 -0.4599
    7CHTO   O69 2638   6.647   2.021   3.914 -0.0248  0.3741  0.2394
    7CHTO  H169 2639   6.707   1.973   3.861 -0.3631  1.9497 -1.6473
    7CHTO   O63 2640   6.226   1.922   4.207 -0.1474 -0.1644  0.5070
    7CHTO   C96 2641   6.288   1.923   4.348  0.2772 -0.6748  0.2921
    7CHTO  H183 2642   6.257   2.017   4.394 -3.2033 -2.1979  1.2562
    7CHTO   C98 2643   6.443   1.906   4.380  0.2662 -0.2787 -0.3113
    7CHTO  H185 2644   6.501   1.978   4.321  0.3292 -0.8893 -1.0000
    7CHTO   O67 2645   6.467   1.944   4.516 -0.4671 -0.4479 -0.7332
    7CHTO  H167 2646   6.556   1.930   4.541 -0.5771  0.1857  0.0453
    7CHTO  C102 2647   6.491   1.758   4.355 -0.3829  0.0958  0.2422
    7CHTO  H189 2648   6.591   1.755   4.401 -1.1412 -0.2426  1.9159
    7CHTO   N18 2649   6.511   1.719   4.214 -0.1567 -0.2689  0.8453
    7CHTO  H176 2650   6.423   1.751   4.159 -0.0515  0.2399  0.9702
    7CHTO  H177 2651   6.602   1.764   4.179 -0.4089 -0.4728 -0.0696
    7CHTO  C105 2652   6.396   1.655   4.429  0.5836 -0.9546 -0.3209
    7CHTO  H192 2653   6.358   1.576   4.364  0.1632 -1.4044  0.4670
    7CHTO   O65 2654   6.283   1.714   4.495  0.4815  0.6818 -0.4966
    7CHTO  C100 2655   6.204   1.815   4.430  0.2942  0.3339 -0.3133
    7CHTO  H187 2656   6.123   1.771   4.369 -0.3131 -0.4081  0.9891
    7CHTO  C107 2657   6.116   1.882   4.539  0.2225 -0.4443  0.4057
    7CHTO   O70 2658   6.035   1.780   4.596 -0.3739 -0.5946 -0.7492
    7CHTO  H170 2659   5.946   1.800   4.617  0.0063 -0.9774  1.3623
    7CHTO   O57 2660   6.495   1.581   4.522 -0.5696  0.9688  0.3680
    7CHTO   C85 2661   6.492   1.435   4.525 -0.0303 -0.2683 -0.4345
    7CHTO  H157 2662   6.492   1.397   4.421  1.1023 -0.7032 -0.2755
    7CHTO   C83 2663   6.354   1.400   4.589  0.0611  0.5384 -0.3584
    7CHTO  H155 2664   6.273   1.433   4.524  1.3874  0.5437 -2.0497
    7CHTO   O56 2665   6.337   1.468   4.717  0.1406 -0.0731  0.1197
    7CHTO  H135 2666   6.268   1.432   4.769  0.5071  0.1303  0.7447
    7CHTO   C81 2667   6.343   1.246   4.598  0.3010  0.5036 -0.5791
    7CHTO  H153 2668   6.365   1.204   4.500  0.7201  0.0615 -0.3002
    7CHTO   N14 2669   6.213   1.189   4.631  0.3260  0.2248  0.0850
    7CHTO  H141 2670   6.188   1.198   4.735 -0.2324  1.9643 -0.1819
    7CHTO  H142 2671   6.224   1.086   4.607  1.2993  0.0386  1.3113
    7CHTO   C79 2672   6.452   1.200   4.701 -0.2661  0.9130  0.2476
    7CHTO  H151 2673   6.452   1.091   4.700  1.3175  0.9073  0.6636
    7CHTO   O52 2674   6.585   1.233   4.662  0.0554 -0.1854  0.0183
    7CHTO   C86 2675   6.606   1.365   4.614  0.2819  0.3836  0.2456
    7CHTO  H158 2676   6.625   1.429   4.703  1.5702 -0.7483  0.8108
    7CHTO   C90 2677   6.738   1.365   4.540 -0.5276 -0.3182 -0.5665
    7CHTO   O60 2678   6.846   1.307   4.617 -0.3277 -0.5800  0.1839
    7CHTO  H138 2679   6.843   1.338   4.706  1.3669  0.7786 -0.1969
    7CHTO   O50 2680   6.420   1.253   4.832 -0.6076 -0.6313  0.6361
    7CHTO   C73 2681   6.440   1.178   4.955 -0.0805 -1.1692 -0.2844
    7CHTO  H145 2682   6.534   1.123   4.946  2.3598  2.6696  0.2459
    7CHTO   C74 2683   6.328   1.080   5.003  0.2206  0.0943  0.3517
    7CHTO  H146 2684   6.322   1.003   4.924 -0.7087 -0.3918  0.8889
    7CHTO   O54 2685   6.366   1.014   5.126 -0.8864  0.0973 -0.0996
    7CHTO  H133 2686   6.306   0.947   5.154 -2.6861  1.1675 -1.3039
    7CHTO   C75 2687   6.189   1.162   5.024 -0.5092 -0.4361 -0.3664
    7CHTO  H147 2688   6.157   1.193   4.924 -0.8563 -0.6056 -0.3089
    7CHTO   N13 2689   6.065   1.090   5.067  0.3799 -0.7210 -0.5285
    7CHTO  H139 2690   6.025   1.141   5.152 -0.9440 -1.5991 -0.6124
    7CHTO  H140 2691   6.092   0.994   5.109  0.7494  0.2982  1.6275
    7CHTO   C76 2692   6.225   1.288   5.126 -1.2723 -0.2034  0.1381
    7CHTO  H148 2693   6.257   1.250   5.223  0.2297  0.1076 -0.2206
    7CHTO   O49 2694   6.336   1.362   5.076  0.1673  0.4106 -0.6834
    7CHTO   C77 2695   6.461   1.290   5.063 -0.5236 -0.3485 -0.3747
    7CHTO  H149 2696   6.486   1.241   5.157  2.2135  0.1996 -0.7614
    7CHTO   C88 2697   6.584   1.382   5.030  0.2863 -0.2725 -0.1054
    7CHTO   O58 2698   6.628   1.472   5.173  0.0055  0.6794  0.1101
    7CHTO  H136 2699   6.577   1.548   5.153 -0.9810 -0.0112 -0.0328
    7CHTO   O51 2700   6.124   1.389   5.148 -0.3271  0.0051  0.2418
    7CHTO   C78 2701   6.106   1.435   5.305 -0.0672  0.3291  0.9224
    7CHTO  H150 2702   6.166   1.373   5.374 -1.4300 -0.4605  1.4068
    7CHTO   C80 2703   5.957   1.414   5.332 -0.4440  0.2721  0.4191
    7CHTO  H152 2704   5.898   1.459   5.248 -1.1151 -0.9398  0.2308
    7CHTO   O55 2705   5.936   1.278   5.325 -0.3975 -0.0283  0.6102
    7CHTO  H134 2706   5.964   1.241   5.244 -0.1213 -0.9365  1.1105
    7CHTO   C84 2707   5.906   1.469   5.464  0.2069  0.0382 -0.6952
    7CHTO  H156 2708   5.952   1.421   5.551 -0.9344  2.0182  1.0659
    7CHTO   N15 2709   5.759   1.456   5.488  0.1306  0.0555 -0.2280
    7CHTO  H143 2710   5.722   1.438   5.390  1.1997  1.9757 -1.0035
    7CHTO  H144 2711   5.741   1.368   5.547  0.3282  0.5063  0.5100
    7CHTO   C87 2712   5.954   1.615   5.478 -0.2787  0.4993 -0.0990
    7CHTO  H159 2713   5.894   1.671   5.405 -2.3030 -0.1919  1.0082
    7CHTO   O53 2714   6.116   1.629   5.458  0.4350  0.4182 -0.0944
    7CHTO   C82 2715   6.142   1.583   5.319  0.3408  0.6173 -0.2555
    7CHTO  H154 2716   6.092   1.651   5.250  0.1252  2.3473  1.5642
    7CHTO   C89 2717   6.295   1.607   5.294 -0.6364  0.4195 -0.2346
    7CHTO   O59 2718   6.333   1.748   5.324 -0.0561 -0.4921  0.4693
    7CHTO  H137 2719   6.312   1.803   5.252  0.2215  0.3625  1.0269
    7CHTO   O45 2720   5.921   1.670   5.618 -0.3392  0.1609 -0.2106
    7CHTO   C67 2721   5.893   1.813   5.631  1.1926 -0.4241  0.3586
    7CHTO  H124 2722   5.941   1.871   5.552 -0.6910 -0.8081 -1.1188
    7CHTO   C65 2723   5.738   1.824   5.613 -0.8624  0.2232 -0.4507
    7CHTO  H122 2724   5.696   1.732   5.655  1.5338 -0.7679 -0.1235
    7CHTO   O44 2725   5.716   1.828   5.469 -0.3466  0.3069 -0.3531
    7CHTO  H102 2726   5.730   1.743   5.433  0.7572 -0.5168  1.8866
    7CHTO   C63 2727   5.683   1.935   5.704  0.2999  0.6751  0.5486
    7CHTO  H120 2728   5.672   1.896   5.805 -0.5190 -0.2198  0.1198
    7CHTO   N11 2729   5.545   1.971   5.675 -0.0030 -0.2728 -0.5868
    7CHTO  H108 2730   5.475   1.896   5.706  1.9718 -1.0253  2.3122
    7CHTO  H109 2731   5.531   1.997   5.572 -0.6722 -0.2587 -0.4929
    7CHTO   C61 2732   5.785   2.052   5.714  0.0196 -0.6052  0.2883
    7CHTO  H118 2733   5.744   2.126   5.785  2.6907  0.6969  0.5382
    7CHTO   O40 2734   5.915   2.011   5.773 -0.4289  0.0371 -0.7747
    7CHTO   C68 2735   5.947   1.866   5.765  0.4852  0.1879  0.2502
    7CHTO  H125 2736   5.910   1.804   5.849 -2.1627 -0.4521 -1.3346
    7CHTO   C72 2737   6.094   1.862   5.766 -0.2245  0.2523  0.4182
    7CHTO   O48 2738   6.151   1.735   5.791 -0.2004 -0.1490 -0.1984
    7CHTO  H105 2739   6.245   1.739   5.799 -0.1667  0.8544 -0.9865
    7CHTO   O38 2740   5.823   2.116   5.592 -0.1531  0.3387 -0.2174
    7CHTO   C55 2741   5.864   2.256   5.594  0.2308 -0.3060 -0.1139
    7CHTO  H112 2742   5.917   2.269   5.689 -0.5180 -2.7730  0.6827
    7CHTO   C56 2743   5.748   2.356   5.579 -0.2626  0.3859  0.3990
    7CHTO  H113 2744   5.670   2.324   5.509  1.2583 -0.9142 -0.7540
    7CHTO   O42 2745   5.679   2.352   5.706 -0.1063  0.1372  0.8540
    7CHTO  H100 2746   5.616   2.420   5.719  0.4122  0.3254  2.4362
    7CHTO   C57 2747   5.787   2.505   5.547  0.2283  0.0048 -0.4079
    7CHTO  H114 2748   5.837   2.547   5.634  1.3931 -0.8863 -0.6289
    7CHTO   N10 2749   5.666   2.584   5.513 -0.6284  0.0131  0.2441
    7CHTO  H106 2750   5.684   2.679   5.466 -1.0553  0.0977  0.2494
    7CHTO  H107 2751   5.605   2.600   5.601  0.9546 -1.1699  1.6198
    7CHTO   C58 2752   5.888   2.500   5.432  0.3944  0.0342  0.2663
    7CHTO  H115 2753   5.843   2.446   5.347  0.6144 -0.3639  0.3990
    7CHTO   O37 2754   6.004   2.428   5.464  0.8363  0.1100 -0.2948
    7CHTO   C59 2755   5.972   2.286   5.482 -0.7312  0.5118 -0.6250
    7CHTO  H116 2756   5.929   2.247   5.389 -1.8147  1.0819 -0.3738
    7CHTO   C70 2757   6.108   2.207   5.504 -0.4101  0.1965 -0.4670
    7CHTO   O46 2758   6.166   2.244   5.628  0.2133  0.4216 -0.0209
    7CHTO  H103 2759   6.255   2.217   5.615  0.1345  1.2993 -2.7146
    7CHTO   O39 2760   5.931   2.657   5.385 -0.0496  0.6327  0.1994
    7CHTO   C60 2761   6.032   2.647   5.280  0.5200 -0.3451 -0.4240
    7CHTO  H117 2762   6.097   2.561   5.298  0.4234 -0.3128  0.0794
    7CHTO   C62 2763   5.957   2.622   5.141 -0.3571 -0.2586 -0.3800
    7CHTO  H119 2764   5.896   2.529   5.152  0.6544 -0.9794 -0.7967
    7CHTO   O43 2765   5.856   2.724   5.116 -0.0585 -0.0397 -0.4621
    7CHTO  H101 2766   5.892   2.810   5.130 -0.0521 -0.1369  0.1042
    7CHTO   C66 2767   6.065   2.596   5.023  0.8289  0.2126 -0.8063
    7CHTO  H123 2768   6.142   2.527   5.055  0.7355 -0.6050 -2.3029
    7CHTO   N12 2769   6.007   2.538   4.904  0.4668 -0.6037 -0.4596
    7CHTO  H110 2770   6.090   2.504   4.843  0.4587 -1.3104 -0.0807
    7CHTO  H111 2771   5.941   2.608   4.854  0.7369  0.4317  0.6257
    7CHTO   C69 2772   6.141   2.731   5.011 -0.6210  0.6072 -0.1000
    7CHTO  H126 2773   6.077   2.816   4.980  0.5856  1.1558 -1.0733
    7CHTO   O41 2774   6.204   2.761   5.140 -0.1575  0.7482 -0.4259
    7CHTO   C64 2775   6.119   2.770   5.273 -0.1199  0.0912  0.4643
    7CHTO  H121 2776   6.052   2.858   5.265  0.5458  0.4777 -0.9177
    7CHTO   C71 2777   6.212   2.779   5.402 -0.4238  0.4816 -0.1727
    7CHTO   O47 2778   6.313   2.871   5.382 -0.0695 -0.2354  0.0550
    7CHTO  H104 2779   6.344   2.899   5.466  1.0119 -0.2747 -0.3141
    7CHTO   O34 2780   6.260   2.711   4.901 -0.1658  0.3426 -0.0296
    7CHTO   C49 2781   6.392   2.788   4.872 -0.2670 -0.1013 -0.2278
    7CHTO   H91 2782   6.366   2.867   4.801  2.2448  1.4402  0.5034
    7CHTO   C47 2783   6.491   2.684   4.808  0.0212 -0.8297  0.6630
    7CHTO   H89 2784   6.584   2.742   4.788  0.4808 -2.2458 -1.5300
    7CHTO   O33 2785   6.441   2.641   4.678 -0.0957 -0.1475 -0.1880
    7CHTO   H70 2786   6.413   2.714   4.626 -1.5321  0.7298  1.7837
    7CHTO   C45 2787   6.530   2.566   4.912  0.5359  0.2248  0.3209
    7CHTO   H87 2788   6.445   2.496   4.909 -0.1186  1.0523 -1.0868
    7CHTO    N8 2789   6.658   2.502   4.870  0.1619 -0.5542  0.4805
    7CHTO   H75 2790   6.728   2.566   4.820 -1.0741  0.5492  0.1263
    7CHTO   H76 2791   6.647   2.405   4.824 -0.4190 -0.6440  0.7903
    7CHTO   C43 2792   6.524   2.633   5.062  0.1616 -0.3959 -0.2822
    7CHTO   H85 2793   6.419   2.629   5.092 -0.1669 -2.3428 -1.5937
    7CHTO   O29 2794   6.572   2.768   5.049  0.4615  0.4450 -0.2401
    7CHTO   C50 2795   6.472   2.851   4.995  0.2882  0.1359 -0.3831
    7CHTO   H92 2796   6.398   2.878   5.072  0.6901 -0.8764  0.3715
    7CHTO   C54 2797   6.542   2.986   4.943 -0.1598 -0.0293  0.2441
    7CHTO   O36 2798   6.448   3.092   4.903 -0.1525  0.3262 -0.1152
    7CHTO   H72 2799   6.412   3.075   4.818  0.1207 -1.4683  0.0916
    7CHTO   O27 2800   6.591   2.569   5.165 -0.3917  0.2168 -0.0673
    7CHTO   C37 2801   6.617   2.469   5.266 -0.6272 -0.3191  0.6713
    7CHTO   H79 2802   6.595   2.511   5.365 -1.6812 -1.4615  0.9228
    7CHTO   C38 2803   6.518   2.350   5.244 -0.1605  0.2705 -0.6973
    7CHTO   H80 2804   6.518   2.328   5.136 -0.3093  1.8766 -1.0349
    7CHTO   O31 2805   6.384   2.385   5.291  0.0707 -0.1906  0.4319
    7CHTO   H68 2806   6.368   2.347   5.375 -0.1664  2.6232  1.7152
    7CHTO   C39 2807   6.563   2.213   5.325 -0.3490 -0.1924  0.4794
    7CHTO   H81 2808   6.550   2.232   5.431  0.8115  0.9428  0.4374
    7CHTO    N7 2809   6.484   2.094   5.281  0.1658 -0.6350 -0.1947
    7CHTO   H73 2810   6.532   2.000   5.306  1.3630  0.8071  3.1555
    7CHTO   H74 2811   6.390   2.089   5.334  0.9567 -1.1728  1.1923
    7CHTO   C40 2812   6.721   2.191   5.311 -0.4204 -0.3737 -0.8456
    7CHTO   H82 2813   6.746   2.167   5.208  1.2886 -0.6721 -0.3752
    7CHTO   O26 2814   6.786   2.312   5.356 -0.0724 -0.6236  0.1918
    7CHTO   C41 2815   6.764   2.416   5.261 -0.2692  0.2805 -0.2503
    7CHTO   H83 2816   6.782   2.387   5.157  0.0355  1.7138 -0.6097
    7CHTO   C52 2817   6.864   2.527   5.310 -0.3631  0.0072 -0.1134
    7CHTO   O35 2818   7.010   2.471   5.288  0.1918  0.1473  0.4729
    7CHTO   H71 2819   7.038   2.436   5.370 -1.9070 -0.1958  1.0891
    7CHTO   O28 2820   6.770   2.090   5.407  0.6800 -0.2184 -0.0733
    7CHTO   C42 2821   6.902   2.030   5.385  0.0745 -0.0352  0.0888
    7CHTO   H84 2822   6.921   1.973   5.476 -0.3560 -0.6018 -0.1749
    7CHTO   C44 2823   7.027   2.128   5.372  0.4497 -0.0137 -0.4020
    7CHTO   H86 2824   7.005   2.191   5.286 -1.0986 -0.6486 -0.4983
    7CHTO   O32 2825   7.031   2.197   5.496 -0.4749  0.0521  0.3156
    7CHTO   H69 2826   7.093   2.169   5.560  0.2080  0.8865  0.0313
    7CHTO   C48 2827   7.168   2.059   5.341  0.2528 -0.3084  0.7455
    7CHTO   H90 2828   7.191   1.997   5.428  0.8098 -1.5304 -0.2572
    7CHTO    N9 2829   7.289   2.151   5.320  0.0195  0.5163  0.3812
    7CHTO   H77 2830   7.370   2.086   5.288  0.5169  0.1634  2.3202
    7CHTO   H78 2831   7.253   2.213   5.239  0.9035  0.9416  0.3052
    7CHTO   C51 2832   7.140   1.960   5.220  0.2148  0.3146  0.1846
    7CHTO   H93 2833   7.111   2.013   5.129 -2.2315 -0.9774  0.1606
    7CHTO   O30 2834   7.038   1.867   5.260  0.5028 -0.2646 -0.5979
    7CHTO   C46 2835   6.906   1.928   5.269 -0.2368 -0.1724  0.8955
    7CHTO   H88 2836   6.879   1.978   5.176 -1.8050  2.5796  2.7788
    7CHTO   C53 2837   6.806   1.817   5.286 -0.0719 -0.2315  0.3389
    7CHTO   O72 2838   6.781   1.750   5.158  0.2662 -0.5149  0.0797
    7CHTO  H199 2839   6.724   1.677   5.170  1.3173 -1.0777  1.7422
    7CHTO   O22 2840   7.244   1.870   5.177  0.1080 -0.3406  0.1719
    7CHTO   C31 2841   7.256   1.802   5.046 -0.9218 -0.0427  0.7650
    7CHTO   H59 2842   7.345   1.737   5.051 -1.8040 -1.3552 -0.3345
    7CHTO   C29 2843   7.143   1.710   5.001 -0.1194  0.0608 -0.2839
    7CHTO   H57 2844   7.057   1.777   4.988 -2.4257 -2.8153 -0.1253
    7CHTO   O21 2845   7.119   1.614   5.105 -0.6825 -0.1523  0.1195
    7CHTO   H37 2846   7.096   1.663   5.181 -0.4430 -2.6452  1.8439
    7CHTO   C27 2847   7.172   1.640   4.866 -0.0710 -0.0236  0.2581
    7CHTO   H55 2848   7.270   1.591   4.873  0.2220  0.7325  1.5598
    7CHTO    N5 2849   7.066   1.542   4.818  0.0422 -0.6932 -0.4685
    7CHTO   H43 2850   6.970   1.583   4.791 -0.2136  0.5467  2.1903
    7CHTO   H44 2851   7.060   1.457   4.884 -1.7393 -0.2717 -0.0645
    7CHTO   C25 2852   7.201   1.749   4.757  0.8153 -0.2229 -0.4455
    7CHTO   H53 2853   7.110   1.806   4.733  1.3141  0.9288  0.3667
    7CHTO   O17 2854   7.297   1.842   4.801 -0.3265  0.0549  0.3229
    7CHTO   C32 2855   7.277   1.897   4.930 -0.4659 -0.0568  0.7705
    7CHTO   H60 2856   7.186   1.955   4.917  1.0909  2.7115  1.7518
    7CHTO   C36 2857   7.394   1.993   4.955  0.0914  0.1961 -0.2136
    7CHTO   O25 2858   7.385   2.109   4.864  0.4772 -0.3160 -0.0102
    7CHTO   H40 2859   7.463   2.095   4.815 -0.0264 -2.4458 -0.2352
    7CHTO   O15 2860   7.261   1.693   4.621 -0.2606 -0.1130 -0.2861
    7CHTO   C19 2861   7.248   1.749   4.488  0.0347  0.0742  0.5720
    7CHTO   H47 2862   7.316   1.686   4.428 -0.0069  0.1191  0.4784
    7CHTO   C20 2863   7.102   1.747   4.428 -0.3225  0.5808  0.5081
    7CHTO   H48 2864   7.039   1.820   4.479  0.8525  1.5963  0.5299
    7CHTO   O19 2865   7.056   1.611   4.440 -0.4089  0.5011 -0.4952
    7CHTO   H35 2866   6.984   1.602   4.380 -1.9624  3.4204  0.7853
    7CHTO   C21 2867   7.114   1.790   4.277  0.0050  0.6734 -0.2427
    7CHTO   H49 2868   7.173   1.714   4.226  0.3280  0.4637  0.4433
    7CHTO    N4 2869   6.974   1.787   4.215  0.4222  0.6630 -0.2497
    7CHTO   H41 2870   6.911   1.728   4.280 -2.1595  3.5735  0.0135
    7CHTO   H42 2871   6.929   1.882   4.190  2.0698  1.4053 -0.4546
    7CHTO   C22 2872   7.164   1.931   4.277 -0.6293 -0.7912  0.0716
    7CHTO   H50 2873   7.093   1.989   4.335 -1.2956 -2.4924  0.9913
    7CHTO   O14 2874   7.297   1.926   4.329  0.0507 -0.2029 -0.0307
    7CHTO   C23 2875   7.306   1.893   4.475 -0.2110  0.6342  0.1764
    7CHTO   H51 2876   7.250   1.968   4.533  1.1820  3.5668 -2.1499
    7CHTO   C34 2877   7.452   1.891   4.516  0.3012 -0.0176  0.3684
    7CHTO   O23 2878   7.519   2.021   4.512  0.2675  0.2261 -0.1331
    7CHTO   H38 2879   7.608   1.991   4.517  0.5191  1.1188  1.0243
    7CHTO   O16 2880   7.193   1.987   4.140 -0.0622  0.1153 -0.3316
    7CHTO   C24 2881   7.182   2.162   4.141  0.2111  0.4053  0.5685
    7CHTO   H52 2882   7.188   2.201   4.242  1.1602 -1.0098  1.0842
    7CHTO   C26 2883   7.048   2.198   4.078  0.3661 -0.0963  0.6970
    7CHTO   H54 2884   7.046   2.159   3.974 -0.9121 -1.1421  1.0927
    7CHTO   O20 2885   6.948   2.120   4.152 -0.0005 -0.3691 -0.3271
    7CHTO   H36 2886   6.884   2.095   4.089 -0.4184  0.8447 -0.3958
    7CHTO   C30 2887   7.037   2.353   4.067 -0.2571 -0.0737  0.3375
    7CHTO   H58 2888   7.056   2.397   4.166  0.0147  2.3304 -0.7513
    7CHTO    N6 2889   6.901   2.395   4.019 -0.0238  0.2427 -0.0492
    7CHTO   H45 2890   6.879   2.485   4.074 -0.1367  0.3088 -0.2019
    7CHTO   H46 2891   6.821   2.323   4.024 -0.2670  0.4091 -1.2571
    7CHTO   C33 2892   7.154   2.411   3.986 -0.3636 -0.0559  0.0822
    7CHTO   H61 2893   7.151   2.375   3.883  0.4442  0.5373 -0.1589
    7CHTO   O18 2894   7.275   2.368   4.054 -0.1306  0.0794 -0.1860
    7CHTO   C28 2895   7.298   2.230   4.059 -0.2791 -0.0133 -0.1027
    7CHTO   H56 2896   7.307   2.183   3.961  0.0949 -0.8954  0.3524
    7CHTO   C35 2897   7.433   2.195   4.134  0.5938  0.1105 -0.1750
    7CHTO   O24 2898   7.542   2.275   4.083  0.1118  0.2538 -0.2752
    7CHTO   H39 2899   7.617   2.219   4.080 -1.3725 -1.7350 -2.5858
    7CHTO    O9 2900   7.156   2.559   3.971 -0.3678 -0.1724 -0.0292
    7CHTO   C13 2901   7.260   2.617   3.866  0.2229 -0.1057 -0.1859
    7CHTO   H26 2902   7.271   2.547   3.781  0.9134  1.4061 -1.3560
    7CHTO   C11 2903   7.400   2.644   3.933 -0.5161  0.0967  0.4830
    7CHTO   H24 2904   7.446   2.545   3.951 -1.9657 -0.3197  1.9915
    7CHTO    O8 2905   7.373   2.700   4.067  0.1660 -0.6293 -0.2262
    7CHTO    H3 2906   7.293   2.750   4.067 -0.4414 -1.5720  1.5463
    7CHTO    C9 2907   7.488   2.728   3.845  0.1600  0.0480 -0.2207
    7CHTO   H22 2908   7.502   2.671   3.752  1.4877  1.1789 -0.7318
    7CHTO    N2 2909   7.627   2.741   3.887 -0.0948 -0.6998  0.2989
    7CHTO   H10 2910   7.626   2.790   3.983  4.1148 -2.1414  1.1917
    7CHTO   H11 2911   7.677   2.645   3.892  1.1094 -0.0826  0.1962
    7CHTO    C7 2912   7.415   2.865   3.807 -0.3984 -0.5938 -0.0055
    7CHTO   H20 2913   7.423   2.873   3.697  0.9055  1.2722  0.1833
    7CHTO    O4 2914   7.279   2.871   3.855  0.0583  0.4174 -0.3457
    7CHTO   C14 2915   7.204   2.753   3.806  0.5162 -0.1902 -0.0509
    7CHTO   H27 2916   7.227   2.737   3.699 -0.6621 -1.0632 -0.1802
    7CHTO   C18 2917   7.052   2.784   3.818 -0.0782 -0.3410 -0.3790
    7CHTO   O13 2918   6.969   2.670   3.772  0.0907 -0.5242  0.3207
    7CHTO    H7 2919   6.947   2.615   3.844  0.5001  0.3222  1.0967
    7CHTO    O2 2920   7.480   2.999   3.865  0.0750  0.1456 -0.0130
    7CHTO    C1 2921   7.439   3.123   3.799  0.0936  0.3037 -0.1818
    7CHTO   H14 2922   7.334   3.119   3.764 -0.0765  1.2408  0.2144
    7CHTO    C2 2923   7.537   3.178   3.685  0.6459 -0.8382  1.3262
    7CHTO   H15 2924   7.643   3.169   3.712  1.9128  0.7443 -2.6574
    7CHTO    O6 2925   7.511   3.090   3.574 -0.1040 -0.2952  0.7398
    7CHTO    H1 2926   7.428   3.114   3.539 -0.3119 -2.3232 -0.2407
    7CHTO    C3 2927   7.497   3.326   3.647 -0.2108 -1.0594  0.5053
    7CHTO   H16 2928   7.402   3.311   3.593  1.1647 -0.9766 -2.0171
    7CHTO    N1 2929   7.596   3.394   3.555 -0.1170  0.1975  0.1565
    7CHTO    H8 2930   7.578   3.497   3.529 -0.8322 -0.1751 -0.8129
    7CHTO    H9 2931   7.701   3.374   3.577 -0.7942 -0.5096  3.0600
    7CHTO    C4 2932   7.460   3.415   3.766  0.3643  0.4012 -0.1254
    7CHTO   H17 2933   7.551   3.465   3.800  1.8172 -1.6260 -0.9377
    7CHTO    O1 2934   7.386   3.355   3.872  0.3132 -0.8106 -0.0664
    7CHTO    C5 2935   7.435   3.226   3.914  0.2649 -0.4275 -0.1313
    7CHTO   H18 2936   7.537   3.254   3.941  1.1592 -1.5723 -2.1966
    7CHTO   C16 2937   7.357   3.183   4.041  0.2976 -0.4066 -0.1766
    7CHTO   O11 2938   7.212   3.179   4.024  0.6836 -0.4860 -0.1362
    7CHTO    H5 2939   7.185   3.268   4.012 -1.7102 -1.0134  1.0903
    7CHTO    O3 2940   7.386   3.528   3.720  0.7114 -0.1012  0.0471
    7CHTO    C6 2941   7.354   3.633   3.821  0.0715 -0.1171 -0.1935
    7CHTO   H19 2942   7.382   3.612   3.924 -1.4589  1.1245  0.4846
    7CHTO    C8 2943   7.430   3.768   3.780 -0.4305  0.6329  0.2792
    7CHTO   H21 2944   7.404   3.792   3.677 -0.5625 -0.7356 -0.0145
    7CHTO    O7 2945   7.576   3.741   3.783  0.0644  0.5019  0.2526
    7CHTO    H2 2946   7.620   3.817   3.749  0.0776  0.5939  0.4706
    7CHTO   C12 2947   7.394   3.882   3.875 -0.4578  0.6567 -0.8720
    7CHTO   H25 2948   7.457   3.866   3.965 -1.3230  0.5150 -0.2793
    7CHTO    N3 2949   7.450   4.015   3.818 -0.5182 -0.9545 -0.0911
    7CHTO   H12 2950   7.414   4.104   3.867  1.3442  0.4975 -1.2973
    7CHTO   H13 2951   7.558   4.008   3.812 -0.4769 -0.6548  0.3289
    7CHTO   C15 2952   7.239   3.889   3.914 -0.2283 -0.0489 -0.0269
    7CHTO   H28 2953   7.192   3.951   3.837 -0.2495  0.5694  0.4761
    7CHTO   O10 2954   7.214   3.955   4.045  0.3459 -0.1750 -0.3968
    7CHTO    H4 2955   7.156   4.028   4.038  0.1467 -0.3909 -1.0183
    7CHTO    O5 2956   7.171   3.760   3.922 -0.4858  0.9446 -0.2918
    7CHTO   C10 2957   7.205   3.666   3.819  0.5602 -0.7228 -0.0459
    7CHTO   H23 2958   7.172   3.714   3.726  3.1133  0.6456 -0.2985
    7CHTO   C17 2959   7.117   3.542   3.837  0.0878 -0.0309  0.1225
    7CHTO   O12 2960   6.979   3.568   3.805 -0.2893  0.0063  0.2806
    7CHTO    H6 2961   6.941   3.487   3.775 -1.7393  0.2065  1.5004
    8CHTO  H203 2962   7.652   6.912   0.152  1.3010  0.4913 -1.5499
    8CHTO   O82 2963   7.661   6.990   0.203 -0.2173 -0.1604 -0.2271
    8CHTO  C123 2964   7.584   6.977   0.327 -0.6676 -0.5387 -0.4604
    8CHTO  H227 2965   7.635   6.906   0.393 -0.3512 -0.7018 -0.8771
    8CHTO   O77 2966   7.582   7.115   0.388  0.0742 -1.0091  0.0367
    8CHTO  C118 2967   7.536   7.116   0.527 -0.6729  0.4349  0.4579
    8CHTO  H222 2968   7.587   7.040   0.588 -0.6414  1.0267  1.1771
    8CHTO  C125 2969   7.557   7.260   0.587 -0.4995  0.3016 -0.2631
    8CHTO   O84 2970   7.541   7.250   0.729 -0.1953  0.1849  0.3238
    8CHTO  H205 2971   7.453   7.261   0.760  0.4728  0.4344  2.1983
    8CHTO  C114 2972   7.385   7.082   0.512 -0.2721  0.0351 -0.6580
    8CHTO  H218 2973   7.343   7.155   0.444 -1.2056 -0.2928 -0.4330
    8CHTO  C116 2974   7.371   6.940   0.443 -0.0543 -0.5619  0.3758
    8CHTO  H220 2975   7.408   6.866   0.517  0.2287 -1.7776 -0.9608
    8CHTO   O79 2976   7.227   6.924   0.428  0.0309 -0.2707  0.1782
    8CHTO  H201 2977   7.206   6.833   0.415 -0.2317 -0.2074  0.1628
    8CHTO  C120 2978   7.437   6.932   0.302  0.0669 -0.2530  0.8301
    8CHTO  H224 2979   7.380   7.002   0.238  0.5064 -0.0050  0.7020
    8CHTO   N21 2980   7.422   6.793   0.247  0.2246 -0.3355 -0.1302
    8CHTO  H211 2981   7.334   6.749   0.292  1.2328  0.9511  3.2303
    8CHTO  H212 2982   7.507   6.730   0.271 -0.4697 -1.6836 -1.0922
    8CHTO   O75 2983   7.325   7.098   0.639 -0.1754 -0.3918 -0.4159
    8CHTO  C112 2984   7.183   7.168   0.641 -0.5623  0.8625  0.4480
    8CHTO  H216 2985   7.105   7.120   0.579 -0.3207  1.5106 -0.3683
    8CHTO   O73 2986   7.206   7.305   0.601 -0.1603 -0.9978  0.6493
    8CHTO  C113 2987   7.081   7.378   0.583  0.0738  0.0211 -0.2454
    8CHTO  H217 2988   7.025   7.323   0.505  0.5553  0.1086 -0.6558
    8CHTO  C124 2989   7.107   7.517   0.520 -0.3735 -0.3067  0.1295
    8CHTO   O83 2990   7.190   7.599   0.601 -0.3547 -0.0317  0.6954
    8CHTO  H204 2991   7.195   7.689   0.573 -1.6222 -0.3470 -0.5936
    8CHTO  C109 2992   7.019   7.387   0.730  0.3761  0.4842  0.2240
    8CHTO  H213 2993   7.094   7.438   0.793  0.8064 -0.4822  0.5029
    8CHTO  C110 2994   6.993   7.248   0.793 -0.5879  0.7976 -0.3108
    8CHTO  H214 2995   6.914   7.204   0.733 -0.7472  0.9804 -0.2343
    8CHTO   O78 2996   6.934   7.267   0.920  0.0452  0.0803  0.0494
    8CHTO  H200 2997   6.863   7.328   0.916 -1.6863 -1.8827 -0.2542
    8CHTO  C111 2998   7.121   7.156   0.792 -0.3082  0.5418  0.4640
    8CHTO  H215 2999   7.191   7.197   0.865 -1.0273 -0.2631  1.6206
    8CHTO   N19 3000   7.096   7.019   0.841 -0.0777 -0.2299  0.1021
    8CHTO  H207 3001   7.185   6.961   0.858  0.5135  0.9985  1.2156
    8CHTO  H208 3002   7.028   7.011   0.925 -2.0662  0.7913 -1.3671
    8CHTO   O74 3003   6.892   7.463   0.725 -0.0920  0.1414 -0.2321
    8CHTO  C115 3004   6.883   7.605   0.811  0.2550 -0.1930 -0.1449
    8CHTO  H219 3005   6.805   7.599   0.886 -2.0238  0.0358 -2.4338
    8CHTO   O76 3006   7.021   7.639   0.882 -0.1993  0.4323 -0.3160
    8CHTO  C122 3007   7.031   7.769   0.937  0.6589  0.5134 -0.6177
    8CHTO  H226 3008   7.136   7.774   0.964  0.2818  0.4753  0.8954
    8CHTO  C126 3009   6.942   7.776   1.071 -0.1966 -0.0882 -0.1752
    8CHTO   O85 3010   6.944   7.899   1.142  0.1212 -0.1856 -0.1730
    8CHTO  H206 3011   6.989   7.881   1.222 -1.6267 -0.0920  0.8474
    8CHTO  C121 3012   6.989   7.880   0.831 -0.0956 -0.1781  0.0253
    8CHTO  H225 3013   6.984   7.977   0.885 -0.7125 -0.2629  0.1317
    8CHTO   O81 3014   7.091   7.885   0.733  0.7038 -0.2894  0.0660
    8CHTO  H202 3015   7.153   7.951   0.754  0.6720  0.0224 -0.7946
    8CHTO  C119 3016   6.848   7.856   0.770  0.4573 -0.5373 -0.4367
    8CHTO  H223 3017   6.782   7.862   0.856  0.3778 -1.7546 -0.3998
    8CHTO  C117 3018   6.840   7.717   0.712 -0.8541  0.4692 -0.0672
    8CHTO  H221 3019   6.900   7.697   0.624 -1.9203  0.1394 -0.7229
    8CHTO   N20 3020   6.699   7.689   0.668  0.4469  0.5626  0.2017
    8CHTO  H209 3021   6.639   7.690   0.758  0.8766 -0.7984  0.5143
    8CHTO  H210 3022   6.699   7.585   0.640 -1.6069  1.0237 -1.5674
    8CHTO   O80 3023   6.795   7.985   0.682 -0.5649  0.1894 -0.9642
    8CHTO  C103 3024   6.699   8.110   0.754  0.7221 -0.1080  0.6548
    8CHTO  H190 3025   6.603   8.076   0.791  0.3755 -1.1526 -1.1544
    8CHTO  C101 3026   6.767   8.193   0.868  0.1904  0.1762 -0.5213
    8CHTO  H188 3027   6.870   8.209   0.836  0.6759  0.7314  1.2504
    8CHTO   O68 3028   6.761   8.105   1.007  0.2649  0.8097  0.2754
    8CHTO  H168 3029   6.738   8.155   1.083  0.6173  1.2995  0.0663
    8CHTO   C99 3030   6.699   8.335   0.894 -0.4136  1.0783  0.0925
    8CHTO  H186 3031   6.600   8.313   0.941 -0.4550 -0.4104 -0.6504
    8CHTO   N17 3032   6.780   8.422   0.987  0.1123  0.1639  0.2375
    8CHTO  H174 3033   6.730   8.511   1.022  1.4891  0.9120  0.3459
    8CHTO  H175 3034   6.872   8.445   0.935  0.5637 -2.7694 -0.3447
    8CHTO   C97 3035   6.674   8.409   0.758 -0.2965 -0.3652 -0.4580
    8CHTO  H184 3036   6.769   8.448   0.719 -0.8886  0.8378 -0.7126
    8CHTO   O64 3037   6.605   8.326   0.664  0.8842  0.1622 -0.4062
    8CHTO  C104 3038   6.676   8.208   0.625 -0.0107  0.7254 -0.6645
    8CHTO  H191 3039   6.768   8.215   0.567  1.8416 -1.0091  1.9849
    8CHTO  C108 3040   6.575   8.122   0.544 -0.0284  0.3210  0.6749
    8CHTO   O71 3041   6.524   8.187   0.432 -0.3095 -0.0975 -0.0421
    8CHTO  H171 3042   6.519   8.280   0.442 -1.5555 -0.0401 -1.0585
    8CHTO   O62 3043   6.585   8.523   0.777  0.2922 -0.2664  0.2395
    8CHTO   C91 3044   6.636   8.656   0.755  0.6388 -0.4422 -0.0546
    8CHTO  H178 3045   6.736   8.671   0.796  0.2117  1.0649  0.4945
    8CHTO   C92 3046   6.556   8.750   0.846 -0.5300  0.0368  0.5307
    8CHTO  H179 3047   6.449   8.748   0.819 -0.5973  2.9739  0.3834
    8CHTO   O66 3048   6.567   8.695   0.982  0.5655  0.2411 -0.8120
    8CHTO  H166 3049   6.652   8.719   1.014  0.3054 -0.3089  0.3174
    8CHTO   C93 3050   6.612   8.903   0.837 -0.7400  0.3209 -0.1789
    8CHTO  H180 3051   6.716   8.903   0.874 -0.2680 -0.0067 -1.4920
    8CHTO   N16 3052   6.545   8.992   0.934  0.1201  0.0520  0.0995
    8CHTO  H172 3053   6.614   9.026   1.009 -0.4218 -2.0056  1.5518
    8CHTO  H173 3054   6.509   9.082   0.886 -1.5066 -1.5520 -1.8178
    8CHTO   C94 3055   6.618   8.949   0.691 -0.3701 -0.0298  1.2098
    8CHTO  H181 3056   6.520   8.946   0.642  1.2826 -1.8558 -2.1484
    8CHTO   O61 3057   6.679   8.853   0.609  0.4658  0.6073  0.1463
    8CHTO   C95 3058   6.626   8.720   0.612  0.7996  0.4362  0.0234
    8CHTO  H182 3059   6.522   8.723   0.581  1.1454 -0.9704 -1.2992
    8CHTO  C106 3060   6.693   8.632   0.500 -0.1548  0.3424  0.1272
    8CHTO   O69 3061   6.653   8.678   0.365  0.0329 -0.4932 -0.3827
    8CHTO  H169 3062   6.706   8.627   0.307 -0.1120  1.5930 -2.4308
    8CHTO   O63 3063   6.683   9.082   0.688 -0.8264 -0.6666 -0.1137
    8CHTO   C96 3064   6.670   9.162   0.549 -0.8162 -0.0266  0.1365
    8CHTO  H183 3065   6.608   9.111   0.475 -0.9649  1.9951 -1.1720
    8CHTO   C98 3066   6.810   9.181   0.479  0.0161  0.6940  0.1487
    8CHTO  H185 3067   6.881   9.226   0.549 -1.0632  1.1155  0.9791
    8CHTO   O67 3068   6.872   9.060   0.447 -0.3315  0.5700 -0.9008
    8CHTO  H167 3069   6.814   8.987   0.433  1.1009 -0.8331  0.1654
    8CHTO  C102 3070   6.798   9.269   0.343 -1.1080  0.1882  0.0183
    8CHTO  H189 3071   6.760   9.196   0.270  0.5048  0.6272 -1.2761
    8CHTO   N18 3072   6.926   9.317   0.287  0.5196  0.4075  0.2253
    8CHTO  H176 3073   6.915   9.344   0.183  0.6180  0.0162  0.1105
    8CHTO  H177 3074   6.993   9.234   0.305 -0.7973 -0.3508  1.8030
    8CHTO  C105 3075   6.706   9.394   0.362 -0.1937  0.3672 -0.0697
    8CHTO  H192 3076   6.767   9.479   0.395  1.6406 -0.8014 -0.3890
    8CHTO   O65 3077   6.597   9.389   0.457 -0.3122 -0.1032  0.1578
    8CHTO  C100 3078   6.617   9.310   0.575 -0.1803 -0.0566 -0.5272
    8CHTO  H187 3079   6.698   9.358   0.633 -0.7927  1.3923 -0.8483
    8CHTO  C107 3080   6.479   9.323   0.651 -0.6801  0.2078  0.1590
    8CHTO   O70 3081   6.441   9.216   0.730  0.3045  0.3851 -0.6089
    8CHTO  H170 3082   6.506   9.207   0.797 -1.4384  0.9975  1.2140
    8CHTO   O57 3083   6.631   9.433   0.216 -0.1314  0.0884  0.4338
    8CHTO   C85 3084   6.680   9.553   0.146 -0.7362  0.2691  0.2456
    8CHTO  H157 3085   6.790   9.544   0.154 -0.2493  2.0930 -3.2036
    8CHTO   C83 3086   6.645   9.683   0.227 -0.5558  0.4470 -0.0963
    8CHTO  H155 3087   6.703   9.678   0.320 -0.2374  1.4822 -0.2252
    8CHTO   O56 3088   6.506   9.710   0.277 -1.1723  0.4132  0.5104
    8CHTO  H135 3089   6.483   9.650   0.345 -1.0028 -0.0321  0.1803
    8CHTO   C81 3090   6.695   9.805   0.146  0.2621 -0.1948 -0.1784
    8CHTO  H153 3091   6.798   9.786   0.115 -0.1069 -1.0665 -0.9036
    8CHTO   N14 3092   6.692   9.936   0.215  0.3880  0.3753  0.0436
    8CHTO  H141 3093   6.599   9.933   0.268 -1.0026 -0.4606 -2.3751
    8CHTO  H142 3094   6.770   9.949   0.288  0.6658  0.3760 -0.2533
    8CHTO   C79 3095   6.608   9.809   0.015  0.4184 -0.3246 -0.5888
    8CHTO  H151 3096   6.630   9.903  -0.035  2.5675 -0.3218  0.2976
    8CHTO   O52 3097   6.639   9.697  -0.073 -0.3515  0.5861  0.3498
    8CHTO   C86 3098   6.640   9.566  -0.003  0.0447  0.3486  0.2829
    8CHTO  H158 3099   6.534   9.533  -0.013  0.4762 -1.2448  0.6932
    8CHTO   C90 3100   6.714   9.459  -0.086  0.1784  0.1786 -0.0095
    8CHTO   O60 3101   6.648   9.425  -0.212  0.4250  0.0111 -0.3322
    8CHTO  H138 3102   6.656   9.335  -0.237 -0.9489 -0.1061 -0.3997
    8CHTO   O50 3103   6.466   9.818   0.041  0.0658  0.4140  0.3297
    8CHTO   C73 3104   6.362   9.863  -0.054  0.2567 -0.5840  0.6410
    8CHTO  H145 3105   6.402   9.852  -0.156 -0.0433  0.9586  0.3398
    8CHTO   C74 3106   6.335  10.017  -0.029  0.0841 -0.5559  0.6745
    8CHTO  H146 3107   6.426  10.077  -0.044 -1.0160  0.8525 -0.5279
    8CHTO   O54 3108   6.252  10.057  -0.142 -0.4656  0.0204  0.2213
    8CHTO  H133 3109   6.221  10.145  -0.127  0.0491  0.6656 -2.2632
    8CHTO   C75 3110   6.272  10.040   0.109  0.1085 -0.0558 -0.1349
    8CHTO  H147 3111   6.340  10.006   0.188 -0.7023  0.2451  0.7040
    8CHTO   N13 3112   6.237  10.177   0.148 -0.1465  0.3238  0.5849
    8CHTO  H139 3113   6.245  10.240   0.061 -0.4390  0.5149  0.6978
    8CHTO  H140 3114   6.134  10.175   0.180 -0.0706  2.8586  1.0679
    8CHTO   C76 3115   6.146   9.934   0.123  0.0724 -0.0399 -0.7012
    8CHTO  H148 3116   6.065   9.961   0.056  0.3591 -0.2969 -1.1503
    8CHTO   O49 3117   6.184   9.796   0.094 -0.1527 -0.2517 -0.5960
    8CHTO   C77 3118   6.234   9.778  -0.036 -0.2401 -0.6008 -0.2277
    8CHTO  H149 3119   6.159   9.812  -0.107 -0.8133  0.9028  1.0680
    8CHTO   C88 3120   6.248   9.632  -0.048 -0.5829 -0.0552 -0.0371
    8CHTO   O58 3121   6.292   9.577  -0.168 -0.3591 -0.0846 -0.2963
    8CHTO  H136 3122   6.384   9.595  -0.174 -0.3830  0.0690 -0.2100
    8CHTO   O51 3123   6.102   9.934   0.300 -0.2891  0.0012 -0.8095
    8CHTO   C78 3124   5.993   9.820   0.329  0.2613  0.0802  0.6022
    8CHTO  H150 3125   5.961   9.766   0.238  1.0906 -2.3503  1.7184
    8CHTO   C80 3126   5.870   9.886   0.400 -0.0703  0.6172 -0.7621
    8CHTO  H152 3127   5.907   9.952   0.481  1.7545 -1.2063 -0.0582
    8CHTO   O55 3128   5.809   9.973   0.305 -0.0366  0.0978  0.4134
    8CHTO  H134 3129   5.726  10.006   0.334  0.0648 -0.3734  1.2911
    8CHTO   C84 3130   5.765   9.775   0.449  0.0751  0.3555 -0.4436
    8CHTO  H156 3131   5.743   9.708   0.365  1.8534  0.9255 -1.3828
    8CHTO   N15 3132   5.640   9.835   0.503  0.4086 -0.6144 -0.0377
    8CHTO  H143 3133   5.551   9.809   0.451 -0.5002 -0.2573  1.3193
    8CHTO  H144 3134   5.646   9.942   0.498  0.0406 -0.5343  1.1234
    8CHTO   C87 3135   5.833   9.685   0.556  0.4675 -0.0820 -0.0241
    8CHTO  H159 3136   5.868   9.734   0.646 -0.4295  0.3992  0.0666
    8CHTO   O53 3137   5.960   9.619   0.472  0.1708 -0.5213 -0.0582
    8CHTO   C82 3138   6.054   9.716   0.427 -0.5439 -0.2141  0.6905
    8CHTO  H154 3139   6.100   9.761   0.515  1.3008 -0.5203 -0.1059
    8CHTO   C89 3140   6.168   9.628   0.363  0.4263  0.0634 -0.2905
    8CHTO   O59 3141   6.108   9.564   0.251  0.3547 -0.3991 -0.2504
    8CHTO  H137 3142   6.017   9.544   0.267 -0.0506  2.6982  1.7313
    8CHTO   O45 3143   5.719   9.551   0.589 -0.7583  0.3751 -0.0849
    8CHTO   C67 3144   5.774   9.419   0.626  0.0386 -0.8299 -0.9242
    8CHTO  H124 3145   5.882   9.436   0.620 -0.2301  1.6561  0.5025
    8CHTO   C65 3146   5.744   9.386   0.784 -0.4610  0.0133 -0.5006
    8CHTO  H122 3147   5.647   9.428   0.813  0.4529  0.4582  2.0109
    8CHTO   O44 3148   5.852   9.437   0.847  0.0661  0.2191 -0.0237
    8CHTO  H102 3149   5.843   9.529   0.859  0.5322  0.2386  0.1975
    8CHTO   C63 3150   5.712   9.230   0.799  1.2398 -0.0219  0.4792
    8CHTO  H120 3151   5.612   9.220   0.757  0.9534  1.4319  0.7661
    8CHTO   N11 3152   5.704   9.183   0.940 -0.1679  0.0191 -0.3284
    8CHTO  H108 3153   5.616   9.127   0.965  1.3292 -1.4774  1.8822
    8CHTO  H109 3154   5.791   9.125   0.963 -1.2485 -0.5387  2.5489
    8CHTO   C61 3155   5.795   9.136   0.701 -0.0567 -1.0642  0.3962
    8CHTO  H118 3156   5.754   9.035   0.709  0.3604 -1.3682 -1.1277
    8CHTO   O40 3157   5.793   9.164   0.562 -0.0312 -0.3726 -0.4965
    8CHTO   C68 3158   5.744   9.301   0.528  0.1731 -0.0297  0.5083
    8CHTO  H125 3159   5.633   9.299   0.529  0.1649  0.2147  0.1962
    8CHTO   C72 3160   5.794   9.339   0.385 -0.4212 -0.6400  0.4363
    8CHTO   O48 3161   5.737   9.240   0.298  0.2918 -0.0179  0.0654
    8CHTO  H105 3162   5.810   9.213   0.245  0.1615  0.2242 -0.2417
    8CHTO   O38 3163   5.932   9.127   0.741  0.0585 -1.2794 -0.2720
    8CHTO   C55 3164   6.005   9.023   0.677 -0.8369  0.4049 -0.1393
    8CHTO  H112 3165   5.957   8.982   0.587 -1.0975  0.1971  0.0924
    8CHTO   C56 3166   6.036   8.906   0.782  0.2433  0.5607 -0.4894
    8CHTO  H113 3167   6.093   8.951   0.865  0.9711  0.4744 -0.9418
    8CHTO   O42 3168   5.911   8.855   0.840 -0.5842 -0.0755 -0.0616
    8CHTO  H100 3169   5.865   8.810   0.772 -1.6954 -0.5776  1.0119
    8CHTO   C57 3170   6.115   8.793   0.706 -0.7985  0.3663  0.1421
    8CHTO  H114 3171   6.051   8.749   0.629  0.7724 -1.1488 -0.3390
    8CHTO   N10 3172   6.152   8.697   0.807  0.2356  0.1966  0.6188
    8CHTO  H106 3173   6.157   8.742   0.905 -3.1527  0.8374  0.5706
    8CHTO  H107 3174   6.247   8.653   0.781  1.2390  2.4046  0.3947
    8CHTO   C58 3175   6.236   8.848   0.630  0.6309 -0.4127  0.1280
    8CHTO  H115 3176   6.313   8.880   0.703 -2.3197  2.5476  2.1046
    8CHTO   O37 3177   6.199   8.967   0.559 -0.2534  0.4166 -0.4027
    8CHTO   C59 3178   6.138   9.079   0.629  0.3310  0.1303  1.0561
    8CHTO  H116 3179   6.199   9.120   0.709  1.7417  1.4294 -0.6328
    8CHTO   C70 3180   6.125   9.190   0.520 -0.0708  0.2586  0.1166
    8CHTO   O46 3181   6.103   9.320   0.582  0.2806  0.0409  0.1178
    8CHTO  H103 3182   6.180   9.342   0.629  1.5444 -1.2870 -1.2774
    8CHTO   O39 3183   6.311   8.750   0.517 -0.0549 -0.2974 -0.2057
    8CHTO   C60 3184   6.231   8.688   0.414  0.0860  0.3584  0.6194
    8CHTO  H117 3185   6.125   8.699   0.436  0.1937  1.9083  0.3608
    8CHTO   C62 3186   6.252   8.751   0.277 -0.6318 -0.2843  0.2971
    8CHTO  H119 3187   6.233   8.860   0.287 -1.5691 -0.1461 -2.3370
    8CHTO   O43 3188   6.387   8.737   0.233  0.0295 -0.1644 -0.0150
    8CHTO  H101 3189   6.401   8.800   0.165 -1.4154 -0.3918 -0.5494
    8CHTO   C66 3190   6.147   8.704   0.174 -0.0592 -0.7294 -0.0811
    8CHTO  H123 3191   6.049   8.728   0.216  0.6276  0.0511  1.0627
    8CHTO   N12 3192   6.147   8.780   0.043 -0.6444 -0.5553  0.7440
    8CHTO  H110 3193   6.152   8.728  -0.051  0.5694  1.0885 -0.1374
    8CHTO  H111 3194   6.060   8.844   0.034 -1.1829 -1.6247 -1.9137
    8CHTO   C69 3195   6.157   8.547   0.158 -0.9573 -0.0469  0.1765
    8CHTO  H126 3196   6.242   8.509   0.096 -2.2815 -2.1165 -0.4507
    8CHTO   O41 3197   6.160   8.470   0.305 -0.6951 -0.1823 -0.0455
    8CHTO   C64 3198   6.256   8.535   0.408  0.3073 -0.1476  0.1119
    8CHTO  H121 3199   6.363   8.511   0.390  0.1438  0.2744 -1.5165
    8CHTO   C71 3200   6.219   8.466   0.541 -0.2836 -0.4069 -0.1775
    8CHTO   O47 3201   6.219   8.323   0.529 -0.0632 -0.5285  0.2870
    8CHTO  H104 3202   6.139   8.303   0.485  0.3350  1.6387 -1.5443
    8CHTO   O34 3203   6.046   8.507   0.076 -0.2892 -0.3675  0.3456
    8CHTO   C49 3204   5.891   8.481   0.123 -0.1952  0.5060 -0.2576
    8CHTO   H91 3205   5.883   8.381   0.165 -0.3083  1.0351  1.0141
    8CHTO   C47 3206   5.798   8.480  -0.008  0.1801 -0.4836  0.1621
    8CHTO   H89 3207   5.704   8.429   0.020  0.6510 -0.7986  1.2005
    8CHTO   O33 3208   5.865   8.398  -0.110  0.2853 -0.8340  0.2250
    8CHTO   H70 3209   5.935   8.449  -0.146  0.3890 -1.3771 -0.3556
    8CHTO   C45 3210   5.766   8.632  -0.059 -0.0948 -0.2290 -0.4495
    8CHTO   H87 3211   5.859   8.672  -0.102 -0.2637  1.2336  0.5365
    8CHTO    N8 3212   5.671   8.626  -0.174  0.0490 -0.2129 -0.3450
    8CHTO   H75 3213   5.662   8.725  -0.218  0.7431 -0.1628 -0.3834
    8CHTO   H76 3214   5.579   8.573  -0.157 -1.9894  3.1267 -0.4356
    8CHTO   C43 3215   5.719   8.732   0.058 -0.5100  0.3703  0.3018
    8CHTO   H85 3216   5.735   8.835   0.024  0.7971  0.0389 -0.0978
    8CHTO   O29 3217   5.787   8.709   0.180 -0.3507 -0.2133  0.5322
    8CHTO   C50 3218   5.820   8.578   0.227  0.2576  0.4242 -0.2377
    8CHTO   H92 3219   5.893   8.603   0.306  1.8450  1.7488 -2.0694
    8CHTO   C54 3220   5.699   8.504   0.292  0.2904  0.1441  0.2310
    8CHTO   O36 3221   5.737   8.412   0.397 -0.1543 -0.0352 -0.2386
    8CHTO   H72 3222   5.668   8.349   0.402 -0.7612  0.5122 -1.7000
    8CHTO   O27 3223   5.579   8.734   0.081  0.0469  0.5442 -0.3320
    8CHTO   C37 3224   5.477   8.824   0.134 -0.2678  0.0819 -0.6373
    8CHTO   H79 3225   5.379   8.777   0.147 -0.8619  0.9892 -1.7266
    8CHTO   C38 3226   5.520   8.866   0.276  0.2776 -0.2095  0.1312
    8CHTO   H80 3227   5.627   8.890   0.282  0.2670  0.2465 -1.4108
    8CHTO   O31 3228   5.505   8.742   0.356 -0.4497 -0.0950  0.9043
    8CHTO   H68 3229   5.580   8.687   0.368  0.6988  1.7279  2.3026
    8CHTO   C39 3230   5.437   8.983   0.335 -0.1378 -0.1947  0.5151
    8CHTO   H81 3231   5.334   8.950   0.343 -0.0298 -1.1159 -1.5382
    8CHTO    N7 3232   5.480   9.032   0.472  0.0389 -0.2515 -0.4606
    8CHTO   H73 3233   5.519   9.132   0.466 -0.1229 -0.0258  1.7864
    8CHTO   H74 3234   5.399   9.035   0.545 -0.4543  1.3395 -1.0460
    8CHTO   C40 3235   5.441   9.107   0.228  0.3077  0.0032 -0.2046
    8CHTO   H82 3236   5.543   9.141   0.211  0.1467 -0.2149 -1.6172
    8CHTO   O26 3237   5.381   9.051   0.109  0.2350  0.6034  0.1946
    8CHTO   C41 3238   5.463   8.950   0.043 -0.0298 -0.2952  0.1328
    8CHTO   H83 3239   5.561   8.990   0.013 -0.3555  0.5987  0.2720
    8CHTO   C52 3240   5.384   8.909  -0.086  0.8477  0.0337 -0.2150
    8CHTO   O35 3241   5.357   9.038  -0.176 -0.1028 -0.1872 -0.3250
    8CHTO   H71 3242   5.282   9.023  -0.231 -0.7755  0.7480  0.3186
    8CHTO   O28 3243   5.351   9.212   0.264 -0.1794 -0.1992  0.3680
    8CHTO   C42 3244   5.317   9.331   0.181  0.3314 -0.8839  0.4392
    8CHTO   H84 3245   5.232   9.377   0.231 -1.0350 -0.2675 -2.3246
    8CHTO   C44 3246   5.264   9.306   0.036  0.1354 -0.1694  0.2607
    8CHTO   H86 3247   5.338   9.251  -0.022  0.4378  1.8131 -1.2900
    8CHTO   O32 3248   5.153   9.220   0.049  0.9124  0.2114  0.3634
    8CHTO   H69 3249   5.102   9.223  -0.030  1.1945 -1.4081  0.0844
    8CHTO   C48 3250   5.239   9.436  -0.041 -0.0472  0.3801  0.6813
    8CHTO   H90 3251   5.160   9.490   0.011 -0.0659  0.6128  0.4108
    8CHTO    N9 3252   5.185   9.413  -0.185 -0.6563 -0.0592 -0.3124
    8CHTO   H77 3253   5.095   9.468  -0.207 -0.6266  0.2507  0.3353
    8CHTO   H78 3254   5.175   9.309  -0.213 -1.0682 -0.0512 -0.1912
    8CHTO   C51 3255   5.362   9.527  -0.038 -0.1529 -0.0224 -0.5372
    8CHTO   H93 3256   5.442   9.485  -0.098  1.6351  1.7962  0.5273
    8CHTO   O30 3257   5.399   9.551   0.098  0.3985  0.0376 -0.1386
    8CHTO   C46 3258   5.434   9.431   0.179 -0.4689 -0.0287 -0.0506
    8CHTO   H88 3259   5.524   9.385   0.139 -1.3775 -2.2895  0.3967
    8CHTO   C53 3260   5.457   9.487   0.318  0.2857  0.0099  0.2125
    8CHTO   O72 3261   5.365   9.596   0.346  0.3355 -0.1963 -0.4460
    8CHTO  H199 3262   5.366   9.627   0.435 -1.4145  0.0167 -0.4918
    8CHTO   O22 3263   5.335   9.657  -0.094  0.6692 -0.7033 -0.8058
    8CHTO   C31 3264   5.448   9.739  -0.149 -0.9797  0.0811 -0.0892
    8CHTO   H59 3265   5.407   9.836  -0.184  1.5387  1.3348  0.3070
    8CHTO   C29 3266   5.558   9.774  -0.046 -0.3445  0.2460 -0.5023
    8CHTO   H57 3267   5.588   9.678  -0.001  2.4838  1.1270 -0.3591
    8CHTO   O21 3268   5.500   9.855   0.064 -0.7125  0.0520  0.0037
    8CHTO   H37 3269   5.508   9.945   0.041 -2.5087  0.6591  1.5139
    8CHTO   C27 3270   5.684   9.848  -0.113 -0.7809 -0.3041  0.2228
    8CHTO   H55 3271   5.665   9.950  -0.147  0.7446 -0.2434 -0.4894
    8CHTO    N5 3272   5.796   9.855  -0.016  0.6893  0.2951 -0.1338
    8CHTO   H43 3273   5.822   9.755   0.014  1.3599  0.8955  1.3145
    8CHTO   H44 3274   5.880   9.911  -0.056  0.0362  1.5915  0.2908
    8CHTO   C25 3275   5.724   9.768  -0.246 -0.8018  0.8347 -0.5774
    8CHTO   H53 3276   5.769   9.673  -0.214  3.4002  2.9157  0.1843
    8CHTO   O17 3277   5.612   9.753  -0.336 -0.1408 -0.0721 -0.0620
    8CHTO   C32 3278   5.508   9.667  -0.278 -0.2362  0.7979  0.0049
    8CHTO   H60 3279   5.544   9.568  -0.249  0.0977  0.4164 -1.6590
    8CHTO   C36 3280   5.407   9.639  -0.388  0.7915  0.2853  0.0908
    8CHTO   O25 3281   5.343   9.757  -0.434  0.0465  0.1758 -0.2914
    8CHTO   H40 3282   5.251   9.744  -0.450 -0.4772  2.8787  0.1846
    8CHTO   O15 3283   5.835   9.840  -0.315  0.0572  0.1716 -1.3354
    8CHTO   C19 3284   5.940   9.838  -0.407  0.8374 -0.2500  0.4229
    8CHTO   H47 3285   5.881   9.810  -0.496 -0.2778  0.4029  0.9431
    8CHTO   C20 3286   6.009   9.973  -0.428  0.4839  0.3908  0.8307
    8CHTO   H48 3287   6.050  10.011  -0.333  0.3456  0.4271  0.8761
    8CHTO   O19 3288   5.911  10.072  -0.463 -0.6591  0.2189  0.9280
    8CHTO   H35 3289   5.850  10.079  -0.392  0.3601 -1.5937  2.0293
    8CHTO   C21 3290   6.131   9.966  -0.533  0.1058 -0.3279  0.0642
    8CHTO   H49 3291   6.090   9.947  -0.633  0.4769 -1.9414  0.2055
    8CHTO    N4 3292   6.210  10.087  -0.539  0.1612 -0.5995 -0.1880
    8CHTO   H41 3293   6.254  10.106  -0.442 -2.2896 -1.2109  1.0911
    8CHTO   H42 3294   6.287  10.073  -0.613  0.6126 -1.9537  0.5107
    8CHTO   C22 3295   6.223   9.842  -0.507 -0.2092 -0.5977 -0.3677
    8CHTO   H50 3296   6.283   9.858  -0.417 -3.9527 -0.8122  2.2669
    8CHTO   O14 3297   6.136   9.726  -0.500  0.6175 -0.3481 -0.7579
    8CHTO   C23 3298   6.040   9.724  -0.389  0.4201 -0.3825 -0.5235
    8CHTO   H51 3299   6.083   9.725  -0.288 -1.8674  2.1728  0.4760
    8CHTO   C34 3300   5.975   9.584  -0.399 -0.4379  0.0383 -0.7758
    8CHTO   O23 3301   6.067   9.488  -0.343 -0.3438  0.0543  0.5267
    8CHTO   H38 3302   6.026   9.404  -0.344 -1.9532  0.7843  2.3355
    8CHTO   O16 3303   6.306   9.806  -0.616  0.0399 -0.6857 -0.1700
    8CHTO   C24 3304   6.421   9.700  -0.576 -0.6709  0.0832  0.1280
    8CHTO   H52 3305   6.397   9.648  -0.484 -2.0987 -1.7923 -1.2706
    8CHTO   C26 3306   6.562   9.773  -0.574  0.6337 -0.3299  0.3032
    8CHTO   H54 3307   6.582   9.809  -0.677 -0.5195 -1.3124 -0.2711
    8CHTO   O20 3308   6.558   9.874  -0.474 -0.2810 -0.2519 -0.6859
    8CHTO   H36 3309   6.641   9.903  -0.442  0.4740 -2.8282 -0.1917
    8CHTO   C30 3310   6.682   9.672  -0.564  0.0991 -0.7624  0.0868
    8CHTO   H58 3311   6.683   9.633  -0.461  0.7538 -0.0590  0.3536
    8CHTO    N6 3312   6.809   9.743  -0.571  0.3773 -0.2493 -0.0491
    8CHTO   H45 3313   6.819   9.802  -0.481 -1.5509  0.0314 -0.0087
    8CHTO   H46 3314   6.809   9.810  -0.656  0.2646 -2.2690 -1.6607
    8CHTO   C33 3315   6.670   9.556  -0.661 -0.4870 -0.9912  0.4660
    8CHTO   H61 3316   6.697   9.590  -0.762  2.3006 -4.4741 -0.0385
    8CHTO   O18 3317   6.535   9.499  -0.664  0.6465  0.3253 -0.3457
    8CHTO   C28 3318   6.427   9.590  -0.687  0.0672 -0.2301  0.0886
    8CHTO   H56 3319   6.453   9.640  -0.780 -0.2247 -1.6857 -0.7860
    8CHTO   C35 3320   6.293   9.518  -0.709 -0.2309  0.0041  0.3554
    8CHTO   O24 3321   6.271   9.414  -0.615 -0.0176 -0.2501  0.2896
    8CHTO   H39 3322   6.345   9.358  -0.605  0.9818  1.0807  0.4241
    8CHTO    O9 3323   6.771   9.455  -0.631  0.0556  0.0947  0.4713
    8CHTO   C13 3324   6.824   9.359  -0.737 -0.7132  0.0165  0.1305
    8CHTO   H26 3325   6.860   9.426  -0.819 -0.6004  0.6980  0.7386
    8CHTO   C11 3326   6.727   9.256  -0.789 -0.8383 -0.1560  0.4862
    8CHTO   H24 3327   6.648   9.308  -0.846 -0.0803  0.6624  0.1636
    8CHTO    O8 3328   6.669   9.185  -0.681  0.6522 -0.5722  0.0339
    8CHTO    H3 3329   6.619   9.239  -0.623  2.1302  0.0287  0.7747
    8CHTO    C9 3330   6.802   9.155  -0.887 -0.0993 -0.3431  0.1575
    8CHTO   H22 3331   6.829   9.220  -0.972 -0.1583  0.8725  1.0530
    8CHTO    N2 3332   6.720   9.043  -0.950 -0.1261 -0.5777 -0.1341
    8CHTO   H10 3333   6.706   8.972  -0.870 -1.4997  0.2596  0.3860
    8CHTO   H11 3334   6.626   9.095  -0.964 -0.0452 -0.9841 -2.2884
    8CHTO    C7 3335   6.930   9.093  -0.809 -0.4238 -0.8712  0.0753
    8CHTO   H20 3336   6.991   9.038  -0.884 -1.3337 -2.0540  0.1844
    8CHTO    O4 3337   7.018   9.191  -0.748 -0.2100 -0.7673  0.2934
    8CHTO   C14 3338   6.957   9.298  -0.673 -0.2732 -0.6522  0.5908
    8CHTO   H27 3339   7.026   9.385  -0.668 -0.1949 -0.7108  0.5234
    8CHTO   C18 3340   6.941   9.256  -0.524  0.0271 -0.1041 -0.4135
    8CHTO   O13 3341   7.067   9.242  -0.457  0.4873  0.0051  0.2549
    8CHTO    H7 3342   7.100   9.326  -0.434  0.2563 -0.0443  0.7760
    8CHTO    O2 3343   6.889   8.982  -0.675 -0.0337  0.0118  0.3186
    8CHTO    C1 3344   6.966   8.863  -0.656 -0.0979 -0.2111 -0.2653
    8CHTO   H14 3345   6.947   8.819  -0.556 -1.4157 -0.8616 -0.7914
    8CHTO    C2 3346   7.118   8.871  -0.679 -0.2260 -0.1403 -0.1359
    8CHTO   H15 3347   7.133   8.909  -0.782 -0.1389  1.0394  0.2983
    8CHTO    O6 3348   7.167   8.972  -0.584  0.3468  0.3940 -0.0412
    8CHTO    H1 3349   7.107   9.044  -0.573 -1.2765 -0.9753  0.2471
    8CHTO    C3 3350   7.184   8.724  -0.659  0.2456  0.2823 -0.2221
    8CHTO   H16 3351   7.181   8.687  -0.556 -0.3335  1.0225  0.0247
    8CHTO    N1 3352   7.333   8.729  -0.687  0.5459  0.0570 -0.3224
    8CHTO    H8 3353   7.368   8.789  -0.604 -2.0311 -0.1732  0.9795
    8CHTO    H9 3354   7.349   8.773  -0.784  0.8607 -3.0862 -1.7531
    8CHTO    C4 3355   7.114   8.618  -0.748  0.5505  0.5338  0.5658
    8CHTO   H17 3356   7.156   8.625  -0.848 -1.7800 -0.2860 -0.5243
    8CHTO    O1 3357   6.974   8.629  -0.745  0.6786 -0.4579 -0.1191
    8CHTO    C5 3358   6.909   8.755  -0.755 -0.1173 -0.2708 -0.5615
    8CHTO   H18 3359   6.932   8.782  -0.858  1.2571 -1.9902 -0.7204
    8CHTO   C16 3360   6.752   8.726  -0.737 -0.2651  0.0209  0.0033
    8CHTO   O11 3361   6.724   8.629  -0.633  0.0897  0.0974 -0.3909
    8CHTO    H5 3362   6.770   8.653  -0.555 -0.5794 -0.2590  0.1120
    8CHTO    O3 3363   7.150   8.488  -0.704 -0.1071  0.0561  0.8052
    8CHTO    C6 3364   7.150   8.389  -0.802  0.1660  0.6089  0.0480
    8CHTO   H19 3365   7.074   8.395  -0.880 -1.8177 -0.8536  1.7985
    8CHTO    C8 3366   7.292   8.377  -0.860 -0.6935  1.0895 -0.0319
    8CHTO   H21 3367   7.365   8.356  -0.781  1.5359  1.3369 -1.9857
    8CHTO    O7 3368   7.329   8.494  -0.935 -0.2526 -0.4569 -0.2353
    8CHTO    H2 3369   7.277   8.565  -0.903 -0.2021 -0.1850 -0.7533
    8CHTO   C12 3370   7.304   8.245  -0.943 -0.0242  0.0130  0.0280
    8CHTO   H25 3371   7.234   8.264  -1.028  0.5474  2.0524 -0.0236
    8CHTO    N3 3372   7.442   8.223  -0.995  0.0904  0.7153  0.4022
    8CHTO   H12 3373   7.487   8.139  -0.943  1.8207 -0.7220 -3.2200
    8CHTO   H13 3374   7.504   8.309  -0.973  0.7662  0.2887  0.1685
    8CHTO   C15 3375   7.250   8.119  -0.863  0.6722 -0.8652  0.4440
    8CHTO   H28 3376   7.319   8.104  -0.779  2.8628 -0.3295 -1.2160
    8CHTO   O10 3377   7.231   7.992  -0.965 -0.3232 -0.9523  0.5920
    8CHTO    H4 3378   7.316   7.968  -0.996  0.4732  0.4021  1.6753
    8CHTO    O5 3379   7.116   8.149  -0.824  0.2483  0.7875 -0.1341
    8CHTO   C10 3380   7.118   8.254  -0.728 -0.4914 -0.8305 -0.5830
    8CHTO   H23 3381   7.201   8.236  -0.660  0.9199 -2.1454 -2.6019
    8CHTO   C17 3382   6.990   8.266  -0.651 -0.1308 -0.1261 -1.0613
    8CHTO   O12 3383   6.968   8.144  -0.575 -0.7187 -0.1200 -0.2848
    8CHTO    H6 3384   7.038   8.139  -0.513 -0.4512 -0.8155 -0.6335
    9CHTO  H203 3385   6.694   4.441   3.986 -1.6059 -0.7017  0.8542
    9CHTO   O82 3386   6.731   4.466   4.068  0.3951 -0.2040 -0.1640
    9CHTO  C123 3387   6.866   4.513   4.050  0.3624  0.0117 -0.7025
    9CHTO  H227 3388   6.898   4.560   4.144 -0.2435  0.7902 -0.8822
    9CHTO   O77 3389   6.945   4.393   4.033 -0.4491  0.1038  0.0486
    9CHTO  C118 3390   7.084   4.413   3.995  0.2815 -0.0081  0.1095
    9CHTO  H222 3391   7.136   4.476   4.068  1.5283  0.0468 -0.8026
    9CHTO  C125 3392   7.137   4.263   4.004 -0.1334 -0.0513  0.4780
    9CHTO   O84 3393   7.282   4.270   3.997 -0.6500 -0.2688 -0.9100
    9CHTO  H205 3394   7.307   4.227   3.917 -1.3530  1.6955 -2.2097
    9CHTO  C114 3395   7.084   4.471   3.849 -0.6412  0.0771 -0.2585
    9CHTO  H218 3396   7.012   4.414   3.790  2.3934 -3.2055 -0.9774
    9CHTO  C116 3397   7.030   4.614   3.864 -0.1361 -0.0152  0.0098
    9CHTO  H220 3398   7.098   4.673   3.928  1.3972 -0.1978 -1.4187
    9CHTO   O79 3399   7.029   4.682   3.734 -0.6091  0.4388 -0.4300
    9CHTO  H201 3400   7.118   4.683   3.705 -0.6123  1.1999 -0.4159
    9CHTO  C120 3401   6.880   4.608   3.919 -0.3416 -0.0433  0.3431
    9CHTO  H224 3402   6.824   4.552   3.841 -1.6584 -0.8630  1.8691
    9CHTO   N21 3403   6.831   4.745   3.939  0.0093 -0.3786  0.6540
    9CHTO  H211 3404   6.872   4.797   4.025  0.6435 -1.2405  0.8717
    9CHTO  H212 3405   6.843   4.797   3.845  0.9011  0.5526  1.2667
    9CHTO   O75 3406   7.220   4.455   3.795  0.5934  0.0739  0.3095
    9CHTO  C112 3407   7.214   4.414   3.637  0.0944  0.6383  0.1102
    9CHTO  H216 3408   7.115   4.444   3.600  0.1277  0.1768 -0.3665
    9CHTO   O73 3409   7.235   4.269   3.634  0.5011 -0.2761  0.0715
    9CHTO  C113 3410   7.232   4.215   3.496  0.0506  0.7365 -0.2681
    9CHTO  H217 3411   7.146   4.245   3.433 -0.2233 -0.8744 -0.6897
    9CHTO  C124 3412   7.234   4.062   3.501  0.1746  0.5833  0.5470
    9CHTO   O83 3413   7.122   4.012   3.573 -0.3157 -0.4886 -0.0596
    9CHTO  H204 3414   7.122   4.028   3.666  0.6712  2.3854 -0.5022
    9CHTO  C109 3415   7.357   4.265   3.416  0.1128  0.0629  0.4845
    9CHTO  H213 3416   7.444   4.224   3.469  0.9532 -0.5335 -1.2937
    9CHTO  C110 3417   7.350   4.419   3.418  0.2739  0.1664  0.2442
    9CHTO  H214 3418   7.270   4.455   3.353 -1.6267 -0.9211  1.8969
    9CHTO   O78 3419   7.474   4.462   3.359  0.4831 -0.3160  0.3648
    9CHTO  H200 3420   7.466   4.509   3.278 -0.5617 -0.6626  0.2741
    9CHTO  C111 3421   7.332   4.483   3.556  0.1107 -0.7300 -0.0096
    9CHTO  H215 3422   7.422   4.472   3.618 -0.8504 -1.0153  1.3482
    9CHTO   N19 3423   7.300   4.624   3.553  0.1862 -0.4408  0.0795
    9CHTO  H207 3424   7.221   4.656   3.488  0.1044  1.4485  1.0823
    9CHTO  H208 3425   7.267   4.654   3.651  0.2914 -0.0785  0.0046
    9CHTO   O74 3426   7.370   4.215   3.282  0.4435  0.1470 -0.1108
    9CHTO  C115 3427   7.523   4.167   3.241  0.1031 -0.9867  0.2552
    9CHTO  H219 3428   7.596   4.236   3.282 -1.0595  0.0320  0.6309
    9CHTO   O76 3429   7.561   4.015   3.311  0.1250 -0.3402 -0.1567
    9CHTO  C122 3430   7.485   3.909   3.250 -0.0641 -0.7895  0.2707
    9CHTO  H226 3431   7.381   3.931   3.275 -0.2065  0.6622 -1.5152
    9CHTO  C126 3432   7.511   3.766   3.310  0.0663  0.4188  0.1039
    9CHTO   O85 3433   7.507   3.763   3.452 -0.4930 -0.1548 -0.8967
    9CHTO  H206 3434   7.429   3.808   3.477 -0.8308 -1.3130  0.1829
    9CHTO  C121 3435   7.516   3.899   3.096 -0.5906 -0.2221 -0.1782
    9CHTO  H225 3436   7.624   3.884   3.080 -0.2525  0.8755  0.9472
    9CHTO   O81 3437   7.445   3.802   3.024  0.1980 -0.0998 -0.1022
    9CHTO  H202 3438   7.415   3.736   3.084 -0.9953  0.4395 -0.0906
    9CHTO  C119 3439   7.467   4.034   3.034  0.0297 -0.7683  0.6392
    9CHTO  H223 3440   7.484   4.036   2.927  1.0509  3.4228  0.7973
    9CHTO  C117 3441   7.542   4.162   3.086 -0.3427  0.2111  0.7495
    9CHTO  H221 3442   7.498   4.255   3.052 -0.5538 -0.2689 -0.3090
    9CHTO   N20 3443   7.689   4.164   3.050 -0.1080  0.1804 -0.1561
    9CHTO  H209 3444   7.737   4.224   3.127 -1.4203  0.5608  0.3736
    9CHTO  H210 3445   7.723   4.061   3.046 -1.6080 -0.3592  0.4295
    9CHTO   O80 3446   7.298   4.044   3.046 -0.6626  0.1897 -0.5749
    9CHTO  C103 3447   7.217   4.160   2.982 -0.1875  0.1002  0.2549
    9CHTO  H190 3448   7.231   4.252   3.039 -2.8894 -0.5776  2.1204
    9CHTO  C101 3449   7.226   4.184   2.825 -0.0457 -0.3667 -0.3425
    9CHTO  H188 3450   7.224   4.086   2.776 -0.5642 -0.1140 -0.8313
    9CHTO   O68 3451   7.368   4.241   2.797  0.4266 -0.0258  0.3392
    9CHTO  H168 3452   7.358   4.304   2.729  0.5337  1.6482  1.8363
    9CHTO   C99 3453   7.113   4.281   2.771  0.0233 -0.9070 -0.1421
    9CHTO  H186 3454   7.130   4.379   2.821 -2.5118  0.8276 -2.4934
    9CHTO   N17 3455   7.115   4.299   2.621  0.2941 -0.1439 -0.5698
    9CHTO  H174 3456   7.203   4.355   2.596  0.0368  0.8017  0.6319
    9CHTO  H175 3457   7.022   4.346   2.590 -0.4831  0.3350  2.3156
    9CHTO   C97 3458   6.976   4.229   2.818  0.2724  0.0997 -0.9648
    9CHTO  H184 3459   6.942   4.137   2.768 -0.9638  1.2935 -2.3794
    9CHTO   O64 3460   6.976   4.214   2.962  0.4511  0.5416 -0.0035
    9CHTO  C104 3461   7.069   4.118   3.014 -0.0395 -0.3476 -0.3878
    9CHTO  H191 3462   7.043   4.022   2.967  0.6389 -1.5345  1.5941
    9CHTO  C108 3463   7.049   4.099   3.166  0.1203 -0.4586 -0.1903
    9CHTO   O71 3464   7.065   4.228   3.230 -0.3667 -0.5352 -0.4471
    9CHTO  H171 3465   7.156   4.246   3.242 -0.7964  0.4754  1.4901
    9CHTO   O62 3466   6.873   4.330   2.828 -0.0276 -0.2194  0.4463
    9CHTO   C91 3467   6.760   4.315   2.737  0.1527  0.0238 -0.1756
    9CHTO  H178 3468   6.790   4.245   2.659 -0.6513 -0.4382 -0.0759
    9CHTO   C92 3469   6.740   4.454   2.663 -0.1745 -0.2829 -0.0304
    9CHTO  H179 3470   6.839   4.495   2.640  0.3088 -1.2667  0.2819
    9CHTO   O66 3471   6.675   4.429   2.539 -0.0060  0.1872  0.0544
    9CHTO  H166 3472   6.656   4.505   2.487  2.8187  0.3958 -0.7092
    9CHTO   C93 3473   6.648   4.555   2.748 -0.1208 -0.1598 -0.3987
    9CHTO  H180 3474   6.603   4.621   2.672  1.1366  1.2756  0.0835
    9CHTO   N16 3475   6.734   4.638   2.833 -0.2251  0.0692 -0.3289
    9CHTO  H172 3476   6.808   4.692   2.776  0.3246  0.4469  0.7318
    9CHTO  H173 3477   6.667   4.702   2.888  0.1762  1.4258 -1.3883
    9CHTO   C94 3478   6.528   4.486   2.827 -0.2215 -0.1741  0.8488
    9CHTO  H181 3479   6.547   4.480   2.934  1.7426 -1.3607  0.4586
    9CHTO   O61 3480   6.515   4.353   2.768  0.3221 -0.6093 -0.3905
    9CHTO   C95 3481   6.622   4.267   2.797  0.3686 -0.0222  0.6060
    9CHTO  H182 3482   6.627   4.259   2.906  1.6840  1.0558  0.6317
    9CHTO  C106 3483   6.604   4.119   2.752  0.3561  0.2992 -0.2108
    9CHTO   O69 3484   6.495   4.068   2.827 -0.2379  0.2891  0.4503
    9CHTO  H169 3485   6.414   4.098   2.792 -0.4320 -2.5284 -1.7053
    9CHTO   O63 3486   6.376   4.556   2.799 -0.1924  0.1825 -0.1336
    9CHTO   C96 3487   6.276   4.520   2.908 -0.4590  0.2969  0.1046
    9CHTO  H183 3488   6.312   4.561   3.002 -1.8455  2.1395 -0.1560
    9CHTO   C98 3489   6.244   4.370   2.931 -0.1282  1.3260 -0.2835
    9CHTO  H185 3490   6.245   4.325   2.831  1.6123  0.2780  0.1756
    9CHTO   O67 3491   6.350   4.301   2.999 -0.4267  0.2360 -0.3598
    9CHTO  H167 3492   6.430   4.341   2.971  0.2510 -1.4498 -0.8825
    9CHTO  C102 3493   6.116   4.338   3.011 -0.4985  0.2580  0.1930
    9CHTO  H189 3494   6.141   4.358   3.117  1.8986 -2.8033  0.2624
    9CHTO   N18 3495   6.074   4.200   3.008 -0.8150 -1.0926  0.5577
    9CHTO  H176 3496   6.084   4.134   3.093 -1.2613 -1.5058  0.2853
    9CHTO  H177 3497   6.088   4.159   2.909 -1.8349  4.4865 -2.0890
    9CHTO  C105 3498   6.005   4.439   2.973  0.1590  0.2276 -0.3822
    9CHTO  H192 3499   5.952   4.406   2.884 -1.5106 -0.9511  1.0277
    9CHTO   O65 3500   6.044   4.575   2.968  0.0812 -0.0662  0.2582
    9CHTO  C100 3501   6.147   4.600   2.870  0.5048  0.2980 -0.2023
    9CHTO  H187 3502   6.118   4.559   2.772  1.2126  1.7159 -1.0147
    9CHTO  C107 3503   6.166   4.753   2.871 -0.4746  0.0280 -0.3051
    9CHTO   O70 3504   6.047   4.831   2.849 -0.1173  0.2422  0.0039
    9CHTO  H170 3505   6.044   4.910   2.900 -0.0440  0.4002 -0.2328
    9CHTO   O57 3506   5.895   4.438   3.097  0.0341  0.1765  0.4634
    9CHTO   C85 3507   5.768   4.496   3.094 -0.0027  0.1514 -0.3671
    9CHTO  H157 3508   5.717   4.453   3.005  0.0171  0.3026 -0.4516
    9CHTO   C83 3509   5.764   4.647   3.043 -0.0274  0.7411 -0.4605
    9CHTO  H155 3510   5.793   4.651   2.938 -1.2436  0.7663 -0.7955
    9CHTO   O56 3511   5.861   4.732   3.110  0.0238  0.4532 -0.1990
    9CHTO  H135 3512   5.864   4.815   3.066  0.1677 -1.0581 -3.1737
    9CHTO   C81 3513   5.617   4.710   3.056  0.1406  0.7602 -0.3278
    9CHTO  H153 3514   5.554   4.644   2.997 -0.3093 -0.4772  1.4894
    9CHTO   N14 3515   5.597   4.843   2.986 -0.1645 -0.2064  0.1802
    9CHTO  H141 3516   5.564   4.924   3.046 -0.5713  0.4307 -0.8902
    9CHTO  H142 3517   5.694   4.867   2.947 -0.7080  2.4597  0.4179
    9CHTO   C79 3518   5.563   4.699   3.198 -0.6322 -0.4589  0.6100
    9CHTO  H151 3519   5.461   4.738   3.191 -0.0271  1.0205 -0.0093
    9CHTO   O52 3520   5.562   4.554   3.239 -0.1749 -0.6065  0.6474
    9CHTO   C86 3521   5.688   4.481   3.225 -0.1167  0.3709  0.1439
    9CHTO  H158 3522   5.742   4.518   3.315  1.2173 -0.3969 -0.3276
    9CHTO   C90 3523   5.672   4.330   3.242 -0.0707 -0.1317 -0.3079
    9CHTO   O60 3524   5.641   4.287   3.377  0.1738  0.6202 -0.0170
    9CHTO  H138 3525   5.568   4.338   3.407  0.1179  0.3219  0.3519
    9CHTO   O50 3526   5.635   4.783   3.288  0.0224  0.4898 -0.0783
    9CHTO   C73 3527   5.658   4.876   3.400 -0.2459 -0.2603  0.0665
    9CHTO  H145 3528   5.568   4.870   3.464 -0.2044 -1.7694  0.0108
    9CHTO   C74 3529   5.672   5.023   3.345  0.1253  0.7817 -0.7661
    9CHTO  H146 3530   5.577   5.034   3.291  0.5765  1.2817 -1.4627
    9CHTO   O54 3531   5.666   5.121   3.454 -0.1702 -0.3072 -0.1907
    9CHTO  H133 3532   5.700   5.204   3.425 -1.2473  0.8999  1.8313
    9CHTO   C75 3533   5.796   5.027   3.251  0.4411  0.3872  0.5568
    9CHTO  H147 3534   5.786   4.954   3.170  0.9306  1.3070 -0.3474
    9CHTO   N13 3535   5.818   5.153   3.179  0.1026 -0.9022  0.6447
    9CHTO  H139 3536   5.723   5.184   3.138  1.2242  1.8152 -0.0346
    9CHTO  H140 3537   5.857   5.228   3.246 -0.1055 -0.3417  0.1377
    9CHTO   C76 3538   5.922   4.979   3.333  0.1183  0.3172  0.4812
    9CHTO  H148 3539   5.956   5.056   3.403  0.5273  0.7546 -0.1899
    9CHTO   O49 3540   5.900   4.850   3.400 -0.1767 -0.4790  0.9017
    9CHTO   C77 3541   5.785   4.832   3.480 -0.0345  0.0720 -0.0599
    9CHTO  H149 3542   5.794   4.896   3.568  0.1915 -0.8615  0.6049
    9CHTO   C88 3543   5.800   4.684   3.526  0.3504 -0.3643 -0.3230
    9CHTO   O58 3544   5.695   4.628   3.625 -0.3875 -0.5439  0.0620
    9CHTO  H136 3545   5.696   4.535   3.637 -0.4858 -0.2933  2.2355
    9CHTO   O51 3546   6.038   4.943   3.237  0.1435 -0.6030 -0.1425
    9CHTO   C78 3547   6.191   4.940   3.279  0.1241  0.4119 -0.0713
    9CHTO  H150 3548   6.203   4.988   3.378  0.9603  1.1386 -0.5209
    9CHTO   C80 3549   6.268   5.040   3.180  0.3402 -0.1055 -0.4266
    9CHTO  H152 3550   6.252   5.012   3.074  0.5831  1.5419 -0.9120
    9CHTO   O55 3551   6.214   5.171   3.200  0.5216  0.1919 -0.0020
    9CHTO  H134 3552   6.142   5.179   3.140  0.5526  0.4599 -0.0036
    9CHTO   C84 3553   6.420   5.032   3.210 -0.2671 -0.3325  0.1133
    9CHTO  H156 3554   6.432   5.092   3.301  0.8747 -0.8311  0.3102
    9CHTO   N15 3555   6.506   5.100   3.108  0.5801 -0.1478 -0.2698
    9CHTO  H143 3556   6.608   5.067   3.115  0.3122 -0.8273  0.5158
    9CHTO  H144 3557   6.468   5.081   3.010 -1.1548  0.6578  0.2340
    9CHTO   C87 3558   6.484   4.891   3.233 -0.0309  0.0996 -0.1984
    9CHTO  H159 3559   6.502   4.831   3.144  1.8411 -0.5094  0.5681
    9CHTO   O53 3560   6.384   4.814   3.321  0.1777 -0.2444  0.1865
    9CHTO   C82 3561   6.251   4.799   3.267  0.3716 -0.3052  0.3894
    9CHTO  H154 3562   6.258   4.768   3.162 -0.8424  0.0915  0.1866
    9CHTO   C89 3563   6.165   4.687   3.343  0.0922 -0.3357  0.1026
    9CHTO   O59 3564   6.110   4.577   3.263 -0.0453  0.3616 -0.2945
    9CHTO  H137 3565   6.032   4.608   3.222  0.3389  1.0196 -0.5394
    9CHTO   O45 3566   6.630   4.906   3.312  0.1075 -0.4484  0.0305
    9CHTO   C67 3567   6.686   4.785   3.361  0.2961 -0.4878  0.2336
    9CHTO  H124 3568   6.606   4.719   3.392  0.8163 -1.3591 -0.2428
    9CHTO   C65 3569   6.773   4.715   3.251 -0.8627 -0.6038 -0.1966
    9CHTO  H122 3570   6.821   4.792   3.192  2.0002 -1.6468  0.6881
    9CHTO   O44 3571   6.687   4.627   3.180  0.0067  0.7504  0.2847
    9CHTO  H102 3572   6.649   4.562   3.237 -0.9992  0.6794 -0.4543
    9CHTO   C63 3573   6.898   4.639   3.323 -0.6669  0.4626  0.1144
    9CHTO  H120 3574   6.978   4.708   3.348  0.4506 -1.2003  1.2516
    9CHTO   N11 3575   6.964   4.537   3.236  0.6181 -0.1886 -0.0807
    9CHTO  H108 3576   6.967   4.446   3.291  1.3001 -0.9764 -1.4042
    9CHTO  H109 3577   7.066   4.561   3.216  0.9048 -0.1761  1.3924
    9CHTO   C61 3578   6.851   4.584   3.464  1.0246  0.1034  0.5538
    9CHTO  H118 3579   6.944   4.551   3.514 -0.1431  0.2605  2.9069
    9CHTO   O40 3580   6.796   4.689   3.553  0.3788 -0.7166 -0.3444
    9CHTO   C68 3581   6.765   4.818   3.498  0.1687 -0.5594 -0.3318
    9CHTO  H125 3582   6.859   4.876   3.484  1.0339 -1.9646 -0.4515
    9CHTO   C72 3583   6.685   4.890   3.611  0.1652  0.0626  0.5156
    9CHTO   O48 3584   6.638   5.019   3.572 -0.0218  0.3389  0.2521
    9CHTO  H105 3585   6.592   5.063   3.641 -1.4696 -1.0290  0.1990
    9CHTO   O38 3586   6.744   4.477   3.455  0.9800 -0.2119 -0.4307
    9CHTO   C55 3587   6.721   4.401   3.571 -0.9489  0.3965  0.1659
    9CHTO  H112 3588   6.763   4.456   3.656 -0.1855 -2.2570  1.5361
    9CHTO   C56 3589   6.783   4.256   3.559  0.1446 -0.0546 -0.2021
    9CHTO  H113 3590   6.742   4.197   3.476 -2.5083 -0.0183  1.0214
    9CHTO   O42 3591   6.922   4.265   3.535 -0.9994 -0.0630 -0.1143
    9CHTO  H100 3592   6.953   4.180   3.509 -0.5205  0.5969 -1.7795
    9CHTO   C57 3593   6.748   4.175   3.692  0.5509 -0.3038 -0.4557
    9CHTO  H114 3594   6.799   4.217   3.779 -1.2667 -2.1343  1.5418
    9CHTO   N10 3595   6.800   4.042   3.692 -0.0316  1.0302  0.4247
    9CHTO  H106 3596   6.893   4.041   3.745 -1.1371 -1.0358  2.4247
    9CHTO  H107 3597   6.728   3.984   3.747  0.7685 -0.6426 -0.2657
    9CHTO   C58 3598   6.592   4.183   3.714  0.3604  0.0376 -0.2993
    9CHTO  H115 3599   6.538   4.125   3.636 -0.6512 -0.3950  0.7227
    9CHTO   O37 3600   6.537   4.317   3.709  0.3046  0.0559 -0.0359
    9CHTO   C59 3601   6.563   4.392   3.590  0.2454  0.0521 -0.0116
    9CHTO  H116 3602   6.503   4.352   3.509 -0.8022 -2.6056  2.0012
    9CHTO   C70 3603   6.498   4.529   3.626 -0.9138  0.4035  0.4292
    9CHTO   O46 3604   6.397   4.567   3.530 -0.2621  0.2382  0.1098
    9CHTO  H103 3605   6.362   4.491   3.487 -0.9494  0.6131 -0.0044
    9CHTO   O39 3606   6.547   4.137   3.860  0.2350 -0.0312  0.1515
    9CHTO   C60 3607   6.404   4.153   3.883  0.8846  0.0408  0.2162
    9CHTO  H117 3608   6.366   4.243   3.835  1.4372  0.1255 -0.0701
    9CHTO   C62 3609   6.323   4.036   3.820 -0.8923 -0.0154 -0.1296
    9CHTO  H119 3610   6.342   4.047   3.712 -1.4744  2.9587  0.0303
    9CHTO   O43 3611   6.369   3.909   3.876 -0.4609  0.3767  0.3466
    9CHTO  H101 3612   6.445   3.877   3.832 -1.3361  0.5458 -1.3281
    9CHTO   C66 3613   6.166   4.058   3.844  0.0793  0.6592 -0.5013
    9CHTO  H123 3614   6.134   4.150   3.794  0.1147  0.7510 -0.3540
    9CHTO   N12 3615   6.082   3.948   3.789 -0.1775 -0.3624  0.3053
    9CHTO  H110 3616   5.993   3.932   3.849 -0.0149 -0.7770  0.4349
    9CHTO  H111 3617   6.051   3.980   3.691 -2.9102  3.3968  2.2454
    9CHTO   C69 3618   6.144   4.072   3.993 -0.7916 -0.4893 -0.4671
    9CHTO  H126 3619   6.165   3.971   4.033  1.8185  0.0299 -0.4850
    9CHTO   O41 3620   6.237   4.177   4.058  0.2036 -0.2368  0.1171
    9CHTO   C64 3621   6.381   4.163   4.033 -0.6603 -0.1722 -0.3885
    9CHTO  H121 3622   6.424   4.070   4.077 -2.2910 -1.1779 -0.8770
    9CHTO   C71 3623   6.440   4.277   4.111 -0.2301  0.2595 -0.7015
    9CHTO   O47 3624   6.402   4.269   4.251 -0.0805 -0.3667  0.2138
    9CHTO  H104 3625   6.477   4.294   4.300  0.0751 -0.6197  0.1109
    9CHTO   O34 3626   6.006   4.117   4.021 -0.0486  0.1429  0.2972
    9CHTO   C49 3627   5.906   4.052   4.162 -0.2819  0.2806  0.0226
    9CHTO   H91 3628   5.802   4.061   4.130 -0.6681 -1.3046  0.7985
    9CHTO   C47 3629   5.921   4.142   4.285 -0.4190 -0.3204 -0.4912
    9CHTO   H89 3630   5.816   4.145   4.321 -0.7908  0.3220 -1.6027
    9CHTO   O33 3631   5.957   4.276   4.245 -0.0934  0.8083  0.1927
    9CHTO   H70 3632   5.952   4.333   4.319 -2.0058  0.6335  0.2206
    9CHTO   C45 3633   6.020   4.081   4.399 -0.8187 -0.2361 -0.7888
    9CHTO   H87 3634   6.090   4.160   4.428  1.4918 -1.0183 -3.9102
    9CHTO    N8 3635   5.947   4.041   4.518 -0.3402  0.5272 -0.0995
    9CHTO   H75 3636   6.011   4.015   4.601 -0.7712  1.1549  0.4456
    9CHTO   H76 3637   5.868   3.970   4.502 -1.6341  2.1234 -1.0266
    9CHTO   C43 3638   6.119   3.972   4.334  0.5869 -0.3296  0.6016
    9CHTO   H85 3639   6.176   4.025   4.259  1.2402 -0.2711  1.1342
    9CHTO   O29 3640   6.040   3.869   4.276  0.0544 -0.1365  0.2254
    9CHTO   C50 3641   5.932   3.901   4.185  0.4164  0.7427 -0.3302
    9CHTO   H92 3642   5.962   3.855   4.089  2.3342 -1.6415  1.3632
    9CHTO   C54 3643   5.803   3.827   4.231 -0.1199  0.6107  0.3068
    9CHTO   O36 3644   5.816   3.690   4.197 -0.3404  0.3038 -0.2544
    9CHTO   H72 3645   5.735   3.649   4.221 -0.2602  0.9709  1.2340
    9CHTO   O27 3646   6.216   3.919   4.422 -0.0712 -0.0634  0.0043
    9CHTO   C37 3647   6.350   3.928   4.472  0.3950  0.1737  0.7930
    9CHTO   H79 3648   6.363   3.849   4.548  0.2282 -2.0961 -1.4456
    9CHTO   C38 3649   6.450   3.920   4.359 -0.5655  0.2867 -0.5451
    9CHTO   H80 3650   6.419   3.992   4.282  0.0442  1.3557  0.1885
    9CHTO   O31 3651   6.452   3.788   4.312 -0.1499  0.2565  0.2032
    9CHTO   H68 3652   6.541   3.759   4.307 -0.7256 -1.4262 -0.5553
    9CHTO   C39 3653   6.600   3.965   4.406  0.2248  0.4372 -0.1871
    9CHTO   H81 3654   6.648   3.899   4.478 -2.7036  0.7130  2.1690
    9CHTO    N7 3655   6.690   3.976   4.286  0.4422 -0.3152 -0.2269
    9CHTO   H73 3656   6.663   4.069   4.239 -1.9640 -1.8436 -2.0083
    9CHTO   H74 3657   6.678   3.901   4.209  0.2208  0.5511 -1.0456
    9CHTO   C40 3658   6.593   4.096   4.482 -0.6458  0.2577 -0.5292
    9CHTO   H82 3659   6.561   4.184   4.425  0.7205  1.1169  0.0020
    9CHTO   O26 3660   6.506   4.070   4.593 -0.3122  0.6055  0.2856
    9CHTO   C41 3661   6.368   4.065   4.544  0.2243 -0.1560 -0.0615
    9CHTO   H83 3662   6.343   4.150   4.478  0.1444 -0.5742 -0.5669
    9CHTO   C52 3663   6.272   4.085   4.664 -0.0190  0.3542  0.7637
    9CHTO   O35 3664   6.282   4.231   4.710 -0.1549  0.0122  0.2495
    9CHTO   H71 3665   6.236   4.246   4.790  0.6257  0.8000  0.5603
    9CHTO   O28 3666   6.720   4.129   4.532  0.3257 -0.6533 -0.2189
    9CHTO   C42 3667   6.746   4.253   4.607 -0.3826  0.3761  0.4154
    9CHTO   H84 3668   6.843   4.240   4.656  0.6602 -1.0229 -1.9551
    9CHTO   C44 3669   6.647   4.293   4.726 -0.0944  0.7572 -0.0280
    9CHTO   H86 3670   6.543   4.278   4.695 -0.1897 -1.0388  1.0445
    9CHTO   O32 3671   6.675   4.194   4.829 -0.4096 -0.2546 -0.8085
    9CHTO   H69 3672   6.608   4.200   4.894  1.2908  0.0875  0.9748
    9CHTO   C48 3673   6.663   4.449   4.772  0.3622 -0.9567  0.1148
    9CHTO   H90 3674   6.758   4.470   4.821 -0.0004  0.4038  0.2593
    9CHTO    N9 3675   6.560   4.486   4.878  0.0853  0.3277 -0.1647
    9CHTO   H77 3676   6.563   4.590   4.909 -0.6797 -0.4180  2.5296
    9CHTO   H78 3677   6.457   4.457   4.860  0.2394 -0.7040  0.5650
    9CHTO   C51 3678   6.649   4.540   4.647  0.5628 -0.0292 -0.2275
    9CHTO   H93 3679   6.563   4.499   4.592 -1.4693  0.8524  2.2242
    9CHTO   O30 3680   6.774   4.515   4.574 -0.4306  0.6014 -0.6267
    9CHTO   C46 3681   6.761   4.373   4.504  0.4436  0.6612 -0.1887
    9CHTO   H88 3682   6.676   4.374   4.435  0.5630  2.2403 -0.3386
    9CHTO   C53 3683   6.896   4.358   4.436 -0.3345  0.1608 -0.7371
    9CHTO   O72 3684   6.872   4.300   4.307 -0.3594 -0.5440 -0.2055
    9CHTO  H199 3685   6.859   4.207   4.311 -0.9367 -0.4191  0.9308
    9CHTO   O22 3686   6.633   4.678   4.666 -0.6714  0.3502  0.1955
    9CHTO   C31 3687   6.540   4.752   4.579 -0.0180 -0.1671 -0.1635
    9CHTO   H59 3688   6.523   4.852   4.625 -0.7111 -1.1132  1.6930
    9CHTO   C29 3689   6.594   4.776   4.439  0.0662 -0.1454 -0.7503
    9CHTO   H57 3690   6.624   4.681   4.392  0.8061 -0.8636  1.1062
    9CHTO   O21 3691   6.712   4.842   4.461 -0.2091  0.2028  0.5243
    9CHTO   H37 3692   6.712   4.890   4.542  1.9132  0.0738  0.6235
    9CHTO   C27 3693   6.495   4.849   4.335 -0.3260 -0.0442  0.5790
    9CHTO   H55 3694   6.472   4.950   4.374  1.5515  0.6689 -0.0945
    9CHTO    N5 3695   6.552   4.863   4.194 -0.1734 -0.1835  0.3077
    9CHTO   H43 3696   6.653   4.897   4.181 -0.2595 -0.1993 -0.4284
    9CHTO   H44 3697   6.487   4.928   4.137  1.7695  3.1397  1.7508
    9CHTO   C25 3698   6.365   4.771   4.335 -0.7752  0.2814  0.2960
    9CHTO   H53 3699   6.382   4.669   4.298 -0.6793  0.1864  0.6045
    9CHTO   O17 3700   6.321   4.754   4.471  0.4313  0.1789 -0.3132
    9CHTO   C32 3701   6.399   4.692   4.570  0.4005  0.6148  0.2734
    9CHTO   H60 3702   6.407   4.591   4.529  1.9687  1.1073 -0.6729
    9CHTO   C36 3703   6.328   4.703   4.711 -0.4327 -0.5172  0.0527
    9CHTO   O25 3704   6.219   4.615   4.721  0.0001 -0.1341  0.8654
    9CHTO   H40 3705   6.146   4.640   4.667 -0.3169 -0.6657  1.0507
    9CHTO   O15 3706   6.242   4.834   4.247  0.1286 -0.3660  0.6239
    9CHTO   C19 3707   6.147   4.755   4.165  0.0263 -0.4125  0.0016
    9CHTO   H47 3708   6.069   4.831   4.149  0.2240 -0.5567 -1.6548
    9CHTO   C20 3709   6.195   4.697   4.027  0.9335  0.5647  0.2260
    9CHTO   H48 3710   6.260   4.609   4.038  1.4490  0.9042 -0.0417
    9CHTO   O19 3711   6.260   4.803   3.949  0.7053  0.3825  0.5587
    9CHTO   H35 3712   6.298   4.862   4.011  2.3387  0.6478 -0.6692
    9CHTO   C21 3713   6.068   4.639   3.948  0.2183 -0.3821  0.6186
    9CHTO   H49 3714   6.005   4.723   3.920  0.8080 -0.4236 -0.9003
    9CHTO    N4 3715   6.102   4.571   3.816 -0.3965 -0.1429 -0.1135
    9CHTO   H41 3716   6.071   4.630   3.731 -1.9564 -1.6507 -0.6220
    9CHTO   H42 3717   6.055   4.474   3.809 -1.7528  0.4517  0.6421
    9CHTO   C22 3718   5.976   4.551   4.038  0.3670  0.1889  0.0809
    9CHTO   H50 3719   6.027   4.456   4.054 -0.4263 -0.2967 -0.2545
    9CHTO   O14 3720   5.959   4.609   4.170 -0.1691 -0.6387  0.2156
    9CHTO   C23 3721   6.078   4.638   4.243  1.1316  0.5246 -0.4457
    9CHTO   H51 3722   6.135   4.544   4.240  3.2629  1.6927  1.3675
    9CHTO   C34 3723   6.037   4.671   4.389  0.4085 -0.0465  0.2009
    9CHTO   O23 3724   5.996   4.553   4.463  0.2769 -0.0100  0.1172
    9CHTO   H38 3725   5.915   4.530   4.422 -0.6723 -1.1029  2.5495
    9CHTO   O16 3726   5.846   4.548   3.974 -0.5674 -0.3272  0.1734
    9CHTO   C24 3727   5.780   4.410   3.981 -0.1991 -0.0975  0.0861
    9CHTO   H52 3728   5.844   4.342   4.037  1.8409  2.3403  0.7872
    9CHTO   C26 3729   5.752   4.348   3.846 -0.1865  0.4789 -0.0925
    9CHTO   H54 3730   5.682   4.420   3.798 -0.9034  0.5025  0.9672
    9CHTO   O20 3731   5.874   4.353   3.772 -0.1773  0.7595 -0.5442
    9CHTO   H36 3732   5.860   4.359   3.679  2.3453  0.3174 -0.9841
    9CHTO   C30 3733   5.693   4.207   3.863 -0.2749  0.1484 -0.8636
    9CHTO   H58 3734   5.766   4.139   3.909  1.0886  0.6912 -2.1643
    9CHTO    N6 3735   5.661   4.148   3.731  0.0521 -0.5477 -0.0499
    9CHTO   H45 3736   5.634   4.044   3.737  1.8437 -0.9767  1.0179
    9CHTO   H46 3737   5.576   4.202   3.691 -0.7970 -1.2568  0.7649
    9CHTO   C33 3738   5.575   4.207   3.964 -1.0299 -0.1804  0.3017
    9CHTO   H61 3739   5.487   4.253   3.915 -1.2732 -1.4932 -0.5471
    9CHTO   O18 3740   5.605   4.281   4.083 -0.0519  0.1813  0.8259
    9CHTO   C28 3741   5.645   4.414   4.058 -0.4543 -0.2131  0.7872
    9CHTO   H56 3742   5.571   4.459   3.992 -0.8109  1.6436  2.4066
    9CHTO   C35 3743   5.643   4.496   4.189 -0.4410 -0.0283 -0.8362
    9CHTO   O24 3744   5.504   4.517   4.230  0.5352  0.1459 -0.0901
    9CHTO   H39 3745   5.470   4.437   4.265 -0.1564  0.7135  0.5501
    9CHTO    O9 3746   5.528   4.073   4.000  0.1128  0.3507  0.4962
    9CHTO   C13 3747   5.383   4.017   3.931  0.2175 -0.3449  0.8441
    9CHTO   H26 3748   5.412   4.004   3.824  0.1098  2.0908  0.4957
    9CHTO   C11 3749   5.256   4.118   3.941 -0.7123  0.1880 -1.2229
    9CHTO   H24 3750   5.262   4.189   3.857 -2.8395  1.5077 -0.3125
    9CHTO    O8 3751   5.260   4.193   4.060  0.6440 -0.1565 -0.3086
    9CHTO    H3 3752   5.294   4.134   4.125  2.4888  0.1318 -0.9944
    9CHTO    C9 3753   5.124   4.035   3.920  0.4071  0.1741 -0.0250
    9CHTO   H22 3754   5.136   3.991   3.820 -2.8393 -0.0670 -0.3622
    9CHTO    N2 3755   5.012   4.130   3.902  0.5986  0.7183  0.5034
    9CHTO   H10 3756   5.037   4.231   3.874 -1.1614  0.9947 -0.1369
    9CHTO   H11 3757   4.944   4.115   3.984 -2.2049  0.9748 -1.7087
    9CHTO    C7 3758   5.120   3.922   4.032 -0.9310 -0.3012  0.5833
    9CHTO   H20 3759   5.018   3.880   4.026 -0.5025 -1.8615  3.1075
    9CHTO    O4 3760   5.222   3.823   4.008 -0.2219  0.6075  0.1210
    9CHTO   C14 3761   5.361   3.868   3.986 -0.5363 -0.2582 -0.3922
    9CHTO   H27 3762   5.393   3.799   3.906  0.2672  1.2700 -1.4158
    9CHTO   C18 3763   5.440   3.833   4.118 -0.9387  0.0989  0.5212
    9CHTO   O13 3764   5.436   3.691   4.150 -0.1048 -0.0598 -0.0463
    9CHTO    H7 3765   5.356   3.651   4.122 -0.6715  1.1094 -0.1462
    9CHTO    O2 3766   5.131   3.979   4.193  0.3941 -0.3029 -0.2047
    9CHTO    C1 3767   5.024   3.935   4.278 -0.1656  0.2356 -0.4839
    9CHTO   H14 3768   4.980   3.852   4.219 -0.9750  0.3913 -0.1002
    9CHTO    C2 3769   4.905   4.040   4.311 -0.7655 -0.2468 -0.6699
    9CHTO   H15 3770   4.958   4.125   4.356 -0.4144  0.0827 -1.7012
    9CHTO    O6 3771   4.840   4.075   4.187 -0.4932  0.3582 -0.2549
    9CHTO    H1 3772   4.866   4.158   4.152 -0.4949  0.2899 -0.4183
    9CHTO    C3 3773   4.800   3.985   4.422  0.3388  0.1002  0.1930
    9CHTO   H16 3774   4.738   3.908   4.374 -1.2209  1.4482 -0.0008
    9CHTO    N1 3775   4.699   4.087   4.474 -0.4372 -0.7843 -0.1929
    9CHTO    H8 3776   4.750   4.163   4.531 -3.8430  1.7661 -0.3751
    9CHTO    H9 3777   4.630   4.037   4.541  0.0349  2.3087  2.7564
    9CHTO    C4 3778   4.876   3.902   4.533 -0.9176  0.3283 -0.7528
    9CHTO   H17 3779   4.934   3.972   4.593  0.8213 -3.4389  2.2214
    9CHTO    O1 3780   4.971   3.806   4.479  0.2536  0.4518 -0.2457
    9CHTO    C5 3781   5.077   3.871   4.407 -0.6618  0.0177  0.0893
    9CHTO   H18 3782   5.113   3.955   4.466 -1.2384 -0.4439  1.1294
    9CHTO   C16 3783   5.193   3.777   4.382  0.7569 -0.0549  0.4507
    9CHTO   O11 3784   5.144   3.673   4.296  0.1283  0.0302 -0.1069
    9CHTO    H5 3785   5.205   3.647   4.230  0.4267 -1.7534  0.8344
    9CHTO    O3 3786   4.800   3.815   4.612  0.0867 -0.3013  0.2083
    9CHTO    C6 3787   4.844   3.803   4.753 -0.2185 -0.0473  0.5606
    9CHTO   H19 3788   4.925   3.871   4.779  0.4882  0.3232 -2.4879
    9CHTO    C8 3789   4.727   3.849   4.841 -0.4554  0.1307 -0.1430
    9CHTO   H21 3790   4.639   3.799   4.803 -0.1786 -0.7468  0.3585
    9CHTO    O7 3791   4.700   3.989   4.819  0.4625  0.4040 -0.0947
    9CHTO    H2 3792   4.680   4.007   4.729  0.3862  2.9016  0.3895
    9CHTO   C12 3793   4.745   3.813   4.996 -0.0634 -0.1943 -0.2346
    9CHTO   H25 3794   4.808   3.893   5.040 -2.9865  1.5311  0.9236
    9CHTO    N3 3795   4.614   3.830   5.073 -0.1570  0.2633 -0.1491
    9CHTO   H12 3796   4.581   3.737   5.117 -0.9888  1.2619  1.3897
    9CHTO   H13 3797   4.623   3.897   5.157 -1.7557 -0.3032  0.4774
    9CHTO   C15 3798   4.812   3.676   5.018  0.0557 -0.2260  0.9451
    9CHTO   H28 3799   4.748   3.591   4.993 -0.1899 -0.1734  1.4000
    9CHTO   O10 3800   4.869   3.658   5.156  0.8264 -0.1130  0.2027
    9CHTO    H4 3801   4.956   3.693   5.155  0.8875 -0.2461  0.8342
    9CHTO    O5 3802   4.927   3.668   4.930 -0.1159  0.0015  0.0703
    9CHTO   C10 3803   4.896   3.664   4.790 -0.1568  0.3755 -0.1905
    9CHTO   H23 3804   4.817   3.595   4.762  0.4419 -0.0440 -0.8704
    9CHTO   C17 3805   5.024   3.623   4.725  0.1425  0.5335 -0.0017
    9CHTO   O12 3806   5.051   3.485   4.731  0.1099 -0.4969 -0.1615
    9CHTO    H6 3807   5.079   3.466   4.643 -1.0548 -1.4588 -0.3305
   10CHTO  H203 3808   5.109   6.717   4.032  0.6018  1.1764  3.4871
   10CHTO   O82 3809   5.132   6.630   4.062 -0.2410 -0.2639  0.1757
   10CHTO  C123 3810   5.014   6.544   4.057 -1.0487  0.5665  0.2143
   10CHTO  H227 3811   4.984   6.529   3.952 -0.1627 -0.9436  0.1660
   10CHTO   O77 3812   5.067   6.418   4.115  0.3792  0.2390 -0.0759
   10CHTO  C118 3813   4.968   6.316   4.129 -0.3180  0.7287  0.5729
   10CHTO  H222 3814   4.942   6.290   4.026  0.3072  0.6869  0.4215
   10CHTO  C125 3815   5.051   6.199   4.184 -0.5828  0.2070 -0.2499
   10CHTO   O84 3816   5.090   6.219   4.318 -0.0945 -0.0148  0.0998
   10CHTO  H205 3817   5.007   6.229   4.361  0.2872 -0.0076  0.8375
   10CHTO  C114 3818   4.847   6.356   4.212 -0.2012 -0.3344 -0.6180
   10CHTO  H218 3819   4.874   6.362   4.318 -2.1063 -2.2224  0.0382
   10CHTO  C116 3820   4.782   6.488   4.168 -0.3375  0.9303  0.5449
   10CHTO  H220 3821   4.720   6.470   4.078  2.0544 -0.7883 -0.8124
   10CHTO   O79 3822   4.686   6.538   4.260 -0.6849  0.2072  0.4371
   10CHTO  H201 3823   4.604   6.494   4.273 -1.6353  1.9376  0.3914
   10CHTO  C120 3824   4.893   6.593   4.142  0.9592 -0.4679 -0.0554
   10CHTO  H224 3825   4.927   6.604   4.247  0.8194 -2.6031  0.2251
   10CHTO   N21 3826   4.830   6.716   4.090  0.3576  1.0930 -0.2695
   10CHTO  H211 3827   4.746   6.749   4.148 -0.7523  1.2695 -1.9461
   10CHTO  H212 3828   4.907   6.789   4.068 -0.4356  2.1447  0.4039
   10CHTO   O75 3829   4.749   6.250   4.206  0.3605 -0.2444 -0.0992
   10CHTO  C112 3830   4.713   6.175   4.346  0.2577  0.2503 -0.2638
   10CHTO  H216 3831   4.733   6.249   4.425 -0.3813 -2.5506  2.6058
   10CHTO   O73 3832   4.807   6.065   4.363 -0.5036  0.4793 -0.1760
   10CHTO  C113 3833   4.805   5.987   4.484  0.6246  0.0119 -0.9232
   10CHTO  H217 3834   4.837   6.053   4.568 -0.6346  0.0982 -0.5124
   10CHTO  C124 3835   4.905   5.867   4.471  0.3506  0.1704 -0.8102
   10CHTO   O83 3836   5.042   5.921   4.478 -0.0230  0.3556  0.2095
   10CHTO  H204 3837   5.079   5.889   4.558 -0.2331 -2.2606 -0.7128
   10CHTO  C109 3838   4.653   5.933   4.509 -0.6139  0.4984  0.0089
   10CHTO  H213 3839   4.640   5.854   4.434  3.0744  0.8338 -1.1214
   10CHTO  C110 3840   4.545   6.050   4.494 -0.0055 -0.5933 -0.1023
   10CHTO  H214 3841   4.561   6.125   4.571 -0.2723 -0.7174  0.0736
   10CHTO   O78 3842   4.421   5.987   4.517  0.8352 -0.7705 -0.3775
   10CHTO  H200 3843   4.387   5.935   4.446 -0.9841  0.5433 -0.5230
   10CHTO  C111 3844   4.562   6.114   4.352 -0.0104  0.7798 -0.5062
   10CHTO  H215 3845   4.563   6.037   4.273  2.7400 -1.5479  1.6807
   10CHTO   N19 3846   4.463   6.216   4.323  0.7663 -0.0628 -0.1908
   10CHTO  H207 3847   4.387   6.161   4.270  0.1966  2.5377 -2.1796
   10CHTO  H208 3848   4.510   6.283   4.252 -1.1215 -0.4547 -1.8312
   10CHTO   O74 3849   4.656   5.876   4.644 -0.1460 -0.3610 -0.2758
   10CHTO  C115 3850   4.547   5.752   4.673 -0.1153  0.0245  0.2111
   10CHTO  H219 3851   4.446   5.792   4.682 -0.5327 -0.5230 -1.7949
   10CHTO   O76 3852   4.538   5.639   4.541 -0.1000  0.0599  0.3725
   10CHTO  C122 3853   4.439   5.539   4.558  0.0683 -0.0386 -0.2434
   10CHTO  H226 3854   4.444   5.458   4.486 -2.7484  0.5739 -1.1873
   10CHTO  C126 3855   4.298   5.599   4.543  0.1453 -0.4490  0.0635
   10CHTO   O85 3856   4.285   5.666   4.418  0.1038  0.0337 -0.4199
   10CHTO  H206 3857   4.310   5.611   4.346  0.5801 -1.2771  0.7267
   10CHTO  C121 3858   4.457   5.459   4.698 -0.0146  1.1420 -0.5938
   10CHTO  H225 3859   4.372   5.390   4.715 -0.2038  1.0793 -1.7764
   10CHTO   O81 3860   4.579   5.380   4.696  0.8542  0.2096  0.4518
   10CHTO  H202 3861   4.561   5.295   4.663 -0.6590 -0.1214  2.0917
   10CHTO  C119 3862   4.468   5.562   4.819 -0.6181  0.2383  0.4061
   10CHTO  H223 3863   4.373   5.615   4.824  0.2465  1.8810 -0.0068
   10CHTO  C117 3864   4.579   5.671   4.804 -0.5825  0.1960 -0.4762
   10CHTO  H221 3865   4.681   5.633   4.800  0.9634  3.9465  0.5351
   10CHTO   N20 3866   4.585   5.767   4.923  0.2001  0.5153  0.0471
   10CHTO  H209 3867   4.622   5.726   5.016  0.9525 -3.0456 -1.7611
   10CHTO  H210 3868   4.484   5.807   4.924 -0.2899 -0.6378 -1.5405
   10CHTO   O80 3869   4.464   5.491   4.945  0.3300  0.6940  0.7318
   10CHTO  C103 3870   4.326   5.402   4.986  0.3476  0.5325  0.0704
   10CHTO  H190 3871   4.260   5.424   4.902  0.3264  3.2244  0.7420
   10CHTO  C101 3872   4.346   5.249   5.010 -0.8031  0.0010  0.0559
   10CHTO  H188 3873   4.415   5.243   5.094 -0.7340 -0.4568 -0.0350
   10CHTO   O68 3874   4.427   5.190   4.884 -0.2731 -0.0290  0.0387
   10CHTO  H168 3875   4.506   5.241   4.878  0.8695 -1.6622  0.5920
   10CHTO   C99 3876   4.197   5.183   5.047 -0.0929  0.7855  0.0914
   10CHTO  H186 3877   4.127   5.190   4.961  1.1104  0.1982 -0.9498
   10CHTO   N17 3878   4.205   5.034   5.073  0.4597  0.1716 -0.2555
   10CHTO  H174 3879   4.257   4.983   4.993  0.7018 -1.0527  0.6588
   10CHTO  H175 3880   4.248   5.010   5.169 -0.6302 -0.9367 -0.0225
   10CHTO   C97 3881   4.137   5.260   5.168 -0.6552 -0.5311  0.2236
   10CHTO  H184 3882   4.199   5.243   5.258  0.6209  1.0073 -0.3477
   10CHTO   O64 3883   4.136   5.401   5.135  0.1025 -0.4807  0.1422
   10CHTO  C104 3884   4.265   5.464   5.114  0.8749 -0.1262  0.3363
   10CHTO  H191 3885   4.328   5.432   5.196  0.1731 -1.6864  0.2929
   10CHTO  C108 3886   4.274   5.612   5.107 -0.6007  0.1409 -0.5763
   10CHTO   O71 3887   4.252   5.655   5.240 -0.3794  0.3519  0.3360
   10CHTO  H171 3888   4.189   5.724   5.247 -0.3568  0.6777 -2.1911
   10CHTO   O62 3889   4.004   5.215   5.209 -0.5587 -0.3590  0.4891
   10CHTO   C91 3890   3.957   5.256   5.339  0.2600  0.3638  0.1923
   10CHTO  H178 3891   4.022   5.330   5.384  0.3632  1.2428 -1.3494
   10CHTO   C92 3892   3.960   5.142   5.447 -0.4335  0.2494 -0.4072
   10CHTO  H179 3893   3.913   5.049   5.412  0.9915 -0.7094  0.1914
   10CHTO   O66 3894   4.099   5.099   5.460  0.0186  0.0750  0.1813
   10CHTO  H166 3895   4.150   5.165   5.503 -2.0081  1.7605  0.1052
   10CHTO   C93 3896   3.906   5.189   5.587  0.0327  0.3833 -0.4511
   10CHTO  H180 3897   3.981   5.264   5.615  0.5180 -0.8139  1.5012
   10CHTO   N16 3898   3.908   5.087   5.695 -0.4203 -0.5449 -0.4905
   10CHTO  H172 3899   3.872   5.130   5.788 -1.1731 -0.5557 -0.7730
   10CHTO  H173 3900   4.015   5.077   5.708 -0.5377 -0.2159  0.7942
   10CHTO   C94 3901   3.769   5.266   5.570  0.0294  0.1003 -0.1233
   10CHTO  H181 3902   3.687   5.198   5.546  0.4706 -1.4346  2.4422
   10CHTO   O61 3903   3.776   5.366   5.469 -0.2634 -0.7216 -0.0115
   10CHTO   C95 3904   3.822   5.329   5.340 -0.2837 -0.6759 -0.0741
   10CHTO  H182 3905   3.748   5.271   5.285 -0.1116 -0.7503 -0.2272
   10CHTO  C106 3906   3.838   5.456   5.258  0.1534 -0.3260 -0.4428
   10CHTO   O69 3907   3.915   5.556   5.334 -0.1030 -0.3759 -0.0271
   10CHTO  H169 3908   4.001   5.522   5.353 -0.5330 -0.4840  1.8014
   10CHTO   O63 3909   3.732   5.340   5.715 -0.2214 -0.0595 -0.0908
   10CHTO   C96 3910   3.819   5.466   5.761  0.2654  0.4576 -0.3086
   10CHTO  H183 3911   3.896   5.488   5.688 -0.2013  1.1757 -0.5940
   10CHTO   C98 3912   3.903   5.453   5.897  0.6449 -0.2754 -0.1233
   10CHTO  H185 3913   3.836   5.423   5.979  0.4808  1.0024  0.2265
   10CHTO   O67 3914   4.007   5.352   5.883 -0.9016 -0.4482 -0.0192
   10CHTO  H167 3915   4.008   5.295   5.958  1.8161 -1.7261 -0.9404
   10CHTO  C102 3916   3.973   5.591   5.936  0.2797  0.1523  0.0041
   10CHTO  H189 3917   4.054   5.606   5.864 -1.8469 -1.0961 -2.7218
   10CHTO   N18 3918   4.034   5.593   6.075 -0.3768 -0.3041  0.2267
   10CHTO  H176 3919   4.139   5.610   6.058 -0.2338 -2.1432 -0.8490
   10CHTO  H177 3920   3.990   5.659   6.148  1.4632  2.3532 -0.9737
   10CHTO  C105 3921   3.869   5.710   5.918  0.2919 -0.3326  0.0070
   10CHTO  H192 3922   3.800   5.705   6.002  0.9260  3.3950  0.8656
   10CHTO   O65 3923   3.797   5.711   5.796 -0.5271  0.4446 -0.1864
   10CHTO  C100 3924   3.723   5.591   5.772 -0.1773 -0.3167 -0.1989
   10CHTO  H187 3925   3.658   5.579   5.860  1.5736  0.0672  1.1784
   10CHTO  C107 3926   3.636   5.610   5.649 -0.3796  0.5339  0.0688
   10CHTO   O70 3927   3.714   5.662   5.539 -0.0925 -0.7056  0.0558
   10CHTO  H170 3928   3.789   5.712   5.566 -1.7307  2.4728 -0.9869
   10CHTO   O57 3929   3.951   5.851   5.928 -0.5210 -0.5265 -0.3625
   10CHTO   C85 3930   3.884   5.976   5.955  0.0208 -0.4327 -0.9008
   10CHTO  H157 3931   3.773   5.965   5.948 -0.0153  0.2999 -1.6624
   10CHTO   C83 3932   3.929   6.080   5.841 -0.3208 -0.9130 -0.6676
   10CHTO  H155 3933   3.903   6.039   5.744 -1.0010 -0.9256 -0.4839
   10CHTO   O56 3934   4.070   6.099   5.839  1.0806 -0.0244 -0.3828
   10CHTO  H135 3935   4.095   6.179   5.796 -1.5371  0.2880 -1.3922
   10CHTO   C81 3936   3.842   6.208   5.863  0.1207  0.5362  0.2870
   10CHTO  H153 3937   3.738   6.176   5.852  0.5064 -0.5643 -0.2500
   10CHTO   N14 3938   3.842   6.299   5.748 -0.2101  0.3038  0.2396
   10CHTO  H141 3939   3.824   6.247   5.656 -1.7332 -0.5233  0.9772
   10CHTO  H142 3940   3.771   6.378   5.758  0.6026  1.0755 -0.0342
   10CHTO   C79 3941   3.851   6.260   6.009 -0.7092 -0.1912 -0.2452
   10CHTO  H151 3942   3.772   6.335   6.020 -0.2974  0.3729 -1.0487
   10CHTO   O52 3943   3.840   6.158   6.117 -0.4242  0.5243 -0.3034
   10CHTO   C86 3944   3.920   6.044   6.089 -0.5660 -0.5671 -0.4233
   10CHTO  H158 3945   4.024   6.082   6.100 -0.4157 -0.6718 -1.4294
   10CHTO   C90 3946   3.890   5.952   6.213 -0.1384 -0.6703  0.3715
   10CHTO   O60 3947   3.925   6.020   6.338 -0.1474 -0.1138  0.6732
   10CHTO  H138 3948   4.019   6.015   6.348 -0.0390 -0.7846 -0.4672
   10CHTO   O50 3949   3.971   6.348   6.025  0.0291 -0.5053  0.5569
   10CHTO   C73 3950   4.104   6.323   6.070 -0.1731  0.3252  0.0951
   10CHTO  H145 3951   4.143   6.228   6.030 -1.8276  1.3367 -4.1945
   10CHTO   C74 3952   4.114   6.307   6.225 -0.2562  0.6211 -0.0660
   10CHTO  H146 3953   4.037   6.234   6.253 -1.6217  2.8080  2.0513
   10CHTO   O54 3954   4.233   6.235   6.271  0.5282 -0.3801  0.1191
   10CHTO  H133 3955   4.307   6.285   6.243  0.4995  0.2376  1.1106
   10CHTO   C75 3956   4.093   6.446   6.299  0.6255  0.1251  0.4259
   10CHTO  H147 3957   3.997   6.489   6.268 -0.5032 -2.4575  0.2054
   10CHTO   N13 3958   4.074   6.428   6.442  0.5493 -0.2001  0.3004
   10CHTO  H139 3959   4.036   6.514   6.495 -0.1489  0.7078 -1.6217
   10CHTO  H140 3960   4.021   6.338   6.469 -1.9598  0.2549 -2.8646
   10CHTO   C76 3961   4.203   6.552   6.249  0.1138  0.4846 -0.4932
   10CHTO  H148 3962   4.301   6.509   6.272 -0.5460 -1.1278 -0.6623
   10CHTO   O49 3963   4.191   6.563   6.103 -0.4753  0.1164 -0.1140
   10CHTO   C77 3964   4.208   6.440   6.032  0.5134  0.0309  0.1831
   10CHTO  H149 3965   4.308   6.401   6.043  0.8984  0.4411 -1.6151
   10CHTO   C88 3966   4.196   6.488   5.884 -0.0292  0.6252 -0.4713
   10CHTO   O58 3967   4.221   6.376   5.787 -0.2927 -0.1743  0.1439
   10CHTO  H136 3968   4.154   6.370   5.722  0.4645  0.5058 -0.7178
   10CHTO   O51 3969   4.174   6.693   6.295  0.2865  0.1269  0.1941
   10CHTO   C78 3970   4.300   6.797   6.252  0.1486 -0.3565  0.1036
   10CHTO  H150 3971   4.369   6.752   6.177  1.0719  0.2894  0.5648
   10CHTO   C80 3972   4.376   6.825   6.386  0.4059  0.4829 -0.6850
   10CHTO  H152 3973   4.306   6.853   6.468  1.1022 -0.1937  0.1305
   10CHTO   O55 3974   4.418   6.700   6.438  0.1075  0.3404 -0.6390
   10CHTO  H134 3975   4.339   6.649   6.439  0.8865 -1.0472 -3.7213
   10CHTO   C84 3976   4.482   6.930   6.359 -0.5661 -0.6179  0.1778
   10CHTO  H156 3977   4.555   6.895   6.286 -0.4479  1.8252 -0.9359
   10CHTO   N15 3978   4.566   6.966   6.483  0.1559 -0.1893 -0.2802
   10CHTO  H143 3979   4.499   7.016   6.549 -1.0525 -3.2389  0.8575
   10CHTO  H144 3980   4.591   6.873   6.528 -0.3820 -0.3099 -0.2299
   10CHTO   C87 3981   4.428   7.052   6.296  0.0059 -0.0868  0.1885
   10CHTO  H159 3982   4.364   7.099   6.371 -0.7142 -0.6764 -0.0497
   10CHTO   O53 3983   4.344   7.009   6.160 -0.2762 -0.2659 -0.2979
   10CHTO   C82 3984   4.239   6.918   6.187 -0.3269 -0.0708  0.4386
   10CHTO  H154 3985   4.166   6.962   6.255  1.4030  0.9459  1.6572
   10CHTO   C89 3986   4.159   6.891   6.057 -0.6116 -0.2847 -0.0981
   10CHTO   O59 3987   4.248   6.858   5.954  0.3565 -0.2832  0.2326
   10CHTO  H137 3988   4.198   6.870   5.876  1.4297  0.5227 -0.3344
   10CHTO   O45 3989   4.535   7.167   6.261 -0.1286  0.4644 -0.1859
   10CHTO   C67 3990   4.476   7.292   6.232  1.0048 -0.0650  0.3578
   10CHTO  H124 3991   4.372   7.287   6.199  1.5901  1.2328 -1.8132
   10CHTO   C65 3992   4.501   7.378   6.364 -0.1774  0.3163  0.1708
   10CHTO  H122 3993   4.462   7.318   6.446 -0.2997  2.2625  1.5735
   10CHTO   O44 3994   4.428   7.502   6.366  0.3792  0.1279 -0.0343
   10CHTO  H102 3995   4.474   7.570   6.320  0.0602 -2.2757 -4.2044
   10CHTO   C63 3996   4.658   7.380   6.397  0.1883 -0.2014 -0.3122
   10CHTO  H120 3997   4.698   7.278   6.400 -0.4838 -0.4435  0.7290
   10CHTO   N11 3998   4.689   7.415   6.541  1.0026 -0.6463 -0.5779
   10CHTO  H108 3999   4.695   7.521   6.541 -2.4836 -0.3603  1.6624
   10CHTO  H109 4000   4.780   7.366   6.570 -0.1374 -3.0317 -0.9060
   10CHTO   C61 4001   4.732   7.460   6.288  0.1554 -0.2320  0.4371
   10CHTO  H118 4002   4.836   7.425   6.296  0.8739  1.8148  0.2842
   10CHTO   O40 4003   4.689   7.422   6.155 -0.1400  0.3168 -0.2539
   10CHTO   C68 4004   4.562   7.359   6.117  0.0940 -0.0549  0.1154
   10CHTO  H125 4005   4.596   7.286   6.041  1.3096  0.4897  0.1333
   10CHTO   C72 4006   4.485   7.470   6.046 -0.0679  0.3604 -0.7105
   10CHTO   O48 4007   4.538   7.508   5.917  0.1271  0.1670  0.0044
   10CHTO  H105 4008   4.480   7.574   5.884 -0.9637 -0.9669 -0.4055
   10CHTO   O38 4009   4.718   7.601   6.299 -0.3065  0.1558  0.0448
   10CHTO   C55 4010   4.823   7.676   6.251 -0.6603  0.0814  0.4474
   10CHTO  H112 4011   4.875   7.628   6.166  0.7771  0.3903  1.1252
   10CHTO   C56 4012   4.928   7.712   6.371  0.5450  0.1704  0.1308
   10CHTO  H113 4013   4.881   7.754   6.460 -1.0053 -1.1676 -0.0292
   10CHTO   O42 4014   4.989   7.591   6.419  0.4320  0.2189  0.7910
   10CHTO  H100 4015   4.958   7.564   6.503 -0.5925 -1.4357 -0.0787
   10CHTO   C57 4016   5.038   7.821   6.326 -0.1788 -0.5722  0.2527
   10CHTO  H114 4017   5.110   7.766   6.266  2.0723  1.1325  1.2945
   10CHTO   N10 4018   5.117   7.879   6.439 -0.6019  0.1703 -0.2259
   10CHTO  H106 4019   5.214   7.902   6.398  0.4351 -0.9499  1.5450
   10CHTO  H107 4020   5.130   7.804   6.516  3.6737  1.2045  0.1464
   10CHTO   C58 4021   4.977   7.932   6.243 -0.1210 -0.3030  0.5135
   10CHTO  H115 4022   4.916   8.000   6.307 -2.3253 -0.2267 -1.6272
   10CHTO   O37 4023   4.892   7.884   6.141  0.2057 -0.2496  0.9246
   10CHTO   C59 4024   4.778   7.810   6.184  0.3521  0.0233 -0.5895
   10CHTO  H116 4025   4.725   7.869   6.259  1.9892 -0.1829  0.7743
   10CHTO   C70 4026   4.690   7.778   6.063  0.2858 -0.2249 -1.2836
   10CHTO   O46 4027   4.751   7.721   5.950  0.2072  0.1473 -0.5821
   10CHTO  H103 4028   4.732   7.773   5.874 -0.8392 -0.2819 -0.6153
   10CHTO   O39 4029   5.089   8.008   6.165  0.0312 -0.0927 -0.1896
   10CHTO   C60 4030   5.055   8.145   6.147  0.0612 -0.3895 -0.3148
   10CHTO  H117 4031   4.947   8.157   6.136  0.0851 -0.6223 -0.7843
   10CHTO   C62 4032   5.093   8.229   6.271 -0.4099  0.1811  0.5636
   10CHTO  H119 4033   5.045   8.182   6.360 -4.2625 -0.1268 -1.5972
   10CHTO   O43 4034   5.236   8.216   6.282 -0.1921 -0.3829  0.2204
   10CHTO  H101 4035   5.271   8.244   6.200 -2.8972  3.7899  0.3205
   10CHTO   C66 4036   5.044   8.374   6.260  0.2634 -0.0186  0.2849
   10CHTO  H123 4037   4.942   8.382   6.225  0.6629  0.1584 -0.8499
   10CHTO   N12 4038   5.037   8.450   6.385 -0.2167 -0.2459 -0.1199
   10CHTO  H110 4039   5.101   8.536   6.397 -2.9803  1.6953  1.0889
   10CHTO  H111 4040   4.936   8.482   6.406 -0.3929 -0.2610 -0.9273
   10CHTO   C69 4041   5.116   8.446   6.144 -0.2768 -0.5927  0.0483
   10CHTO  H126 4042   5.219   8.455   6.185 -1.0882 -1.1231  2.2983
   10CHTO   O41 4043   5.111   8.362   6.008 -0.1500  0.6156 -0.3243
   10CHTO   C64 4044   5.126   8.198   6.017 -0.6162 -0.4641  0.9054
   10CHTO  H121 4045   5.234   8.170   6.020 -0.5696 -0.1991  3.2300
   10CHTO   C71 4046   5.065   8.130   5.892  0.0233  0.3716  0.2889
   10CHTO   O47 4047   4.930   8.163   5.870  0.0057 -0.3090  0.1274
   10CHTO  H104 4048   4.921   8.221   5.797 -0.7927 -0.7848 -0.1630
   10CHTO   O34 4049   5.057   8.590   6.102  0.3825 -0.0065  0.0900
   10CHTO   C49 4050   5.106   8.721   6.059  0.1245 -0.2934 -0.3668
   10CHTO   H91 4051   5.187   8.712   5.986  0.3019 -0.6555 -0.1272
   10CHTO   C47 4052   5.142   8.809   6.183 -0.2483 -0.2902 -0.1827
   10CHTO   H89 4053   5.189   8.902   6.144 -0.8378  0.6019  1.1904
   10CHTO   O33 4054   5.240   8.734   6.259  0.5886  0.1288  0.4340
   10CHTO   H70 4055   5.324   8.774   6.247 -0.0665  1.7223  0.9970
   10CHTO   C45 4056   5.009   8.855   6.271  0.2059  0.5106  0.3188
   10CHTO   H87 4057   4.952   8.764   6.295  2.0622 -0.8352 -0.2435
   10CHTO    N8 4058   5.033   8.915   6.400  0.1273  0.2618 -0.0396
   10CHTO   H75 4059   5.012   8.841   6.476 -2.3772 -0.9105 -1.7960
   10CHTO   H76 4060   5.125   8.971   6.404  0.2227  0.1819 -1.1023
   10CHTO   C43 4061   4.912   8.932   6.173 -0.6733  0.1886 -0.4047
   10CHTO   H85 4062   4.823   8.943   6.234  1.2401  0.7945  2.4241
   10CHTO   O29 4063   4.887   8.855   6.051  0.2891 -0.2407  0.3027
   10CHTO   C50 4064   4.999   8.795   5.978  0.2340  0.1414  0.2094
   10CHTO   H92 4065   4.958   8.723   5.906  0.4030  1.5242 -1.2954
   10CHTO   C54 4066   5.076   8.895   5.884  0.1261  0.2433  0.2983
   10CHTO   O36 4067   4.999   8.944   5.773 -0.6076 -0.1029  0.0724
   10CHTO   H72 4068   5.016   9.034   5.757 -0.0140 -0.0549  0.9461
   10CHTO   O27 4069   4.963   9.063   6.142 -0.1187 -0.9292  0.4558
   10CHTO   C37 4070   4.947   9.178   6.058  0.8297 -0.3705 -0.0984
   10CHTO   H79 4071   5.000   9.162   5.963  2.4635  0.3124  0.6705
   10CHTO   C38 4072   4.801   9.219   6.026  0.2436  0.4700 -0.1454
   10CHTO   H80 4073   4.742   9.243   6.115  0.1195 -0.8316  0.1316
   10CHTO   O31 4074   4.740   9.103   5.960 -0.1795  0.0088 -0.0338
   10CHTO   H68 4075   4.656   9.113   5.921 -0.3503 -3.2382 -0.6779
   10CHTO   C39 4076   4.796   9.340   5.919  0.0454 -0.2165 -0.0150
   10CHTO   H81 4077   4.838   9.297   5.828 -0.9296 -2.0318  0.3729
   10CHTO    N7 4078   4.665   9.391   5.879 -0.5653  0.2457 -0.0798
   10CHTO   H73 4079   4.588   9.342   5.937  0.6763 -1.8689 -0.1442
   10CHTO   H74 4080   4.647   9.376   5.774  0.6003  2.0285 -0.5534
   10CHTO   C40 4081   4.889   9.454   5.963  0.0480 -0.4187 -0.0357
   10CHTO   H82 4082   4.846   9.530   6.029  2.2316  1.3962 -0.6558
   10CHTO   O26 4083   5.014   9.407   6.017 -0.0784 -0.3255  0.6913
   10CHTO   C41 4084   5.013   9.297   6.118 -0.6399  0.1469 -0.1597
   10CHTO   H83 4085   4.952   9.329   6.204  0.2263  1.1137  0.1023
   10CHTO   C52 4086   5.159   9.264   6.153  0.1957  0.3066  0.1834
   10CHTO   O35 4087   5.256   9.359   6.213 -0.1057  0.6502 -0.6377
   10CHTO   H71 4088   5.345   9.331   6.207 -0.6753 -1.8375  1.3045
   10CHTO   O28 4089   4.958   9.513   5.854 -0.3123  0.3559  0.5973
   10CHTO   C42 4090   4.922   9.647   5.804  0.8659  0.3517 -0.0403
   10CHTO   H84 4091   4.825   9.678   5.842 -0.4707 -1.6750 -1.7274
   10CHTO   C44 4092   4.911   9.657   5.654 -0.5942 -0.2619  0.1230
   10CHTO   H86 4093   5.002   9.621   5.607 -0.3778 -0.8550  0.9855
   10CHTO   O32 4094   4.810   9.564   5.609  0.0536 -0.2215  0.2141
   10CHTO   H69 4095   4.803   9.562   5.516 -2.9302  0.6861  0.3920
   10CHTO   C48 4096   4.889   9.808   5.594 -0.4338  0.0533  0.0531
   10CHTO   H90 4097   4.790   9.834   5.632 -1.7914 -0.9131 -2.6649
   10CHTO    N9 4098   4.884   9.813   5.445  0.0280 -0.0955 -0.3854
   10CHTO   H77 4099   4.900   9.715   5.403 -0.4625 -0.2692 -0.1691
   10CHTO   H78 4100   4.804   9.869   5.400 -1.3453 -2.1647 -0.5953
   10CHTO   C51 4101   4.999   9.901   5.657 -0.1013 -0.0628  0.4417
   10CHTO   H93 4102   5.091   9.859   5.619  0.0053  0.1423  0.4738
   10CHTO   O30 4103   4.999   9.904   5.795 -0.2091 -0.1236  0.0802
   10CHTO   C46 4104   5.031   9.751   5.858 -0.1521  0.3751  0.0186
   10CHTO   H88 4105   5.125   9.707   5.824 -1.1511 -1.0372 -0.9783
   10CHTO   C53 4106   5.033   9.767   6.012 -1.0383 -0.3028  1.0008
   10CHTO   O72 4107   5.112   9.661   6.073 -0.1717  0.3318  0.0536
   10CHTO  H199 4108   5.191   9.641   6.027  0.9872  2.5698  0.9976
   10CHTO   O22 4109   4.975  10.033   5.616 -0.1713  0.2187 -0.1241
   10CHTO   C31 4110   5.095  10.122   5.609  0.3501 -0.1395  0.0261
   10CHTO   H59 4111   5.051  10.224   5.604 -1.2941 -0.7851  1.0349
   10CHTO   C29 4112   5.188  10.121   5.732  0.3891  0.1209  0.1530
   10CHTO   H57 4113   5.229  10.021   5.750 -1.7474 -0.6169  0.9964
   10CHTO   O21 4114   5.117  10.152   5.849  0.0642 -0.6430  0.0833
   10CHTO   H37 4115   5.059  10.081   5.869 -1.9351  0.3089 -2.0133
   10CHTO   C27 4116   5.298  10.221   5.705  0.6230 -0.4864 -0.4085
   10CHTO   H55 4117   5.254  10.320   5.688  0.1906 -0.8153 -1.1996
   10CHTO    N5 4118   5.400  10.229   5.814  0.0458 -0.1508 -0.2252
   10CHTO   H43 4119   5.377  10.315   5.874  2.4281 -1.0756  2.1235
   10CHTO   H44 4120   5.404  10.142   5.879 -0.6042  0.5623  0.7967
   10CHTO   C25 4121   5.362  10.181   5.568  0.1380 -0.0930  0.7539
   10CHTO   H53 4122   5.412  10.083   5.563 -0.8049 -0.4597 -3.4758
   10CHTO   O17 4123   5.268  10.183   5.462 -0.4813  0.4846  0.5732
   10CHTO   C32 4124   5.158  10.092   5.470 -1.1316 -0.7994 -0.9623
   10CHTO   H60 4125   5.185   9.987   5.465 -3.3541 -1.4046 -0.8411
   10CHTO   C36 4126   5.063  10.116   5.355  0.2361  0.2707  0.5971
   10CHTO   O25 4127   5.022  10.252   5.345 -0.0257  0.1778 -0.1425
   10CHTO   H40 4128   4.970  10.257   5.267 -1.6046  0.0392  0.8734
   10CHTO   O15 4129   5.476  10.275   5.532 -0.1841  0.0575 -0.0889
   10CHTO   C19 4130   5.506  10.413   5.510  0.5338 -0.2336  0.0406
   10CHTO   H47 4131   5.484  10.426   5.403  0.1945  0.5090  0.1933
   10CHTO   C20 4132   5.414  10.512   5.585  0.2622  0.2176 -0.9318
   10CHTO   H48 4133   5.421  10.494   5.693  4.0567  2.2635 -0.7442
   10CHTO   O19 4134   5.273  10.495   5.544 -0.1484  0.0007  0.1439
   10CHTO   H35 4135   5.213  10.525   5.609 -0.2562  0.1263 -0.0152
   10CHTO   C21 4136   5.448  10.668   5.558  0.1519  0.1111  0.1249
   10CHTO   H49 4137   5.413  10.695   5.459  1.9562 -1.6397 -1.0397
   10CHTO    N4 4138   5.373  10.761   5.649  0.7570 -0.2027 -0.0277
   10CHTO   H41 4139   5.333  10.710   5.735 -0.3731  1.5393  0.5096
   10CHTO   H42 4140   5.298  10.820   5.599  1.0338 -0.7830 -1.1448
   10CHTO   C22 4141   5.608  10.674   5.558 -0.0592  0.1518 -0.2860
   10CHTO   H50 4142   5.644  10.665   5.660  0.4396  0.3535 -0.4432
   10CHTO   O14 4143   5.674  10.578   5.475  0.1452 -0.5927  0.0370
   10CHTO   C23 4144   5.651  10.447   5.527  0.3164 -0.4191 -0.0302
   10CHTO   H51 4145   5.678  10.440   5.633 -2.5216 -0.0904  0.7685
   10CHTO   C34 4146   5.733  10.346   5.442 -0.2547  0.0817  0.1518
   10CHTO   O23 4147   5.871  10.385   5.426  0.2801 -0.0349 -0.3284
   10CHTO   H38 4148   5.903  10.346   5.347  2.2363 -0.2647  0.5648
   10CHTO   O16 4149   5.642  10.803   5.510 -0.2873  0.0961 -0.5335
   10CHTO   C24 4150   5.791  10.839   5.589 -0.5085 -0.9462  0.1113
   10CHTO   H52 4151   5.851  10.750   5.607  0.0480 -0.3153  1.4664
   10CHTO   C26 4152   5.766  10.913   5.717  0.0861  0.5078 -0.1668
   10CHTO   H54 4153   5.687  10.989   5.697 -0.7765  0.3726  2.5227
   10CHTO   O20 4154   5.700  10.827   5.810 -0.3106 -0.6321  0.1916
   10CHTO   H36 4155   5.627  10.785   5.768  1.3385 -0.7637 -2.7051
   10CHTO   C30 4156   5.888  10.981   5.784  0.4761 -0.4015  0.3045
   10CHTO   H58 4157   5.950  10.904   5.833  0.7730  0.3008  1.0682
   10CHTO    N6 4158   5.849  11.071   5.895 -0.5149  0.4870  0.0594
   10CHTO   H45 4159   5.796  11.155   5.853  1.7071  0.5851 -2.7842
   10CHTO   H46 4160   5.939  11.107   5.943  0.1573 -1.0127 -0.0484
   10CHTO   C33 4161   5.966  11.059   5.673 -0.6755 -0.3320  0.4686
   10CHTO   H61 4162   5.904  11.143   5.641  0.5459  0.9964  1.5113
   10CHTO   O18 4163   5.998  10.976   5.560  0.0849  0.0537 -0.3477
   10CHTO   C28 4164   5.881  10.927   5.501  0.3821 -0.0498 -0.0252
   10CHTO   H56 4165   5.817  11.011   5.472 -0.0523 -0.3153  0.1657
   10CHTO   C35 4166   5.927  10.836   5.379 -0.1818 -0.9948 -0.4600
   10CHTO   O24 4167   5.829  10.827   5.276  0.3900 -0.3854 -0.1266
   10CHTO   H39 4168   5.835  10.741   5.239 -0.7441 -0.8766  0.8059
   10CHTO    O9 4169   6.089  11.119   5.724  0.1144 -0.1219 -0.4169
   10CHTO   C13 4170   6.169  11.218   5.624 -0.1261 -0.0994 -0.5244
   10CHTO   H26 4171   6.106  11.235   5.534 -0.6064  0.2834 -0.1195
   10CHTO   C11 4172   6.305  11.145   5.590  0.2317  0.4195  0.2515
   10CHTO   H24 4173   6.277  11.052   5.538  0.3452  1.3761 -1.5746
   10CHTO    O8 4174   6.383  11.097   5.704  0.3052  0.1907  0.1622
   10CHTO    H3 4175   6.382  11.163   5.771  1.1204 -0.1019  0.4665
   10CHTO    C9 4176   6.397  11.236   5.500  0.3602  0.0823  0.0982
   10CHTO   H22 4177   6.344  11.239   5.404  1.1773 -3.6717 -0.5438
   10CHTO    N2 4178   6.537  11.190   5.468 -0.2509 -0.0958 -0.5335
   10CHTO   H10 4179   6.550  11.106   5.535  1.8802  0.3769 -0.3177
   10CHTO   H11 4180   6.535  11.153   5.366 -0.2829  0.5810 -0.7789
   10CHTO    C7 4181   6.405  11.384   5.567 -0.4962 -0.2011 -0.3755
   10CHTO   H20 4182   6.349  11.440   5.489 -0.2310  2.0661  1.0188
   10CHTO    O4 4183   6.345  11.391   5.697 -0.0264  0.3223  0.3719
   10CHTO   C14 4184   6.205  11.366   5.683  0.4856  0.1752 -0.1344
   10CHTO   H27 4185   6.160  11.440   5.614 -0.1197  0.3102  0.3978
   10CHTO   C18 4186   6.137  11.389   5.821 -0.2781  0.5410 -0.1660
   10CHTO   O13 4187   6.180  11.310   5.926  0.4443  0.1002 -0.3050
   10CHTO    H7 4188   6.146  11.224   5.941  0.5887  0.0246 -0.4117
   10CHTO    O2 4189   6.567  11.463   5.569  0.0944  0.1796  0.3523
   10CHTO    C1 4190   6.582  11.575   5.659 -0.0239 -0.6087  0.1921
   10CHTO   H14 4191   6.532  11.559   5.757  0.7580  0.3087  0.7555
   10CHTO    C2 4192   6.527  11.711   5.601  0.0707 -0.5058  0.0817
   10CHTO   H15 4193   6.568  11.725   5.500 -0.7047 -1.8728 -0.4398
   10CHTO    O6 4194   6.382  11.685   5.599 -0.1600  0.5705 -0.3431
   10CHTO    H1 4195   6.363  11.598   5.568 -1.0034  0.9250 -0.8589
   10CHTO    C3 4196   6.557  11.840   5.697  0.3057  0.1040  0.5635
   10CHTO   H16 4197   6.512  11.818   5.794 -0.0397  2.9969  1.0947
   10CHTO    N1 4198   6.495  11.962   5.640 -0.0731 -0.1081 -0.1957
   10CHTO    H8 4199   6.545  12.009   5.557 -0.9539  0.1593 -0.5818
   10CHTO    H9 4200   6.395  11.935   5.609  0.8320  0.4199 -3.8245
   10CHTO    C4 4201   6.713  11.844   5.717 -0.8980  0.1074  0.3086
   10CHTO   H17 4202   6.765  11.859   5.622 -1.7504  0.9455 -0.0412
   10CHTO    O1 4203   6.762  11.718   5.768 -0.1794  0.1085 -0.0911
   10CHTO    C5 4204   6.732  11.604   5.692 -0.2142 -0.0739  0.1017
   10CHTO   H18 4205   6.787  11.609   5.598  1.0291  0.8115  0.8526
   10CHTO   C16 4206   6.793  11.478   5.773 -0.1958 -0.5253 -0.2424
   10CHTO   O11 4207   6.801  11.371   5.685 -0.6730  0.3959 -0.3363
   10CHTO    H5 4208   6.863  11.399   5.621 -0.4981 -0.7852 -0.6910
   10CHTO    O3 4209   6.755  11.937   5.818 -0.7877 -0.3274  0.2471
   10CHTO    C6 4210   6.828  12.054   5.769 -0.4019 -0.4988 -0.3435
   10CHTO   H19 4211   6.832  12.073   5.662  0.8286  1.1138 -0.0271
   10CHTO    C8 4212   6.775  12.192   5.826  0.0079  0.3559 -0.0465
   10CHTO   H21 4213   6.759  12.181   5.933 -0.6084 -1.7039 -0.3334
   10CHTO    O7 4214   6.651  12.225   5.760 -0.2572  0.7401  0.1980
   10CHTO    H2 4215   6.577  12.210   5.815 -0.5130  1.3602  0.0287
   10CHTO   C12 4216   6.884  12.300   5.806 -0.3794 -0.3147 -0.0070
   10CHTO   H25 4217   6.901  12.304   5.696  0.2783  0.6208  0.1190
   10CHTO    N3 4218   6.824  12.436   5.840  0.3298  0.8038 -0.3161
   10CHTO   H12 4219   6.811  12.442   5.947 -0.5719 -2.5461 -0.1833
   10CHTO   H13 4220   6.733  12.459   5.788  0.3666 -2.4290 -1.9546
   10CHTO   C15 4221   7.015  12.258   5.878  0.3836  0.2286 -0.3403
   10CHTO   H28 4222   6.990  12.237   5.982  1.1298 -0.0164 -0.2106
   10CHTO   O10 4223   7.133  12.354   5.874 -0.5747 -0.8419  0.0164
   10CHTO    H4 4224   7.187  12.341   5.950 -1.2937 -0.1035  0.6570
   10CHTO    O5 4225   7.065  12.140   5.812  0.2564 -0.4097 -0.7513
   10CHTO   C10 4226   6.975  12.029   5.817 -0.1119  0.2630 -0.2290
   10CHTO   H23 4227   6.970  11.998   5.922 -1.0559 -0.8206 -0.5819
   10CHTO   C17 4228   7.036  11.910   5.738  0.0394  0.2283 -0.1448
   10CHTO   O12 4229   7.152  11.851   5.798  0.2465 -0.0556 -0.2405
   10CHTO    H6 4230   7.171  11.769   5.757 -0.6459  0.1317 -1.0737
   11CHTO  H203 4231   6.892   5.253   0.191  0.8980 -0.0163  0.4600
   11CHTO   O82 4232   6.874   5.170   0.152 -0.1921  0.5734 -0.3077
   11CHTO  C123 4233   6.734   5.153   0.161 -0.1906 -0.3403 -0.5826
   11CHTO  H227 4234   6.697   5.177   0.262 -2.1829  0.0373 -1.3887
   11CHTO   O77 4235   6.692   5.247   0.053 -0.8205 -0.1173 -0.3930
   11CHTO  C118 4236   6.551   5.261   0.026 -0.4501 -0.1749  0.3870
   11CHTO  H222 4237   6.504   5.304   0.117 -1.7275  0.5622 -0.6004
   11CHTO  C125 4238   6.520   5.350  -0.097 -0.3463 -0.1032 -0.1561
   11CHTO   O84 4239   6.535   5.486  -0.053  0.1052 -0.0603  0.5116
   11CHTO  H205 4240   6.510   5.543  -0.124 -0.4693  0.2466  0.9572
   11CHTO  C114 4241   6.494   5.121  -0.006  0.5669 -0.2705  0.6333
   11CHTO  H218 4242   6.538   5.090  -0.101 -1.6253  1.4626 -1.0286
   11CHTO  C116 4243   6.532   5.011   0.094  0.3136  0.0242 -0.5799
   11CHTO  H220 4244   6.474   5.018   0.188 -1.0028  1.6490 -1.4784
   11CHTO   O79 4245   6.497   4.889   0.028 -0.0764 -0.2744  0.6886
   11CHTO  H201 4246   6.487   4.821   0.091 -0.7061  0.5852  1.5437
   11CHTO  C120 4247   6.686   5.007   0.127  0.1476  0.1027 -0.2654
   11CHTO  H224 4248   6.738   4.972   0.035 -1.7419  0.8905 -1.6784
   11CHTO   N21 4249   6.710   4.908   0.237 -0.0620 -0.5716 -0.2387
   11CHTO  H211 4250   6.618   4.890   0.291  0.5531 -0.0170  0.9952
   11CHTO  H212 4251   6.788   4.932   0.307 -0.1501  0.4713 -0.5025
   11CHTO   O75 4252   6.353   5.145  -0.020  0.0186  0.3264 -0.6654
   11CHTO  C112 4253   6.254   5.146   0.111 -0.4273  0.1904 -0.5558
   11CHTO  H216 4254   6.314   5.167   0.201  0.6122 -1.9761 -0.7120
   11CHTO   O73 4255   6.194   5.021   0.119  0.0996 -0.1221 -0.2210
   11CHTO  C113 4256   6.133   4.996   0.245 -0.8733 -0.0797 -0.5265
   11CHTO  H217 4257   6.199   5.027   0.328  1.0374 -0.9602 -1.6856
   11CHTO  C124 4258   6.115   4.847   0.264 -0.1858  0.0264 -0.3221
   11CHTO   O83 4259   6.236   4.776   0.274  0.6208 -0.1808 -0.3968
   11CHTO  H204 4260   6.249   4.730   0.354 -1.0315  1.3670  0.8236
   11CHTO  C109 4261   6.003   5.090   0.257  0.7049  0.1203  0.5887
   11CHTO  H213 4262   5.928   5.053   0.185  0.8126 -0.1835  0.6294
   11CHTO  C110 4263   6.040   5.233   0.231 -0.0188 -0.6544 -0.5236
   11CHTO  H214 4264   6.090   5.274   0.319 -1.2314 -2.0064  0.8300
   11CHTO   O78 4265   5.914   5.309   0.222  0.2683  0.0259 -0.1165
   11CHTO  H200 4266   5.939   5.399   0.229 -0.4123  0.2449 -0.3962
   11CHTO  C111 4267   6.130   5.249   0.108 -0.6610  0.0409 -0.0287
   11CHTO  H215 4268   6.071   5.227   0.018 -2.1572 -1.5765  1.3371
   11CHTO   N19 4269   6.171   5.387   0.098  0.3638 -0.4135 -0.5234
   11CHTO  H207 4270   6.260   5.405   0.157 -1.1040  2.6906  0.8774
   11CHTO  H208 4271   6.192   5.430   0.001 -3.1700  1.7738 -0.3965
   11CHTO   O74 4272   5.945   5.094   0.389  0.8983 -0.3022 -0.3200
   11CHTO  C115 4273   5.787   5.070   0.383 -0.9416  0.2167  1.1852
   11CHTO  H219 4274   5.745   5.089   0.283 -0.7573 -1.7638  0.7102
   11CHTO   O76 4275   5.753   4.923   0.417  0.3657  0.0130  0.8272
   11CHTO  C122 4276   5.783   4.896   0.554 -0.0993  0.3098  0.5764
   11CHTO  H226 4277   5.892   4.899   0.560  0.1080 -1.5541 -1.9477
   11CHTO  C126 4278   5.753   4.743   0.573 -0.0782 -0.2284  0.4611
   11CHTO   O85 4279   5.766   4.708   0.708  0.0314 -0.3690  0.4469
   11CHTO  H206 4280   5.775   4.614   0.714 -2.9575 -0.6220  2.1511
   11CHTO  C121 4281   5.699   4.994   0.656 -0.0319 -0.8423  0.0603
   11CHTO  H225 4282   5.626   4.942   0.721  0.4385 -0.3448  1.0023
   11CHTO   O81 4283   5.784   5.053   0.753  0.2070 -0.1125 -0.1278
   11CHTO  H202 4284   5.812   4.991   0.818 -0.9211 -2.1347 -1.5329
   11CHTO  C119 4285   5.631   5.117   0.587  0.3830 -0.1336 -0.0708
   11CHTO  H223 4286   5.544   5.072   0.539  1.2058 -0.5255 -1.2279
   11CHTO  C117 4287   5.728   5.179   0.481  0.0548 -0.2982  0.1774
   11CHTO  H221 4288   5.813   5.236   0.518  1.7801 -2.2464 -0.6703
   11CHTO   N20 4289   5.649   5.282   0.404  0.5980  0.2616  0.1089
   11CHTO  H209 4290   5.620   5.365   0.466  0.7598  1.0171 -0.8330
   11CHTO  H210 4291   5.565   5.237   0.354  0.8138  2.3101 -2.1791
   11CHTO   O80 4292   5.555   5.238   0.680  0.2541 -0.0102 -0.2668
   11CHTO  C103 4293   5.652   5.343   0.780  0.0137  0.0412  0.0125
   11CHTO  H190 4294   5.679   5.291   0.872  2.5845 -1.0187 -1.2769
   11CHTO  C101 4295   5.784   5.417   0.727  0.0024 -0.0508 -0.0517
   11CHTO  H188 4296   5.766   5.460   0.628 -0.2355 -0.1300 -0.0404
   11CHTO   O68 4297   5.894   5.320   0.708 -0.0688  0.7340 -0.2240
   11CHTO  H168 4298   5.887   5.264   0.783  0.3802 -0.0266 -0.7445
   11CHTO   C99 4299   5.821   5.528   0.837 -0.9619  0.3790 -0.4946
   11CHTO  H186 4300   5.838   5.484   0.938  1.3360 -2.9543 -2.2241
   11CHTO   N17 4301   5.955   5.594   0.815  0.2983 -0.0684  0.1328
   11CHTO  H174 4302   5.983   5.676   0.879  1.2832 -0.6970  0.5329
   11CHTO  H175 4303   6.033   5.526   0.848  0.6714  1.3041  2.1992
   11CHTO   C97 4304   5.698   5.626   0.845 -0.0422 -0.2849 -0.5801
   11CHTO  H184 4305   5.687   5.656   0.740  2.3859 -0.1044 -0.8197
   11CHTO   O64 4306   5.580   5.558   0.898  0.9221  0.0646 -0.0481
   11CHTO  C104 4307   5.533   5.448   0.820  0.3049 -0.2293 -0.0941
   11CHTO  H191 4308   5.485   5.484   0.729  0.8783 -1.9984 -1.1316
   11CHTO  C108 4309   5.429   5.361   0.893  0.1115 -0.3814 -0.0224
   11CHTO   O71 4310   5.307   5.436   0.909 -0.3920 -0.0283 -0.5111
   11CHTO  H171 4311   5.309   5.490   0.985  0.4786  1.7275 -1.7323
   11CHTO   O62 4312   5.716   5.736   0.940  0.2287 -0.0397  0.1038
   11CHTO   C91 4313   5.687   5.874   0.900  0.0633  0.8126  0.9936
   11CHTO  H178 4314   5.598   5.879   0.839  0.2959 -1.8304  0.3398
   11CHTO   C92 4315   5.806   5.925   0.816  0.5597 -0.3315  0.3114
   11CHTO  H179 4316   5.901   5.887   0.856 -0.5863 -1.2502  2.2535
   11CHTO   O66 4317   5.790   5.869   0.685  0.0644 -0.2950 -0.1790
   11CHTO  H166 4318   5.858   5.807   0.666 -0.2816 -1.3306  1.8299
   11CHTO   C93 4319   5.811   6.077   0.809  0.0135  0.0990 -0.2778
   11CHTO  H180 4320   5.737   6.108   0.733  0.8643  0.8235 -0.8170
   11CHTO   N16 4321   5.937   6.133   0.752  0.0034  0.2013 -0.4949
   11CHTO  H172 4322   5.918   6.234   0.718  0.2758 -1.0392 -4.6566
   11CHTO  H173 4323   6.028   6.118   0.807 -0.1229 -0.0240 -0.3502
   11CHTO   C94 4324   5.770   6.149   0.952  0.1870  0.5666  0.6524
   11CHTO  H181 4325   5.841   6.122   1.031 -1.6394 -2.7342  1.2474
   11CHTO   O61 4326   5.644   6.099   0.996 -0.1439 -0.6522 -0.3045
   11CHTO   C95 4327   5.654   5.962   1.032  0.6568  0.8041 -0.1534
   11CHTO  H182 4328   5.743   5.946   1.092 -0.3308 -0.4004  1.0363
   11CHTO  C106 4329   5.521   5.908   1.114 -0.1222  0.5075  0.2208
   11CHTO   O69 4330   5.535   5.781   1.163 -0.1725 -0.6271 -0.3991
   11CHTO  H169 4331   5.470   5.718   1.136 -0.2066 -2.1758  2.9739
   11CHTO   O63 4332   5.741   6.296   0.940  0.1453  0.6503 -0.3223
   11CHTO   C96 4333   5.790   6.394   1.081 -0.4095  0.9654 -0.2145
   11CHTO  H183 4334   5.856   6.334   1.144 -0.8259 -0.0783 -0.7776
   11CHTO   C98 4335   5.675   6.436   1.166  0.5766 -0.3554  0.1567
   11CHTO  H185 4336   5.599   6.488   1.106 -0.1172 -1.4545  0.0682
   11CHTO   O67 4337   5.615   6.325   1.225 -0.8116 -0.5879  0.0552
   11CHTO  H167 4338   5.671   6.298   1.296  2.4506 -0.5713 -2.4203
   11CHTO  C102 4339   5.719   6.534   1.283  0.4114 -0.8892  0.0109
   11CHTO  H189 4340   5.791   6.475   1.342  1.7596  0.6291 -0.0794
   11CHTO   N18 4341   5.612   6.586   1.377  0.0930 -0.1499 -0.2463
   11CHTO  H176 4342   5.610   6.527   1.467 -0.9262 -0.0061 -0.1707
   11CHTO  H177 4343   5.622   6.691   1.403  0.1462  0.7854 -3.7503
   11CHTO  C105 4344   5.810   6.647   1.221  0.2624  0.3840  0.5902
   11CHTO  H192 4345   5.749   6.714   1.160  0.1944 -1.1878 -1.1278
   11CHTO   O65 4346   5.919   6.593   1.141  0.0106  0.6919 -0.5331
   11CHTO  C100 4347   5.867   6.513   1.027 -0.2753 -0.0551  0.3965
   11CHTO  H187 4348   5.790   6.566   0.970  0.1120  1.0276  0.8707
   11CHTO  C107 4349   5.978   6.479   0.930  0.2651  0.8247 -0.9228
   11CHTO   O70 4350   6.096   6.447   1.003  0.0439  0.0256 -0.7955
   11CHTO  H170 4351   6.083   6.385   1.072 -1.5197 -1.9137 -2.8052
   11CHTO   O57 4352   5.878   6.734   1.345 -0.0804  0.5256 -0.3612
   11CHTO   C85 4353   5.993   6.818   1.332 -0.4993  0.3133  0.3949
   11CHTO  H157 4354   5.986   6.841   1.441 -2.5400 -0.5552  0.4635
   11CHTO   C83 4355   5.970   6.946   1.241 -0.3464 -0.6758  0.6677
   11CHTO  H155 4356   5.877   6.999   1.259 -0.6353 -0.5503 -1.1123
   11CHTO   O56 4357   5.954   6.899   1.107  0.0859 -0.0641  0.1631
   11CHTO  H135 4358   5.878   6.932   1.062  0.3322  1.3901  0.7875
   11CHTO   C81 4359   6.087   7.051   1.259  0.2484 -0.2437  0.3466
   11CHTO  H153 4360   6.094   7.080   1.364  2.3234  0.7289 -0.0378
   11CHTO   N14 4361   6.064   7.173   1.181  0.2278  0.1842 -0.4894
   11CHTO  H141 4362   6.161   7.213   1.160  0.4356  0.3273  0.7359
   11CHTO  H142 4363   6.016   7.147   1.089 -1.7155  1.0230  0.2555
   11CHTO   C79 4364   6.222   6.981   1.221 -0.5550  0.3300  0.4336
   11CHTO  H151 4365   6.300   7.051   1.251 -0.7761  0.7103  0.1244
   11CHTO   O52 4366   6.236   6.861   1.307 -0.6524  0.2172  0.0857
   11CHTO   C86 4367   6.135   6.757   1.289  0.5562  0.2079 -0.1345
   11CHTO  H158 4368   6.147   6.719   1.185 -1.0538  1.6590 -0.8713
   11CHTO   C90 4369   6.182   6.640   1.380  0.2033  0.2981 -0.0167
   11CHTO   O60 4370   6.102   6.525   1.353 -0.0026  0.2654  0.1964
   11CHTO  H138 4371   6.158   6.454   1.330  0.9238  0.9454  0.3057
   11CHTO   O50 4372   6.232   6.945   1.078 -0.5752 -0.2233  0.2024
   11CHTO   C73 4373   6.309   6.975   0.961  0.3565  0.0533  0.7495
   11CHTO  H145 4374   6.320   7.083   0.977  0.1049  0.1924  0.0153
   11CHTO   C74 4375   6.224   6.941   0.833 -0.8347 -0.3902 -0.5453
   11CHTO  H146 4376   6.130   6.996   0.849 -0.0479  0.2893  1.8415
   11CHTO   O54 4377   6.292   6.985   0.712  0.2453 -0.2483  0.8304
   11CHTO  H133 4378   6.300   6.913   0.653 -2.7071  0.7976 -0.9703
   11CHTO   C75 4379   6.203   6.783   0.831 -0.1915 -0.2412 -0.3653
   11CHTO  H147 4380   6.140   6.751   0.915  0.1640  1.7099  0.6818
   11CHTO   N13 4381   6.129   6.743   0.708  0.1325 -0.1398 -0.1299
   11CHTO  H139 4382   6.188   6.690   0.635  0.2665  1.8726 -1.5221
   11CHTO  H140 4383   6.084   6.828   0.659 -0.7613  0.0760  1.0336
   11CHTO   C76 4384   6.350   6.714   0.837 -0.3339  0.3337 -0.2736
   11CHTO  H148 4385   6.399   6.717   0.740 -2.7713 -2.7771 -1.6782
   11CHTO   O49 4386   6.438   6.771   0.940  0.4006  0.1605  0.7392
   11CHTO   C77 4387   6.449   6.909   0.956  0.2263  0.1178  0.3625
   11CHTO  H149 4388   6.506   6.959   0.878  0.2875 -0.0258  0.3152
   11CHTO   C88 4389   6.523   6.930   1.088  0.4901 -0.7177 -0.1080
   11CHTO   O58 4390   6.600   7.044   1.101  0.3426  0.3417 -0.3042
   11CHTO  H136 4391   6.657   7.026   1.173 -0.3164 -2.6279 -0.4471
   11CHTO   O51 4392   6.321   6.559   0.879  0.2307 -0.0712 -0.7035
   11CHTO   C78 4393   6.416   6.462   0.842 -0.5149 -0.3774  0.4319
   11CHTO  H150 4394   6.507   6.509   0.799 -0.2967  1.5157  2.8750
   11CHTO   C80 4395   6.355   6.355   0.744 -0.9477 -0.0338  0.5155
   11CHTO  H152 4396   6.255   6.326   0.782 -0.8400  1.1076  1.7100
   11CHTO   O55 4397   6.325   6.422   0.614 -0.1444  0.3528  0.2625
   11CHTO  H134 4398   6.259   6.372   0.570 -1.2330  2.0434 -0.0462
   11CHTO   C84 4399   6.446   6.224   0.723  0.2027 -0.0779 -0.2253
   11CHTO  H156 4400   6.523   6.240   0.648  2.0472  0.7055  1.7503
   11CHTO   N15 4401   6.357   6.117   0.664 -0.0460 -0.2672 -0.1869
   11CHTO  H143 4402   6.378   6.112   0.560  0.5463  0.3128 -0.0985
   11CHTO  H144 4403   6.373   6.022   0.710  1.1726  0.0879  0.1212
   11CHTO   C87 4404   6.508   6.178   0.862  0.4956  0.0574  0.4725
   11CHTO  H159 4405   6.430   6.132   0.921  0.0794  0.8752  0.5608
   11CHTO   O53 4406   6.558   6.292   0.936  0.1673 -0.2745 -0.2560
   11CHTO   C82 4407   6.460   6.383   0.970  0.5421 -0.4958  0.6912
   11CHTO  H154 4408   6.377   6.325   1.010 -0.2740 -1.5987 -2.4167
   11CHTO   C89 4409   6.514   6.484   1.075  0.2389  0.5100 -0.1147
   11CHTO   O59 4410   6.534   6.440   1.208  0.4549 -0.0786  0.1061
   11CHTO  H137 4411   6.599   6.488   1.256 -0.5295  0.0311  1.3802
   11CHTO   O45 4412   6.619   6.047   0.864  0.3785  0.0527 -0.2593
   11CHTO   C67 4413   6.719   6.059   0.757 -0.0532 -0.4439 -0.6344
   11CHTO  H124 4414   6.667   6.077   0.663 -0.9998 -0.8997 -0.1984
   11CHTO   C65 4415   6.832   6.171   0.782 -0.1458  0.3238  0.5721
   11CHTO  H122 4416   6.817   6.198   0.886  0.2377 -1.0646  0.9967
   11CHTO   O44 4417   6.796   6.287   0.698  0.2113  0.2724  0.2958
   11CHTO  H102 4418   6.837   6.365   0.730  0.3274 -0.4123  1.8496
   11CHTO   C63 4419   6.972   6.114   0.774 -0.5051  0.1161 -0.6180
   11CHTO  H120 4420   6.988   6.048   0.859 -0.9078  0.6403 -0.1329
   11CHTO   N11 4421   7.079   6.218   0.791 -0.2285  0.7524 -0.9504
   11CHTO  H108 4422   7.174   6.175   0.817 -0.9163  1.0870  2.4661
   11CHTO  H109 4423   7.089   6.274   0.701  2.4679  2.1115  0.1238
   11CHTO   C61 4424   6.986   6.032   0.639 -0.3751  0.0671 -0.2356
   11CHTO  H118 4425   7.087   5.987   0.637  0.1033  1.0577  0.7134
   11CHTO   O40 4426   6.896   5.923   0.633  0.8485 -0.1244  0.1185
   11CHTO   C68 4427   6.786   5.917   0.729 -0.0799 -0.2375 -0.2373
   11CHTO  H125 4428   6.821   5.879   0.827 -2.8896 -1.1714  0.4465
   11CHTO   C72 4429   6.676   5.821   0.671  0.7765  0.0133  0.1239
   11CHTO   O48 4430   6.718   5.713   0.592  0.0744 -0.0557  0.2719
   11CHTO  H105 4431   6.784   5.662   0.635  0.0209 -0.3581 -0.0019
   11CHTO   O38 4432   6.952   6.114   0.524  0.4405  0.2115 -0.1019
   11CHTO   C55 4433   7.027   6.092   0.402  0.4582 -0.5075  0.4341
   11CHTO  H112 4434   7.049   5.985   0.395 -1.7447 -0.8404 -2.3361
   11CHTO   C56 4435   7.157   6.180   0.387 -0.2254 -0.3381  0.8676
   11CHTO  H113 4436   7.131   6.282   0.418  0.4348  0.0735  0.0828
   11CHTO   O42 4437   7.249   6.140   0.490 -0.7559  0.6095 -0.2792
   11CHTO  H100 4438   7.212   6.155   0.575  0.2432  2.0429 -0.0892
   11CHTO   C57 4439   7.220   6.183   0.244  0.6140 -0.0496  0.1556
   11CHTO  H114 4440   7.255   6.083   0.221  1.0522  0.3364 -0.8812
   11CHTO   N10 4441   7.331   6.279   0.239  0.0426 -0.6771 -0.4071
   11CHTO  H106 4442   7.328   6.345   0.324 -0.6501 -1.8022  0.4556
   11CHTO  H107 4443   7.430   6.237   0.236  0.6243  0.0944  4.6060
   11CHTO   C58 4444   7.111   6.217   0.140  0.0485  0.9783 -1.0949
   11CHTO  H115 4445   7.078   6.322   0.155  2.8114  1.4617  2.1744
   11CHTO   O37 4446   7.016   6.110   0.152 -0.0068  0.2919  0.6624
   11CHTO   C59 4447   6.936   6.120   0.274 -0.7715 -0.3946 -0.0631
   11CHTO  H116 4448   6.885   6.216   0.269  0.5249  0.2593 -1.0873
   11CHTO   C70 4449   6.826   6.018   0.259 -0.1018  0.1609 -0.5924
   11CHTO   O46 4450   6.874   5.888   0.217  0.6630  0.1108 -0.0233
   11CHTO  H103 4451   6.823   5.820   0.256  1.0195 -1.2208 -1.8413
   11CHTO   O39 4452   7.164   6.186  -0.015 -0.4459 -0.4480 -0.2420
   11CHTO   C60 4453   7.109   6.266  -0.125  0.1644 -0.3500 -0.8296
   11CHTO  H117 4454   7.010   6.304  -0.102  0.4462 -1.4387  2.5709
   11CHTO   C62 4455   7.199   6.393  -0.156 -0.9351  0.7279 -0.5818
   11CHTO  H119 4456   7.182   6.454  -0.065 -0.4708  1.1093 -0.7465
   11CHTO   O43 4457   7.334   6.350  -0.164 -0.4118  1.1550  0.0144
   11CHTO  H101 4458   7.351   6.278  -0.106  1.0612  1.0388 -0.5454
   11CHTO   C66 4459   7.146   6.473  -0.287  0.5380 -0.2545 -0.2688
   11CHTO  H123 4460   7.042   6.500  -0.271  0.1720 -1.6577 -0.2202
   11CHTO   N12 4461   7.218   6.596  -0.324 -0.9021  0.0634  0.1182
   11CHTO  H110 4462   7.245   6.600  -0.429  1.3354  3.0329  0.7842
   11CHTO  H111 4463   7.302   6.610  -0.259 -1.3976  0.0597  0.7698
   11CHTO   C69 4464   7.144   6.367  -0.405  0.4719  0.5638  0.1370
   11CHTO  H126 4465   7.248   6.331  -0.419  0.5785  0.8915  0.0881
   11CHTO   O41 4466   7.062   6.260  -0.377 -0.2020 -0.2135  0.2595
   11CHTO   C64 4467   7.095   6.178  -0.247 -0.0063  0.0959  0.5656
   11CHTO  H121 4468   7.184   6.113  -0.261  0.1771  0.6779 -1.1289
   11CHTO   C71 4469   6.975   6.076  -0.229 -0.0992 -0.2694  0.1140
   11CHTO   O47 4470   6.843   6.127  -0.210 -0.1915 -0.1076 -0.6387
   11CHTO  H104 4471   6.789   6.054  -0.186  0.4542  0.3925  2.6412
   11CHTO   O34 4472   7.098   6.429  -0.541  0.3536 -0.3768 -0.3253
   11CHTO   C49 4473   7.053   6.393  -0.685  0.5048 -0.3105 -0.6570
   11CHTO   H91 4474   7.144   6.393  -0.745  0.6783  1.0005 -0.4027
   11CHTO   C47 4475   6.968   6.508  -0.737 -0.3962 -0.4300  0.1559
   11CHTO   H89 4476   6.943   6.477  -0.841  1.2065 -0.0716 -0.3566
   11CHTO   O33 4477   7.055   6.623  -0.742  0.5830 -0.1900 -0.1491
   11CHTO   H70 4478   7.022   6.696  -0.694  0.3035 -1.1375  1.1366
   11CHTO   C45 4479   6.840   6.526  -0.645  0.1504  0.0762 -0.3389
   11CHTO   H87 4480   6.878   6.580  -0.558 -2.6502 -1.0517  1.6493
   11CHTO    N8 4481   6.750   6.615  -0.715  0.4413  0.4058 -0.0833
   11CHTO   H75 4482   6.664   6.626  -0.651  1.0045 -1.7246  1.0950
   11CHTO   H76 4483   6.698   6.575  -0.802 -1.0469  0.0466  0.9503
   11CHTO   C43 4484   6.786   6.378  -0.587 -0.1573 -0.2220  0.7407
   11CHTO   H85 4485   6.828   6.368  -0.488  0.5684 -1.6146  0.3035
   11CHTO   O29 4486   6.824   6.266  -0.676 -0.0847 -0.2653 -0.7286
   11CHTO   C50 4487   6.972   6.262  -0.694  0.3351 -0.0706  0.5957
   11CHTO   H92 4488   7.017   6.195  -0.618  1.4152 -0.6862 -0.5651
   11CHTO   C54 4489   7.012   6.185  -0.824 -0.1408  0.7604 -0.1960
   11CHTO   O36 4490   6.952   6.231  -0.942 -0.4221 -0.2143  0.0456
   11CHTO   H72 4491   6.886   6.294  -0.921  1.0160  1.4354 -0.2887
   11CHTO   O27 4492   6.647   6.374  -0.572  0.1119  0.6196 -0.3841
   11CHTO   C37 4493   6.567   6.273  -0.503  0.2884 -0.0326 -0.5599
   11CHTO   H79 4494   6.625   6.180  -0.494 -0.4092 -0.3723  0.4202
   11CHTO   C38 4495   6.533   6.320  -0.360  0.5591  1.0046 -0.0329
   11CHTO   H80 4496   6.474   6.412  -0.365  0.1942  0.7327 -0.7852
   11CHTO   O31 4497   6.658   6.345  -0.290  0.0362  0.4081  0.4743
   11CHTO   H68 4498   6.709   6.267  -0.306 -1.3395 -0.7750  1.7399
   11CHTO   C39 4499   6.441   6.206  -0.279  0.9942 -0.5433  0.2957
   11CHTO   H81 4500   6.506   6.120  -0.266  0.1281 -1.5751 -2.0331
   11CHTO    N7 4501   6.391   6.262  -0.143  0.1542 -0.3252  0.1072
   11CHTO   H73 4502   6.371   6.186  -0.069  1.2992  0.6391  1.4286
   11CHTO   H74 4503   6.448   6.345  -0.105  0.7775 -0.8131  0.2281
   11CHTO   C40 4504   6.322   6.162  -0.364 -0.1716  0.0765 -0.1533
   11CHTO   H82 4505   6.239   6.231  -0.351 -1.0721 -1.1418  0.6604
   11CHTO   O26 4506   6.354   6.142  -0.502  0.1010  0.1726 -0.4865
   11CHTO   C41 4507   6.435   6.236  -0.574  0.2705  0.3720  0.0848
   11CHTO   H83 4508   6.379   6.326  -0.601 -0.4069 -0.6301 -1.9558
   11CHTO   C52 4509   6.462   6.167  -0.705 -0.2456  0.0353  0.1061
   11CHTO   O35 4510   6.506   6.259  -0.806 -0.0514  0.2439 -0.2497
   11CHTO   H71 4511   6.590   6.287  -0.775  0.1335  0.6256 -1.0779
   11CHTO   O28 4512   6.285   6.029  -0.324 -0.0377  0.0585  0.4775
   11CHTO   C42 4513   6.165   5.951  -0.313 -0.0336 -0.3841  0.0077
   11CHTO   H84 4514   6.105   5.973  -0.402 -0.0909 -2.1604 -0.4151
   11CHTO   C44 4515   6.078   5.986  -0.183  0.1788 -0.6228  0.5499
   11CHTO   H86 4516   6.137   5.955  -0.097  0.0502  0.1762  0.9277
   11CHTO   O32 4517   6.069   6.128  -0.170 -0.2114  0.3392  0.1324
   11CHTO   H69 4518   6.142   6.177  -0.201 -1.2294  0.6467 -1.8431
   11CHTO   C48 4519   5.938   5.908  -0.193  0.3288 -0.6094 -0.2942
   11CHTO   H90 4520   5.886   5.938  -0.284  0.9502 -1.3068 -0.8900
   11CHTO    N9 4521   5.849   5.948  -0.082  0.7660  0.0846 -0.0310
   11CHTO   H77 4522   5.804   5.857  -0.046 -0.5690  0.5637 -0.4535
   11CHTO   H78 4523   5.766   6.009  -0.115  0.3588 -0.1787  0.4959
   11CHTO   C51 4524   5.966   5.755  -0.204 -0.6635  0.6761  0.0439
   11CHTO   H93 4525   6.012   5.726  -0.110 -0.0621  3.5923  0.7103
   11CHTO   O30 4526   6.049   5.722  -0.322  0.3104 -0.0766 -0.2018
   11CHTO   C46 4527   6.185   5.796  -0.323  0.6284 -0.3322 -0.2877
   11CHTO   H88 4528   6.230   5.766  -0.228  0.3303 -1.1954 -0.4168
   11CHTO   C53 4529   6.270   5.750  -0.438  0.3005 -0.0483  0.6291
   11CHTO   O72 4530   6.338   5.627  -0.430 -0.0650  0.2550  0.5942
   11CHTO  H199 4531   6.361   5.587  -0.511  0.5236  0.9442  0.4214
   11CHTO   O22 4532   5.842   5.680  -0.215  0.4069  0.0233  0.0282
   11CHTO   C31 4533   5.818   5.563  -0.130 -0.6085 -0.1626 -0.0285
   11CHTO   H59 4534   5.897   5.559  -0.052 -0.6594  0.7789  0.0671
   11CHTO   C29 4535   5.683   5.578  -0.054 -0.2681 -0.5740  0.0822
   11CHTO   H57 4536   5.598   5.611  -0.115  0.4848 -0.5244 -0.9632
   11CHTO   O21 4537   5.694   5.675   0.048 -0.1122  0.4403 -0.7038
   11CHTO   H37 4538   5.723   5.750  -0.000  1.5183  0.9068  0.9161
   11CHTO   C27 4539   5.636   5.449   0.030 -0.6010 -0.0633  0.2964
   11CHTO   H55 4540   5.700   5.434   0.118 -1.4109 -2.5910  0.4980
   11CHTO    N5 4541   5.495   5.464   0.075  0.1545 -0.4431 -0.2196
   11CHTO   H43 4542   5.476   5.440   0.178 -0.9589  0.1344 -0.2865
   11CHTO   H44 4543   5.428   5.417   0.005 -0.7142  1.4611 -0.7239
   11CHTO   C25 4544   5.667   5.320  -0.050  0.3137  0.8083 -0.3884
   11CHTO   H53 4545   5.589   5.305  -0.126  0.4024 -0.7232 -0.1921
   11CHTO   O17 4546   5.800   5.328  -0.101 -0.1832 -0.3999 -0.2729
   11CHTO   C32 4547   5.821   5.426  -0.200  0.0215  0.0870 -0.0227
   11CHTO   H60 4548   5.737   5.421  -0.269  0.4776  1.4576 -0.6966
   11CHTO   C36 4549   5.957   5.398  -0.277  0.2174  0.2586 -0.5336
   11CHTO   O25 4550   5.954   5.271  -0.336 -0.0042  0.6536  0.0022
   11CHTO   H40 4551   6.037   5.249  -0.373 -0.5652 -0.3169 -0.7278
   11CHTO   O15 4552   5.661   5.197   0.045  0.4616  0.1107  0.3327
   11CHTO   C19 4553   5.601   5.066   0.023 -0.5030 -0.1523 -0.5961
   11CHTO   H47 4554   5.636   5.009   0.111 -1.9339 -1.9262 -1.1387
   11CHTO   C20 4555   5.442   5.071   0.034 -0.1351 -0.1694 -0.2327
   11CHTO   H48 4556   5.401   5.149  -0.033 -0.2364 -0.0813 -0.0673
   11CHTO   O19 4557   5.407   5.101   0.169 -0.4534  0.2169 -0.0414
   11CHTO   H35 4558   5.315   5.111   0.185 -0.3771  1.0530 -0.0917
   11CHTO   C21 4559   5.378   4.935  -0.006  0.1509  0.0247  0.6994
   11CHTO   H49 4560   5.386   4.864   0.076  0.9323 -0.1276  0.4904
   11CHTO    N4 4561   5.230   4.939  -0.035  0.0276  0.1443  0.2361
   11CHTO   H41 4562   5.187   4.990   0.050  1.8484 -0.8402  1.7864
   11CHTO   H42 4563   5.212   4.996  -0.125 -1.5388 -1.2866 -0.3959
   11CHTO   C22 4564   5.445   4.879  -0.135  0.0860  0.4433  0.4988
   11CHTO   H50 4565   5.432   4.952  -0.214 -0.5619  0.1648  0.3480
   11CHTO   O14 4566   5.585   4.866  -0.108 -0.1338 -0.1147 -0.0955
   11CHTO   C23 4567   5.653   4.989  -0.100 -0.3998 -0.5434  0.7877
   11CHTO   H51 4568   5.636   5.042  -0.194  1.6581  1.6672  1.5935
   11CHTO   C34 4569   5.807   4.973  -0.092  0.2630 -0.1931  0.3845
   11CHTO   O23 4570   5.847   4.903  -0.208 -0.0359  0.2284 -0.5806
   11CHTO   H38 4571   5.835   4.949  -0.289 -0.3895 -0.9875 -1.2271
   11CHTO   O16 4572   5.415   4.746  -0.180 -0.3817 -0.3406  0.0159
   11CHTO   C24 4573   5.383   4.747  -0.350 -0.0496  0.0675 -0.2213
   11CHTO   H52 4574   5.393   4.846  -0.394 -0.8669  0.8573  1.3158
   11CHTO   C26 4575   5.237   4.699  -0.383  0.4421  0.0735  0.1276
   11CHTO   H54 4576   5.221   4.601  -0.332 -1.4255  0.6239  0.6208
   11CHTO   O20 4577   5.139   4.789  -0.335  0.0996  0.9132 -0.0373
   11CHTO   H36 4578   5.065   4.741  -0.304  1.3900 -0.4331  1.0291
   11CHTO   C30 4579   5.216   4.688  -0.538 -0.3426 -0.5480 -0.1383
   11CHTO   H58 4580   5.218   4.792  -0.574  0.0614 -0.6904 -0.5312
   11CHTO    N6 4581   5.088   4.627  -0.576  0.0330  0.1217 -0.1239
   11CHTO   H45 4582   5.078   4.640  -0.683  1.0709 -1.9993 -0.5252
   11CHTO   H46 4583   5.012   4.681  -0.523 -1.4197 -0.9537 -1.0508
   11CHTO   C33 4584   5.336   4.612  -0.599  0.4525 -0.1548  0.5720
   11CHTO   H61 4585   5.343   4.511  -0.556 -0.1173  0.5056  2.2640
   11CHTO   O18 4586   5.456   4.672  -0.559 -0.1256 -0.2485  0.3054
   11CHTO   C28 4587   5.486   4.653  -0.419  0.0240  0.1833  0.1110
   11CHTO   H56 4588   5.465   4.550  -0.393 -1.5059  0.4961  0.1615
   11CHTO   C35 4589   5.630   4.686  -0.387  0.4206  0.3191 -0.9319
   11CHTO   O24 4590   5.690   4.610  -0.284  0.0217 -0.6953  0.2108
   11CHTO   H39 4591   5.782   4.624  -0.290 -0.2291  0.6950 -0.6526
   11CHTO    O9 4592   5.330   4.597  -0.747  0.3970  0.7449  0.2894
   11CHTO   C13 4593   5.355   4.740  -0.830 -0.6796  0.0369  0.9269
   11CHTO   H26 4594   5.394   4.812  -0.755 -0.5307  0.5278  0.3777
   11CHTO   C11 4595   5.219   4.794  -0.900 -0.2237  0.2141  0.0518
   11CHTO   H24 4596   5.139   4.818  -0.829  0.0632  0.7008  0.2143
   11CHTO    O8 4597   5.170   4.679  -0.974 -0.0636  0.2120 -0.1565
   11CHTO    H3 4598   5.106   4.631  -0.925 -0.4009  1.0118  0.1953
   11CHTO    C9 4599   5.239   4.923  -0.983 -0.5318 -0.2706  0.2739
   11CHTO   H22 4600   5.236   5.005  -0.911 -2.5289 -0.2071  0.1445
   11CHTO    N2 4601   5.124   4.965  -1.066  0.1057  0.2758 -0.4630
   11CHTO   H10 4602   5.030   4.938  -1.020  0.0365  0.1597 -0.6654
   11CHTO   H11 4603   5.137   5.063  -1.109  1.5978  0.9861  1.5607
   11CHTO    C7 4604   5.380   4.917  -1.053  0.2160  0.3004 -0.5821
   11CHTO   H20 4605   5.452   4.962  -0.982  0.6428  0.5599 -1.1715
   11CHTO    O4 4606   5.434   4.785  -1.074  0.6592  0.2455  0.3026
   11CHTO   C14 4607   5.470   4.722  -0.947  0.0636 -0.2613  0.1199
   11CHTO   H27 4608   5.563   4.771  -0.910  0.1441 -0.4329  0.1417
   11CHTO   C18 4609   5.508   4.571  -0.978  1.0091  0.1088 -0.0035
   11CHTO   O13 4610   5.553   4.495  -0.871  0.3128  0.1144 -0.0232
   11CHTO    H7 4611   5.628   4.546  -0.846 -0.0369  1.4118 -1.5433
   11CHTO    O2 4612   5.389   5.003  -1.192 -0.1792 -0.2334  0.0761
   11CHTO    C1 4613   5.514   5.069  -1.208  0.1525  0.0698 -0.0137
   11CHTO   H14 4614   5.589   5.008  -1.154 -1.7904 -1.4636  1.0334
   11CHTO    C2 4615   5.515   5.218  -1.153 -0.1999  0.1009 -0.6366
   11CHTO   H15 4616   5.433   5.271  -1.204 -0.2394 -0.5227 -1.2337
   11CHTO    O6 4617   5.487   5.216  -1.009 -0.1243  1.0206  0.1900
   11CHTO    H1 4618   5.413   5.160  -1.000  0.6295 -0.0073  0.0188
   11CHTO    C3 4619   5.653   5.289  -1.190 -0.7028 -0.1942 -0.1504
   11CHTO   H16 4620   5.730   5.259  -1.118  0.2807 -0.3787 -1.2559
   11CHTO    N1 4621   5.645   5.437  -1.176 -0.6247  0.4235 -0.1682
   11CHTO    H8 4622   5.547   5.478  -1.153  0.2622  2.4503  0.1712
   11CHTO    H9 4623   5.682   5.490  -1.263  0.5268  0.8324  0.5582
   11CHTO    C4 4624   5.699   5.256  -1.338  0.6229  0.0289  0.0682
   11CHTO   H17 4625   5.630   5.305  -1.406 -1.3553 -1.7136  0.7733
   11CHTO    O1 4626   5.689   5.113  -1.352  0.0668  0.0474 -0.0176
   11CHTO    C5 4627   5.559   5.064  -1.358  0.3191  0.0013 -0.3878
   11CHTO   H18 4628   5.496   5.130  -1.417 -0.4315  0.0228  0.4195
   11CHTO   C16 4629   5.567   4.923  -1.430 -0.3520 -0.7155  1.0186
   11CHTO   O11 4630   5.441   4.864  -1.442 -0.0723 -0.3427 -0.0721
   11CHTO    H5 4631   5.390   4.931  -1.484 -0.5759 -0.5687  0.1729
   11CHTO    O3 4632   5.840   5.286  -1.360  0.1016 -0.2142  0.6805
   11CHTO    C6 4633   5.879   5.343  -1.492  0.4212 -0.5490  0.6394
   11CHTO   H19 4634   5.829   5.307  -1.582  0.1231  0.8598  0.2277
   11CHTO    C8 4635   5.869   5.503  -1.501  0.2061 -0.3433  0.6320
   11CHTO   H21 4636   5.916   5.548  -1.414  0.2141 -0.0827  0.4939
   11CHTO    O7 4637   5.728   5.531  -1.494 -0.1262 -0.2710  0.1987
   11CHTO    H2 4638   5.671   5.511  -1.566  1.3063  2.4130 -1.7841
   11CHTO   C12 4639   5.936   5.556  -1.629 -0.2042  0.1915 -0.5038
   11CHTO   H25 4640   5.880   5.522  -1.719 -1.2915 -0.4661  0.3996
   11CHTO    N3 4641   5.935   5.705  -1.631 -0.1089 -0.1120 -0.2053
   11CHTO   H12 4642   6.023   5.743  -1.682 -0.2351  0.3323 -0.0992
   11CHTO   H13 4643   5.926   5.747  -1.532  0.0014  0.3076 -0.3729
   11CHTO   C15 4644   6.084   5.497  -1.640 -0.4460 -0.2801  0.0378
   11CHTO   H28 4645   6.150   5.535  -1.561 -0.0372 -2.6774  0.8824
   11CHTO   O10 4646   6.159   5.527  -1.777 -0.4556  0.1446  0.2846
   11CHTO    H4 4647   6.235   5.581  -1.767 -0.4228  0.3687 -1.0737
   11CHTO    O5 4648   6.082   5.354  -1.634 -0.5912 -0.2756  0.6778
   11CHTO   C10 4649   6.030   5.303  -1.506  0.3225 -0.5807  0.4223
   11CHTO   H23 4650   6.084   5.346  -1.423  0.6930  0.1140 -0.1757
   11CHTO   C17 4651   6.060   5.151  -1.509  0.9633  0.0117  0.3735
   11CHTO   O12 4652   6.042   5.079  -1.385  0.3440 -0.1105 -0.1902
   11CHTO    H6 4653   6.017   4.991  -1.407  1.6755 -0.2147 -1.4044
   12CHTO  H203 4654   5.465   2.303   5.386  1.5111  1.8265 -2.9477
   12CHTO   O82 4655   5.385   2.351   5.376 -0.0738 -0.0365  0.0292
   12CHTO  C123 4656   5.271   2.262   5.358 -0.2445  0.2503  0.2433
   12CHTO  H227 4657   5.179   2.320   5.346 -1.2584 -1.5866 -1.2377
   12CHTO   O77 4658   5.303   2.202   5.230 -0.1486 -0.3182 -0.5426
   12CHTO  C118 4659   5.206   2.114   5.171 -0.6185  0.0253 -0.4543
   12CHTO  H222 4660   5.105   2.155   5.157 -0.5431 -0.0754 -1.3308
   12CHTO  C125 4661   5.258   2.073   5.023 -0.7268  0.6127 -0.4747
   12CHTO   O84 4662   5.390   2.012   5.023  0.1516 -0.1793 -0.3136
   12CHTO  H205 4663   5.462   2.071   5.009 -1.2733  1.6135 -0.3662
   12CHTO  C114 4664   5.188   1.986   5.260 -0.0804 -0.0316 -0.6319
   12CHTO  H218 4665   5.280   1.928   5.256 -1.0012 -1.5629  0.1117
   12CHTO  C116 4666   5.167   2.033   5.412  0.6106 -0.4127  0.6941
   12CHTO  H220 4667   5.060   2.063   5.418  0.2329 -1.8102  1.0785
   12CHTO   O79 4668   5.178   1.919   5.496  0.3795  0.9693 -0.4392
   12CHTO  H201 4669   5.107   1.860   5.478  2.3980 -2.6559  2.6436
   12CHTO  C120 4670   5.257   2.150   5.464  0.4882 -0.2741  0.4594
   12CHTO  H224 4671   5.360   2.111   5.479  0.6099 -0.3677 -0.5966
   12CHTO   N21 4672   5.207   2.199   5.591  0.3410  0.4231  0.9343
   12CHTO  H211 4673   5.283   2.242   5.655  0.6450  1.0854  0.1286
   12CHTO  H212 4674   5.127   2.270   5.576  1.3431  1.9022  2.4968
   12CHTO   O75 4675   5.087   1.906   5.197  0.3351  0.6647  0.2149
   12CHTO  C112 4676   5.113   1.742   5.177  0.3892 -0.2022  0.3534
   12CHTO  H216 4677   5.014   1.695   5.171  0.1655  0.2319  0.5869
   12CHTO   O73 4678   5.188   1.694   5.294 -0.3152 -0.6410  0.0381
   12CHTO  C113 4679   5.237   1.562   5.302  0.2582 -0.5625  0.3209
   12CHTO  H217 4680   5.146   1.506   5.333  1.4214 -1.9125  1.3678
   12CHTO  C124 4681   5.341   1.545   5.416  0.0629 -0.0568  0.0871
   12CHTO   O83 4682   5.433   1.650   5.426 -0.1501 -0.2203 -0.3266
   12CHTO  H204 4683   5.391   1.712   5.483  3.3348  2.4082 -0.4428
   12CHTO  C109 4684   5.309   1.516   5.167  0.2864 -0.4023  0.6217
   12CHTO  H213 4685   5.413   1.551   5.173  0.5576 -0.0961 -4.0038
   12CHTO  C110 4686   5.236   1.570   5.040  0.1566  0.2629  0.2947
   12CHTO  H214 4687   5.147   1.508   5.034  1.5753 -1.7905 -0.0942
   12CHTO   O78 4688   5.327   1.538   4.929  0.2305  0.2579  0.2178
   12CHTO  H200 4689   5.316   1.455   4.887 -0.8492  1.0804 -1.1702
   12CHTO  C111 4690   5.193   1.716   5.048 -0.0878 -0.3119  0.3189
   12CHTO  H215 4691   5.280   1.783   5.059 -0.4408  0.2339 -0.1913
   12CHTO   N19 4692   5.116   1.761   4.933  0.3418 -0.1916  0.1204
   12CHTO  H207 4693   5.177   1.795   4.851 -1.2189  0.6419 -0.7129
   12CHTO  H208 4694   5.063   1.851   4.959 -0.0162  0.3210 -2.3075
   12CHTO   O74 4695   5.309   1.365   5.176 -0.0722 -0.1030  0.0816
   12CHTO  C115 4696   5.450   1.303   5.170 -0.1789 -0.2374 -0.6209
   12CHTO  H219 4697   5.520   1.371   5.121 -0.1166 -0.8344 -1.3597
   12CHTO   O76 4698   5.505   1.280   5.312  0.6289  0.5357  0.5327
   12CHTO  C122 4699   5.426   1.198   5.401  0.4193  0.2076  0.3837
   12CHTO  H226 4700   5.348   1.259   5.448  0.6795  0.5774  0.3365
   12CHTO  C126 4701   5.502   1.133   5.519  0.2193  0.1686  0.0523
   12CHTO   O85 4702   5.417   1.096   5.625 -0.3983 -0.0559 -0.3432
   12CHTO  H206 4703   5.396   1.172   5.676 -2.0912 -1.1337  0.6311
   12CHTO  C121 4704   5.349   1.078   5.324 -0.1809 -0.3035  0.6719
   12CHTO  H225 4705   5.348   0.988   5.389  0.2945  0.0861  1.2205
   12CHTO   O81 4706   5.208   1.109   5.298  0.3530 -0.4360  0.1055
   12CHTO  H202 4707   5.175   1.155   5.372  0.7637  1.1401 -0.6772
   12CHTO  C119 4708   5.422   1.038   5.188  0.0926  0.6113  0.3633
   12CHTO  H223 4709   5.518   1.004   5.228 -1.0127 -1.2450  1.5606
   12CHTO  C117 4710   5.448   1.165   5.092  0.7364  0.3731 -0.1501
   12CHTO  H221 4711   5.364   1.177   5.024  0.9488 -0.4542 -0.5650
   12CHTO   N20 4712   5.577   1.145   5.006  0.2109 -0.0698 -0.2344
   12CHTO  H209 4713   5.660   1.147   5.076  0.0168  2.6241 -0.0024
   12CHTO  H210 4714   5.597   1.231   4.943  0.4994 -0.1354 -0.2347
   12CHTO   O80 4715   5.367   0.910   5.120  0.9922 -0.6927  0.7385
   12CHTO  C103 4716   5.328   0.783   5.199  0.1700 -0.5163 -0.7524
   12CHTO  H190 4717   5.375   0.794   5.297 -0.2613 -0.5988 -0.5377
   12CHTO  C101 4718   5.177   0.762   5.206 -0.2248 -0.8904 -0.1952
   12CHTO  H188 4719   5.136   0.789   5.109  0.5068  0.8530 -0.0316
   12CHTO   O68 4720   5.129   0.858   5.293  0.3439  0.3424 -0.5846
   12CHTO  H168 4721   5.128   0.945   5.259  1.4882  1.2228  1.5108
   12CHTO   C99 4722   5.137   0.612   5.237 -0.1252 -0.5314 -0.4523
   12CHTO  H186 4723   5.162   0.596   5.344 -0.6141  1.3999 -0.0431
   12CHTO   N17 4724   4.984   0.585   5.224  0.1665 -0.3651 -0.1754
   12CHTO  H174 4725   4.974   0.483   5.258  0.8618 -0.5272 -0.4437
   12CHTO  H175 4726   4.926   0.646   5.291 -1.6791 -1.2639 -0.9209
   12CHTO   C97 4727   5.225   0.512   5.155 -0.2342 -0.1249  0.0860
   12CHTO  H184 4728   5.198   0.529   5.050  0.5802 -1.2249 -0.3152
   12CHTO   O64 4729   5.366   0.538   5.180 -0.2307  0.2988 -0.0192
   12CHTO  C104 4730   5.407   0.665   5.127 -0.4044  0.5876 -0.2238
   12CHTO  H191 4731   5.394   0.675   5.020 -0.0522  0.5588 -0.2684
   12CHTO  C108 4732   5.557   0.674   5.151  0.2321  0.0659  0.3767
   12CHTO   O71 4733   5.623   0.782   5.081 -0.2589 -0.1327  0.3764
   12CHTO  H171 4734   5.615   0.865   5.124 -0.4798  0.4303 -0.7290
   12CHTO   O62 4735   5.225   0.375   5.187  0.3823 -0.1580  0.3400
   12CHTO   C91 4736   5.285   0.298   5.080  0.3146  0.4132  0.2876
   12CHTO  H178 4737   5.323   0.362   5.001 -0.0687  0.2754 -0.0176
   12CHTO   C92 4738   5.165   0.227   5.006  0.3548  0.1941  0.9532
   12CHTO  H179 4739   5.109   0.165   5.077 -1.8568  0.6885 -0.2964
   12CHTO   O66 4740   5.075   0.330   4.972 -0.4277  0.1728  0.2781
   12CHTO  H166 4741   5.132   0.396   4.937 -1.6965  1.0578 -0.1747
   12CHTO   C93 4742   5.212   0.143   4.872  0.8956  0.8730  0.5880
   12CHTO  H180 4743   5.262   0.218   4.809 -1.6512  1.8358 -0.3391
   12CHTO   N16 4744   5.105   0.083   4.794 -0.4530  0.4874 -0.1430
   12CHTO  H172 4745   5.139   0.012   4.721 -0.1828 -2.2432  2.5504
   12CHTO  H173 4746   5.053   0.166   4.748 -0.5671  1.0045  0.9023
   12CHTO   C94 4747   5.314   0.035   4.918 -1.0751 -0.6587  0.2205
   12CHTO  H181 4748   5.271  -0.037   4.988  2.3625 -2.2940  0.7174
   12CHTO   O61 4749   5.425   0.105   4.984 -0.6857  0.7508 -0.5666
   12CHTO   C95 4750   5.389   0.179   5.103 -0.2439  0.4610  0.3317
   12CHTO  H182 4751   5.345   0.103   5.168 -1.4262 -0.3203 -1.3417
   12CHTO  C106 4752   5.505   0.234   5.172 -0.4430  0.1518 -0.4506
   12CHTO   O69 4753   5.592   0.123   5.215 -0.3893 -0.2157 -0.2005
   12CHTO  H169 4754   5.670   0.166   5.244 -0.2422  0.4559 -1.5871
   12CHTO   O63 4755   5.373  -0.052   4.797  0.2926 -0.2295  0.3512
   12CHTO   C96 4756   5.481  -0.162   4.842 -0.6445  0.3922  0.1616
   12CHTO  H183 4757   5.472  -0.162   4.951 -0.2250  1.6089  0.2097
   12CHTO   C98 4758   5.627  -0.133   4.801 -0.1507  0.3691  0.6948
   12CHTO  H185 4759   5.643  -0.138   4.693 -1.5541 -0.8053  0.5264
   12CHTO   O67 4760   5.678  -0.005   4.840  0.3903 -0.3759 -0.1654
   12CHTO  H167 4761   5.638   0.033   4.915  2.7826 -1.5119  1.7354
   12CHTO  C102 4762   5.731  -0.243   4.866 -0.0360  0.0912 -0.3168
   12CHTO  H189 4763   5.720  -0.236   4.975  2.5066 -3.2321  0.2296
   12CHTO   N18 4764   5.875  -0.219   4.834  0.1662  0.6117 -0.7533
   12CHTO  H176 4765   5.924  -0.315   4.848  1.2155  1.1020 -1.0064
   12CHTO  H177 4766   5.899  -0.189   4.734  1.8631  3.0919  0.3484
   12CHTO  C105 4767   5.682  -0.381   4.820  0.4599  0.4548 -0.6911
   12CHTO  H192 4768   5.702  -0.388   4.713 -1.8373 -2.2662 -1.0282
   12CHTO   O65 4769   5.536  -0.398   4.834  0.0999 -0.6859  0.0703
   12CHTO  C100 4770   5.444  -0.298   4.794  0.0768  0.3504 -0.1417
   12CHTO  H187 4771   5.439  -0.287   4.684 -1.3429  2.9152  0.1257
   12CHTO  C107 4772   5.309  -0.345   4.846 -0.2757  0.0503 -0.0494
   12CHTO   O70 4773   5.268  -0.467   4.789 -0.0083  0.5416 -0.3327
   12CHTO  H170 4774   5.200  -0.450   4.727 -0.7941  4.4621  1.4015
   12CHTO   O57 4775   5.773  -0.495   4.917 -0.0928 -0.7405  0.2843
   12CHTO   C85 4776   5.727  -0.622   4.951  0.1968 -0.1174 -0.4503
   12CHTO  H157 4777   5.673  -0.659   4.861 -2.4735  0.0240  1.0409
   12CHTO   C83 4778   5.616  -0.618   5.061  0.2024 -0.2371  0.1308
   12CHTO  H155 4779   5.533  -0.560   5.020  0.4350  1.1535  1.5841
   12CHTO   O56 4780   5.662  -0.531   5.166  0.6431 -0.3327  0.5050
   12CHTO  H135 4781   5.725  -0.571   5.222  1.3988 -2.0441 -1.5041
   12CHTO   C81 4782   5.568  -0.761   5.100 -0.2858  0.7130  0.0397
   12CHTO  H153 4783   5.537  -0.814   5.010  0.0392 -1.3666  1.1208
   12CHTO   N14 4784   5.440  -0.755   5.181 -0.3275 -0.3125 -0.6628
   12CHTO  H141 4785   5.464  -0.722   5.280 -2.8901 -1.6424  0.4467
   12CHTO  H142 4786   5.391  -0.849   5.188  0.1147 -0.5041 -0.0808
   12CHTO   C79 4787   5.685  -0.840   5.155 -0.5040 -0.6629  0.5952
   12CHTO  H151 4788   5.648  -0.940   5.177 -0.6733 -0.7323  0.0025
   12CHTO   O52 4789   5.787  -0.847   5.059 -0.0341 -0.2395 -0.2078
   12CHTO   C86 4790   5.835  -0.726   5.001  0.4411 -0.1387  0.0354
   12CHTO  H158 4791   5.888  -0.670   5.081 -1.1365  1.5593 -0.0829
   12CHTO   C90 4792   5.939  -0.754   4.892 -0.3383  0.4251  0.2525
   12CHTO   O60 4793   5.880  -0.838   4.793 -0.2257  0.2151 -0.1711
   12CHTO  H138 4794   5.809  -0.786   4.760 -0.6028  1.0412  1.8642
   12CHTO   O50 4795   5.731  -0.788   5.277 -0.7121  0.4234  0.5464
   12CHTO   C73 4796   5.716  -0.846   5.406 -0.3171 -0.1244 -0.7685
   12CHTO  H145 4797   5.627  -0.910   5.413  0.2065 -0.8541 -0.6467
   12CHTO   C74 4798   5.704  -0.731   5.510 -0.2525  0.3489  0.1698
   12CHTO  H146 4799   5.618  -0.668   5.487  0.2111  0.6294 -0.8194
   12CHTO   O54 4800   5.670  -0.788   5.633  0.0475 -0.9912 -0.5358
   12CHTO  H133 4801   5.663  -0.719   5.697 -1.7060  0.0759 -1.8358
   12CHTO   C75 4802   5.836  -0.652   5.523  0.3371  0.4798 -0.4459
   12CHTO  H147 4803   5.854  -0.598   5.429  4.4807 -1.5117 -0.8768
   12CHTO   N13 4804   5.834  -0.541   5.616 -0.7220  0.6289 -0.5859
   12CHTO  H139 4805   5.757  -0.551   5.692 -0.6354 -0.3396 -0.6324
   12CHTO  H140 4806   5.935  -0.512   5.638 -1.2610  1.1172  1.3917
   12CHTO   C76 4807   5.957  -0.748   5.548 -0.2174  0.6399  0.1905
   12CHTO  H148 4808   5.937  -0.802   5.641 -0.8510  2.7704  1.3369
   12CHTO   O49 4809   5.958  -0.843   5.437 -0.0494 -0.0763 -0.3079
   12CHTO   C77 4810   5.845  -0.933   5.439 -0.2111  0.2991 -0.2283
   12CHTO  H149 4811   5.823  -0.983   5.533 -1.0261 -0.5333 -0.8536
   12CHTO   C88 4812   5.862  -1.048   5.341  0.2720  0.2292  0.5549
   12CHTO   O58 4813   6.007  -1.112   5.383 -0.0351  0.3910  0.5226
   12CHTO  H136 4814   6.062  -1.116   5.307 -0.4858  1.7268  0.1135
   12CHTO   O51 4815   6.110  -0.680   5.540  0.0830 -0.3779  0.7689
   12CHTO   C78 4816   6.220  -0.783   5.577 -0.4217 -0.1491  1.0583
   12CHTO  H150 4817   6.203  -0.887   5.542  0.6725  0.3500 -1.0416
   12CHTO   C80 4818   6.247  -0.791   5.730  0.0880  0.0529  0.7710
   12CHTO  H152 4819   6.276  -0.690   5.768 -1.8356  0.3636  1.4799
   12CHTO   O55 4820   6.130  -0.835   5.798 -0.2809  0.2917 -0.0553
   12CHTO  H134 4821   6.058  -0.775   5.801  0.1875  0.8389  0.2607
   12CHTO   C84 4822   6.364  -0.898   5.757 -0.2226 -0.3682  0.0223
   12CHTO  H156 4823   6.332  -1.000   5.737  0.4772 -0.5239 -0.2965
   12CHTO   N15 4824   6.413  -0.901   5.895  0.1003  0.1798 -0.1648
   12CHTO  H143 4825   6.380  -0.994   5.937  0.5196  0.0602 -0.0995
   12CHTO  H144 4826   6.371  -0.819   5.949  1.0080  0.9945 -0.6852
   12CHTO   C87 4827   6.482  -0.858   5.662 -0.2119  0.4809  0.0925
   12CHTO  H159 4828   6.529  -0.764   5.690 -0.1892 -0.2405  2.6307
   12CHTO   O53 4829   6.437  -0.861   5.526  0.3560 -0.2519 -0.5179
   12CHTO   C82 4830   6.348  -0.747   5.508  0.4251  0.0451  0.2457
   12CHTO  H154 4831   6.392  -0.654   5.544  0.5201 -0.6241  1.9426
   12CHTO   C89 4832   6.322  -0.736   5.359  0.6368 -0.1107 -0.0722
   12CHTO   O59 4833   6.419  -0.690   5.269  0.6516 -0.3387 -0.2007
   12CHTO  H137 4834   6.503  -0.681   5.310  1.1108  2.3576 -1.5837
   12CHTO   O45 4835   6.598  -0.977   5.670  0.1381  0.4171 -0.4827
   12CHTO   C67 4836   6.699  -0.983   5.566 -0.1788  0.1724 -0.3105
   12CHTO  H124 4837   6.701  -0.884   5.520  3.4957  0.5104  0.4026
   12CHTO   C65 4838   6.839  -1.021   5.627  0.3429  0.0326  0.2808
   12CHTO  H122 4839   6.845  -0.966   5.721 -2.4186  0.4905  0.2195
   12CHTO   O44 4840   6.941  -0.989   5.524  0.4069  0.2070  0.5172
   12CHTO  H102 4841   6.946  -1.042   5.447  0.0891 -0.9781  1.3008
   12CHTO   C63 4842   6.838  -1.175   5.673  0.7120 -0.2801  0.6743
   12CHTO  H120 4843   6.750  -1.190   5.735 -0.7525  1.1348 -1.0109
   12CHTO   N11 4844   6.941  -1.221   5.766 -0.3179 -0.1247  0.3659
   12CHTO  H108 4845   6.935  -1.164   5.857  0.9403 -1.3672  1.2504
   12CHTO  H109 4846   7.038  -1.208   5.723 -1.6088 -0.1795 -2.6921
   12CHTO   C61 4847   6.817  -1.261   5.547 -0.0140 -0.0311  0.8245
   12CHTO  H118 4848   6.808  -1.363   5.586  2.6470 -0.1414  1.2212
   12CHTO   O40 4849   6.686  -1.223   5.480  0.3308  0.5127  0.1005
   12CHTO   C68 4850   6.658  -1.088   5.450 -0.0799 -0.4070 -0.5478
   12CHTO  H125 4851   6.551  -1.071   5.426  0.3916  1.0878 -1.6792
   12CHTO   C72 4852   6.731  -1.047   5.322  0.0672 -0.1009  0.1475
   12CHTO   O48 4853   6.697  -1.129   5.212  0.5410 -0.1284  0.3354
   12CHTO  H105 4854   6.656  -1.070   5.152  0.9860 -0.3252 -0.1732
   12CHTO   O38 4855   6.929  -1.251   5.452  0.3850 -0.1232  0.3261
   12CHTO   C55 4856   7.039  -1.343   5.469  0.6092 -0.2476 -0.3239
   12CHTO  H112 4857   7.024  -1.402   5.561 -0.6224 -0.7823 -0.8569
   12CHTO   C56 4858   7.174  -1.256   5.475  0.5551  0.4268  0.2219
   12CHTO  H113 4859   7.165  -1.192   5.385  0.8603 -0.0359 -0.1408
   12CHTO   O42 4860   7.175  -1.161   5.589 -0.0542  0.1111 -0.0688
   12CHTO  H100 4861   7.153  -1.204   5.670 -0.6930 -2.1888 -1.3880
   12CHTO   C57 4862   7.303  -1.341   5.466 -0.0164  0.2914  0.5919
   12CHTO  H114 4863   7.310  -1.397   5.559  1.7041 -0.9394 -0.2655
   12CHTO   N10 4864   7.427  -1.262   5.445 -0.2276  0.1626 -0.0858
   12CHTO  H106 4865   7.469  -1.241   5.543  1.0950 -0.3020 -0.5372
   12CHTO  H107 4866   7.501  -1.304   5.378 -1.4113 -0.0492 -1.2657
   12CHTO   C58 4867   7.291  -1.450   5.355 -0.1074  0.1796 -0.5239
   12CHTO  H115 4868   7.307  -1.403   5.256 -1.5085  0.5798 -0.5735
   12CHTO   O37 4869   7.168  -1.517   5.358  0.5025 -0.1815 -0.0790
   12CHTO   C59 4870   7.052  -1.442   5.338  0.1915 -0.2876 -0.0447
   12CHTO  H116 4871   7.054  -1.377   5.251 -1.1342 -0.4388 -0.1961
   12CHTO   C70 4872   6.932  -1.540   5.324 -0.0283 -0.0655 -0.3347
   12CHTO   O46 4873   6.821  -1.468   5.263  0.8702  0.2187 -0.0974
   12CHTO  H103 4874   6.822  -1.488   5.172 -0.6398 -3.5307  0.6163
   12CHTO   O39 4875   7.400  -1.563   5.376 -0.4237 -0.4809 -0.0681
   12CHTO   C60 4876   7.441  -1.631   5.257  0.6013 -0.4006  0.1217
   12CHTO  H117 4877   7.366  -1.610   5.180  0.1993 -1.1487  0.3053
   12CHTO   C62 4878   7.574  -1.580   5.207  1.0583  0.4909  0.2386
   12CHTO  H119 4879   7.548  -1.480   5.165 -0.4609 -0.0692 -0.2134
   12CHTO   O43 4880   7.666  -1.582   5.320  0.4338 -0.1603  0.0802
   12CHTO  H101 4881   7.738  -1.525   5.300 -0.1833  0.2268 -1.0691
   12CHTO   C66 4882   7.623  -1.664   5.076  0.5264  0.2338 -0.1891
   12CHTO  H123 4883   7.552  -1.648   4.995  0.2986 -0.7824 -0.1981
   12CHTO   N12 4884   7.754  -1.612   5.029  0.3285 -0.4112  0.1169
   12CHTO  H110 4885   7.837  -1.632   5.096 -0.0669 -1.9569  0.1486
   12CHTO  H111 4886   7.773  -1.645   4.928 -0.8930 -1.6931  0.3053
   12CHTO   C69 4887   7.616  -1.814   5.107  0.2656  0.1034 -0.4634
   12CHTO  H126 4888   7.692  -1.845   5.182  0.5713  1.3659 -0.2491
   12CHTO   O41 4889   7.475  -1.851   5.159 -0.2669 -0.0027  0.1387
   12CHTO   C64 4890   7.444  -1.782   5.285 -0.3355 -0.0422 -0.1085
   12CHTO  H121 4891   7.518  -1.805   5.365 -0.2961  0.8501  0.1167
   12CHTO   C71 4892   7.301  -1.834   5.327  0.7742  0.1555 -0.5130
   12CHTO   O47 4893   7.205  -1.838   5.219 -0.6638 -0.3242 -0.4328
   12CHTO  H104 4894   7.222  -1.901   5.151 -0.0080  1.2604 -1.7752
   12CHTO   O34 4895   7.638  -1.910   4.966 -0.3534 -1.0694  0.0908
   12CHTO   C49 4896   7.734  -2.054   4.987 -0.1090 -0.3237 -0.0304
   12CHTO   H91 4897   7.838  -2.023   4.996 -0.6917  2.3403 -1.7119
   12CHTO   C47 4898   7.720  -2.130   4.855 -0.2935  0.1882 -0.2077
   12CHTO   H89 4899   7.791  -2.215   4.858 -0.2634  0.1900 -0.8149
   12CHTO   O33 4900   7.762  -2.046   4.741  0.3445 -0.6022  0.1926
   12CHTO   H70 4901   7.854  -2.029   4.738  0.1321  0.3197 -1.4797
   12CHTO   C45 4902   7.570  -2.181   4.842  0.1034 -0.4432  0.0630
   12CHTO   H87 4903   7.515  -2.107   4.782 -1.7033 -0.8098  1.2279
   12CHTO    N8 4904   7.557  -2.308   4.764 -0.2228 -0.4986 -0.1467
   12CHTO   H75 4905   7.653  -2.356   4.759 -0.3370 -1.3091  3.8706
   12CHTO   H76 4906   7.520  -2.295   4.663 -1.2929  0.0612  0.3075
   12CHTO   C43 4907   7.484  -2.178   4.976  1.0362 -0.4642 -0.2957
   12CHTO   H85 4908   7.442  -2.078   4.994  0.0398 -0.7820 -0.8241
   12CHTO   O29 4909   7.569  -2.222   5.084 -0.5531 -0.5781 -0.1296
   12CHTO   C50 4910   7.691  -2.146   5.102 -0.3410 -0.0518  0.3940
   12CHTO   H92 4911   7.677  -2.083   5.191  0.8507  0.2263  0.3949
   12CHTO   C54 4912   7.809  -2.232   5.148  0.3083 -0.6991 -0.1998
   12CHTO   O36 4913   7.821  -2.337   5.056 -0.0591 -0.0467  0.6655
   12CHTO   H72 4914   7.911  -2.342   5.030 -0.1241  0.5965  0.3105
   12CHTO   O27 4915   7.362  -2.259   4.965  0.2567 -0.4687 -0.0093
   12CHTO   C37 4916   7.266  -2.290   5.073  0.0897 -0.4338  0.2207
   12CHTO   H79 4917   7.255  -2.399   5.069 -1.0466 -0.2782 -2.7854
   12CHTO   C38 4918   7.314  -2.244   5.218  0.2554 -0.3239 -0.2979
   12CHTO   H80 4919   7.355  -2.142   5.215 -0.4062 -0.0486  0.1784
   12CHTO   O31 4920   7.422  -2.327   5.263 -0.2729 -0.1961  0.5579
   12CHTO   H68 4921   7.445  -2.323   5.354  1.2156  0.6514  0.1470
   12CHTO   C39 4922   7.193  -2.234   5.317  0.3759 -0.1854 -0.3742
   12CHTO   H81 4923   7.166  -2.335   5.349 -3.0967  0.8131  0.0344
   12CHTO    N7 4924   7.226  -2.165   5.451 -0.1491 -0.1173 -0.2480
   12CHTO   H73 4925   7.273  -2.071   5.425 -1.8657  0.6522 -0.6546
   12CHTO   H74 4926   7.285  -2.236   5.506  0.0925  0.7655  0.6456
   12CHTO   C40 4927   7.058  -2.184   5.249 -0.2313 -0.4645  0.3962
   12CHTO   H82 4928   7.070  -2.079   5.223  1.5888 -1.1825 -1.8207
   12CHTO   O26 4929   7.037  -2.260   5.126  0.5646 -0.1221 -0.1295
   12CHTO   C41 4930   7.135  -2.225   5.026  0.0997 -0.0770 -0.0382
   12CHTO   H83 4931   7.143  -2.116   5.018  0.4476 -0.1714 -1.1249
   12CHTO   C52 4932   7.084  -2.286   4.891 -0.3975  0.6075 -0.9547
   12CHTO   O35 4933   6.969  -2.213   4.835  0.0820  0.0639 -0.0279
   12CHTO   H71 4934   6.933  -2.256   4.760 -2.7048  1.6627  0.3339
   12CHTO   O28 4935   6.943  -2.196   5.333  0.2416 -0.0557 -0.0367
   12CHTO   C42 4936   6.807  -2.136   5.317 -0.4784 -0.4097 -0.7195
   12CHTO   H84 4937   6.746  -2.177   5.397  1.0871  0.7106  1.0657
   12CHTO   C44 4938   6.734  -2.169   5.184  0.4308  0.1035 -0.0485
   12CHTO   H86 4939   6.806  -2.155   5.103 -0.3203 -0.0716 -0.7573
   12CHTO   O32 4940   6.711  -2.308   5.183  0.1885 -0.3430 -0.0966
   12CHTO   H69 4941   6.779  -2.347   5.131  1.4160  2.4347 -0.6752
   12CHTO   C48 4942   6.596  -2.089   5.159  0.2531 -0.3419 -0.5176
   12CHTO   H90 4943   6.523  -2.144   5.219  0.8395 -2.1829 -1.4376
   12CHTO    N9 4944   6.554  -2.097   5.012 -0.3301  0.5150 -0.1469
   12CHTO   H77 4945   6.455  -2.136   4.993 -0.8090  1.9680 -0.6816
   12CHTO   H78 4946   6.564  -2.004   4.958 -1.8688  0.8387  0.1109
   12CHTO   C51 4947   6.601  -1.944   5.220 -0.4776 -0.4648 -0.5711
   12CHTO   H93 4948   6.657  -1.892   5.142  5.3519  1.5849  4.5086
   12CHTO   O30 4949   6.664  -1.935   5.348 -0.0322 -0.7059 -0.3605
   12CHTO   C46 4950   6.806  -1.982   5.347 -0.3452  0.9265 -0.2975
   12CHTO   H88 4951   6.865  -1.928   5.273  2.1489 -1.8757 -0.4081
   12CHTO   C53 4952   6.860  -1.959   5.487 -0.1587  0.1667 -0.4592
   12CHTO   O72 4953   6.888  -1.822   5.517  0.3116 -0.3384  0.5312
   12CHTO  H199 4954   6.981  -1.809   5.508  0.6094 -0.5368  3.0233
   12CHTO   O22 4955   6.469  -1.891   5.225 -0.5069 -0.4153  0.2072
   12CHTO   C31 4956   6.442  -1.747   5.244  0.5725 -0.5887 -0.8570
   12CHTO   H59 4957   6.332  -1.736   5.238  0.4135  0.0552  2.2795
   12CHTO   C29 4958   6.470  -1.693   5.386 -0.4519 -0.2271 -0.4019
   12CHTO   H57 4959   6.580  -1.697   5.396 -0.2349 -0.3221 -2.6613
   12CHTO   O21 4960   6.424  -1.773   5.497  0.0989 -0.4521  0.3337
   12CHTO   H37 4961   6.481  -1.818   5.557  0.2492 -2.9701 -1.6508
   12CHTO   C27 4962   6.428  -1.542   5.402  0.0316  0.1034  0.3828
   12CHTO   H55 4963   6.319  -1.535   5.391  0.0155 -0.1872  0.3480
   12CHTO    N5 4964   6.466  -1.485   5.534  0.0518  0.4121 -0.2592
   12CHTO   H43 4965   6.376  -1.475   5.591 -0.5811  0.8016 -1.3007
   12CHTO   H44 4966   6.510  -1.387   5.522  0.2006  0.3779  0.0064
   12CHTO   C25 4967   6.471  -1.454   5.281 -0.1753  1.1712 -0.1243
   12CHTO   H53 4968   6.576  -1.423   5.284  0.4542 -0.7360 -1.6292
   12CHTO   O17 4969   6.469  -1.524   5.150 -0.4499  0.1239 -0.1583
   12CHTO   C32 4970   6.504  -1.657   5.136  0.0956  0.0005  0.3293
   12CHTO   H60 4971   6.613  -1.663   5.141  0.0200 -1.8584 -0.0783
   12CHTO   C36 4972   6.457  -1.707   4.996  0.4761  0.2883 -0.0160
   12CHTO   O25 4973   6.540  -1.639   4.895  0.2868 -0.1018 -0.4947
   12CHTO   H40 4974   6.501  -1.657   4.812 -2.9743  1.7185  0.5235
   12CHTO   O15 4975   6.372  -1.304   5.273  0.1731 -0.1736 -0.8523
   12CHTO   C19 4976   6.261  -1.245   5.198  0.5816  0.3189 -0.2527
   12CHTO   H47 4977   6.222  -1.175   5.273  2.0038 -1.4964  2.2247
   12CHTO   C20 4978   6.312  -1.176   5.065  0.6596 -0.6707 -0.6015
   12CHTO   H48 4979   6.358  -1.251   4.999  0.3074 -0.8852 -0.6080
   12CHTO   O19 4980   6.406  -1.083   5.116 -0.1958  0.3367 -0.2736
   12CHTO   H35 4981   6.443  -1.031   5.047  2.5799 -1.4776 -0.2764
   12CHTO   C21 4982   6.195  -1.104   4.993 -0.4516  0.0476  0.0445
   12CHTO   H49 4983   6.163  -1.023   5.058  1.9092  0.6495  0.4950
   12CHTO    N4 4984   6.238  -1.043   4.862 -1.0368  0.2913 -0.5671
   12CHTO   H41 4985   6.179  -0.958   4.831 -0.3235  1.3380  0.8459
   12CHTO   H42 4986   6.220  -1.121   4.790 -0.5351  1.0272 -1.4947
   12CHTO   C22 4987   6.073  -1.201   4.981  0.0213 -0.9135 -0.0094
   12CHTO   H50 4988   6.105  -1.281   4.915 -2.2550 -2.1362  0.3201
   12CHTO   O14 4989   6.036  -1.264   5.104 -0.2151  0.4514  0.1881
   12CHTO   C23 4990   6.143  -1.339   5.163  0.3547  0.4229  0.0375
   12CHTO   H51 4991   6.169  -1.410   5.083 -1.8553 -1.2215  0.7756
   12CHTO   C34 4992   6.086  -1.406   5.288  0.2074 -0.0179  0.6479
   12CHTO   O23 4993   5.975  -1.485   5.259  0.2703 -0.3122 -0.3747
   12CHTO   H38 4994   5.900  -1.430   5.256 -0.4635 -1.3414 -1.3967
   12CHTO   O16 4995   5.948  -1.130   4.942 -0.2171  0.3930  0.4059
   12CHTO   C24 4996   5.861  -1.236   4.851 -0.7009  0.5873 -0.4426
   12CHTO   H52 4997   5.899  -1.337   4.864  1.3450  1.3364 -0.2605
   12CHTO   C26 4998   5.859  -1.201   4.699 -0.5063  0.3676 -0.5928
   12CHTO   H54 4999   5.820  -1.097   4.690 -0.7354  0.4547  1.1195
   12CHTO   O20 5000   5.995  -1.202   4.648  0.5911 -0.4360  0.1438
   12CHTO   H36 5001   6.033  -1.116   4.652  0.9353 -0.6394  1.2636
   12CHTO   C30 5002   5.769  -1.309   4.625  0.5566 -0.1372 -0.1806
   12CHTO   H58 5003   5.809  -1.411   4.639  0.0836 -0.1940  0.7633
   12CHTO    N6 5004   5.775  -1.289   4.477 -0.1299  0.4189 -0.6212
   12CHTO   H45 5005   5.806  -1.382   4.433  2.8809  1.0621  0.0196
   12CHTO   H46 5006   5.838  -1.209   4.443 -1.2269  1.1620 -0.9442
   12CHTO   C33 5007   5.625  -1.305   4.686 -0.0205 -0.4807  0.2041
   12CHTO   H61 5008   5.584  -1.205   4.667  0.6580 -0.1574  0.4527
   12CHTO   O18 5009   5.635  -1.328   4.830  0.2236  0.3887 -0.0628
   12CHTO   C28 5010   5.717  -1.231   4.908 -0.3723 -0.5758  0.0010
   12CHTO   H56 5011   5.682  -1.128   4.897  0.3537 -0.2119  1.0260
   12CHTO   C35 5012   5.708  -1.262   5.064  0.4913 -0.8516 -0.3132
   12CHTO   O24 5013   5.573  -1.293   5.098 -0.3418  0.1570  0.1329
   12CHTO   H39 5014   5.569  -1.328   5.185  0.6746  0.1880  0.1907
   12CHTO    O9 5015   5.534  -1.393   4.623 -0.3001  0.2013  0.0808
   12CHTO   C13 5016   5.544  -1.543   4.643  0.4660  0.1850  1.0189
   12CHTO   H26 5017   5.648  -1.570   4.670  0.3534  1.2672  2.6083
   12CHTO   C11 5018   5.491  -1.617   4.518 -0.5251 -0.1033  0.5407
   12CHTO   H24 5019   5.539  -1.590   4.423 -0.4791  0.9657  0.8619
   12CHTO    O8 5020   5.350  -1.594   4.494  0.4792 -0.5499  0.5020
   12CHTO    H3 5021   5.333  -1.502   4.486 -0.5856 -0.4615  3.1416
   12CHTO    C9 5022   5.525  -1.763   4.554 -0.0356  0.3009  0.4099
   12CHTO   H22 5023   5.634  -1.762   4.572  0.1842 -1.0857 -0.7769
   12CHTO    N2 5024   5.510  -1.859   4.436  0.5013  0.2236 -0.2313
   12CHTO   H10 5025   5.605  -1.909   4.423  1.2952  1.4373  0.8074
   12CHTO   H11 5026   5.480  -1.805   4.347  2.8088 -0.7793 -1.6472
   12CHTO    C7 5027   5.447  -1.806   4.681 -0.1646 -0.3702  0.3636
   12CHTO   H20 5028   5.485  -1.906   4.709  0.0755 -0.2240  0.5647
   12CHTO    O4 5029   5.449  -1.716   4.793 -0.1906 -0.0144  0.4797
   12CHTO   C14 5030   5.461  -1.574   4.772  0.0558  0.3765  0.6940
   12CHTO   H27 5031   5.514  -1.534   4.860  0.0419 -0.9610  1.3244
   12CHTO   C18 5032   5.327  -1.510   4.776  0.6263 -1.4369 -0.4758
   12CHTO   O13 5033   5.331  -1.410   4.879  0.4005  0.1157 -0.5920
   12CHTO    H7 5034   5.267  -1.346   4.855  0.4521 -0.2641 -1.7553
   12CHTO    O2 5035   5.281  -1.819   4.641 -0.0220 -0.0886  0.1530
   12CHTO    C1 5036   5.225  -1.944   4.688 -0.1457 -0.1981 -0.5733
   12CHTO   H14 5037   5.272  -1.971   4.784 -1.3616  1.1152  0.4168
   12CHTO    C2 5038   5.239  -2.059   4.586 -0.9268  0.1853  0.0271
   12CHTO   H15 5039   5.231  -2.017   4.485  0.1146 -2.1036 -1.0554
   12CHTO    O6 5040   5.383  -2.102   4.597 -0.3026  0.6782  0.2972
   12CHTO    H1 5041   5.401  -2.150   4.518 -3.1901  0.1386 -0.0985
   12CHTO    C3 5042   5.141  -2.185   4.613 -0.2788 -0.1026  0.6568
   12CHTO   H16 5043   5.195  -2.230   4.697  0.2519  0.6464  0.7311
   12CHTO    N1 5044   5.135  -2.282   4.496 -0.5319  0.1514  0.0677
   12CHTO    H8 5045   5.037  -2.291   4.453 -0.1754 -0.5616 -0.6073
   12CHTO    H9 5046   5.192  -2.235   4.417 -1.1539 -0.1626 -0.5724
   12CHTO    C4 5047   5.001  -2.139   4.664 -0.2665  0.3598 -0.0020
   12CHTO   H17 5048   4.942  -2.100   4.582  1.2301  2.4369 -0.1157
   12CHTO    O1 5049   5.025  -2.047   4.769 -0.1610 -0.3010  0.1822
   12CHTO    C5 5050   5.072  -1.924   4.715 -0.2647  0.0429 -0.2530
   12CHTO   H18 5051   5.014  -1.898   4.626 -0.2883  1.9364  0.2966
   12CHTO   C16 5052   5.039  -1.820   4.833  0.2825 -0.5427  0.3379
   12CHTO   O11 5053   5.114  -1.847   4.952 -0.0425 -0.0340  0.3744
   12CHTO    H5 5054   5.091  -1.920   5.007 -0.7958  2.2895  3.2865
   12CHTO    O3 5055   4.935  -2.249   4.733  0.1329  0.1196 -0.4304
   12CHTO    C6 5056   4.801  -2.294   4.675 -0.0786  0.1313 -0.3618
   12CHTO   H19 5057   4.786  -2.235   4.584  0.6082  0.8658 -0.0067
   12CHTO    C8 5058   4.794  -2.450   4.637  0.5184  0.6091  0.1294
   12CHTO   H21 5059   4.834  -2.507   4.722  0.8165 -2.0578 -1.7330
   12CHTO    O7 5060   4.885  -2.477   4.533  0.0282  0.2279  0.1147
   12CHTO    H2 5061   4.966  -2.506   4.569 -1.3305 -1.7519  1.6161
   12CHTO   C12 5062   4.646  -2.492   4.603 -0.1824  0.4106  0.4195
   12CHTO   H25 5063   4.625  -2.432   4.513  1.5758  0.8688  0.2903
   12CHTO    N3 5064   4.633  -2.640   4.569 -0.5962  0.4243  0.1680
   12CHTO   H12 5065   4.649  -2.696   4.660  0.9050  0.2624 -0.1726
   12CHTO   H13 5066   4.540  -2.669   4.522 -0.4574  1.3632 -0.7033
   12CHTO   C15 5067   4.542  -2.446   4.715  0.3690  1.0571 -0.3660
   12CHTO   H28 5068   4.550  -2.497   4.811  1.1770  0.9310 -0.5024
   12CHTO   O10 5069   4.404  -2.465   4.674 -0.2306  0.6146 -0.3241
   12CHTO    H4 5070   4.396  -2.558   4.677  1.1709  0.4793 -0.7312
   12CHTO    O5 5071   4.548  -2.307   4.729 -0.2051 -0.3182 -0.0773
   12CHTO   C10 5072   4.679  -2.258   4.775  0.2178  0.9691  0.0031
   12CHTO   H23 5073   4.697  -2.303   4.872 -0.7165 -0.3968 -0.4325
   12CHTO   C17 5074   4.661  -2.106   4.799 -0.1661  0.2479  0.2675
   12CHTO   O12 5075   4.599  -2.012   4.715  0.6477  0.5350  0.1135
   12CHTO    H6 5076   4.571  -1.952   4.782  1.1501 -0.7626  1.4995
   13CHTO  H203 5077   7.329   4.312   1.905  0.5368  1.1055  0.1968
   13CHTO   O82 5078   7.259   4.359   1.865 -0.2760  0.0970  0.4109
   13CHTO  C123 5079   7.305   4.490   1.847  0.3481 -0.6786  0.2114
   13CHTO  H227 5080   7.403   4.492   1.798  1.0491 -0.3638  1.5912
   13CHTO   O77 5081   7.206   4.526   1.747  0.0045 -0.5389 -0.4202
   13CHTO  C118 5082   7.168   4.663   1.729 -0.0598  0.3742 -0.2954
   13CHTO  H222 5083   7.238   4.725   1.670  1.3297  0.5515  1.4976
   13CHTO  C125 5084   7.039   4.647   1.650 -0.2131  0.2231  0.1543
   13CHTO   O84 5085   6.932   4.599   1.735  0.0630 -0.0272  0.0705
   13CHTO  H205 5086   6.946   4.511   1.763 -1.6807 -0.7652 -1.3098
   13CHTO  C114 5087   7.144   4.738   1.863 -0.2032  1.1168 -0.0604
   13CHTO  H218 5088   7.059   4.691   1.913 -0.2238  0.2844 -0.8623
   13CHTO  C116 5089   7.269   4.733   1.953 -0.5982  0.3060  0.5868
   13CHTO  H220 5090   7.356   4.783   1.905 -2.2234  2.7412  0.0819
   13CHTO   O79 5091   7.243   4.799   2.079 -0.4359 -0.2320  0.2389
   13CHTO  H201 5092   7.154   4.793   2.107 -0.7215  0.2299 -0.5530
   13CHTO  C120 5093   7.300   4.577   1.974 -0.6406 -0.2989 -0.4816
   13CHTO  H224 5094   7.223   4.539   2.044  1.3562 -2.0610  0.7852
   13CHTO   N21 5095   7.425   4.569   2.047 -0.3727 -0.1701 -0.0271
   13CHTO  H211 5096   7.461   4.468   2.054  0.4639  0.2973  3.1963
   13CHTO  H212 5097   7.496   4.633   1.996 -1.3669  1.1672  0.2345
   13CHTO   O75 5098   7.105   4.874   1.828  0.3030 -0.7279 -0.1086
   13CHTO  C112 5099   6.980   4.960   1.917 -0.0089  1.3503  0.1011
   13CHTO  H216 5100   7.015   4.985   2.018  0.8656  1.7755 -0.3073
   13CHTO   O73 5101   6.870   4.870   1.922  0.0905  0.6203 -0.1803
   13CHTO  C113 5102   6.751   4.916   1.988  0.2691  0.2054  0.2364
   13CHTO  H217 5103   6.765   4.933   2.097  0.2101  0.8947  0.1388
   13CHTO  C124 5104   6.644   4.808   1.975  0.0592  0.6985 -0.1246
   13CHTO   O83 5105   6.661   4.708   2.082 -0.5232 -0.2905  0.4431
   13CHTO  H204 5106   6.678   4.750   2.164 -0.0383  2.6630 -1.1216
   13CHTO  C109 5107   6.698   5.049   1.928 -0.5794 -0.3571 -0.0977
   13CHTO  H213 5108   6.665   5.027   1.826  1.2362  1.2496 -1.0706
   13CHTO  C110 5109   6.819   5.153   1.928  0.1487 -0.3989  0.5316
   13CHTO  H214 5110   6.854   5.180   2.028 -0.0962  0.0970  0.4847
   13CHTO   O78 5111   6.766   5.275   1.872 -0.2031  0.0958  0.2669
   13CHTO  H200 5112   6.689   5.300   1.920 -0.1656  2.2448 -0.7147
   13CHTO  C111 5113   6.933   5.088   1.844  0.1712 -0.6654  0.2584
   13CHTO  H215 5114   6.897   5.058   1.745  0.3390 -0.0522  0.0148
   13CHTO   N19 5115   7.045   5.179   1.821  0.9164 -0.0822 -0.4862
   13CHTO  H207 5116   7.006   5.264   1.767  0.8938 -0.4075 -0.9824
   13CHTO  H208 5117   7.086   5.201   1.918 -1.3297  0.6687  0.3265
   13CHTO   O74 5118   6.589   5.102   2.011 -0.2089  0.5782  0.0308
   13CHTO  C115 5119   6.440   5.089   1.934 -0.2998  0.7264 -0.5226
   13CHTO  H219 5120   6.449   5.040   1.837  2.0856 -0.0365  0.0500
   13CHTO   O76 5121   6.351   5.002   2.011  0.1950  0.1856  0.2969
   13CHTO  C122 5122   6.334   5.042   2.142 -0.0437 -0.2842  0.1405
   13CHTO  H226 5123   6.425   5.022   2.198 -0.7120  0.1234  1.3771
   13CHTO  C126 5124   6.218   4.949   2.212 -0.4089 -0.4125 -0.4205
   13CHTO   O85 5125   6.102   4.946   2.127  0.1008  0.1342  0.5667
   13CHTO  H206 5126   6.124   4.916   2.041 -0.1136  0.6983  0.3161
   13CHTO  C121 5127   6.295   5.198   2.160  0.1756 -0.2518 -0.4792
   13CHTO  H225 5128   6.201   5.199   2.220 -0.4086 -1.7665 -1.3430
   13CHTO   O81 5129   6.396   5.264   2.222  0.4404 -0.3585 -0.1074
   13CHTO  H202 5130   6.364   5.341   2.266 -1.5209 -1.1297 -0.1033
   13CHTO  C119 5131   6.264   5.262   2.019 -0.0963  0.2351 -0.3295
   13CHTO  H223 5132   6.179   5.204   1.983 -0.7294  1.4675 -0.8667
   13CHTO  C117 5133   6.385   5.239   1.921 -0.0303 -0.0203 -0.3623
   13CHTO  H221 5134   6.477   5.293   1.937  1.8280 -2.3821 -2.6155
   13CHTO   N20 5135   6.347   5.271   1.782 -0.4166 -0.3041 -0.1275
   13CHTO  H209 5136   6.432   5.260   1.716  0.0912  0.2889  0.4098
   13CHTO  H210 5137   6.264   5.210   1.749  1.5044 -2.9007 -0.2500
   13CHTO   O80 5138   6.190   5.414   2.036  0.0555  0.1406  0.0037
   13CHTO  C103 5139   6.020   5.436   2.012  0.7172  0.0787  0.7910
   13CHTO  H190 5140   5.993   5.542   2.006 -1.6456 -0.4617  1.3675
   13CHTO  C101 5141   5.961   5.358   1.884 -0.2112  0.0145 -1.0406
   13CHTO  H188 5142   5.987   5.252   1.894  0.2263  0.2166  0.0714
   13CHTO   O68 5143   6.019   5.410   1.751 -0.6710  0.1591 -0.3224
   13CHTO  H168 5144   6.090   5.352   1.728  0.7024  1.2192  1.0855
   13CHTO   C99 5145   5.805   5.364   1.887 -0.0218  0.5640  0.0386
   13CHTO  H186 5146   5.775   5.469   1.867 -0.7648  0.2165 -0.7138
   13CHTO   N17 5147   5.738   5.291   1.772 -0.5595 -0.5377 -0.4999
   13CHTO  H174 5148   5.667   5.360   1.729 -1.0768 -0.0867  1.0496
   13CHTO  H175 5149   5.699   5.195   1.800 -0.5455 -0.1223  0.9806
   13CHTO   C97 5150   5.737   5.320   2.025 -1.0758 -0.6381  0.0837
   13CHTO  H184 5151   5.731   5.210   2.033  3.6641 -1.1092 -1.0553
   13CHTO   O64 5152   5.809   5.378   2.134  0.0998 -0.0271 -0.4918
   13CHTO  C104 5153   5.951   5.379   2.139  0.1001 -0.3067 -0.1533
   13CHTO  H191 5154   5.973   5.272   2.146  2.6096  0.1100 -0.9787
   13CHTO  C108 5155   6.005   5.447   2.268 -0.8256  0.2683  0.1857
   13CHTO   O71 5156   5.960   5.363   2.379 -0.1814 -0.4556  0.0269
   13CHTO  H171 5157   6.003   5.280   2.371  1.4651  0.3391  0.4036
   13CHTO   O62 5158   5.607   5.385   2.031 -0.1814  0.2151  0.0049
   13CHTO   C91 5159   5.505   5.310   2.103 -0.4289  0.2130  0.2864
   13CHTO  H178 5160   5.545   5.221   2.150 -0.4901  0.4912  0.8746
   13CHTO   C92 5161   5.393   5.272   2.004 -0.1181 -0.2091 -0.0960
   13CHTO  H179 5162   5.353   5.361   1.954 -0.7491 -1.2802 -1.5081
   13CHTO   O66 5163   5.456   5.199   1.898 -0.0544 -0.2177 -0.0507
   13CHTO  H166 5164   5.413   5.222   1.818 -2.2858 -0.5071  1.0173
   13CHTO   C93 5165   5.277   5.186   2.076 -0.5557  0.2406 -0.1342
   13CHTO  H180 5166   5.313   5.089   2.114 -2.6332 -0.5761 -0.1524
   13CHTO   N16 5167   5.166   5.164   1.986 -0.3605 -0.2799  0.0714
   13CHTO  H172 5168   5.201   5.091   1.913 -1.3734 -0.5475 -0.1603
   13CHTO  H173 5169   5.132   5.259   1.949 -0.1429  0.0737  0.7858
   13CHTO   C94 5170   5.226   5.269   2.201  1.0224  0.1588 -0.6536
   13CHTO  H181 5171   5.163   5.353   2.170  0.6626  0.4028  0.7088
   13CHTO   O61 5172   5.332   5.327   2.284  0.3670 -0.0504 -0.1346
   13CHTO   C95 5173   5.435   5.397   2.211 -0.1218  0.1615  0.6095
   13CHTO  H182 5174   5.390   5.482   2.159  0.1949  0.3869  0.7046
   13CHTO  C106 5175   5.545   5.448   2.312  0.1586  0.4446 -0.4562
   13CHTO   O69 5176   5.523   5.583   2.360  0.5163  0.5856  0.2457
   13CHTO  H169 5177   5.438   5.596   2.397  1.0317  1.5373  1.1482
   13CHTO   O63 5178   5.148   5.166   2.296  0.2477 -0.4025 -0.2682
   13CHTO   C96 5179   5.029   5.219   2.376 -0.1216  0.0027  0.0847
   13CHTO  H183 5180   4.985   5.299   2.317 -1.2261 -0.2906  0.4889
   13CHTO   C98 5181   5.065   5.274   2.522 -0.3892  0.5941  0.4207
   13CHTO  H185 5182   5.151   5.341   2.522 -0.0387  0.1766  2.6132
   13CHTO   O67 5183   4.953   5.356   2.564 -0.0993 -0.1789  0.4391
   13CHTO  H167 5184   4.967   5.389   2.651  0.8707 -1.7820  0.9066
   13CHTO  C102 5185   5.082   5.158   2.635 -0.3562  0.1175  0.0070
   13CHTO  H189 5186   5.066   5.212   2.729  0.8162 -1.1050  0.9289
   13CHTO   N18 5187   5.213   5.094   2.650 -0.4898 -0.0329  0.4871
   13CHTO  H176 5188   5.294   5.159   2.679 -0.4307 -0.0995  0.4733
   13CHTO  H177 5189   5.212   5.003   2.709  0.3910 -0.1907  0.2751
   13CHTO  C105 5190   4.968   5.055   2.612  0.3723  0.8407 -0.1049
   13CHTO  H192 5191   5.000   4.961   2.566 -0.7418  0.8957 -0.9975
   13CHTO   O65 5192   4.863   5.110   2.529  0.4451 -0.3725 -0.1806
   13CHTO  C100 5193   4.912   5.116   2.394  0.0533 -0.1758  0.2053
   13CHTO  H187 5194   4.944   5.013   2.373  0.9753  0.6571 -2.7029
   13CHTO  C107 5195   4.784   5.128   2.305 -0.3316 -0.2668 -0.0424
   13CHTO   O70 5196   4.815   5.098   2.166  0.0211  0.5075  0.1705
   13CHTO  H170 5197   4.736   5.090   2.116  0.7832  2.3740 -1.4170
   13CHTO   O57 5198   4.912   5.042   2.782 -0.2171 -0.1502 -0.3177
   13CHTO   C85 5199   4.886   4.921   2.846 -0.0332 -0.0015  0.1228
   13CHTO  H157 5200   4.950   4.849   2.791  0.1017  0.7620 -0.7333
   13CHTO   C83 5201   4.738   4.870   2.825  0.0463 -0.4319 -0.1998
   13CHTO  H155 5202   4.714   4.885   2.719  1.4464  1.1618 -0.3047
   13CHTO   O56 5203   4.647   4.959   2.894  0.8259  0.6044  0.5452
   13CHTO  H135 5204   4.672   5.005   2.971  1.6736  2.4254 -0.7694
   13CHTO   C81 5205   4.734   4.722   2.866  0.1691 -0.3123 -0.5938
   13CHTO  H153 5206   4.814   4.669   2.813  0.4146 -1.2888  0.7059
   13CHTO   N14 5207   4.618   4.653   2.819 -0.6188  0.6399  0.4165
   13CHTO  H141 5208   4.525   4.687   2.859 -1.2644 -0.5911 -0.0029
   13CHTO  H142 5209   4.630   4.550   2.846  0.1903  0.7054  0.3210
   13CHTO   C79 5210   4.763   4.708   3.021 -0.6004 -0.3256 -0.2703
   13CHTO  H151 5211   4.772   4.602   3.046  4.1610  0.2549  0.8319
   13CHTO   O52 5212   4.892   4.780   3.050  0.4288  0.2170  0.7069
   13CHTO   C86 5213   4.916   4.915   3.000  0.0504 -0.5826  0.1361
   13CHTO  H158 5214   4.844   4.981   3.054 -1.8041 -0.8336 -1.9820
   13CHTO   C90 5215   5.058   4.968   3.025 -0.2255 -0.1274 -0.2009
   13CHTO   O60 5216   5.158   4.877   2.987 -0.1513  0.4320 -0.0491
   13CHTO  H138 5217   5.236   4.921   2.957  1.8685 -3.0731 -0.1907
   13CHTO   O50 5218   4.667   4.759   3.111 -0.1911  0.2106 -0.5335
   13CHTO   C73 5219   4.553   4.735   3.192  0.2138 -1.0415 -0.6361
   13CHTO  H145 5220   4.482   4.658   3.158 -0.5196  0.9148 -3.7146
   13CHTO   C74 5221   4.462   4.866   3.195 -0.4494 -0.4554 -0.8501
   13CHTO  H146 5222   4.434   4.888   3.091  0.4954  0.6945 -0.8626
   13CHTO   O54 5223   4.336   4.827   3.258 -0.7310  0.3715  0.1366
   13CHTO  H133 5224   4.259   4.867   3.224 -0.9913 -0.3741 -0.1667
   13CHTO   C75 5225   4.545   4.988   3.260 -0.0870 -0.0024 -0.3242
   13CHTO  H147 5226   4.632   5.001   3.194  1.0094  0.1598  1.1236
   13CHTO   N13 5227   4.474   5.119   3.264 -0.3185  0.0276  0.0704
   13CHTO  H139 5228   4.446   5.145   3.163 -0.1348 -0.9509 -0.2283
   13CHTO  H140 5229   4.386   5.102   3.323 -1.5216 -0.9276 -1.9567
   13CHTO   C76 5230   4.594   4.956   3.405  0.1675 -0.3490 -0.8847
   13CHTO  H148 5231   4.515   4.943   3.480 -0.3649  0.4974 -1.2975
   13CHTO   O49 5232   4.656   4.820   3.408 -0.0538  0.3010 -0.0896
   13CHTO   C77 5233   4.596   4.704   3.345 -0.3893 -0.3765 -0.2500
   13CHTO  H149 5234   4.507   4.679   3.403  0.1178  0.7045  1.0145
   13CHTO   C88 5235   4.688   4.582   3.363 -0.1635  0.2487 -0.5504
   13CHTO   O58 5236   4.819   4.606   3.324 -0.0237  0.3369 -0.5375
   13CHTO  H136 5237   4.851   4.520   3.302  1.2626  0.4064  0.9564
   13CHTO   O51 5238   4.716   5.068   3.451  0.1538  0.1360 -0.7210
   13CHTO   C78 5239   4.725   5.072   3.614 -0.0856  0.5441 -0.0389
   13CHTO  H150 5240   4.655   4.997   3.658 -0.9338  1.0618 -0.4789
   13CHTO   C80 5241   4.686   5.210   3.667 -0.7791  0.8689 -0.6904
   13CHTO  H152 5242   4.723   5.284   3.593  0.7676 -0.0254 -0.8426
   13CHTO   O55 5243   4.541   5.227   3.665 -0.1331  0.1472 -0.7987
   13CHTO  H134 5244   4.494   5.244   3.745 -0.7918  1.0302 -1.3656
   13CHTO   C84 5245   4.747   5.251   3.807  0.1919 -0.8693 -0.5997
   13CHTO  H156 5246   4.688   5.195   3.879  0.7016  1.4901  1.7176
   13CHTO   N15 5247   4.726   5.392   3.844  0.2728  0.1178  0.2593
   13CHTO  H143 5248   4.761   5.412   3.943  2.2177  1.8269 -0.7254
   13CHTO  H144 5249   4.756   5.470   3.777 -2.5828  0.1932 -0.9833
   13CHTO   C87 5250   4.890   5.199   3.818  0.1992 -0.4552 -0.3002
   13CHTO  H159 5251   4.948   5.249   3.741 -1.7407  1.9265 -0.2768
   13CHTO   O53 5252   4.889   5.063   3.798  0.2331  0.4584  0.2859
   13CHTO   C82 5253   4.869   5.034   3.660  0.6548 -0.6592 -0.4985
   13CHTO  H154 5254   4.946   5.085   3.602 -0.6528 -0.4347 -2.0821
   13CHTO   C89 5255   4.891   4.883   3.640 -0.7237  0.1748  0.3823
   13CHTO   O59 5256   4.908   4.859   3.500  0.0864 -0.3798  0.0478
   13CHTO  H137 5257   4.875   4.775   3.474 -0.2004 -0.1955 -0.1823
   13CHTO   O45 5258   4.954   5.213   3.966 -0.0349  0.1735 -0.2247
   13CHTO   C67 5259   5.098   5.221   3.956 -0.6847  0.1870  0.2866
   13CHTO  H124 5260   5.126   5.168   3.865  0.5290 -0.8849  1.2677
   13CHTO   C65 5261   5.150   5.368   3.952  0.7323  0.2757 -0.3982
   13CHTO  H122 5262   5.074   5.426   4.005  1.0167 -0.8671  1.3349
   13CHTO   O44 5263   5.160   5.411   3.814 -0.3924  0.2388  0.2469
   13CHTO  H102 5264   5.188   5.500   3.816  0.7532  0.0062 -2.6443
   13CHTO   C63 5265   5.282   5.387   4.041 -0.8082  0.1717 -0.1711
   13CHTO  H120 5266   5.259   5.382   4.147  2.3822  1.3362  0.6381
   13CHTO   N11 5267   5.354   5.521   4.041 -0.5827  0.5012  0.1827
   13CHTO  H108 5268   5.387   5.538   3.940  0.6858  0.8006  0.6425
   13CHTO  H109 5269   5.443   5.534   4.098  0.1226 -3.1726  0.0215
   13CHTO   C61 5270   5.374   5.261   4.008  0.5941 -0.2066  0.2318
   13CHTO  H118 5271   5.469   5.278   4.061  0.8575  1.1547 -0.6486
   13CHTO   O40 5272   5.315   5.135   4.059 -0.5943 -0.2742  0.5398
   13CHTO   C68 5273   5.167   5.143   4.075  0.2332  0.2518 -0.4922
   13CHTO  H125 5274   5.150   5.191   4.173  0.4054  0.1493 -0.4102
   13CHTO   C72 5275   5.107   5.000   4.084 -0.2404 -0.2589  0.5985
   13CHTO   O48 5276   5.137   4.922   3.967  0.4200 -0.2106  0.1094
   13CHTO  H105 5277   5.228   4.897   3.973  0.3732 -0.2249  0.8722
   13CHTO   O38 5278   5.395   5.267   3.866  0.7302 -0.0964  0.3217
   13CHTO   C55 5279   5.517   5.220   3.796  0.2482  0.2957  0.0049
   13CHTO  H112 5280   5.489   5.203   3.691  0.4665  0.2630 -0.0479
   13CHTO   C56 5281   5.565   5.088   3.866 -0.0193  0.0681  0.1952
   13CHTO  H113 5282   5.582   5.103   3.974 -1.2675  2.3152  0.1076
   13CHTO   O42 5283   5.452   4.997   3.859  0.0603 -0.0494  0.0815
   13CHTO  H100 5284   5.385   5.023   3.800 -1.4752 -1.5119  1.1321
   13CHTO   C57 5285   5.688   5.028   3.793  0.0871 -0.9851  0.6354
   13CHTO  H114 5286   5.648   5.015   3.693  1.3486  0.6018 -0.1121
   13CHTO   N10 5287   5.748   4.905   3.850  0.0426  0.5267 -0.5137
   13CHTO  H106 5288   5.688   4.822   3.815  0.7130 -0.4464  0.6330
   13CHTO  H107 5289   5.740   4.909   3.957 -0.8700 -0.3329 -0.5407
   13CHTO   C58 5290   5.804   5.135   3.791 -0.2061  0.7914  0.1735
   13CHTO  H115 5291   5.846   5.138   3.893  0.3997 -1.5078  0.0167
   13CHTO   O37 5292   5.761   5.266   3.751  0.0483  0.8148  0.0448
   13CHTO   C59 5293   5.641   5.322   3.807 -0.1191  0.1301  0.0905
   13CHTO  H116 5294   5.660   5.339   3.913 -1.1087  0.4663  0.2153
   13CHTO   C70 5295   5.618   5.452   3.728  0.2664  0.0377 -0.1510
   13CHTO   O46 5296   5.687   5.559   3.794 -0.2063  0.1885 -0.2445
   13CHTO  H103 5297   5.624   5.604   3.846 -1.2788 -2.1787  0.6045
   13CHTO   O39 5298   5.921   5.103   3.674  0.1282  0.3418 -0.0515
   13CHTO   C60 5299   6.046   5.170   3.698 -0.5622  0.2140  0.0236
   13CHTO  H117 5300   6.034   5.246   3.775  0.0927 -0.5201  0.8550
   13CHTO   C62 5301   6.157   5.068   3.739 -0.4629  0.2947  0.0248
   13CHTO  H119 5302   6.121   5.023   3.834 -1.0494  0.0372 -0.3153
   13CHTO   O43 5303   6.183   4.965   3.644  0.2264 -0.2116  0.2599
   13CHTO  H101 5304   6.187   5.013   3.563  2.0449  1.4855  1.3188
   13CHTO   C66 5305   6.290   5.153   3.763 -0.3642 -0.4096 -0.5387
   13CHTO  H123 5306   6.273   5.226   3.842  0.3161  2.4050 -2.8668
   13CHTO   N12 5307   6.402   5.065   3.811 -0.2155  0.1036  0.6114
   13CHTO  H110 5308   6.427   4.995   3.732 -1.9659 -1.6076  1.5216
   13CHTO  H111 5309   6.481   5.134   3.837  2.0547 -2.1294 -0.0567
   13CHTO   C69 5310   6.332   5.228   3.635  0.2032  0.0085  0.6702
   13CHTO  H126 5311   6.359   5.160   3.552  1.0689  0.7930  0.3005
   13CHTO   O41 5312   6.222   5.318   3.587 -0.0328  0.0136 -0.2790
   13CHTO   C64 5313   6.087   5.251   3.573 -0.0244 -0.0121 -0.1243
   13CHTO  H121 5314   6.103   5.182   3.487  1.7442 -0.6507  0.6924
   13CHTO   C71 5315   5.979   5.356   3.531  0.3385  0.0528  0.0179
   13CHTO   O47 5316   5.979   5.454   3.639 -0.0199  0.1545 -0.4537
   13CHTO  H104 5317   6.054   5.509   3.635  0.5215 -0.5382  0.0584
   13CHTO   O34 5318   6.444   5.317   3.660  0.0494  0.4644  0.5792
   13CHTO   C49 5319   6.557   5.388   3.570 -0.5046 -0.6300 -0.5783
   13CHTO   H91 5320   6.617   5.321   3.509 -1.2443 -0.7929 -1.1398
   13CHTO   C47 5321   6.644   5.455   3.678 -0.4333  0.3579  0.0270
   13CHTO   H89 5322   6.736   5.473   3.619 -0.7394  1.5433 -0.1048
   13CHTO   O33 5323   6.677   5.350   3.772  0.2210 -0.2350 -0.0639
   13CHTO   H70 5324   6.603   5.310   3.814 -0.7060  1.4722  0.0033
   13CHTO   C45 5325   6.579   5.593   3.752  0.1231  0.4870  0.0096
   13CHTO   H87 5326   6.531   5.566   3.847 -1.1610  1.1509 -0.4314
   13CHTO    N8 5327   6.692   5.685   3.780  0.0675  0.3828  0.2549
   13CHTO   H75 5328   6.724   5.722   3.684  0.9903  0.7437  0.6869
   13CHTO   H76 5329   6.660   5.760   3.851  0.5889 -1.8807  3.0094
   13CHTO   C43 5330   6.451   5.641   3.671  0.2122 -0.1345  0.4458
   13CHTO   H85 5331   6.371   5.572   3.696  0.3131 -1.2890 -2.2437
   13CHTO   O29 5332   6.482   5.630   3.532  0.3165  0.2527  0.4126
   13CHTO   C50 5333   6.496   5.497   3.480  0.6739 -0.7807 -0.0338
   13CHTO   H92 5334   6.394   5.463   3.457  1.2282 -1.3710 -1.6777
   13CHTO   C54 5335   6.562   5.499   3.339  0.6450  0.0214 -0.7577
   13CHTO   O36 5336   6.494   5.591   3.251  0.0923  0.5642 -0.2153
   13CHTO   H72 5337   6.429   5.550   3.197 -1.3132  2.2926  0.0913
   13CHTO   O27 5338   6.397   5.772   3.710 -0.3400  0.1950  0.1426
   13CHTO   C37 5339   6.302   5.837   3.795 -0.6556 -0.7855  0.1424
   13CHTO   H79 5340   6.208   5.780   3.795 -1.4629  0.3558 -4.1799
   13CHTO   C38 5341   6.361   5.850   3.939 -0.2094 -0.4572 -0.2120
   13CHTO   H80 5342   6.457   5.903   3.936  0.7766 -1.9680  2.4879
   13CHTO   O31 5343   6.388   5.718   3.992  0.1550  0.0349  0.5887
   13CHTO   H68 5344   6.451   5.728   4.061  1.4693  0.5837 -0.6660
   13CHTO   C39 5345   6.259   5.926   4.038 -0.0926  0.0509  0.1610
   13CHTO   H81 5346   6.180   5.853   4.054  0.9650 -1.1324  0.0297
   13CHTO    N7 5347   6.316   5.955   4.174 -0.2706  0.4564 -0.3388
   13CHTO   H73 5348   6.379   5.882   4.223  0.2644  0.9307 -0.3153
   13CHTO   H74 5349   6.237   5.978   4.244 -0.1496 -0.3935  0.0901
   13CHTO   C40 5350   6.216   6.061   3.970  0.0835  0.0376  0.1649
   13CHTO   H82 5351   6.294   6.138   3.970  1.2511 -1.1361 -0.0921
   13CHTO   O26 5352   6.163   6.032   3.835 -0.3200 -0.6695 -0.3137
   13CHTO   C41 5353   6.267   5.981   3.747  0.5411  1.0170  0.0056
   13CHTO   H83 5354   6.359   6.040   3.758  0.8819  0.6734 -0.9472
   13CHTO   C52 5355   6.206   5.991   3.609  0.0849  0.5405 -0.1627
   13CHTO   O35 5356   6.167   6.142   3.572  0.4247 -0.4504 -0.0306
   13CHTO   H71 5357   6.238   6.184   3.528  0.7220  1.5428  2.2674
   13CHTO   O28 5358   6.111   6.117   4.049 -0.0101  0.0366  0.2946
   13CHTO   C42 5359   6.078   6.260   4.058  0.5442 -0.3181  0.6794
   13CHTO   H84 5360   6.141   6.298   3.977  0.3390 -2.6450 -0.6174
   13CHTO   C44 5361   6.122   6.341   4.179  0.8370 -0.7540  0.9129
   13CHTO   H86 5362   6.079   6.300   4.270  0.8803 -0.0076  1.2681
   13CHTO   O32 5363   6.261   6.327   4.207 -0.0907 -0.6428  0.0312
   13CHTO   H69 5364   6.286   6.238   4.192 -2.2049 -1.0928 -1.0414
   13CHTO   C48 5365   6.088   6.499   4.174 -0.7969 -0.0727 -0.6098
   13CHTO   H90 5366   6.140   6.558   4.100 -1.4276  0.9735 -0.2241
   13CHTO    N9 5367   6.113   6.571   4.301 -0.0455  0.0206 -0.2284
   13CHTO   H77 5368   6.182   6.523   4.369  1.0013 -0.5542 -1.6620
   13CHTO   H78 5369   6.022   6.595   4.355  1.3122 -1.4455  2.8357
   13CHTO   C51 5370   5.943   6.510   4.132 -0.1049  0.1152  0.2591
   13CHTO   H93 5371   5.883   6.467   4.212  0.0533 -0.3375  0.1352
   13CHTO   O30 5372   5.921   6.439   4.003  0.0973 -0.0330  0.4402
   13CHTO   C46 5373   5.933   6.286   4.022  0.0565 -0.1480  0.0811
   13CHTO   H88 5374   5.867   6.242   4.097  1.5418  1.6106  2.5106
   13CHTO   C53 5375   5.902   6.226   3.884 -0.1547  0.2531  0.4424
   13CHTO   O72 5376   5.766   6.251   3.847 -0.0834  0.2767 -0.3419
   13CHTO  H199 5377   5.747   6.342   3.835 -0.1774  0.2303 -0.5408
   13CHTO   O22 5378   5.895   6.642   4.092  0.1247 -0.0173  0.5144
   13CHTO   C31 5379   5.773   6.689   4.164 -0.0099 -0.7066  0.6248
   13CHTO   H59 5380   5.767   6.624   4.253  3.4112 -0.3503  1.1911
   13CHTO   C29 5381   5.785   6.834   4.211  0.5276  0.4883  0.3605
   13CHTO   H57 5382   5.793   6.908   4.130 -0.7841  1.7734  1.3730
   13CHTO   O21 5383   5.909   6.848   4.289  0.1243  0.3891  0.3078
   13CHTO   H37 5384   5.916   6.775   4.348 -0.4471  1.7723  2.0973
   13CHTO   C27 5385   5.659   6.878   4.299 -0.1068  0.2573 -0.5326
   13CHTO   H55 5386   5.654   6.809   4.385  4.7467  2.4176  1.6977
   13CHTO    N5 5387   5.667   7.013   4.361  0.0439  0.2328 -0.4706
   13CHTO   H43 5388   5.573   7.064   4.349 -0.2382 -0.1175  0.2683
   13CHTO   H44 5389   5.682   7.002   4.467  0.7115  0.6669 -0.5110
   13CHTO   C25 5390   5.531   6.863   4.212 -0.0906 -0.1693  0.8119
   13CHTO   H53 5391   5.546   6.940   4.135  1.7633  2.0181  3.2903
   13CHTO   O17 5392   5.517   6.732   4.160 -0.4389  0.3277 -0.0219
   13CHTO   C32 5393   5.634   6.676   4.087 -0.2687 -0.3153 -0.7561
   13CHTO   H60 5394   5.647   6.723   3.990  0.7972  0.5013 -0.2254
   13CHTO   C36 5395   5.597   6.528   4.064 -0.0262  0.4495 -0.1661
   13CHTO   O25 5396   5.474   6.525   3.983 -0.4229 -0.2279 -0.2975
   13CHTO   H40 5397   5.400   6.548   4.037 -1.6658 -1.8009 -1.2812
   13CHTO   O15 5398   5.404   6.895   4.299  0.9244  0.4297 -0.1677
   13CHTO   C19 5399   5.290   6.907   4.389 -0.1325 -0.2646  0.3148
   13CHTO   H47 5400   5.327   6.899   4.492  1.0096  0.2016 -0.0466
   13CHTO   C20 5401   5.209   7.045   4.375 -0.7516 -0.2329 -0.8896
   13CHTO   H48 5402   5.166   7.057   4.275  0.2354 -0.2948 -1.3326
   13CHTO   O19 5403   5.305   7.153   4.390  0.1851  0.4065  0.4481
   13CHTO   H35 5404   5.279   7.238   4.360  0.3453  0.7381  1.2533
   13CHTO   C21 5405   5.096   7.053   4.482 -0.2561  0.3177 -0.3834
   13CHTO   H49 5406   5.146   7.051   4.579 -0.0702 -1.3182 -0.5008
   13CHTO    N4 5407   5.015   7.175   4.479 -0.3038  0.2983  0.5978
   13CHTO   H41 5408   5.007   7.226   4.574  0.2382 -0.7041  1.1883
   13CHTO   H42 5409   5.042   7.244   4.401  0.5835 -1.7813 -0.9940
   13CHTO   C22 5410   5.010   6.922   4.467 -0.8968 -0.1914  0.1715
   13CHTO   H50 5411   4.954   6.921   4.374 -1.7054 -0.5373  0.6511
   13CHTO   O14 5412   5.089   6.804   4.481 -0.5863  0.5136 -0.1414
   13CHTO   C23 5413   5.192   6.793   4.374  0.1860 -0.0752 -0.4048
   13CHTO   H51 5414   5.136   6.795   4.279 -0.3225 -1.0061 -0.1281
   13CHTO   C34 5415   5.253   6.656   4.380 -0.5109  0.1072 -0.3814
   13CHTO   O23 5416   5.188   6.533   4.362  0.2950  0.4077  0.1015
   13CHTO   H38 5417   5.177   6.511   4.272 -0.7711 -1.3101  0.6363
   13CHTO   O16 5418   4.915   6.906   4.572  0.7397  0.1111  0.3112
   13CHTO   C24 5419   4.777   6.827   4.522 -1.1089  0.3382  0.1772
   13CHTO   H52 5420   4.789   6.785   4.422  1.2167  1.7194 -0.1358
   13CHTO   C26 5421   4.662   6.928   4.520 -0.1542  0.6866 -0.0820
   13CHTO   H54 5422   4.650   6.964   4.624 -0.2634  0.0279  0.1317
   13CHTO   O20 5423   4.694   7.028   4.426 -0.1989  0.6036 -0.2618
   13CHTO   H36 5424   4.767   7.077   4.458 -0.4142  0.0033  1.1793
   13CHTO   C30 5425   4.534   6.852   4.475 -0.7358  0.2997 -0.4435
   13CHTO   H58 5426   4.555   6.818   4.373  0.3487 -0.7380  0.1055
   13CHTO    N6 5427   4.420   6.945   4.479 -0.1547 -0.4448 -0.0221
   13CHTO   H45 5428   4.363   6.936   4.570 -0.2750  0.3920 -0.0046
   13CHTO   H46 5429   4.353   6.944   4.394 -0.9554 -0.5882  0.6082
   13CHTO   C33 5430   4.500   6.724   4.556 -0.3679 -0.1385 -0.3021
   13CHTO   H61 5431   4.473   6.748   4.659  0.6980  0.9156 -0.2522
   13CHTO   O18 5432   4.626   6.647   4.565  0.6692 -0.2100  0.0363
   13CHTO   C28 5433   4.748   6.708   4.619 -0.0234 -0.1144 -0.0786
   13CHTO   H56 5434   4.725   6.749   4.717  0.9150  0.5051 -0.1155
   13CHTO   C35 5435   4.864   6.605   4.615 -0.1459 -0.4533 -0.5869
   13CHTO   O24 5436   4.846   6.492   4.695 -0.2031 -0.1750  0.3973
   13CHTO   H39 5437   4.759   6.456   4.701 -0.2180  0.0169  1.4577
   13CHTO    O9 5438   4.399   6.649   4.498  0.7643 -0.4720 -0.2789
   13CHTO   C13 5439   4.310   6.572   4.615  0.0422 -0.0391 -0.2550
   13CHTO   H26 5440   4.263   6.643   4.687 -0.3594 -0.1658 -0.3909
   13CHTO   C11 5441   4.400   6.460   4.696 -0.0897  0.4337 -0.4033
   13CHTO   H24 5442   4.474   6.511   4.760 -0.2071 -0.7729  0.7194
   13CHTO    O8 5443   4.465   6.380   4.596 -0.3969 -0.4189 -0.5410
   13CHTO    H3 5444   4.410   6.361   4.523  0.5727 -0.5474 -1.2413
   13CHTO    C9 5445   4.307   6.371   4.784  0.0660  0.1776  0.0353
   13CHTO   H22 5446   4.257   6.443   4.851  1.1825  0.2800  0.7887
   13CHTO    N2 5447   4.377   6.278   4.879 -0.1249  0.2720 -0.1123
   13CHTO   H10 5448   4.460   6.229   4.831 -0.6829 -0.4347 -0.3662
   13CHTO   H11 5449   4.408   6.334   4.966 -1.9823  2.2804 -0.6825
   13CHTO    C7 5450   4.192   6.313   4.692  0.8989  0.0011  0.0197
   13CHTO   H20 5451   4.099   6.340   4.746  1.7469 -1.6744  2.4168
   13CHTO    O4 5452   4.188   6.361   4.555  0.2736  0.1407  0.5573
   13CHTO   C14 5453   4.183   6.504   4.547  0.3341  0.7460  0.0834
   13CHTO   H27 5454   4.091   6.543   4.595  0.4952 -1.0093  1.8582
   13CHTO   C18 5455   4.168   6.534   4.395 -0.6104  0.7915  0.4630
   13CHTO   O13 5456   4.040   6.524   4.340 -0.7006 -0.1137  0.1047
   13CHTO    H7 5457   3.976   6.573   4.387  0.2797  1.0720  0.2165
   13CHTO    O2 5458   4.193   6.153   4.689  0.0704  0.3348  0.6589
   13CHTO    C1 5459   4.075   6.078   4.707 -0.5213 -0.8384  0.0158
   13CHTO   H14 5460   3.986   6.139   4.681 -0.3742 -1.1385 -1.2276
   13CHTO    C2 5461   4.063   6.025   4.855 -0.7440  0.3234  0.5058
   13CHTO   H15 5462   4.157   5.973   4.878 -0.6264 -0.3325 -1.4197
   13CHTO    O6 5463   4.056   6.140   4.941 -0.7891 -0.0704 -0.0589
   13CHTO    H1 5464   3.971   6.135   4.980 -1.8603 -1.3738 -2.4592
   13CHTO    C3 5465   3.943   5.922   4.882  0.3563  0.2549  0.0306
   13CHTO   H16 5466   3.852   5.984   4.875 -0.2869 -0.4591  1.8250
   13CHTO    N1 5467   3.951   5.867   5.026 -0.4564  0.3036 -0.0725
   13CHTO    H8 5468   3.927   5.936   5.105 -0.7964  0.4647 -0.3135
   13CHTO    H9 5469   3.881   5.785   5.029 -1.2311  0.9775  0.2361
   13CHTO    C4 5470   3.949   5.819   4.758  0.7046  0.6458 -0.0870
   13CHTO   H17 5471   4.037   5.755   4.768  1.4930  1.3859 -2.0616
   13CHTO    O1 5472   3.948   5.886   4.634 -0.0453  0.2291 -0.6879
   13CHTO    C5 5473   4.069   5.955   4.609 -0.3555  0.4916  0.2741
   13CHTO   H18 5474   4.150   5.884   4.631 -2.1759 -1.5489  0.6399
   13CHTO   C16 5475   4.075   5.990   4.463  0.2962  0.1123 -0.3833
   13CHTO   O11 5476   4.086   5.879   4.372  0.4016 -0.4567 -0.4121
   13CHTO    H5 5477   4.173   5.844   4.368  0.0394 -1.3810 -0.3716
   13CHTO    O3 5478   3.828   5.744   4.745 -0.7648  0.0791  0.1742
   13CHTO    C6 5479   3.843   5.606   4.704  0.7305  0.7002 -0.6115
   13CHTO   H19 5480   3.943   5.579   4.672  1.4473 -0.3909  2.4131
   13CHTO    C8 5481   3.808   5.515   4.825  0.6529  0.2074  0.2823
   13CHTO   H21 5482   3.716   5.551   4.872  1.5492  3.4808 -0.3520
   13CHTO    O7 5483   3.911   5.530   4.919  0.1706 -0.8719 -0.2798
   13CHTO    H2 5484   3.994   5.491   4.898  1.8481  0.5976  3.2127
   13CHTO   C12 5485   3.784   5.366   4.785  0.5369 -0.0726  0.9330
   13CHTO   H25 5486   3.884   5.318   4.778  1.0045  0.8310  1.4227
   13CHTO    N3 5487   3.713   5.291   4.900 -0.4697  0.7495  0.2026
   13CHTO   H12 5488   3.619   5.339   4.923 -0.2701  2.2572 -1.9902
   13CHTO   H13 5489   3.703   5.188   4.867  2.2983  0.4684  0.0676
   13CHTO   C15 5490   3.711   5.353   4.653 -0.3519  0.2530 -0.2161
   13CHTO   H28 5491   3.604   5.372   4.662 -0.5784 -1.0587  0.0264
   13CHTO   O10 5492   3.715   5.217   4.592  0.1306 -0.1715  0.2902
   13CHTO    H4 5493   3.797   5.174   4.610 -0.3963 -1.0200  0.6753
   13CHTO    O5 5494   3.766   5.431   4.558  0.1170 -0.0248  0.7693
   13CHTO   C10 5495   3.749   5.574   4.588  0.4187 -0.1031  0.9996
   13CHTO   H23 5496   3.642   5.593   4.601 -0.3464 -2.5630 -1.2079
   13CHTO   C17 5497   3.801   5.635   4.460  0.4140  0.1317 -0.0148
   13CHTO   O12 5498   3.704   5.640   4.353 -0.1606  0.3040  0.0539
   13CHTO    H6 5499   3.757   5.627   4.276 -0.4445  0.5020 -0.1779
   14CHTO  H203 5500   5.229   5.233   3.626 -0.3382 -0.1408  1.9650
   14CHTO   O82 5501   5.195   5.147   3.641 -0.3021 -0.5089 -0.0467
   14CHTO  C123 5502   5.270   5.036   3.585 -0.2240 -0.0091 -0.1020
   14CHTO  H227 5503   5.379   5.048   3.595 -0.1829 -0.6082  0.1776
   14CHTO   O77 5504   5.224   4.928   3.675 -1.0055  0.1439 -0.2263
   14CHTO  C118 5505   5.306   4.807   3.657 -0.1594  0.3977  0.4222
   14CHTO  H222 5506   5.414   4.829   3.659 -0.1437  0.3210  0.4136
   14CHTO  C125 5507   5.271   4.701   3.774  0.3769 -0.2534  0.4754
   14CHTO   O84 5508   5.362   4.714   3.881  0.8246 -0.0117  0.2138
   14CHTO  H205 5509   5.344   4.647   3.944 -2.3106 -0.3338 -0.9565
   14CHTO  C114 5510   5.273   4.740   3.522  0.1486  0.1467  0.0999
   14CHTO  H218 5511   5.171   4.703   3.527 -0.0710  0.8375  0.8817
   14CHTO  C116 5512   5.286   4.850   3.411 -0.2813  0.0994  0.0858
   14CHTO  H220 5513   5.393   4.866   3.388 -0.6192  2.4327  0.0516
   14CHTO   O79 5514   5.224   4.807   3.291 -0.6433  0.1698  0.4321
   14CHTO  H201 5515   5.230   4.714   3.276  0.1383  0.2354  0.3392
   14CHTO  C120 5516   5.231   4.994   3.441 -0.7911  0.2133 -0.6059
   14CHTO  H224 5517   5.122   4.996   3.420 -0.5376 -0.1501 -2.0413
   14CHTO   N21 5518   5.285   5.109   3.351 -0.4942 -0.4558 -0.0563
   14CHTO  H211 5519   5.368   5.155   3.401  0.0755 -1.0370 -0.4546
   14CHTO  H212 5520   5.309   5.067   3.254 -2.0201 -0.3701 -0.4807
   14CHTO   O75 5521   5.375   4.633   3.508 -0.4101  0.3178 -0.4998
   14CHTO  C112 5522   5.329   4.488   3.422 -0.1441 -0.9747  0.6589
   14CHTO  H216 5523   5.420   4.428   3.403 -0.7256 -1.3261 -1.2119
   14CHTO   O73 5524   5.270   4.532   3.299  0.0874 -0.6337  0.6664
   14CHTO  C113 5525   5.230   4.425   3.213 -0.5078 -0.5071  0.2720
   14CHTO  H217 5526   5.323   4.367   3.196  0.8564  1.9280 -0.8228
   14CHTO  C124 5527   5.196   4.480   3.075 -0.2915  0.0579 -0.0183
   14CHTO   O83 5528   5.084   4.569   3.068 -0.0285  0.3206 -0.0707
   14CHTO  H204 5529   5.007   4.529   3.103 -1.5280  1.7566 -1.6597
   14CHTO  C109 5530   5.120   4.338   3.274  0.8521  0.5508 -0.9270
   14CHTO  H213 5531   5.026   4.393   3.290  1.0582  0.7205 -0.2779
   14CHTO  C110 5532   5.171   4.295   3.414  0.4326 -0.0364  0.2321
   14CHTO  H214 5533   5.253   4.224   3.398  0.2682 -0.1740  0.0094
   14CHTO   O78 5534   5.067   4.222   3.467  0.0173  0.0929 -0.2801
   14CHTO  H200 5535   5.092   4.145   3.516  0.8837 -0.0128 -0.8743
   14CHTO  C111 5536   5.220   4.416   3.504 -0.6442  0.3917  0.4155
   14CHTO  H215 5537   5.134   4.478   3.532 -1.9144 -1.0497 -0.2168
   14CHTO   N19 5538   5.280   4.360   3.629  0.8746  0.0205 -0.2454
   14CHTO  H207 5539   5.205   4.314   3.692  0.8441 -1.0940 -1.0795
   14CHTO  H208 5540   5.366   4.296   3.616 -0.5786 -1.8275 -0.9705
   14CHTO   O74 5541   5.101   4.213   3.189  0.0185 -0.2419 -0.2104
   14CHTO  C115 5542   4.983   4.216   3.071  0.0208  0.1295  0.2695
   14CHTO  H219 5543   4.956   4.316   3.038  1.9410  0.7397  0.4872
   14CHTO   O76 5544   5.031   4.145   2.941  0.0539  0.5104  0.2070
   14CHTO  C122 5545   4.936   4.157   2.835  0.0384 -0.6802  0.3522
   14CHTO  H226 5546   4.974   4.097   2.752  0.9183 -1.3563  1.2340
   14CHTO  C126 5547   4.923   4.303   2.781  0.3055  0.3284 -0.4610
   14CHTO   O85 5548   4.873   4.304   2.649 -0.7551 -0.1178  0.2448
   14CHTO  H206 5549   4.786   4.267   2.648 -0.2638 -1.2905 -0.8285
   14CHTO  C121 5550   4.792   4.102   2.879 -0.1119 -0.7801  0.0426
   14CHTO  H225 5551   4.724   4.133   2.796  2.1796 -0.9674 -1.9674
   14CHTO   O81 5552   4.802   3.964   2.902  0.1315  0.6561  0.7922
   14CHTO  H202 5553   4.718   3.934   2.930  0.6351 -0.2874  1.3333
   14CHTO  C119 5554   4.745   4.165   3.010 -0.1959  0.7290 -0.6690
   14CHTO  H223 5555   4.743   4.274   3.000  0.0488  0.7237 -0.7808
   14CHTO  C117 5556   4.855   4.142   3.121 -0.0506 -0.2320  0.0260
   14CHTO  H221 5557   4.896   4.043   3.138  1.8339  0.6227  0.6756
   14CHTO   N20 5558   4.816   4.194   3.253 -0.2722 -0.1234 -0.4512
   14CHTO  H209 5559   4.733   4.136   3.290  0.2038 -0.8233 -0.4650
   14CHTO  H210 5560   4.898   4.181   3.322 -0.1114  1.3355 -0.3546
   14CHTO   O80 5561   4.596   4.132   3.034  0.1178 -0.4865  0.2089
   14CHTO  C103 5562   4.485   4.178   2.923  0.1013 -0.7243 -0.6584
   14CHTO  H190 5563   4.523   4.235   2.838  1.2670  1.9851  1.5996
   14CHTO  C101 5564   4.390   4.074   2.849 -0.6629 -0.3405 -0.0664
   14CHTO  H188 5565   4.346   4.016   2.930 -3.5625  0.9468 -0.6311
   14CHTO   O68 5566   4.476   3.972   2.772  0.3489  0.1799  0.2099
   14CHTO  H168 5567   4.438   3.887   2.784  1.1549  0.1057  2.3673
   14CHTO   C99 5568   4.287   4.143   2.761 -0.1473 -0.0746 -0.1322
   14CHTO  H186 5569   4.337   4.198   2.679  0.8663 -2.0982 -0.9319
   14CHTO   N17 5570   4.192   4.054   2.695  0.1911 -0.3330  0.2480
   14CHTO  H174 5571   4.100   4.045   2.750  0.4144  1.1325  0.8669
   14CHTO  H175 5572   4.167   4.103   2.602 -4.1309 -0.5269  1.2064
   14CHTO   C97 5573   4.206   4.256   2.844  0.2399 -0.4830  0.0328
   14CHTO  H184 5574   4.141   4.214   2.923  1.2135 -0.6436  0.7607
   14CHTO   O64 5575   4.303   4.346   2.903 -0.2473 -0.8529  0.2628
   14CHTO  C104 5576   4.386   4.276   3.003 -0.2253 -0.4330  0.1460
   14CHTO  H191 5577   4.322   4.220   3.072 -1.1633 -0.9465 -1.1160
   14CHTO  C108 5578   4.450   4.388   3.084  0.1544 -0.0888  0.2210
   14CHTO   O71 5579   4.361   4.415   3.192 -0.4412 -0.1174  0.0058
   14CHTO  H171 5580   4.299   4.475   3.155 -0.0213  1.3433  1.6070
   14CHTO   O62 5581   4.121   4.349   2.762  0.1050 -0.5573 -0.0564
   14CHTO   C91 5582   4.022   4.430   2.824 -0.7510 -0.0458 -0.5662
   14CHTO  H178 5583   3.969   4.372   2.900  1.1627  0.4140  1.1719
   14CHTO   C92 5584   3.924   4.478   2.707 -0.0549 -0.4175  0.0604
   14CHTO  H179 5585   3.896   4.398   2.637  1.6445 -1.6253  0.7299
   14CHTO   O66 5586   3.801   4.510   2.762 -0.3216 -0.0288  0.2222
   14CHTO  H166 5587   3.820   4.567   2.834 -0.9515  1.0911 -0.4765
   14CHTO   C93 5588   3.981   4.604   2.631 -0.0588 -0.5738 -0.0565
   14CHTO  H180 5589   3.895   4.656   2.587  1.0784  2.1031  0.7727
   14CHTO   N16 5590   4.071   4.577   2.517  0.3790  0.4642 -0.6322
   14CHTO  H172 5591   4.017   4.520   2.443  0.7152 -0.9796  0.2051
   14CHTO  H173 5592   4.145   4.513   2.564 -0.8587 -0.5501 -0.0208
   14CHTO   C94 5593   4.047   4.712   2.721  0.5064  0.3209  0.2266
   14CHTO  H181 5594   4.155   4.712   2.713  0.5766 -3.6011  0.0058
   14CHTO   O61 5595   4.014   4.680   2.859 -0.1428 -0.4759 -0.1355
   14CHTO   C95 5596   4.078   4.561   2.902  0.0214  0.2862 -0.5163
   14CHTO  H182 5597   4.186   4.567   2.885  0.0795 -1.5039 -0.8650
   14CHTO  C106 5598   4.044   4.543   3.050 -0.0769  0.5772  0.1196
   14CHTO   O69 5599   4.088   4.653   3.126  0.2918 -0.1571  0.6597
   14CHTO  H169 5600   4.035   4.685   3.197 -1.8728 -0.8374 -0.6094
   14CHTO   O63 5601   3.990   4.872   2.683  0.4623 -0.4509 -0.0062
   14CHTO   C96 5602   4.108   4.982   2.670 -0.1779 -0.4149 -0.0500
   14CHTO  H183 5603   4.052   5.076   2.668  0.6309  0.0495 -0.9615
   14CHTO   C98 5604   4.193   4.962   2.547  0.0894  0.4464  0.5619
   14CHTO  H185 5605   4.245   4.864   2.551  1.4862  1.0307 -2.0033
   14CHTO   O67 5606   4.113   4.950   2.424 -0.0971 -0.0054  0.0301
   14CHTO  H167 5607   4.164   4.928   2.348 -2.5865  0.3924 -1.8231
   14CHTO  C102 5608   4.299   5.078   2.533 -0.1101  0.0315  0.2552
   14CHTO  H189 5609   4.241   5.170   2.517 -1.4632 -1.0504 -1.1926
   14CHTO   N18 5610   4.399   5.076   2.415  0.5804 -0.3430  0.0340
   14CHTO  H176 5611   4.439   4.977   2.396  0.3797 -0.0047 -2.2577
   14CHTO  H177 5612   4.473   5.154   2.422 -0.0369  0.3368 -0.8426
   14CHTO  C105 5613   4.379   5.090   2.667  0.0301  0.0806 -0.3297
   14CHTO  H192 5614   4.434   4.997   2.685 -0.5831 -0.3938 -0.8766
   14CHTO   O65 5615   4.298   5.101   2.784 -0.4677 -0.2870 -0.3345
   14CHTO  C100 5616   4.196   5.005   2.804  0.1312  0.2745 -0.6199
   14CHTO  H187 5617   4.240   4.912   2.844 -0.6935  0.4544  0.7383
   14CHTO  C107 5618   4.104   5.049   2.922  0.1756  0.2503 -0.0960
   14CHTO   O70 5619   4.182   5.025   3.045 -0.8024  0.3066 -0.9088
   14CHTO  H170 5620   4.123   5.029   3.119 -0.9803 -2.6551 -0.7951
   14CHTO   O57 5621   4.485   5.222   2.645  0.5606 -0.1177  0.1178
   14CHTO   C85 5622   4.468   5.358   2.692 -0.2816  0.4573 -0.2039
   14CHTO  H157 5623   4.425   5.340   2.793  1.2505  0.5066  0.4731
   14CHTO   C83 5624   4.363   5.435   2.608 -0.5379 -0.5935  0.4261
   14CHTO  H155 5625   4.267   5.386   2.619 -0.8270 -0.6228 -1.9577
   14CHTO   O56 5626   4.401   5.419   2.472 -0.2896 -0.0105 -0.4020
   14CHTO  H135 5627   4.457   5.485   2.437 -2.2245  0.9131 -1.8220
   14CHTO   C81 5628   4.355   5.581   2.662 -0.2731  0.1173 -0.4645
   14CHTO  H153 5629   4.337   5.576   2.770  0.0404 -0.7526 -0.4434
   14CHTO   N14 5630   4.241   5.645   2.595  0.2367 -0.0597  0.2548
   14CHTO  H141 5631   4.272   5.650   2.493  0.8218 -0.7424  0.3967
   14CHTO  H142 5632   4.225   5.745   2.631 -0.2502  0.0296 -0.2032
   14CHTO   C79 5633   4.488   5.657   2.647  0.0758 -0.3119  0.1345
   14CHTO  H151 5634   4.478   5.753   2.698  1.1791  0.4297 -1.0383
   14CHTO   O52 5635   4.586   5.579   2.734 -0.8865 -0.5827  0.1840
   14CHTO   C86 5636   4.601   5.444   2.699  0.4954  0.6478  0.1149
   14CHTO  H158 5637   4.652   5.454   2.601 -1.3831  0.1031 -0.9483
   14CHTO   C90 5638   4.700   5.377   2.793  0.4026  0.3022 -0.0047
   14CHTO   O60 5639   4.654   5.368   2.928  0.0966  0.4627 -0.1358
   14CHTO  H138 5640   4.653   5.447   2.978  0.1088  0.0428  0.5384
   14CHTO   O50 5641   4.537   5.668   2.514  0.2430  0.0221 -0.2505
   14CHTO   C73 5642   4.532   5.779   2.423  0.0512  0.4230  0.0627
   14CHTO  H145 5643   4.457   5.847   2.466 -1.8062 -0.6287 -1.4554
   14CHTO   C74 5644   4.503   5.726   2.281 -0.2478  0.0375 -0.2389
   14CHTO  H146 5645   4.413   5.663   2.290 -0.3558  0.2534  0.1757
   14CHTO   O54 5646   4.454   5.830   2.199 -0.0954 -0.0795  0.0786
   14CHTO  H133 5647   4.454   5.805   2.109  1.3762 -0.0496  0.0581
   14CHTO   C75 5648   4.629   5.648   2.223 -0.2794 -0.1392  0.5417
   14CHTO  H147 5649   4.657   5.567   2.291 -0.3832 -0.1594  0.5608
   14CHTO   N13 5650   4.615   5.578   2.096 -0.1523  0.2053  0.5955
   14CHTO  H139 5651   4.709   5.530   2.072  0.7573  2.4825 -0.5002
   14CHTO  H140 5652   4.583   5.644   2.017  2.1556  0.4262 -0.1857
   14CHTO   C76 5653   4.750   5.750   2.225 -0.4838 -0.1053  0.7940
   14CHTO  H148 5654   4.723   5.837   2.165  0.0310 -0.5128 -0.0401
   14CHTO   O49 5655   4.782   5.804   2.355  0.2096  0.0527  0.5113
   14CHTO   C77 5656   4.667   5.861   2.416 -0.8357 -0.6286  0.1085
   14CHTO  H149 5657   4.651   5.951   2.356  0.4981 -1.1887 -1.0970
   14CHTO   C88 5658   4.693   5.918   2.556  0.0037 -0.6303  0.2917
   14CHTO   O58 5659   4.804   6.023   2.558 -0.6106 -0.1811 -0.2196
   14CHTO  H136 5660   4.807   6.076   2.480 -3.2089 -0.3755 -0.4970
   14CHTO   O51 5661   4.883   5.685   2.166  0.0956 -0.2377  0.3401
   14CHTO   C78 5662   5.000   5.776   2.149 -0.0283 -0.2253  0.3556
   14CHTO  H150 5663   4.988   5.860   2.220 -1.4500 -1.4176  1.5635
   14CHTO   C80 5664   5.002   5.817   2.000  0.3851  0.4339 -0.0409
   14CHTO  H152 5665   4.987   5.728   1.937  1.0736  0.9430 -0.9375
   14CHTO   O55 5666   4.887   5.908   1.977 -0.5783 -0.0000 -0.0498
   14CHTO  H134 5667   4.853   5.911   1.890  1.2347  2.3339 -0.7407
   14CHTO   C84 5668   5.141   5.892   1.973 -0.3845  0.7248 -0.0541
   14CHTO  H156 5669   5.139   5.986   2.028  1.5347 -0.4949  2.1550
   14CHTO   N15 5670   5.145   5.934   1.830 -0.0220  0.0968 -0.1722
   14CHTO  H143 5671   5.205   6.022   1.820  1.0179 -0.4707  0.9238
   14CHTO  H144 5672   5.180   5.857   1.766 -2.1442 -1.8730  0.9780
   14CHTO   C87 5673   5.262   5.808   2.021 -0.1301  0.6140  0.1746
   14CHTO  H159 5674   5.254   5.716   1.963 -2.8188  0.1273  1.2301
   14CHTO   O53 5675   5.242   5.767   2.170  0.7107 -0.5423 -0.1041
   14CHTO   C82 5676   5.121   5.688   2.182  0.1363  0.2293  0.2974
   14CHTO  H154 5677   5.130   5.611   2.106  0.2555  0.5402 -0.0050
   14CHTO   C89 5678   5.113   5.616   2.320  0.1431 -0.1810 -0.3086
   14CHTO   O59 5679   5.059   5.701   2.421  0.0771  0.0675  0.4051
   14CHTO  H137 5680   4.972   5.729   2.399 -0.0293 -1.0105 -0.6048
   14CHTO   O45 5681   5.403   5.886   2.013 -0.4867 -0.1319  0.7340
   14CHTO   C67 5682   5.506   5.797   1.987  0.1052  0.7729  0.3218
   14CHTO  H124 5683   5.491   5.713   2.055  0.0386 -0.8475 -1.6334
   14CHTO   C65 5684   5.504   5.733   1.844 -1.1016  0.2131 -0.0578
   14CHTO  H122 5685   5.398   5.721   1.823 -0.8615 -1.9306 -0.1233
   14CHTO   O44 5686   5.563   5.604   1.837  0.0085  0.2349 -0.4360
   14CHTO  H102 5687   5.540   5.558   1.915  1.3083 -0.3584 -0.3910
   14CHTO   C63 5688   5.552   5.835   1.741  0.3058  0.0970  0.2407
   14CHTO  H120 5689   5.502   5.931   1.751  1.4771  0.6253  1.2201
   14CHTO   N11 5690   5.519   5.806   1.599 -0.1141  0.1207  0.0068
   14CHTO  H108 5691   5.412   5.804   1.587 -0.3570  2.8087  1.3613
   14CHTO  H109 5692   5.570   5.868   1.529  2.4924 -0.4731  1.3277
   14CHTO   C61 5693   5.699   5.873   1.774  0.5629  0.9301  0.4269
   14CHTO  H118 5694   5.718   5.955   1.702  1.2322  0.8444  0.4964
   14CHTO   O40 5695   5.705   5.931   1.906 -0.1045  0.4072 -0.1408
   14CHTO   C68 5696   5.640   5.857   2.017 -0.1772 -1.4571  1.2048
   14CHTO  H125 5697   5.626   5.931   2.097 -0.7568 -0.8563  0.5520
   14CHTO   C72 5698   5.742   5.755   2.073 -0.8509 -0.4177  0.2063
   14CHTO   O48 5699   5.763   5.773   2.215  0.6825 -0.2576 -0.4272
   14CHTO  H105 5700   5.799   5.693   2.249 -0.0229 -0.3819  0.0292
   14CHTO   O38 5701   5.795   5.768   1.766 -0.3266 -0.0747 -0.7328
   14CHTO   C55 5702   5.895   5.782   1.658 -0.8036 -0.1814  0.0818
   14CHTO  H112 5703   5.887   5.874   1.599 -2.0981 -0.1886  0.2190
   14CHTO   C56 5704   5.895   5.657   1.571 -0.7445 -0.6705 -0.4732
   14CHTO  H113 5705   5.918   5.568   1.631  1.7215  0.1531 -0.1405
   14CHTO   O42 5706   5.769   5.629   1.510 -0.0416 -0.9631 -0.6756
   14CHTO  H100 5707   5.696   5.660   1.561  0.1176  0.6460 -1.3908
   14CHTO   C57 5708   6.007   5.667   1.462  0.1206  0.2662 -0.2222
   14CHTO  H114 5709   5.984   5.762   1.413 -0.8686  0.0894 -0.1075
   14CHTO   N10 5710   6.016   5.567   1.358  0.3801  0.1535  0.0066
   14CHTO  H106 5711   5.926   5.509   1.374  0.1117  0.3621 -0.7137
   14CHTO  H107 5712   6.098   5.497   1.368 -0.9480 -1.3918  0.2571
   14CHTO   C58 5713   6.144   5.681   1.543  0.0611 -1.3095  0.0297
   14CHTO  H115 5714   6.153   5.596   1.613 -2.7397 -1.1287  0.6892
   14CHTO   O37 5715   6.145   5.803   1.627 -0.5042 -0.5396 -0.4002
   14CHTO   C59 5716   6.037   5.798   1.723 -0.1928 -0.1840  0.8277
   14CHTO  H116 5717   6.048   5.714   1.792 -0.6056 -0.0859  1.0163
   14CHTO   C70 5718   6.058   5.923   1.812  0.0834 -0.0556  0.2441
   14CHTO   O46 5719   6.190   5.908   1.865 -0.2641  0.1338  0.3350
   14CHTO  H103 5720   6.215   5.824   1.899  0.0879 -0.0428 -0.3468
   14CHTO   O39 5721   6.290   5.688   1.420  0.2541  0.2900 -0.8110
   14CHTO   C60 5722   6.412   5.632   1.474  0.0589 -0.3777 -0.3688
   14CHTO  H117 5723   6.487   5.662   1.401 -0.6782  1.1143 -0.5336
   14CHTO   C62 5724   6.467   5.680   1.616 -0.3093  0.1467  0.1214
   14CHTO  H119 5725   6.473   5.791   1.619 -0.2019  0.1100  2.3172
   14CHTO   O43 5726   6.380   5.627   1.719 -0.2941  0.2406 -0.7901
   14CHTO  H101 5727   6.377   5.535   1.704  1.2366  0.2589 -1.2342
   14CHTO   C66 5728   6.624   5.636   1.630  0.7593 -0.0771  0.3358
   14CHTO  H123 5729   6.681   5.679   1.547  0.7564 -0.5449  0.0921
   14CHTO   N12 5730   6.692   5.701   1.747 -0.4026 -0.2650 -0.5019
   14CHTO  H110 5731   6.719   5.800   1.711  1.8479 -0.9464 -0.7585
   14CHTO  H111 5732   6.623   5.707   1.830  1.3828 -2.0842  1.1580
   14CHTO   C69 5733   6.635   5.480   1.637 -0.0876 -0.0724 -0.3816
   14CHTO  H126 5734   6.618   5.447   1.742  1.7102  1.2396  0.3474
   14CHTO   O41 5735   6.529   5.407   1.544  0.6562  0.2253  0.1470
   14CHTO   C64 5736   6.402   5.470   1.474  0.2712  0.4466  0.7988
   14CHTO  H121 5737   6.305   5.439   1.518  0.1618 -1.2066 -0.5802
   14CHTO   C71 5738   6.393   5.417   1.332 -0.4073  0.3111  0.6725
   14CHTO   O47 5739   6.520   5.402   1.271 -0.4482  0.2907  0.3836
   14CHTO  H104 5740   6.567   5.331   1.310  0.9700  0.7535 -0.4266
   14CHTO   O34 5741   6.784   5.430   1.601  0.0673  0.2308  0.0724
   14CHTO   C49 5742   6.893   5.361   1.508 -0.3801  0.0932  0.0513
   14CHTO   H91 5743   6.924   5.275   1.567  2.2313  2.3130  2.0283
   14CHTO   C47 5744   7.013   5.459   1.495 -0.2462  0.1496 -0.1324
   14CHTO   H89 5745   7.091   5.403   1.440 -0.2248 -0.7101  0.7634
   14CHTO   O33 5746   7.070   5.485   1.625 -0.0462 -0.0131 -0.1374
   14CHTO   H70 5747   7.160   5.458   1.629 -0.0940 -0.3135 -0.9644
   14CHTO   C45 5748   6.971   5.589   1.412  0.1967 -0.0121 -0.3801
   14CHTO   H87 5749   6.938   5.666   1.484 -1.0781  0.2201 -1.2043
   14CHTO    N8 5750   7.095   5.641   1.346  0.1686  0.4718  0.2347
   14CHTO   H75 5751   7.073   5.738   1.304 -0.3994  1.0011  1.6926
   14CHTO   H76 5752   7.186   5.635   1.403  1.0393 -0.3121 -1.2046
   14CHTO   C43 5753   6.848   5.562   1.309  0.2703  1.0268  0.4317
   14CHTO   H85 5754   6.759   5.585   1.367  0.9848  1.1476  1.5006
   14CHTO   O29 5755   6.847   5.426   1.265  0.1512 -0.5362  0.1392
   14CHTO   C50 5756   6.841   5.324   1.367 -0.8331 -0.6683  0.1394
   14CHTO   H92 5757   6.736   5.291   1.373 -0.1428 -3.0105 -0.5678
   14CHTO   C54 5758   6.907   5.201   1.306  1.2448  0.3016  0.0822
   14CHTO   O36 5759   6.849   5.165   1.183  0.1750  0.4179 -0.2202
   14CHTO   H72 5760   6.897   5.097   1.142  0.9384  0.2789  0.8816
   14CHTO   O27 5761   6.844   5.653   1.195 -0.0345 -0.2525  0.0128
   14CHTO   C37 5762   6.756   5.730   1.116  0.0355  0.3654 -0.8331
   14CHTO   H79 5763   6.807   5.755   1.022  0.8671  1.0326 -0.2059
   14CHTO   C38 5764   6.625   5.645   1.073 -0.2469  0.9973  0.3119
   14CHTO   H80 5765   6.575   5.611   1.165 -0.8444  0.7905 -0.0873
   14CHTO   O31 5766   6.665   5.528   0.998  0.2522  0.8849  0.0604
   14CHTO   H68 5767   6.677   5.539   0.906 -2.4454 -0.3429 -0.4769
   14CHTO   C39 5768   6.525   5.744   0.997  0.1600  0.3374  0.5913
   14CHTO   H81 5769   6.588   5.793   0.923 -0.8883  0.9700  0.0991
   14CHTO    N7 5770   6.402   5.678   0.935 -0.5419  1.0011  0.7641
   14CHTO   H73 5771   6.380   5.738   0.848  0.0896  1.3345  0.8377
   14CHTO   H74 5772   6.411   5.571   0.919  0.7979  1.0977  0.8245
   14CHTO   C40 5773   6.483   5.854   1.097  0.0840  0.2429  0.2851
   14CHTO   H82 5774   6.455   5.803   1.189  2.0617  0.2617  0.9304
   14CHTO   O26 5775   6.602   5.930   1.122 -0.3520  0.3004 -0.5559
   14CHTO   C41 5776   6.714   5.867   1.191  0.5181 -0.0325 -0.2408
   14CHTO   H83 5777   6.685   5.844   1.295  1.2656  1.5372  0.3235
   14CHTO   C52 5778   6.832   5.970   1.188 -0.4357 -0.3326  0.1695
   14CHTO   O35 5779   6.940   5.909   1.278 -0.0902  0.3308  0.3569
   14CHTO   H71 5780   7.023   5.950   1.260 -0.9200  1.6349 -0.5780
   14CHTO   O28 5781   6.385   5.952   1.057  0.6349 -0.3738 -0.2493
   14CHTO   C42 5782   6.311   6.031   1.152  0.5085 -0.2799 -0.0299
   14CHTO   H84 5783   6.267   6.108   1.089  1.0853  0.8758  0.9522
   14CHTO   C44 5784   6.381   6.102   1.271  0.4322  0.6746  0.2929
   14CHTO   H86 5785   6.417   6.028   1.343  0.3997  0.3225 -0.0493
   14CHTO   O32 5786   6.505   6.157   1.225 -0.2961  0.1933  0.4710
   14CHTO   H69 5787   6.549   6.088   1.179  0.9585 -0.1850  2.1899
   14CHTO   C48 5788   6.283   6.199   1.346  0.2238 -1.0405  0.1417
   14CHTO   H90 5789   6.237   6.268   1.274  2.6669 -1.3856 -1.8289
   14CHTO    N9 5790   6.350   6.278   1.461 -0.0319 -0.3512  0.0647
   14CHTO   H77 5791   6.457   6.260   1.470 -0.2847 -1.0282  1.9918
   14CHTO   H78 5792   6.347   6.385   1.456  2.4663 -0.1309  2.1891
   14CHTO   C51 5793   6.158   6.118   1.402  0.2675 -0.1532 -0.3336
   14CHTO   H93 5794   6.197   6.057   1.484  0.1136  2.0943  1.4660
   14CHTO   O30 5795   6.099   6.043   1.299 -0.0011 -1.0478  0.2167
   14CHTO   C46 5796   6.196   5.950   1.213 -0.0623 -0.7255 -0.5502
   14CHTO   H88 5797   6.233   5.872   1.278  0.9617 -0.3721 -0.7105
   14CHTO   C53 5798   6.108   5.891   1.097  0.2673  0.3758  0.3158
   14CHTO   O72 5799   5.986   5.830   1.148  0.2029 -0.7614 -0.2121
   14CHTO  H199 5800   5.915   5.862   1.096 -0.0474 -0.4794  0.3009
   14CHTO   O22 5801   6.049   6.215   1.432  0.1043  0.5668  0.0656
   14CHTO   C31 5802   5.961   6.206   1.547  0.1825 -0.5488  0.1507
   14CHTO   H59 5803   5.981   6.108   1.596  2.3680  0.4194  1.2862
   14CHTO   C29 5804   5.995   6.317   1.658 -0.1392 -0.8340 -0.5125
   14CHTO   H57 5805   5.997   6.416   1.610 -2.1927 -0.1486  0.7704
   14CHTO   O21 5806   6.130   6.300   1.687 -0.1957 -0.2619 -0.4539
   14CHTO   H37 5807   6.147   6.327   1.775  0.8803  0.6787 -0.9251
   14CHTO   C27 5808   5.899   6.320   1.781 -0.2126  0.0182  0.0648
   14CHTO   H55 5809   5.915   6.232   1.845 -3.6482 -2.2553 -2.0126
   14CHTO    N5 5810   5.912   6.442   1.865  0.3235  0.2273 -0.0606
   14CHTO   H43 5811   5.972   6.510   1.806  0.5670  2.3212  2.4983
   14CHTO   H44 5812   5.953   6.419   1.962  0.8474  0.2653 -0.2707
   14CHTO   C25 5813   5.749   6.315   1.729 -0.0597  0.3557  0.1171
   14CHTO   H53 5814   5.738   6.403   1.664  2.0728  0.3256 -0.3012
   14CHTO   O17 5815   5.729   6.198   1.640 -0.3139  0.4364  0.1066
   14CHTO   C32 5816   5.808   6.209   1.520  0.1319 -0.0154  0.1326
   14CHTO   H60 5817   5.784   6.306   1.477 -2.6436 -1.3104 -1.3879
   14CHTO   C36 5818   5.773   6.086   1.428  0.5344 -0.5499 -0.0255
   14CHTO   O25 5819   5.633   6.073   1.401 -0.2219  0.2974 -0.7160
   14CHTO   H40 5820   5.613   5.996   1.351 -1.0715 -0.4186  0.6938
   14CHTO   O15 5821   5.628   6.290   1.856  0.4525 -0.6381 -0.4597
   14CHTO   C19 5822   5.588   6.230   1.985 -0.7877  0.4613 -0.7652
   14CHTO   H47 5823   5.558   6.125   1.967  0.6955  0.0607 -1.0097
   14CHTO   C20 5824   5.700   6.234   2.096 -0.2377 -0.6029  0.7469
   14CHTO   H48 5825   5.737   6.338   2.104 -2.3202  0.3314 -1.1923
   14CHTO   O19 5826   5.807   6.147   2.045  0.0871 -0.2007  0.0226
   14CHTO   H35 5827   5.889   6.183   2.071 -0.3153 -0.4106  1.6602
   14CHTO   C21 5828   5.645   6.197   2.240  0.6800  0.5434  0.0614
   14CHTO   H49 5829   5.641   6.090   2.258 -0.3726  0.4990 -0.4340
   14CHTO    N4 5830   5.753   6.223   2.337 -0.6370  0.3580  0.3337
   14CHTO   H41 5831   5.831   6.151   2.316  1.6070  2.0849  2.4833
   14CHTO   H42 5832   5.795   6.322   2.326  2.4768 -0.8825  0.4316
   14CHTO   C22 5833   5.513   6.267   2.261 -0.6471 -0.2462  0.4879
   14CHTO   H50 5834   5.526   6.375   2.263 -1.9080 -0.0601 -0.2362
   14CHTO   O14 5835   5.422   6.236   2.165 -0.4839  0.0069 -0.2704
   14CHTO   C23 5836   5.462   6.297   2.039 -0.4464  0.0865  0.1413
   14CHTO   H51 5837   5.479   6.405   2.056 -0.3169  0.0072  0.5149
   14CHTO   C34 5838   5.355   6.269   1.934 -0.1489  0.4207  0.0671
   14CHTO   O23 5839   5.239   6.351   1.942  0.4092  0.1242 -0.0717
   14CHTO   H38 5840   5.272   6.437   1.924  0.6356  0.2055  0.7010
   14CHTO   O16 5841   5.458   6.218   2.385  0.4128  0.4393 -0.1468
   14CHTO   C24 5842   5.335   6.292   2.441 -0.7178 -0.2402  0.1939
   14CHTO   H52 5843   5.277   6.340   2.362 -0.1187 -0.2634 -0.2664
   14CHTO   C26 5844   5.383   6.394   2.542  0.3797  0.1865  0.2781
   14CHTO   H54 5845   5.466   6.352   2.602 -0.0253 -0.2558  0.5254
   14CHTO   O20 5846   5.439   6.501   2.465 -0.0058 -0.1529  0.5565
   14CHTO   H36 5847   5.368   6.553   2.432  0.2316 -1.1124 -1.6200
   14CHTO   C30 5848   5.275   6.446   2.643 -0.5454 -0.3237  0.2354
   14CHTO   H58 5849   5.201   6.509   2.590 -2.7344 -1.7333  1.5487
   14CHTO    N6 5850   5.322   6.534   2.749 -0.1197  0.1352 -0.3470
   14CHTO   H45 5851   5.301   6.639   2.738  0.6318  0.6410  2.6569
   14CHTO   H46 5852   5.428   6.520   2.766 -0.2468 -0.4205  0.0191
   14CHTO   C33 5853   5.175   6.335   2.691 -0.4410 -0.3460 -0.4280
   14CHTO   H61 5854   5.236   6.266   2.752 -0.0552 -1.3964 -1.9559
   14CHTO   O18 5855   5.130   6.262   2.577 -0.4631 -0.3919  0.0447
   14CHTO   C28 5856   5.237   6.192   2.510  0.2152 -0.1040  0.0421
   14CHTO   H56 5857   5.292   6.124   2.576  0.7739  0.4745  0.1786
   14CHTO   C35 5858   5.177   6.107   2.400 -0.0793 -0.3523 -0.3551
   14CHTO   O24 5859   5.245   5.984   2.387 -0.3134 -0.1726 -0.2444
   14CHTO   H39 5860   5.196   5.924   2.335 -0.5495 -1.3754  1.3423
   14CHTO    O9 5861   5.061   6.385   2.774 -0.6079  0.5526  0.2261
   14CHTO   C13 5862   4.980   6.266   2.816 -0.2208  0.0499 -0.0818
   14CHTO   H26 5863   5.002   6.181   2.748  2.2165 -0.2716  1.0538
   14CHTO   C11 5864   4.833   6.315   2.806  0.3585  0.4705 -0.4602
   14CHTO   H24 5865   4.820   6.328   2.697 -0.8910  0.3880 -0.3256
   14CHTO    O8 5866   4.821   6.444   2.869  0.0080 -0.0484  0.1553
   14CHTO    H3 5867   4.892   6.491   2.830  0.5783 -0.8004  0.2809
   14CHTO    C9 5868   4.749   6.200   2.860  0.6127 -0.3555  0.0816
   14CHTO   H22 5869   4.774   6.110   2.802  1.0592  0.5709 -1.1792
   14CHTO    N2 5870   4.604   6.223   2.844 -0.2996  0.4265  0.2682
   14CHTO   H10 5871   4.595   6.247   2.739 -1.3718 -0.2567  0.1961
   14CHTO   H11 5872   4.544   6.141   2.879 -2.4277  1.6742 -0.3326
   14CHTO    C7 5873   4.783   6.172   3.015 -0.1828 -1.3716  0.0990
   14CHTO   H20 5874   4.724   6.081   3.038 -1.5262 -0.9392 -1.4669
   14CHTO    O4 5875   4.922   6.139   3.026 -0.0605  0.4461  0.1230
   14CHTO   C14 5876   5.022   6.219   2.966  0.3822 -0.1097  0.5556
   14CHTO   H27 5877   5.118   6.165   2.955  0.0848 -0.6449  0.5898
   14CHTO   C18 5878   5.053   6.344   3.063 -0.1030 -0.4322 -0.1075
   14CHTO   O13 5879   5.156   6.317   3.162 -0.3432 -0.2701  0.3362
   14CHTO    H7 5880   5.224   6.258   3.140 -1.4281 -1.9171  1.3417
   14CHTO    O2 5881   4.747   6.294   3.125  0.3244 -0.1878  0.4098
   14CHTO    C1 5882   4.680   6.240   3.244 -0.0131 -0.4966  0.0086
   14CHTO   H14 5883   4.721   6.140   3.268 -1.2086 -1.3787 -1.5732
   14CHTO    C2 5884   4.530   6.231   3.228  0.3280  0.1984 -0.1100
   14CHTO   H15 5885   4.484   6.325   3.194  0.9283  0.8938  0.9800
   14CHTO    O6 5886   4.504   6.139   3.121  0.2296 -0.4020 -0.7722
   14CHTO    H1 5887   4.534   6.054   3.149 -0.9198 -0.3452  0.7036
   14CHTO    C3 5888   4.448   6.193   3.360  0.0023  0.5553 -0.1353
   14CHTO   H16 5889   4.465   6.087   3.386  1.8719  1.0215  0.6133
   14CHTO    N1 5890   4.300   6.203   3.349 -0.1213  0.4537  0.0919
   14CHTO    H8 5891   4.276   6.292   3.292 -2.1877 -0.3129 -0.3068
   14CHTO    H9 5892   4.245   6.202   3.442  2.0034  1.2561  1.3687
   14CHTO    C4 5893   4.509   6.273   3.480  0.2197 -0.1716 -0.0447
   14CHTO   H17 5894   4.479   6.377   3.475 -2.0007 -0.7241  1.3677
   14CHTO    O1 5895   4.654   6.268   3.478 -0.0831  0.3513 -0.0724
   14CHTO    C5 5896   4.713   6.333   3.365 -0.1597  0.9357  0.6950
   14CHTO   H18 5897   4.660   6.428   3.359 -2.0194 -0.1553 -0.6264
   14CHTO   C16 5898   4.860   6.355   3.383  0.4579 -0.2861  0.1210
   14CHTO   O11 5899   4.929   6.237   3.413 -0.2031 -0.0498 -0.6046
   14CHTO    H5 5900   5.020   6.260   3.417 -0.6727  2.2533 -2.0624
   14CHTO    O3 5901   4.478   6.214   3.610 -0.6770  0.2984 -0.0888
   14CHTO    C6 5902   4.451   6.296   3.728 -0.0942 -0.1983 -0.1608
   14CHTO   H19 5903   4.480   6.400   3.712 -0.8559  0.0482  0.0580
   14CHTO    C8 5904   4.300   6.291   3.773  0.7121 -0.1438  0.3624
   14CHTO   H21 5905   4.274   6.186   3.787  1.3254 -0.4752 -0.9437
   14CHTO    O7 5906   4.225   6.340   3.663  0.3047 -0.0970  0.0950
   14CHTO    H2 5907   4.241   6.431   3.651 -0.4380 -0.1003 -0.9165
   14CHTO   C12 5908   4.273   6.381   3.898 -0.1325 -0.5387 -0.2374
   14CHTO   H25 5909   4.296   6.485   3.865 -1.1376 -0.2381  0.0071
   14CHTO    N3 5910   4.130   6.387   3.940  0.2421  0.1197 -0.2919
   14CHTO   H12 5911   4.112   6.477   3.998 -0.3949 -0.2230  0.0442
   14CHTO   H13 5912   4.062   6.382   3.857  1.0991 -0.3234 -0.9726
   14CHTO   C15 5913   4.382   6.345   4.009 -1.0114  0.3838  0.1290
   14CHTO   H28 5914   4.357   6.256   4.067 -0.4373  0.2819  0.2264
   14CHTO   O10 5915   4.390   6.477   4.117  0.1345 -0.4838  0.1258
   14CHTO    H4 5916   4.457   6.462   4.181  0.6598  0.0881 -0.2865
   14CHTO    O5 5917   4.520   6.335   3.960 -0.0185 -0.5186 -0.8426
   14CHTO   C10 5918   4.539   6.246   3.855  0.0916 -1.0102  0.9496
   14CHTO   H23 5919   4.509   6.143   3.875  1.1777 -1.4143  0.5003
   14CHTO   C17 5920   4.684   6.243   3.821 -0.2692 -0.2127  0.0478
   14CHTO   O12 5921   4.722   6.383   3.791 -0.6553 -0.1566 -0.9343
   14CHTO    H6 5922   4.813   6.404   3.788 -1.1157  2.5957  1.7079
   15CHTO  H203 5923   5.572   5.143   2.632 -0.0172 -0.8748 -0.5088
   15CHTO   O82 5924   5.577   5.153   2.539 -0.6712 -0.5174 -0.5107
   15CHTO  C123 5925   5.600   5.033   2.460 -0.0838  0.0453  0.1533
   15CHTO  H227 5926   5.634   4.952   2.527  0.7989  0.3561  0.0882
   15CHTO   O77 5927   5.471   5.010   2.407 -0.2854 -0.3270  0.1634
   15CHTO  C118 5928   5.466   4.887   2.333  0.0231 -0.5149  0.6688
   15CHTO  H222 5929   5.495   4.801   2.395  2.7066  0.4596  0.8541
   15CHTO  C125 5930   5.310   4.867   2.288 -0.3987  0.2158 -0.4274
   15CHTO   O84 5931   5.223   4.835   2.399 -0.4962 -0.7717  0.4381
   15CHTO  H205 5932   5.130   4.831   2.386 -0.5418 -0.9677  0.8199
   15CHTO  C114 5933   5.552   4.892   2.204 -0.4801 -0.3243  0.0166
   15CHTO  H218 5934   5.515   4.971   2.139 -0.2248  0.8694  1.2823
   15CHTO  C116 5935   5.700   4.928   2.240 -0.1413 -0.1167  0.9565
   15CHTO  H220 5936   5.733   4.830   2.282 -1.6125 -1.6983 -1.4778
   15CHTO   O79 5937   5.785   4.943   2.123  0.0848  0.4509  0.2914
   15CHTO  H201 5938   5.753   5.017   2.076  0.4388  0.7988  0.6011
   15CHTO  C120 5939   5.710   5.048   2.346  0.8711 -0.0394 -0.0182
   15CHTO  H224 5940   5.697   5.140   2.286  1.4015 -0.4761 -0.8125
   15CHTO   N21 5941   5.849   5.059   2.404  0.1679 -0.5761  0.1577
   15CHTO  H211 5942   5.894   4.961   2.401 -1.2426 -1.2893  1.6180
   15CHTO  H212 5943   5.907   5.124   2.340 -0.1774 -1.2660 -0.8672
   15CHTO   O75 5944   5.528   4.761   2.140 -0.4207  0.4131  0.2256
   15CHTO  C112 5945   5.615   4.632   2.187 -0.2496  0.7173 -0.3416
   15CHTO  H216 5946   5.626   4.631   2.296 -0.6983 -0.4154 -0.3001
   15CHTO   O73 5947   5.741   4.638   2.117 -0.0489 -0.3178  0.2798
   15CHTO  C113 5948   5.833   4.535   2.160  0.2720  0.1436 -0.2238
   15CHTO  H217 5949   5.861   4.556   2.265 -1.0312 -1.0148  0.3682
   15CHTO  C124 5950   5.966   4.550   2.089 -0.4714  0.2119 -0.0928
   15CHTO   O83 5951   5.957   4.527   1.945 -0.0462  0.2632 -0.0619
   15CHTO  H204 5952   5.937   4.602   1.892 -2.3125  0.4909  1.0438
   15CHTO  C109 5953   5.773   4.390   2.129  0.0584  0.1896 -0.8262
   15CHTO  H213 5954   5.759   4.381   2.020 -1.6020  1.2259 -0.7136
   15CHTO  C110 5955   5.638   4.380   2.197 -0.0595 -0.7294  0.5448
   15CHTO  H214 5956   5.648   4.379   2.305 -1.3365  0.3178  0.6935
   15CHTO   O78 5957   5.588   4.245   2.162  0.0302 -0.1165 -0.1041
   15CHTO  H200 5958   5.611   4.215   2.077  0.2158 -0.4146  0.0521
   15CHTO  C111 5959   5.541   4.494   2.154 -0.4037  0.1292  0.1169
   15CHTO  H215 5960   5.528   4.490   2.045  2.2463  0.7465 -0.2669
   15CHTO   N19 5961   5.405   4.490   2.218 -0.0231 -0.5812  0.1709
   15CHTO  H207 5962   5.346   4.579   2.204 -0.2515 -0.7428  0.1212
   15CHTO  H208 5963   5.426   4.495   2.324  1.8946 -0.1692 -0.1989
   15CHTO   O74 5964   5.872   4.284   2.168  0.5336 -0.3913 -0.0816
   15CHTO  C115 5965   5.902   4.160   2.069 -0.7356  0.0570 -0.2527
   15CHTO  H219 5966   5.808   4.116   2.035 -1.7306  3.4815 -2.1722
   15CHTO   O76 5967   5.979   4.203   1.929  0.1851 -0.4605  0.0202
   15CHTO  C122 5968   6.124   4.174   1.928  0.3638  0.2467  0.6754
   15CHTO  H226 5969   6.174   4.248   1.990  0.9451  0.0988  0.3885
   15CHTO  C126 5970   6.168   4.212   1.781  0.1371  0.3285 -0.3147
   15CHTO   O85 5971   6.312   4.213   1.779 -0.0590  0.0895  0.4870
   15CHTO  H206 5972   6.345   4.215   1.691  0.7123 -0.7302  0.7460
   15CHTO  C121 5973   6.157   4.014   1.960 -0.6880 -0.8804 -0.0114
   15CHTO  H225 5974   6.160   3.950   1.870  1.4116  0.5183 -0.9764
   15CHTO   O81 5975   6.283   4.016   2.029  0.0156  0.4743  0.2319
   15CHTO  H202 5976   6.351   3.970   1.984 -0.2658  0.4767 -0.2065
   15CHTO  C119 5977   6.048   3.951   2.054  0.2413 -0.3917  0.3132
   15CHTO  H223 5978   5.966   3.928   1.987 -0.4640  0.4611  0.8652
   15CHTO  C117 5979   5.986   4.058   2.153  0.9907  0.9846 -0.2574
   15CHTO  H221 5980   6.055   4.113   2.217  0.6976 -0.6940  1.5828
   15CHTO   N20 5981   5.887   3.999   2.250  0.5436  0.1143 -0.2352
   15CHTO  H209 5982   5.925   4.002   2.351  0.5943 -1.1109 -0.2094
   15CHTO  H210 5983   5.834   3.912   2.214  0.1818 -0.0587  0.7202
   15CHTO   O80 5984   6.083   3.809   2.109  0.1660  0.0521  0.0722
   15CHTO  C103 5985   5.992   3.670   2.050  0.0522  0.0235 -0.2633
   15CHTO  H190 5986   6.020   3.578   2.101  0.4781 -0.2471 -0.9910
   15CHTO  C101 5987   5.847   3.688   2.080  0.1732  0.5559  0.5122
   15CHTO  H188 5988   5.817   3.790   2.053  1.8071  1.0802  0.5992
   15CHTO   O68 5989   5.828   3.664   2.241 -0.1932 -0.7443 -0.0787
   15CHTO  H168 5990   5.873   3.586   2.268  0.8485 -0.3364 -0.5749
   15CHTO   C99 5991   5.751   3.596   1.995 -0.5685  0.1394 -0.2718
   15CHTO  H186 5992   5.775   3.492   2.025 -0.2315  0.7256  1.5756
   15CHTO   N17 5993   5.612   3.631   2.015 -0.0498  0.1217  0.2269
   15CHTO  H174 5994   5.560   3.558   2.075 -1.8250  1.4116  0.3141
   15CHTO  H175 5995   5.610   3.729   2.061  3.1687  0.0709  0.5661
   15CHTO   C97 5996   5.794   3.597   1.849  0.8049 -0.4202 -0.0330
   15CHTO  H184 5997   5.777   3.698   1.809  1.9293 -0.4453 -0.5714
   15CHTO   O64 5998   5.930   3.558   1.837  0.3325  0.0922  0.5065
   15CHTO  C104 5999   6.020   3.652   1.900 -0.0739 -0.0087  0.2735
   15CHTO  H191 6000   6.007   3.748   1.851 -0.9814  0.0383  0.5946
   15CHTO  C108 6001   6.169   3.608   1.879  0.1348 -0.2817 -0.4566
   15CHTO   O71 6002   6.259   3.719   1.905 -0.2552  1.1907 -0.3885
   15CHTO  H171 6003   6.286   3.744   1.818  1.2401 -0.2703 -0.3715
   15CHTO   O62 6004   5.723   3.503   1.767  0.1522  0.3730  0.3751
   15CHTO   C91 6005   5.666   3.549   1.641  0.0545  0.4449 -0.5057
   15CHTO  H178 6006   5.681   3.656   1.639  0.1688  0.4502  0.5640
   15CHTO   C92 6007   5.514   3.530   1.641 -0.1116  0.0436  0.6971
   15CHTO  H179 6008   5.471   3.580   1.730  0.4319 -0.3879  1.2061
   15CHTO   O66 6009   5.449   3.596   1.524  0.5551  0.0018 -0.5022
   15CHTO  H166 6010   5.357   3.586   1.536  0.8861 -0.3732  1.9746
   15CHTO   C93 6011   5.460   3.383   1.630  0.7017  0.1762  0.0075
   15CHTO  H180 6012   5.355   3.386   1.598 -0.3142  2.0988  3.3368
   15CHTO   N16 6013   5.472   3.316   1.762  0.3891 -0.0828  0.0713
   15CHTO  H172 6014   5.425   3.377   1.838 -1.6898 -1.1883 -0.2999
   15CHTO  H173 6015   5.578   3.309   1.779  0.7211 -0.2574 -1.9985
   15CHTO   C94 6016   5.544   3.305   1.517 -0.0891 -0.5504 -0.6974
   15CHTO  H181 6017   5.608   3.230   1.563 -0.0689 -0.1088  0.0071
   15CHTO   O61 6018   5.627   3.398   1.437  0.4982  0.2352  0.1480
   15CHTO   C95 6019   5.725   3.474   1.508 -0.6516 -0.2840 -0.0144
   15CHTO  H182 6020   5.803   3.404   1.538 -0.9793 -1.0436 -0.8736
   15CHTO  C106 6021   5.791   3.585   1.426  0.0582 -0.9271 -0.3845
   15CHTO   O69 6022   5.702   3.686   1.367 -0.1480  0.0968 -0.0554
   15CHTO  H169 6023   5.675   3.737   1.441  0.6095  1.4680 -0.7085
   15CHTO   O63 6024   5.432   3.246   1.422  0.3764  0.1181  0.0365
   15CHTO   C96 6025   5.482   3.144   1.332 -0.4133 -0.4585  0.2437
   15CHTO  H183 6026   5.591   3.150   1.332 -0.3414 -1.6197 -0.9892
   15CHTO   C98 6027   5.428   3.159   1.188 -0.9713 -0.2254  0.0602
   15CHTO  H185 6028   5.318   3.157   1.188 -0.9763 -0.9467 -1.8465
   15CHTO   O67 6029   5.463   3.287   1.138  0.0283  0.2509 -0.2232
   15CHTO  H167 6030   5.413   3.351   1.185 -2.7311 -1.9886  0.0100
   15CHTO  C102 6031   5.484   3.041   1.102  0.3380  0.6245  0.3514
   15CHTO  H189 6032   5.591   3.060   1.088  0.0846  0.9552 -1.2027
   15CHTO   N18 6033   5.428   3.043   0.960  0.3778  0.1004 -0.1583
   15CHTO  H176 6034   5.456   3.133   0.907 -0.6117  0.1000 -0.6950
   15CHTO  H177 6035   5.460   2.950   0.915  0.7636 -0.5104  1.3286
   15CHTO  C105 6036   5.460   2.902   1.174  0.2079  0.2746 -0.2869
   15CHTO  H192 6037   5.355   2.876   1.164  0.3253  0.0197 -0.8483
   15CHTO   O65 6038   5.502   2.905   1.311 -0.0464 -0.0320 -0.4992
   15CHTO  C100 6039   5.436   3.005   1.389 -0.6545  0.5291 -0.6046
   15CHTO  H187 6040   5.327   2.996   1.375 -0.4071 -1.6038 -1.4943
   15CHTO  C107 6041   5.464   2.974   1.543 -0.2352 -0.7032  0.1402
   15CHTO   O70 6042   5.359   3.032   1.623  0.1053  0.7212 -0.4617
   15CHTO  H170 6043   5.351   3.125   1.622  0.5327  0.7954  0.8618
   15CHTO   O57 6044   5.555   2.775   1.087  0.1346 -0.1288 -0.2331
   15CHTO   C85 6045   5.538   2.639   1.138 -0.3139  0.2225  0.5383
   15CHTO  H157 6046   5.459   2.642   1.215  0.5195  0.2170  1.4058
   15CHTO   C83 6047   5.661   2.597   1.225  0.4712  0.5225 -0.2182
   15CHTO  H155 6048   5.689   2.671   1.300  0.2865  0.4466 -0.0729
   15CHTO   O56 6049   5.782   2.595   1.145 -0.3565  0.7047  0.3376
   15CHTO  H135 6050   5.825   2.679   1.140  0.9003  0.1942  2.0608
   15CHTO   C81 6051   5.625   2.459   1.296  0.2282 -0.0226  0.3897
   15CHTO  H153 6052   5.536   2.473   1.357 -0.0278  1.7263 -0.3420
   15CHTO   N14 6053   5.719   2.419   1.400 -0.4588  0.9408 -0.4641
   15CHTO  H141 6054   5.694   2.319   1.429 -0.9787  1.1782 -0.0934
   15CHTO  H142 6055   5.822   2.416   1.371 -0.8236 -0.2607 -1.6694
   15CHTO   C79 6056   5.591   2.355   1.186 -0.3986 -0.3523  0.3357
   15CHTO  H151 6057   5.562   2.264   1.239  1.4473 -0.0876  1.8781
   15CHTO   O52 6058   5.481   2.400   1.098 -0.3871 -0.0052 -0.4434
   15CHTO   C86 6059   5.510   2.526   1.037 -0.6614 -0.4562  0.4391
   15CHTO  H158 6060   5.598   2.504   0.973 -1.6682 -0.6204 -0.9099
   15CHTO   C90 6061   5.391   2.553   0.945 -0.2090  0.3778 -1.0318
   15CHTO   O60 6062   5.397   2.479   0.825  0.4134  0.3344  0.5006
   15CHTO  H138 6063   5.381   2.535   0.752 -1.4643 -0.5983  0.1552
   15CHTO   O50 6064   5.703   2.316   1.102  0.2908 -0.0172  0.1310
   15CHTO   C73 6065   5.726   2.195   1.024 -0.5233 -0.4784  0.5063
   15CHTO  H145 6066   5.629   2.156   0.991 -0.2745  0.1879 -1.0233
   15CHTO   C74 6067   5.790   2.088   1.114 -0.5212  0.3849  0.0075
   15CHTO  H146 6068   5.729   2.078   1.205 -1.1687  3.4547 -0.0566
   15CHTO   O54 6069   5.791   1.961   1.053 -0.1301  0.1686  0.6607
   15CHTO  H133 6070   5.772   1.895   1.118  0.0084  0.8783  1.4362
   15CHTO   C75 6071   5.938   2.140   1.157 -0.3105 -0.1961  0.0411
   15CHTO  H147 6072   5.928   2.232   1.217  0.3233 -1.2092  1.7186
   15CHTO   N13 6073   6.008   2.045   1.246 -0.5940 -0.0500 -0.0844
   15CHTO  H139 6074   5.986   2.053   1.351  0.9762 -0.2643  0.2716
   15CHTO  H140 6075   5.985   1.944   1.215 -0.5947  0.6925 -2.6666
   15CHTO   C76 6076   6.022   2.158   1.023 -0.1581 -0.4226 -0.3510
   15CHTO  H148 6077   6.033   2.065   0.969  0.4515 -0.8867  0.5668
   15CHTO   O49 6078   5.952   2.250   0.939 -0.6280 -0.0337 -0.6062
   15CHTO   C77 6079   5.817   2.210   0.896 -0.2572  0.5758 -0.3420
   15CHTO  H149 6080   5.816   2.118   0.838  0.9471  0.2428  0.1576
   15CHTO   C88 6081   5.774   2.327   0.814 -0.1921  0.0983 -0.1227
   15CHTO   O58 6082   5.663   2.305   0.765 -0.6905  0.6306 -0.0390
   15CHTO  H136 6083   5.630   2.391   0.748 -0.0927  0.8358 -0.1534
   15CHTO   O51 6084   6.163   2.220   1.048  0.3962  0.0999 -0.3875
   15CHTO   C78 6085   6.261   2.204   0.915 -0.2320 -0.3797 -0.0422
   15CHTO  H150 6086   6.202   2.203   0.822  1.3468  1.4318 -1.0960
   15CHTO   C80 6087   6.347   2.078   0.928  0.1055 -0.9135 -0.5482
   15CHTO  H152 6088   6.387   2.073   1.031  0.4135 -2.0989 -0.7195
   15CHTO   O55 6089   6.257   1.965   0.911 -0.2502 -0.0793  0.3240
   15CHTO  H134 6090   6.305   1.888   0.887  2.0847  1.2382  0.6077
   15CHTO   C84 6091   6.463   2.073   0.823 -0.7528 -0.3953 -0.1555
   15CHTO  H156 6092   6.413   2.067   0.727  1.1462 -1.1706 -1.1316
   15CHTO   N15 6093   6.552   1.951   0.837  0.0582 -0.2406  0.2139
   15CHTO  H143 6094   6.585   1.950   0.939  1.5773 -0.3722 -0.2689
   15CHTO  H144 6095   6.637   1.957   0.773 -2.2327 -0.0443 -2.9009
   15CHTO   C87 6096   6.546   2.205   0.840 -0.0005 -0.4496 -0.4423
   15CHTO  H159 6097   6.592   2.214   0.938 -1.8986  1.9463  0.2654
   15CHTO   O53 6098   6.450   2.328   0.811  0.8037 -0.6034 -0.2693
   15CHTO   C82 6099   6.341   2.338   0.902  0.0905 -0.0440 -0.6631
   15CHTO  H154 6100   6.382   2.366   0.998  1.9318 -2.6492 -0.6485
   15CHTO   C89 6101   6.246   2.449   0.854 -0.4643 -0.4048 -0.7222
   15CHTO   O59 6102   6.328   2.560   0.836  0.7411 -0.1213  0.1628
   15CHTO  H137 6103   6.404   2.546   0.784  1.0170  1.2838  0.1556
   15CHTO   O45 6104   6.670   2.216   0.727  0.5248  0.1093 -0.2911
   15CHTO   C67 6105   6.772   2.310   0.769  0.1398  0.3433  0.2186
   15CHTO  H124 6106   6.727   2.380   0.839  0.7285  1.2478 -0.3126
   15CHTO   C65 6107   6.896   2.237   0.834 -0.0469  0.1710 -0.2175
   15CHTO  H122 6108   6.919   2.145   0.779  1.7320  0.3683  0.1782
   15CHTO   O44 6109   6.859   2.212   0.972 -0.3602  0.4019 -0.1503
   15CHTO  H102 6110   6.910   2.260   1.034 -0.9024  0.9375 -0.1197
   15CHTO   C63 6111   7.029   2.320   0.820  0.1227  0.3717  0.0075
   15CHTO  H120 6112   7.088   2.295   0.732  2.4056  2.1448  0.9532
   15CHTO   N11 6113   7.139   2.285   0.907 -0.0053  0.5054  0.2157
   15CHTO  H108 6114   7.112   2.292   1.011 -1.4139 -1.2949 -0.0089
   15CHTO  H109 6115   7.198   2.198   0.888 -1.1622 -0.3586  0.4820
   15CHTO   C61 6116   6.994   2.471   0.825 -0.2485 -0.0853  0.2077
   15CHTO  H118 6117   7.089   2.526   0.827 -1.1021  1.3925  1.1956
   15CHTO   O40 6118   6.926   2.503   0.700 -0.2629  0.5715 -0.3712
   15CHTO   C68 6119   6.825   2.404   0.647  0.5464  0.2397  0.3930
   15CHTO  H125 6120   6.881   2.342   0.573  1.0595  1.5048 -0.2886
   15CHTO   C72 6121   6.718   2.488   0.570 -0.1439 -0.0530 -0.4487
   15CHTO   O48 6122   6.592   2.412   0.538 -0.5081  0.0457 -0.4918
   15CHTO  H105 6123   6.550   2.380   0.615  0.2689  1.3756  0.5137
   15CHTO   O38 6124   6.915   2.508   0.937 -0.6671  0.2008 -0.5233
   15CHTO   C55 6125   6.890   2.646   0.961  0.5629 -0.6897  0.0437
   15CHTO  H112 6126   6.885   2.695   0.862 -0.4290 -0.2274  0.3160
   15CHTO   C56 6127   6.999   2.706   1.054 -1.1315 -0.4598 -0.2873
   15CHTO  H113 6128   7.018   2.639   1.139 -0.6633 -0.0078 -0.0306
   15CHTO   O42 6129   7.121   2.711   0.974  0.2891 -0.3804  0.4202
   15CHTO  H100 6130   7.179   2.641   0.995  0.7967  0.7262  2.8917
   15CHTO   C57 6131   6.968   2.860   1.100  0.5600  0.5556 -0.6563
   15CHTO  H114 6132   6.988   2.915   1.009 -0.1407  1.3176 -0.3496
   15CHTO   N10 6133   7.059   2.901   1.210 -0.4567 -0.5599 -0.0812
   15CHTO  H106 6134   7.009   2.982   1.260  0.7141  1.4005 -1.9935
   15CHTO  H107 6135   7.147   2.947   1.166 -0.7406  1.1572  1.0854
   15CHTO   C58 6136   6.818   2.868   1.146 -0.0845 -0.6235 -0.1879
   15CHTO  H115 6137   6.809   2.815   1.243  1.7534 -1.1587 -0.2843
   15CHTO   O37 6138   6.733   2.816   1.047  0.8111  0.4873 -0.2460
   15CHTO   C59 6139   6.757   2.672   1.038 -0.0121  0.1757  0.2082
   15CHTO  H116 6140   6.758   2.623   1.135  0.4133  2.0291  1.1472
   15CHTO   C70 6141   6.632   2.622   0.964  0.3962  0.3972 -0.2144
   15CHTO   O46 6142   6.611   2.683   0.831  0.1074 -0.2744 -0.2247
   15CHTO  H103 6143   6.662   2.635   0.769  2.2134  0.5371  0.8316
   15CHTO   O39 6144   6.761   3.028   1.184  0.4289 -0.4248  0.2257
   15CHTO   C60 6145   6.672   3.057   1.296 -0.9308  1.0630  0.4996
   15CHTO  H117 6146   6.644   2.959   1.335  1.6249  0.1548  0.1673
   15CHTO   C62 6147   6.750   3.150   1.398  0.1915  0.5013  0.6594
   15CHTO  H119 6148   6.845   3.100   1.425 -0.9751 -1.5304  1.0943
   15CHTO   O43 6149   6.761   3.276   1.331 -0.2336  0.3568  0.1892
   15CHTO  H101 6150   6.795   3.338   1.393 -0.1982 -0.4463  0.9784
   15CHTO   C66 6151   6.643   3.145   1.523  0.0159 -0.0559 -0.2324
   15CHTO  H123 6152   6.627   3.041   1.549 -2.4409  0.5946  1.0080
   15CHTO   N12 6153   6.704   3.202   1.643  0.4382  0.4194  0.6802
   15CHTO  H110 6154   6.742   3.302   1.632 -1.0740  0.9723  0.4789
   15CHTO  H111 6155   6.786   3.136   1.669  1.2513  0.5266 -1.5134
   15CHTO   C69 6156   6.511   3.208   1.484 -0.0028 -0.1132 -0.5856
   15CHTO  H126 6157   6.536   3.316   1.474  1.5709 -0.3898  0.3004
   15CHTO   O41 6158   6.448   3.134   1.360  0.0085 -0.0406  0.0297
   15CHTO   C64 6159   6.540   3.119   1.242 -0.0140 -0.3562 -0.1086
   15CHTO  H121 6160   6.556   3.219   1.198 -0.5528 -0.0492  0.3835
   15CHTO   C71 6161   6.483   3.033   1.128  0.1870  0.1939 -0.3300
   15CHTO   O47 6162   6.359   3.090   1.072  0.2024 -0.2864  0.1984
   15CHTO  H104 6163   6.386   3.145   1.001 -0.4460 -1.6480 -1.1294
   15CHTO   O34 6164   6.394   3.185   1.593 -0.1177 -0.6842  0.0283
   15CHTO   C49 6165   6.291   3.294   1.637 -0.1525  0.4829  0.2109
   15CHTO   H91 6166   6.362   3.353   1.695 -1.0532  1.5150  0.2677
   15CHTO   C47 6167   6.182   3.237   1.728  0.0437  0.6820 -0.6602
   15CHTO   H89 6168   6.139   3.331   1.770  0.4530  1.4062 -1.8453
   15CHTO   O33 6169   6.242   3.161   1.835  0.8107  0.1462  0.2340
   15CHTO   H70 6170   6.307   3.209   1.883  0.9160 -0.7001  0.9594
   15CHTO   C45 6171   6.081   3.153   1.639 -0.0686  0.8870 -0.4847
   15CHTO   H87 6172   6.116   3.049   1.646  0.4258  0.9139 -2.3521
   15CHTO    N8 6173   5.955   3.170   1.714 -0.6195  0.1994  0.3488
   15CHTO   H75 6174   5.901   3.091   1.764 -0.4858 -0.0332  0.1286
   15CHTO   H76 6175   5.897   3.250   1.669 -0.0272 -0.1044 -0.9953
   15CHTO   C43 6176   6.088   3.177   1.479  0.5336  0.2016 -0.1278
   15CHTO   H85 6177   6.172   3.117   1.445 -0.2683 -0.1386 -1.5511
   15CHTO   O29 6178   6.109   3.316   1.444  0.2866  0.0249 -0.0190
   15CHTO   C50 6179   6.219   3.376   1.517  0.3270  0.0870  0.2272
   15CHTO   H92 6180   6.288   3.373   1.431 -0.8396 -1.5866 -0.6972
   15CHTO   C54 6181   6.188   3.528   1.548  0.2265 -0.7393  0.1793
   15CHTO   O36 6182   6.190   3.607   1.428 -0.3283 -0.0721 -0.1133
   15CHTO   H72 6183   6.122   3.581   1.369  0.1992  0.6767 -1.0546
   15CHTO   O27 6184   5.987   3.120   1.403 -0.4562  0.2244 -0.3660
   15CHTO   C37 6185   5.999   3.101   1.264  0.1142 -0.2769 -0.2805
   15CHTO   H79 6186   6.089   3.151   1.225  0.4464  0.2981  1.1776
   15CHTO   C38 6187   6.028   2.954   1.227 -0.7209  0.6336 -0.3471
   15CHTO   H80 6188   5.955   2.891   1.281  0.0816  0.4645  0.5555
   15CHTO   O31 6189   6.161   2.919   1.273 -0.6772  0.0675  0.2922
   15CHTO   H68 6190   6.176   2.916   1.365  0.6444  3.0749  0.2063
   15CHTO   C39 6191   6.015   2.926   1.074 -0.5379 -0.3007  0.1084
   15CHTO   H81 6192   6.100   2.968   1.019  0.7443 -2.8305  0.0681
   15CHTO    N7 6193   6.012   2.775   1.049 -0.0530  0.6800 -0.4237
   15CHTO   H73 6194   6.026   2.723   1.143  2.0589  1.9547 -0.0097
   15CHTO   H74 6195   5.913   2.751   1.011  0.0543 -0.6236  0.0927
   15CHTO   C40 6196   5.885   2.996   1.011 -0.0996  0.2814 -0.2122
   15CHTO   H82 6197   5.799   2.941   1.049  0.6030  0.1388  1.1951
   15CHTO   O26 6198   5.882   3.135   1.047 -0.5639  0.5929  0.8012
   15CHTO   C41 6199   5.871   3.155   1.190 -0.1365 -0.3321  0.4260
   15CHTO   H83 6200   5.782   3.104   1.230  0.0453  0.2989  1.6422
   15CHTO   C52 6201   5.843   3.300   1.211 -0.4413  0.2855 -0.1195
   15CHTO   O35 6202   5.740   3.348   1.125 -0.2148  0.3061  0.1120
   15CHTO   H71 6203   5.661   3.359   1.173 -1.6321  0.2288 -2.1137
   15CHTO   O28 6204   5.877   2.996   0.863  0.7293 -0.5755 -0.5697
   15CHTO   C42 6205   5.952   3.071   0.763 -0.6805  0.0036  0.2483
   15CHTO   H84 6206   5.948   3.011   0.672 -1.0436  0.9538 -0.3784
   15CHTO   C44 6207   6.108   3.099   0.785 -0.0875 -0.9486  0.3949
   15CHTO   H86 6208   6.117   3.155   0.878  3.2458 -0.2536 -0.2746
   15CHTO   O32 6209   6.175   2.973   0.780 -0.0991  0.4689 -0.2113
   15CHTO   H69 6210   6.233   2.963   0.853  1.1915  0.4097 -1.2189
   15CHTO   C48 6211   6.166   3.190   0.669  0.4860 -0.7617 -0.1758
   15CHTO   H90 6212   6.153   3.136   0.576  1.5928 -1.1660 -0.1032
   15CHTO    N9 6213   6.308   3.235   0.688  0.0926  0.6016 -0.0243
   15CHTO   H77 6214   6.314   3.341   0.707  0.6854  0.4648  0.5891
   15CHTO   H78 6215   6.367   3.171   0.752 -2.9149 -4.1340 -1.7213
   15CHTO   C51 6216   6.077   3.315   0.650 -0.8644 -0.9707  0.2998
   15CHTO   H93 6217   6.078   3.360   0.750 -0.3298 -0.8417  0.2369
   15CHTO   O30 6218   5.950   3.270   0.614 -0.2902  0.1779 -0.2987
   15CHTO   C46 6219   5.882   3.203   0.723 -0.2159 -0.6282  0.1861
   15CHTO   H88 6220   5.882   3.278   0.802 -0.3412 -1.4626  0.9756
   15CHTO   C53 6221   5.731   3.177   0.693  0.0006  0.1323  0.1788
   15CHTO   O72 6222   5.682   3.282   0.610  0.1252  0.2420  0.5009
   15CHTO  H199 6223   5.597   3.270   0.572  0.2876  1.3803 -0.2532
   15CHTO   O22 6224   6.117   3.415   0.549 -0.5372  0.7033  0.0844
   15CHTO   C31 6225   6.078   3.558   0.541  0.4951  0.0870 -0.0045
   15CHTO   H59 6226   6.119   3.590   0.443 -1.2093 -0.1677 -0.8142
   15CHTO   C29 6227   5.926   3.586   0.535 -0.4579  0.1967 -0.4028
   15CHTO   H57 6228   5.872   3.542   0.620  1.2388 -2.9254 -0.8832
   15CHTO   O21 6229   5.868   3.515   0.426  0.0700 -0.3864 -0.2616
   15CHTO   H37 6230   5.778   3.542   0.432  0.6570  1.2604  2.2429
   15CHTO   C27 6231   5.897   3.742   0.523  0.5344 -0.1680  0.1344
   15CHTO   H55 6232   5.925   3.771   0.421 -0.8078 -3.7369 -1.3426
   15CHTO    N5 6233   5.756   3.777   0.546 -0.2537 -1.1685 -0.0173
   15CHTO   H43 6234   5.698   3.740   0.463 -3.7330 -1.7368  2.5583
   15CHTO   H44 6235   5.725   3.737   0.642  1.0858 -2.8594 -0.2706
   15CHTO   C25 6236   5.993   3.819   0.629  0.1478  0.3429 -0.1925
   15CHTO   H53 6237   5.948   3.788   0.725  2.3577  0.0365  0.7812
   15CHTO   O17 6238   6.131   3.777   0.617  0.3416 -0.1291  0.5791
   15CHTO   C32 6239   6.152   3.639   0.650  0.5250 -0.3708 -0.3012
   15CHTO   H60 6240   6.110   3.606   0.744  0.2948 -2.4763 -1.1274
   15CHTO   C36 6241   6.305   3.631   0.646  0.1490 -0.1791 -0.4752
   15CHTO   O25 6242   6.351   3.548   0.753 -0.2166  0.4054  0.0298
   15CHTO   H40 6243   6.317   3.460   0.751  2.5832 -0.7699  0.5962
   15CHTO   O15 6244   5.978   3.969   0.617  0.2702  0.5003 -0.4403
   15CHTO   C19 6245   6.017   4.101   0.664  0.3381  0.7256 -0.1718
   15CHTO   H47 6246   6.050   4.143   0.568 -1.1732 -0.7835 -1.3869
   15CHTO   C20 6247   5.899   4.181   0.733  0.5900 -0.8268  0.1203
   15CHTO   H48 6248   5.852   4.123   0.814 -1.2059  0.0972 -0.2323
   15CHTO   O19 6249   5.797   4.203   0.635  0.5870 -0.1479 -0.3000
   15CHTO   H35 6250   5.743   4.277   0.655  1.3742  0.7096 -1.2608
   15CHTO   C21 6251   5.954   4.317   0.792 -0.6861  0.3441  0.2177
   15CHTO   H49 6252   5.982   4.378   0.707 -0.0029 -1.4432 -0.8437
   15CHTO    N4 6253   5.847   4.402   0.852  0.0733 -0.3387  0.7419
   15CHTO   H41 6254   5.814   4.355   0.943  0.3321 -0.8943  0.5494
   15CHTO   H42 6255   5.885   4.500   0.879  0.5079 -0.8391  2.0030
   15CHTO   C22 6256   6.069   4.285   0.893  0.0033  0.3476  0.6795
   15CHTO   H50 6257   6.033   4.219   0.972  2.1965  0.4678  1.8337
   15CHTO   O14 6258   6.173   4.222   0.809 -0.0317  0.2513 -0.0833
   15CHTO   C23 6259   6.147   4.093   0.756 -0.4228  0.3116  0.8178
   15CHTO   H51 6260   6.138   4.017   0.836  0.2050 -0.7273 -0.0873
   15CHTO   C34 6261   6.270   4.056   0.675 -0.6448  0.2300 -0.0269
   15CHTO   O23 6262   6.379   4.021   0.759  0.3091 -0.3006 -0.3314
   15CHTO   H38 6263   6.448   3.970   0.721 -1.3934 -1.8071 -1.4954
   15CHTO   O16 6264   6.129   4.401   0.946  0.2124 -0.1593 -0.0129
   15CHTO   C24 6265   6.208   4.372   1.092  0.1512  0.0443 -0.5143
   15CHTO   H52 6266   6.210   4.267   1.121 -0.0506  0.5278  1.3596
   15CHTO   C26 6267   6.136   4.446   1.203 -0.0617  0.2627 -0.3207
   15CHTO   H54 6268   6.132   4.555   1.183  1.2990  0.5664  0.9416
   15CHTO   O20 6269   6.000   4.396   1.198  0.7019 -1.0366 -0.2502
   15CHTO   H36 6270   5.940   4.445   1.250 -0.8024 -0.5219 -2.4005
   15CHTO   C30 6271   6.197   4.427   1.344  0.0672 -0.2784  0.3544
   15CHTO   H58 6272   6.184   4.327   1.389  0.9027 -0.3244  0.5060
   15CHTO    N6 6273   6.128   4.512   1.446  0.5913  0.2075 -0.1420
   15CHTO   H45 6274   6.116   4.616   1.419 -0.9161 -0.0154 -0.3598
   15CHTO   H46 6275   6.029   4.468   1.456  1.1205 -1.0412 -0.2606
   15CHTO   C33 6276   6.347   4.460   1.337  0.0170  0.0544  0.4149
   15CHTO   H61 6277   6.355   4.569   1.327  1.0335 -0.0365  0.1552
   15CHTO   O18 6278   6.414   4.398   1.226 -0.0580  0.3850  0.3945
   15CHTO   C28 6279   6.357   4.423   1.094 -0.2169  0.0937  0.3593
   15CHTO   H56 6280   6.358   4.532   1.083  0.9343  0.0333 -0.1822
   15CHTO   C35 6281   6.447   4.354   0.986  0.0976 -0.1642  0.3521
   15CHTO   O24 6282   6.453   4.212   0.987 -0.2122 -0.0129 -0.4899
   15CHTO   H39 6283   6.488   4.195   1.072 -0.9742 -1.0213 -0.3756
   15CHTO    O9 6284   6.411   4.424   1.462  0.3220  0.1296  0.3456
   15CHTO   C13 6285   6.580   4.382   1.452 -0.4113  0.2975  0.6360
   15CHTO   H26 6286   6.635   4.436   1.372  2.2747 -4.1557 -0.7486
   15CHTO   C11 6287   6.592   4.228   1.425 -0.3776  0.5567  0.1291
   15CHTO   H24 6288   6.544   4.194   1.331 -0.8770 -2.9951  1.5649
   15CHTO    O8 6289   6.534   4.161   1.531  0.0611 -0.2916  0.2079
   15CHTO    H3 6290   6.556   4.070   1.538 -0.6373 -0.3161  2.3375
   15CHTO    C9 6291   6.747   4.200   1.411 -0.3630 -0.0013  0.3166
   15CHTO   H22 6292   6.777   4.270   1.332 -0.3292 -0.8617 -0.4445
   15CHTO    N2 6293   6.785   4.070   1.350 -0.8737  0.2726 -0.7017
   15CHTO   H10 6294   6.797   4.084   1.243  0.6719  2.1764 -0.2955
   15CHTO   H11 6295   6.711   3.994   1.372 -1.3708  1.2947  1.2669
   15CHTO    C7 6296   6.816   4.230   1.553 -0.0559  0.1006  0.3793
   15CHTO   H20 6297   6.915   4.265   1.518 -0.8675  1.5065 -0.5603
   15CHTO    O4 6298   6.754   4.329   1.636 -0.5285 -0.4970  0.2901
   15CHTO   C14 6299   6.659   4.425   1.583 -0.3843  0.3246  0.0021
   15CHTO   H27 6300   6.712   4.520   1.561 -1.0238  0.6169 -0.2818
   15CHTO   C18 6301   6.566   4.453   1.700 -0.0721  0.2252  0.0008
   15CHTO   O13 6302   6.644   4.514   1.803 -0.0767  0.1255  0.7233
   15CHTO    H7 6303   6.687   4.454   1.862  1.0314 -0.3729 -0.5612
   15CHTO    O2 6304   6.857   4.109   1.645  0.0248  0.4209 -0.1933
   15CHTO    C1 6305   6.988   4.115   1.709 -0.5067 -0.0004  0.5175
   15CHTO   H14 6306   7.030   4.217   1.698  0.7226 -0.4886  0.5450
   15CHTO    C2 6307   7.094   4.016   1.651 -0.3287 -0.2245  0.2807
   15CHTO   H15 6308   7.048   3.916   1.659  1.9664 -1.1750  2.0337
   15CHTO    O6 6309   7.119   4.034   1.514  0.3034  0.7009 -0.7268
   15CHTO    H1 6310   7.151   4.122   1.502 -2.0431  1.5506 -1.0851
   15CHTO    C3 6311   7.228   4.019   1.744 -0.1951 -0.5651  0.1237
   15CHTO   H16 6312   7.280   4.113   1.721 -1.2021 -0.4529 -1.7707
   15CHTO    N1 6313   7.310   3.905   1.705  0.1246  0.2305 -0.1385
   15CHTO    H8 6314   7.340   3.914   1.602 -1.5904  1.2164 -0.5842
   15CHTO    H9 6315   7.243   3.821   1.720 -0.9237  1.2822  1.2547
   15CHTO    C4 6316   7.189   4.022   1.897 -0.5797 -0.0055 -0.1661
   15CHTO   H17 6317   7.159   3.923   1.932  0.0284  0.5567  2.0194
   15CHTO    O1 6318   7.093   4.120   1.923 -0.2904  0.5486 -0.4823
   15CHTO    C5 6319   6.972   4.087   1.861 -0.1340 -0.6499 -0.0120
   15CHTO   H18 6320   6.940   3.984   1.876 -2.5540  0.4329  2.8362
   15CHTO   C16 6321   6.873   4.173   1.943 -0.1208  0.4344 -0.1745
   15CHTO   O11 6322   6.740   4.185   1.893  0.1334 -0.3008 -0.0190
   15CHTO    H5 6323   6.701   4.102   1.915  0.0804 -0.0082  0.9799
   15CHTO    O3 6324   7.297   4.082   1.977 -0.1378 -0.4476 -0.0540
   15CHTO    C6 6325   7.314   4.037   2.119 -0.1536 -0.7230  0.3602
   15CHTO   H19 6326   7.228   3.986   2.163 -0.3273 -0.0800  0.7850
   15CHTO    C8 6327   7.428   3.935   2.136 -0.4376  0.2102 -0.3846
   15CHTO   H21 6328   7.523   3.975   2.101 -0.5385  0.6003 -0.2225
   15CHTO    O7 6329   7.395   3.826   2.049  0.6581 -0.2673  0.4148
   15CHTO    H2 6330   7.471   3.779   2.020  0.7216  0.2820 -0.3105
   15CHTO   C12 6331   7.439   3.891   2.286  0.0196 -0.1304 -0.2646
   15CHTO   H25 6332   7.341   3.846   2.312  1.1019 -2.3127  0.1650
   15CHTO    N3 6333   7.545   3.785   2.306  0.0824  0.2979 -0.0600
   15CHTO   H12 6334   7.628   3.850   2.282 -2.6869  3.6709 -0.9440
   15CHTO   H13 6335   7.534   3.701   2.240  2.0604  0.4493 -0.6339
   15CHTO   C15 6336   7.459   4.021   2.375 -0.6768  0.1535 -0.3689
   15CHTO   H28 6337   7.562   4.057   2.376 -0.3238 -0.8487 -0.1932
   15CHTO   O10 6338   7.429   3.990   2.521  0.1359  0.3697 -0.0068
   15CHTO    H4 6339   7.464   3.906   2.545  1.5541 -0.2444 -3.8911
   15CHTO    O5 6340   7.362   4.121   2.348 -0.3890  0.0847 -0.1999
   15CHTO   C10 6341   7.350   4.163   2.212  0.4861 -0.3608  0.3662
   15CHTO   H23 6342   7.437   4.220   2.177  0.5131 -0.5381  0.1404
   15CHTO   C17 6343   7.239   4.266   2.212  0.2261  0.5798  0.3869
   15CHTO   O12 6344   7.127   4.226   2.288  0.2765 -0.0720  1.0115
   15CHTO    H6 6345   7.076   4.302   2.308  2.5193  1.6707  0.3611
   16CHTO  H203 6346   5.244   3.655   0.717  0.9313 -1.1711 -0.0205
   16CHTO   O82 6347   5.309   3.713   0.682  0.1682 -0.1745  0.1975
   16CHTO  C123 6348   5.419   3.733   0.771  0.8413  0.4085  0.4844
   16CHTO  H227 6349   5.504   3.764   0.708 -1.2982  2.4931 -1.4706
   16CHTO   O77 6350   5.379   3.852   0.844 -0.0374 -0.0876 -0.4433
   16CHTO  C118 6351   5.483   3.903   0.926 -0.4911  0.0432  0.7435
   16CHTO  H222 6352   5.577   3.925   0.873  0.2320 -0.3872  1.8367
   16CHTO  C125 6353   5.421   4.037   0.980 -0.0113  0.5187 -0.2340
   16CHTO   O84 6354   5.451   4.143   0.887  0.0460  0.2600 -0.5798
   16CHTO  H205 6355   5.409   4.221   0.916  0.4265 -0.3859  1.7776
   16CHTO  C114 6356   5.512   3.803   1.039  0.8179 -0.7260  0.6192
   16CHTO  H218 6357   5.415   3.786   1.085 -0.5321  0.3317 -1.7379
   16CHTO  C116 6358   5.544   3.664   0.986 -0.2709 -0.1934  0.4591
   16CHTO  H220 6359   5.647   3.659   0.944  0.9160 -1.1428  3.4025
   16CHTO   O79 6360   5.552   3.582   1.105 -0.2819 -0.3352  0.0804
   16CHTO  H201 6361   5.600   3.625   1.173  1.0001  0.5335 -1.3394
   16CHTO  C120 6362   5.450   3.612   0.875  0.5895 -0.5118 -0.3441
   16CHTO  H224 6363   5.362   3.585   0.936  1.7548 -0.1507  1.5346
   16CHTO   N21 6364   5.501   3.497   0.798 -0.0360  0.3251 -0.5381
   16CHTO  H211 6365   5.606   3.513   0.784 -0.0987 -0.4626 -1.9217
   16CHTO  H212 6366   5.454   3.482   0.702  1.3711  1.9165 -1.4930
   16CHTO   O75 6367   5.598   3.866   1.135  0.0723  0.3295  0.2356
   16CHTO  C112 6368   5.766   3.884   1.063  0.3260  0.0714  0.0438
   16CHTO  H216 6369   5.769   3.924   0.961  1.5659 -0.5283 -0.1697
   16CHTO   O73 6370   5.828   3.756   1.074 -0.2812 -0.3594  0.2862
   16CHTO  C113 6371   5.961   3.735   1.020 -0.2031 -0.3652  0.2491
   16CHTO  H217 6372   5.973   3.767   0.914 -0.5021 -2.3269 -0.3990
   16CHTO  C124 6373   5.979   3.587   1.005 -0.2619 -0.1627  0.1920
   16CHTO   O83 6374   5.889   3.538   0.898 -0.2060 -0.1006 -0.2217
   16CHTO  H204 6375   5.902   3.445   0.896  1.3786  0.0587  1.7255
   16CHTO  C109 6376   6.057   3.822   1.105  0.4577 -0.6492 -0.6583
   16CHTO  H213 6377   6.068   3.777   1.204  1.3790  1.3657  0.1742
   16CHTO  C110 6378   6.006   3.970   1.116  0.0644  0.3891 -0.4309
   16CHTO  H214 6379   6.028   4.019   1.021  3.8337 -1.2562 -0.4869
   16CHTO   O78 6380   6.073   4.040   1.220 -0.0076  0.0655  0.3877
   16CHTO  H200 6381   6.043   4.015   1.305 -1.2137  0.3048  0.0437
   16CHTO  C111 6382   5.857   3.974   1.150  0.0232  0.4415  0.4334
   16CHTO  H215 6383   5.849   3.943   1.255 -2.6699  0.1959  0.1806
   16CHTO   N19 6384   5.797   4.109   1.140  0.5519 -0.5370  0.2245
   16CHTO  H207 6385   5.804   4.142   1.037  0.4517 -0.3960  0.2626
   16CHTO  H208 6386   5.696   4.133   1.170 -0.3129 -1.9127 -1.5069
   16CHTO   O74 6387   6.192   3.823   1.045  0.2724  0.0930 -0.7335
   16CHTO  C115 6388   6.295   3.721   1.116 -0.3534 -0.0682  0.4598
   16CHTO  H219 6389   6.246   3.658   1.191  0.2672  1.0955  1.8764
   16CHTO   O76 6390   6.368   3.605   1.004 -0.2932 -0.5946 -0.0187
   16CHTO  C122 6391   6.439   3.493   1.059  0.5424 -0.3547  0.0799
   16CHTO  H226 6392   6.476   3.427   0.981 -0.5616 -0.5311 -0.2932
   16CHTO  C126 6393   6.328   3.412   1.124  0.6051  0.1626 -0.7465
   16CHTO   O85 6394   6.241   3.363   1.030 -0.4471 -0.0547  0.3608
   16CHTO  H206 6395   6.188   3.431   0.992  0.6212 -0.1670 -1.4219
   16CHTO  C121 6396   6.549   3.552   1.151  0.3769  0.4894  0.3809
   16CHTO  H225 6397   6.597   3.469   1.206  0.7902  0.3009 -0.2593
   16CHTO   O81 6398   6.653   3.589   1.059 -0.1778  0.1848  0.2429
   16CHTO  H202 6399   6.633   3.674   1.024 -1.6013  0.0237  0.6194
   16CHTO  C119 6400   6.508   3.663   1.258  0.1799 -0.2828  0.3183
   16CHTO  H223 6401   6.436   3.622   1.329  1.0883 -1.1421  0.7416
   16CHTO  C117 6402   6.427   3.789   1.186  0.9578  0.7824  0.4542
   16CHTO  H221 6403   6.479   3.844   1.108  0.6503 -2.1203 -1.8969
   16CHTO   N20 6404   6.383   3.895   1.292  0.6651 -0.3308 -0.3046
   16CHTO  H209 6405   6.447   3.886   1.378  2.2209 -1.8691 -1.5735
   16CHTO  H210 6406   6.286   3.864   1.326  0.6945 -0.6581 -0.5154
   16CHTO   O80 6407   6.624   3.709   1.360  0.6874 -0.1298 -0.4212
   16CHTO  C103 6408   6.712   3.605   1.436  0.2329  0.2006  0.4714
   16CHTO  H190 6409   6.682   3.503   1.412  0.0452  0.8349 -2.1124
   16CHTO  C101 6410   6.870   3.634   1.417  0.6360  0.1797  0.5759
   16CHTO  H188 6411   6.888   3.740   1.432  0.6192  0.2690 -0.0110
   16CHTO   O68 6412   6.911   3.596   1.272  0.0498 -0.3418 -0.4731
   16CHTO  H168 6413   6.884   3.508   1.253 -2.4407  0.0960  0.8000
   16CHTO   C99 6414   6.958   3.548   1.524 -0.3808 -0.0587 -0.4998
   16CHTO  H186 6415   6.958   3.440   1.499 -0.7112 -0.0488 -0.5464
   16CHTO   N17 6416   7.099   3.600   1.530  0.2802 -0.4218 -0.7264
   16CHTO  H174 6417   7.159   3.514   1.502  0.4444 -0.1173 -1.3138
   16CHTO  H175 6418   7.104   3.690   1.471 -0.2510  0.4441  0.5398
   16CHTO   C97 6419   6.901   3.566   1.672 -0.2575  1.2659  0.3187
   16CHTO  H184 6420   6.913   3.667   1.713  0.5853  1.2095  0.2197
   16CHTO   O64 6421   6.758   3.529   1.666  0.3090  0.2011 -0.1026
   16CHTO  C104 6422   6.681   3.628   1.595  0.2753 -0.7861 -0.1563
   16CHTO  H191 6423   6.709   3.730   1.620 -0.1623 -1.0645  1.4791
   16CHTO  C108 6424   6.531   3.614   1.627  0.2432 -0.1098 -0.0209
   16CHTO   O71 6425   6.506   3.590   1.765  0.1554  0.3085 -0.1514
   16CHTO  H171 6426   6.508   3.675   1.805  0.5085  0.0366  0.4080
   16CHTO   O62 6427   6.949   3.463   1.761 -0.2908 -0.2015  0.1155
   16CHTO   C91 6428   6.990   3.504   1.892  0.1294  0.4055 -0.2890
   16CHTO  H178 6429   7.062   3.585   1.880  0.7782  0.0636  1.1883
   16CHTO   C92 6430   7.066   3.396   1.982  0.5398 -0.1636  0.3402
   16CHTO  H179 6431   7.148   3.355   1.921 -0.1144 -1.2324  0.1611
   16CHTO   O66 6432   7.125   3.458   2.098 -0.1676 -0.0643 -0.3568
   16CHTO  H166 6433   7.155   3.389   2.154 -0.8614 -0.0119  0.0862
   16CHTO   C93 6434   6.977   3.278   2.034  0.4053 -0.4999  0.9212
   16CHTO  H180 6435   7.018   3.233   2.125  1.0399  0.4295  1.1076
   16CHTO   N16 6436   6.965   3.172   1.933  0.0065 -0.7341  0.0587
   16CHTO  H172 6437   6.920   3.081   1.971  3.0450 -2.3165  0.0492
   16CHTO  H173 6438   7.054   3.139   1.881  0.7122 -0.4394  1.0750
   16CHTO   C94 6439   6.823   3.343   2.063 -0.0176  0.4597  0.3461
   16CHTO  H181 6440   6.757   3.335   1.977 -0.0845 -2.2741  0.6095
   16CHTO   O61 6441   6.836   3.482   2.085  0.3793  0.1240 -0.2228
   16CHTO   C95 6442   6.870   3.557   1.965 -0.2394 -0.1710  0.0225
   16CHTO  H182 6443   6.786   3.563   1.896  0.6043  1.5430 -0.8967
   16CHTO  C106 6444   6.893   3.710   2.022 -0.3628 -0.1712 -0.0452
   16CHTO   O69 6445   7.002   3.753   2.108  0.3743  0.1316 -0.0162
   16CHTO  H169 6446   7.074   3.695   2.092 -0.7366  0.0057 -5.2931
   16CHTO   O63 6447   6.758   3.276   2.189 -0.4034  0.2948 -0.3178
   16CHTO   C96 6448   6.697   3.123   2.160 -0.7652  0.3844 -0.4379
   16CHTO  H183 6449   6.778   3.065   2.118  0.3229  0.5572  1.3721
   16CHTO   C98 6450   6.590   3.117   2.047  0.1128  0.2188  0.0537
   16CHTO  H185 6451   6.627   3.147   1.948 -0.8632  0.5324 -0.2151
   16CHTO   O67 6452   6.548   2.978   2.026  0.5348  0.0171  0.5687
   16CHTO  H167 6453   6.469   2.977   1.975  0.2160 -1.4228  1.0520
   16CHTO  C102 6454   6.462   3.200   2.090 -1.2386  0.2564 -0.1670
   16CHTO  H189 6455   6.380   3.145   2.042  0.2260 -1.0281 -1.2882
   16CHTO   N18 6456   6.462   3.334   2.029  0.6217  0.0659 -0.2768
   16CHTO  H176 6457   6.368   3.384   2.048  0.5263  0.1867 -1.0480
   16CHTO  H177 6458   6.491   3.351   1.926 -0.2145 -0.0243 -0.5344
   16CHTO  C105 6459   6.433   3.193   2.242 -0.0484 -0.7280  0.3248
   16CHTO  H192 6460   6.477   3.280   2.291 -0.6804 -1.0733  1.5250
   16CHTO   O65 6461   6.491   3.082   2.304 -0.2483  0.6422  0.4414
   16CHTO  C100 6462   6.640   3.069   2.293  0.2402  0.0098  0.3719
   16CHTO  H187 6463   6.685   3.131   2.372  0.1226  1.6795 -0.8419
   16CHTO  C107 6464   6.671   2.920   2.302 -0.8379 -0.3233  0.0074
   16CHTO   O70 6465   6.609   2.850   2.415 -0.1347 -0.0067 -0.1024
   16CHTO  H170 6466   6.624   2.899   2.493  1.8311  0.0555 -0.5005
   16CHTO   O57 6467   6.266   3.194   2.239  0.0045 -0.0327  0.6057
   16CHTO   C85 6468   6.198   3.317   2.274  0.3273  0.1389  0.0350
   16CHTO  H157 6469   6.233   3.404   2.216 -0.3958  0.8009  0.5706
   16CHTO   C83 6470   6.230   3.350   2.422 -0.3762  0.1181  0.2395
   16CHTO  H155 6471   6.337   3.368   2.434 -0.2120 -0.5760 -0.1196
   16CHTO   O56 6472   6.214   3.234   2.504 -0.5234  0.4125 -0.0926
   16CHTO  H135 6473   6.281   3.227   2.570 -0.2589  0.9411 -0.3053
   16CHTO   C81 6474   6.141   3.472   2.464 -0.4478  0.2823 -0.3171
   16CHTO  H153 6475   6.172   3.553   2.397 -0.3063 -0.0927 -0.7113
   16CHTO   N14 6476   6.171   3.527   2.596  0.1863 -0.2380 -0.6023
   16CHTO  H141 6477   6.222   3.619   2.578 -2.0645  1.6666  2.3414
   16CHTO  H142 6478   6.090   3.536   2.665  2.2771  0.9542  1.7667
   16CHTO   C79 6479   5.991   3.446   2.443  0.3011 -0.2112 -0.4125
   16CHTO  H151 6480   5.941   3.541   2.462  0.2125 -0.5405  1.0541
   16CHTO   O52 6481   5.963   3.415   2.304  0.7132 -0.2139  0.0053
   16CHTO   C86 6482   6.042   3.295   2.255 -0.7708  0.0374  0.1278
   16CHTO  H158 6483   5.993   3.212   2.311 -3.0631  1.0859 -0.2373
   16CHTO   C90 6484   6.002   3.270   2.105 -0.1822 -0.5206 -0.2919
   16CHTO   O60 6485   5.859   3.261   2.091 -0.5825  0.1204  0.6347
   16CHTO  H138 6486   5.841   3.174   2.062  0.2360  0.5638 -1.2620
   16CHTO   O50 6487   5.925   3.353   2.533  0.0810 -0.2029 -0.6477
   16CHTO   C73 6488   5.800   3.302   2.593  0.5196  0.2528  0.4284
   16CHTO  H145 6489   5.820   3.215   2.656 -0.6192 -1.7222 -1.8801
   16CHTO   C74 6490   5.697   3.248   2.480  0.0097  0.5444  0.4855
   16CHTO  H146 6491   5.754   3.173   2.423  0.3932 -1.3479  3.2507
   16CHTO   O54 6492   5.597   3.167   2.540 -0.6304  0.2961  0.3448
   16CHTO  H133 6493   5.631   3.113   2.609  2.6355 -0.3153 -1.6441
   16CHTO   C75 6494   5.645   3.368   2.388  0.3018  0.0286 -0.6444
   16CHTO  H147 6495   5.732   3.408   2.335  1.2530  0.8276  1.4475
   16CHTO   N13 6496   5.552   3.326   2.278 -0.3684  0.1020  0.6785
   16CHTO  H139 6497   5.550   3.412   2.213 -2.5116  0.4639  1.1797
   16CHTO  H140 6498   5.458   3.321   2.331 -0.1233 -1.5773  0.9873
   16CHTO   C76 6499   5.588   3.479   2.490 -0.7028  0.5205 -0.2743
   16CHTO  H148 6500   5.497   3.443   2.539  1.1345 -2.0489  1.3163
   16CHTO   O49 6501   5.680   3.518   2.597  0.5906  1.0039  0.6869
   16CHTO   C77 6502   5.722   3.410   2.676 -0.6183 -0.4480 -0.1793
   16CHTO  H149 6503   5.632   3.367   2.720 -1.2781  1.6626  0.5703
   16CHTO   C88 6504   5.810   3.463   2.790  0.3564 -0.5053  0.1966
   16CHTO   O58 6505   5.726   3.551   2.896 -0.4122  0.3443  0.0497
   16CHTO  H136 6506   5.678   3.622   2.856  2.1261  0.9433 -2.0609
   16CHTO   O51 6507   5.561   3.603   2.418 -0.3044  0.5869 -0.0180
   16CHTO   C78 6508   5.477   3.708   2.520 -0.2267 -0.3836 -0.0225
   16CHTO  H150 6509   5.485   3.670   2.624  1.7751 -2.5156 -0.9065
   16CHTO   C80 6510   5.328   3.711   2.487  0.2774  0.2816 -1.0338
   16CHTO  H152 6511   5.327   3.734   2.379 -0.3169  3.3390 -0.4297
   16CHTO   O55 6512   5.279   3.575   2.501 -0.3271  0.2106 -0.2859
   16CHTO  H134 6513   5.268   3.555   2.592  0.0520  1.3363  0.0210
   16CHTO   C84 6514   5.246   3.819   2.563 -0.0577 -0.4367  0.3405
   16CHTO  H156 6515   5.221   3.777   2.661 -1.1875 -0.8154 -0.0975
   16CHTO   N15 6516   5.112   3.828   2.505  0.3072  0.7443  0.0268
   16CHTO  H143 6517   5.117   3.770   2.416  0.4507  2.1420 -0.8995
   16CHTO  H144 6518   5.039   3.789   2.573 -1.4135  1.3552 -1.4360
   16CHTO   C87 6519   5.316   3.956   2.549 -0.0392  0.6047  0.2639
   16CHTO  H159 6520   5.317   3.982   2.443 -0.4597 -0.9239 -0.1289
   16CHTO   O53 6521   5.474   3.936   2.604 -0.3071 -0.3424  0.1345
   16CHTO   C82 6522   5.546   3.842   2.522 -0.2563 -0.3573  0.5919
   16CHTO  H154 6523   5.548   3.882   2.421  2.3686 -0.6811  0.4717
   16CHTO   C89 6524   5.692   3.838   2.569 -0.1561 -0.1790 -0.3018
   16CHTO   O59 6525   5.718   3.833   2.710  0.3927  0.0330 -0.1644
   16CHTO  H137 6526   5.666   3.764   2.746 -1.5530  1.0883 -0.8881
   16CHTO   O45 6527   5.249   4.056   2.641  0.1304 -0.1763  0.6060
   16CHTO   C67 6528   5.319   4.180   2.658 -0.7299 -0.4200 -0.2810
   16CHTO  H124 6529   5.419   4.169   2.616 -1.3795 -1.0051 -1.6959
   16CHTO   C65 6530   5.250   4.296   2.580 -0.1329  0.8291 -0.0620
   16CHTO  H122 6531   5.141   4.292   2.587 -0.0845  1.3465  0.9526
   16CHTO   O44 6532   5.300   4.275   2.446  0.7404 -0.3349  0.0135
   16CHTO  H102 6533   5.393   4.277   2.443  0.7232  0.6519 -0.1891
   16CHTO   C63 6534   5.283   4.435   2.646  0.3129 -0.0523 -0.3949
   16CHTO  H120 6535   5.213   4.455   2.727 -0.6857  0.4322 -1.3673
   16CHTO   N11 6536   5.249   4.554   2.559  0.5795  0.5802 -0.2665
   16CHTO  H108 6537   5.208   4.632   2.619 -0.1365  1.5222 -1.9663
   16CHTO  H109 6538   5.327   4.610   2.511 -1.7362  1.1193 -3.5005
   16CHTO   C61 6539   5.425   4.438   2.723 -0.3765 -0.3027 -0.0464
   16CHTO  H118 6540   5.438   4.535   2.772  2.3516 -0.8343  0.3712
   16CHTO   O40 6541   5.426   4.338   2.820 -0.1806  0.4950  0.3031
   16CHTO   C68 6542   5.334   4.222   2.809 -0.3825  0.0156 -0.5049
   16CHTO  H125 6543   5.239   4.250   2.859 -0.5915 -1.2954 -0.1556
   16CHTO   C72 6544   5.385   4.105   2.893 -0.9923 -0.0729 -0.0663
   16CHTO   O48 6545   5.312   3.986   2.881 -0.4814  0.4534  0.2613
   16CHTO  H105 6546   5.292   3.958   2.968 -3.3062  3.0993  0.5531
   16CHTO   O38 6547   5.531   4.414   2.622  0.2376  0.5946 -0.2102
   16CHTO   C55 6548   5.671   4.435   2.645 -0.0618 -0.1522  0.2175
   16CHTO  H112 6549   5.687   4.437   2.754  0.5402  0.1529  0.1289
   16CHTO   C56 6550   5.729   4.564   2.571 -0.0380 -0.6494 -0.1172
   16CHTO  H113 6551   5.704   4.553   2.465  0.9522  0.1051 -0.4354
   16CHTO   O42 6552   5.666   4.685   2.619 -0.0206  0.5823  0.2456
   16CHTO  H100 6553   5.608   4.714   2.550  0.3685 -1.3004 -0.9406
   16CHTO   C57 6554   5.885   4.565   2.586 -0.3740  0.4659 -0.9490
   16CHTO  H114 6555   5.912   4.577   2.691  2.6315  0.9079 -1.7061
   16CHTO   N10 6556   5.959   4.672   2.511 -0.0054 -0.2366  0.3331
   16CHTO  H106 6557   6.054   4.694   2.557 -0.4016  1.4735  0.3687
   16CHTO  H107 6558   5.979   4.640   2.410  1.0243 -0.8502  0.7234
   16CHTO   C58 6559   5.944   4.430   2.539 -0.2288 -0.3044 -0.6495
   16CHTO  H115 6560   5.917   4.415   2.433 -1.0549  0.7021 -0.5932
   16CHTO   O37 6561   5.886   4.329   2.619  0.5781 -0.4009 -0.4762
   16CHTO   C59 6562   5.749   4.308   2.596 -0.1601 -0.6161 -0.0009
   16CHTO  H116 6563   5.736   4.285   2.490  0.2908  1.0165 -0.4235
   16CHTO   C70 6564   5.702   4.190   2.680  0.3238 -0.0220  0.3610
   16CHTO   O46 6565   5.738   4.207   2.820 -0.4502 -0.1028 -0.0408
   16CHTO  H103 6566   5.821   4.248   2.830 -0.6788  0.0979  1.1451
   16CHTO   O39 6567   6.118   4.411   2.541 -0.1715  0.1543 -0.0594
   16CHTO   C60 6568   6.173   4.341   2.431 -0.0231  0.3030 -0.3603
   16CHTO  H117 6569   6.090   4.300   2.374  0.0678  0.1643 -0.3939
   16CHTO   C62 6570   6.260   4.445   2.344  0.4920  0.1632 -0.2943
   16CHTO  H119 6571   6.188   4.517   2.301 -0.6804 -1.4982 -1.1480
   16CHTO   O43 6572   6.354   4.514   2.430 -0.0754  0.0088 -0.4614
   16CHTO  H101 6573   6.402   4.584   2.389  0.9047 -0.6162 -0.3907
   16CHTO   C66 6574   6.337   4.364   2.224 -0.2891  0.2609 -0.0951
   16CHTO  H123 6575   6.261   4.324   2.157 -1.3068  1.1910  0.4851
   16CHTO   N12 6576   6.418   4.459   2.135  0.4884 -0.0958  0.0814
   16CHTO  H110 6577   6.509   4.411   2.101  0.2611 -0.3641 -0.1480
   16CHTO  H111 6578   6.453   4.532   2.206  2.2329  0.5362 -1.3654
   16CHTO   C69 6579   6.421   4.255   2.295 -0.3063  0.2276 -0.4925
   16CHTO  H126 6580   6.496   4.302   2.362 -0.4016 -3.1515  2.1352
   16CHTO   O41 6581   6.329   4.165   2.381  0.0155 -0.0144  0.5585
   16CHTO   C64 6582   6.258   4.223   2.486  0.3151 -0.2436 -0.1400
   16CHTO  H121 6583   6.322   4.256   2.570  0.5397  0.4288 -0.5686
   16CHTO   C71 6584   6.162   4.122   2.556  0.2386 -0.1140 -0.0961
   16CHTO   O47 6585   6.206   3.992   2.605  0.3628 -0.0532  0.3308
   16CHTO  H104 6586   6.161   3.977   2.685 -1.1254  0.7741 -0.3298
   16CHTO   O34 6587   6.499   4.147   2.190 -0.5277 -0.3201  0.2913
   16CHTO   C49 6588   6.618   4.051   2.237 -0.1700 -0.5308  0.2239
   16CHTO   H91 6589   6.708   4.095   2.196  0.4065 -0.8194  1.1869
   16CHTO   C47 6590   6.597   3.903   2.182  0.2712  0.0045 -0.2965
   16CHTO   H89 6591   6.690   3.846   2.204 -0.1649 -0.3019  0.7552
   16CHTO   O33 6592   6.572   3.906   2.038 -0.1204 -0.2013 -0.6742
   16CHTO   H70 6593   6.652   3.896   1.990  0.8907  0.6739  0.7897
   16CHTO   C45 6594   6.475   3.838   2.255 -0.5460  0.2635 -0.0251
   16CHTO   H87 6595   6.397   3.916   2.254 -0.5301  0.2692 -1.2556
   16CHTO    N8 6596   6.410   3.713   2.199 -0.0850 -1.0887 -0.0006
   16CHTO   H75 6597   6.317   3.682   2.244 -1.9367  3.1329 -0.7389
   16CHTO   H76 6598   6.481   3.631   2.199  0.7214 -0.3990 -0.5120
   16CHTO   C43 6599   6.513   3.819   2.412  0.6214 -0.8206 -0.4139
   16CHTO   H85 6600   6.423   3.778   2.458 -0.8369  0.3634 -2.1505
   16CHTO   O29 6601   6.540   3.952   2.465  0.4621  0.6055 -0.5708
   16CHTO   C50 6602   6.637   4.033   2.394  0.0184 -0.9502  0.5414
   16CHTO   H92 6603   6.634   4.133   2.440 -0.1612 -0.3218 -0.8155
   16CHTO   C54 6604   6.782   3.989   2.421 -0.8188  0.0289 -0.5123
   16CHTO   O36 6605   6.811   3.963   2.564 -0.6114 -0.4296 -0.0201
   16CHTO   H72 6606   6.897   3.928   2.579 -0.6797 -1.1728 -1.3399
   16CHTO   O27 6607   6.616   3.716   2.438  0.0264  0.2835  0.5094
   16CHTO   C37 6608   6.670   3.634   2.540 -0.1807 -0.2360 -0.0795
   16CHTO   H79 6609   6.723   3.702   2.609 -0.2096  0.7080 -0.9644
   16CHTO   C38 6610   6.558   3.566   2.619  0.7640 -0.6422  0.8564
   16CHTO   H80 6611   6.489   3.521   2.546 -1.0157  0.0183  2.1054
   16CHTO   O31 6612   6.485   3.669   2.692 -0.6683 -0.3274  0.6345
   16CHTO   H68 6613   6.435   3.720   2.631 -1.0094 -1.5584 -0.1163
   16CHTO   C39 6614   6.621   3.456   2.718  0.3342  0.1622  0.2454
   16CHTO   H81 6615   6.674   3.509   2.797  1.4438 -1.8148  0.8772
   16CHTO    N7 6616   6.521   3.361   2.782  0.0715 -0.6896  0.0250
   16CHTO   H73 6617   6.556   3.277   2.840  0.7056 -1.0738 -0.9038
   16CHTO   H74 6618   6.444   3.339   2.710  1.2607 -0.8868 -1.2072
   16CHTO   C40 6619   6.735   3.372   2.649 -0.5459  0.2100 -0.3001
   16CHTO   H82 6620   6.691   3.292   2.589 -0.6667 -1.5766  2.1143
   16CHTO   O26 6621   6.823   3.450   2.574  0.6062  0.4234  0.6108
   16CHTO   C41 6622   6.771   3.536   2.471  0.1782  0.0892  0.6119
   16CHTO   H83 6623   6.716   3.472   2.400 -1.0732  0.5728  1.1318
   16CHTO   C52 6624   6.887   3.602   2.398 -0.7999  0.4790  0.0627
   16CHTO   O35 6625   6.978   3.489   2.346  0.3037 -0.2220  0.0183
   16CHTO   H71 6626   7.063   3.519   2.321  0.7758 -1.7402 -0.2276
   16CHTO   O28 6627   6.832   3.325   2.742  0.1104  0.6647  0.7075
   16CHTO   C42 6628   6.872   3.183   2.764 -0.2541  0.5533 -0.2139
   16CHTO   H84 6629   6.976   3.200   2.791  0.2713 -0.8840 -1.2809
   16CHTO   C44 6630   6.874   3.086   2.638 -0.1622  0.1158  0.0328
   16CHTO   H86 6631   6.771   3.076   2.602 -0.8578 -2.3512  2.6211
   16CHTO   O32 6632   6.959   3.151   2.541 -0.1827  0.2122  0.0834
   16CHTO   H69 6633   7.045   3.116   2.555 -1.6420 -2.9728  1.6088
   16CHTO   C48 6634   6.922   2.944   2.680  0.5702 -0.5889 -0.0213
   16CHTO   H90 6635   7.018   2.966   2.725 -0.2257 -0.8476  1.8311
   16CHTO    N9 6636   6.941   2.858   2.563 -0.1973  0.0350  0.2001
   16CHTO   H77 6637   6.862   2.866   2.489 -1.8812  0.7311  2.0163
   16CHTO   H78 6638   6.967   2.756   2.586 -1.7815 -1.5936 -4.5044
   16CHTO   C51 6639   6.826   2.891   2.797 -0.1334  0.5448  0.5449
   16CHTO   H93 6640   6.724   2.901   2.761  0.5708  0.7667 -1.4353
   16CHTO   O30 6641   6.857   2.977   2.908  0.4735 -0.0077  0.2549
   16CHTO   C46 6642   6.802   3.112   2.887  0.8482 -0.0628  0.2121
   16CHTO   H88 6643   6.696   3.101   2.864  0.0759 -0.5788  3.7358
   16CHTO   C53 6644   6.836   3.191   3.016 -0.1131  0.9055  0.5974
   16CHTO   O72 6645   6.799   3.331   3.010 -0.3612  0.2792 -0.8621
   16CHTO  H199 6646   6.843   3.375   2.940  1.6361 -1.0681 -0.4923
   16CHTO   O22 6647   6.850   2.756   2.840  0.0513 -0.2050 -0.2824
   16CHTO   C31 6648   6.748   2.672   2.913 -0.0756 -0.7254  0.0162
   16CHTO   H59 6649   6.794   2.576   2.945 -3.6906 -1.8434  2.2149
   16CHTO   C29 6650   6.698   2.740   3.042  0.0315 -0.0355 -0.2474
   16CHTO   H57 6651   6.647   2.832   3.009  1.1154  0.9844  0.8741
   16CHTO   O21 6652   6.806   2.773   3.128  0.0746 -0.2275 -0.1111
   16CHTO   H37 6653   6.863   2.699   3.139 -0.4484 -0.5210  0.6706
   16CHTO   C27 6654   6.590   2.650   3.120  0.0133  0.4251  0.1285
   16CHTO   H55 6655   6.645   2.563   3.161 -0.7243 -1.4640 -2.7757
   16CHTO    N5 6656   6.520   2.722   3.231 -0.1669  0.1004 -0.1571
   16CHTO   H43 6657   6.490   2.821   3.199  2.6298  1.0934  0.1748
   16CHTO   H44 6658   6.588   2.725   3.315 -1.2741  1.1342  0.7234
   16CHTO   C25 6659   6.481   2.598   3.018  0.1068  0.4605 -0.2680
   16CHTO   H53 6660   6.425   2.681   2.972 -1.0992  0.4661  1.1855
   16CHTO   O17 6661   6.547   2.544   2.901 -0.1629  0.2998  0.0992
   16CHTO   C32 6662   6.626   2.639   2.826 -0.6368 -0.1098 -0.2063
   16CHTO   H60 6663   6.568   2.730   2.812  0.2090  0.3370 -0.8224
   16CHTO   C36 6664   6.669   2.575   2.690 -0.5504  0.0485  0.3646
   16CHTO   O25 6665   6.748   2.456   2.702 -0.3006 -0.2331  0.2398
   16CHTO   H40 6666   6.696   2.387   2.738 -0.5276 -0.6715 -0.9383
   16CHTO   O15 6667   6.393   2.506   3.083 -0.2951  0.5312  0.8080
   16CHTO   C19 6668   6.251   2.494   3.093  0.1949  0.1414 -0.5764
   16CHTO   H47 6669   6.227   2.600   3.108  1.5803  0.2800  0.7342
   16CHTO   C20 6670   6.170   2.453   2.962 -0.5408 -0.2808  0.1087
   16CHTO   H48 6671   6.212   2.361   2.919  0.4316  0.2894 -0.1693
   16CHTO   O19 6672   6.188   2.558   2.869 -0.2342  0.4542  0.4050
   16CHTO   H35 6673   6.276   2.570   2.841  0.3967  0.7066  2.4175
   16CHTO   C21 6674   6.017   2.427   3.000 -1.3691  0.2008  0.3141
   16CHTO   H49 6675   5.977   2.523   3.031 -0.7787  1.1187 -1.6534
   16CHTO    N4 6676   5.932   2.380   2.890  0.1096 -0.5559 -0.1882
   16CHTO   H41 6677   5.958   2.409   2.788  1.2438 -1.5021 -0.1817
   16CHTO   H42 6678   5.941   2.273   2.893  0.3288 -0.5190  0.4162
   16CHTO   C22 6679   5.999   2.346   3.129 -0.2434  0.2218 -0.4175
   16CHTO   H50 6680   6.045   2.249   3.110  1.0993  0.3367  1.9846
   16CHTO   O14 6681   6.064   2.407   3.230  0.3335 -0.3184  0.5194
   16CHTO   C23 6682   6.207   2.422   3.220  0.5490 -0.1466  0.4414
   16CHTO   H51 6683   6.254   2.324   3.232  1.2980 -0.3600 -3.6124
   16CHTO   C34 6684   6.242   2.502   3.344  0.3998 -0.2362 -0.4510
   16CHTO   O23 6685   6.212   2.413   3.450  0.3042 -0.0173 -0.2568
   16CHTO   H38 6686   6.134   2.436   3.495  0.9144  0.5380  0.5374
   16CHTO   O16 6687   5.861   2.343   3.177 -0.7041 -0.3188 -0.5483
   16CHTO   C24 6688   5.843   2.247   3.295 -0.1330 -0.4257  0.2498
   16CHTO   H52 6689   5.938   2.209   3.332 -0.7918 -1.8822  0.4811
   16CHTO   C26 6690   5.742   2.139   3.238  0.4144  0.6022  0.1459
   16CHTO   H54 6691   5.653   2.193   3.200  0.0586  0.7612  1.1800
   16CHTO   O20 6692   5.810   2.064   3.132 -0.0341  0.2375 -0.1932
   16CHTO   H36 6693   5.838   2.119   3.062  0.6493 -0.5489 -0.5474
   16CHTO   C30 6694   5.691   2.048   3.351  0.4796 -0.2262  0.0265
   16CHTO   H58 6695   5.774   1.980   3.376  1.3845  1.0703  0.6075
   16CHTO    N6 6696   5.588   1.957   3.302 -0.1040 -0.4051  0.2473
   16CHTO   H45 6697   5.490   2.001   3.319  0.6816  1.4940 -0.0651
   16CHTO   H46 6698   5.601   1.943   3.196 -1.0326  1.6511 -0.1727
   16CHTO   C33 6699   5.653   2.127   3.481  0.1581  0.2314  0.7209
   16CHTO   H61 6700   5.564   2.186   3.453  1.9362  2.0285 -1.2991
   16CHTO   O18 6701   5.755   2.217   3.520 -0.3885  0.3306 -0.0599
   16CHTO   C28 6702   5.779   2.319   3.421 -0.3366  0.1248  0.7539
   16CHTO   H56 6703   5.686   2.366   3.389 -0.6976 -1.2994 -0.3168
   16CHTO   C35 6704   5.870   2.429   3.478 -0.1219 -0.3168  0.1963
   16CHTO   O24 6705   5.842   2.465   3.615  0.2513 -0.2760  0.0458
   16CHTO   H39 6706   5.753   2.493   3.625 -0.2092 -1.5758 -0.3852
   16CHTO    O9 6707   5.617   2.035   3.588 -0.2213  0.2818  0.2077
   16CHTO   C13 6708   5.574   2.106   3.736  0.6363  0.6025 -0.8399
   16CHTO   H26 6709   5.494   2.180   3.716 -0.6806 -0.1235  1.6258
   16CHTO   C11 6710   5.692   2.169   3.813  0.1860  0.0562  0.5567
   16CHTO   H24 6711   5.729   2.260   3.763 -1.9313  1.3962  1.3518
   16CHTO    O8 6712   5.805   2.078   3.819  0.4317  0.4766  0.0663
   16CHTO    H3 6713   5.880   2.124   3.788 -0.3585  1.1547 -0.9139
   16CHTO    C9 6714   5.636   2.223   3.951 -0.7973  0.6404  0.4967
   16CHTO   H22 6715   5.541   2.274   3.931 -0.2989  1.0827 -0.8499
   16CHTO    N2 6716   5.727   2.314   4.021  0.2919  0.2496  0.3684
   16CHTO   H10 6717   5.793   2.364   3.951  0.6106 -0.7491 -0.0560
   16CHTO   H11 6718   5.671   2.379   4.087  0.3613  1.7162 -0.9828
   16CHTO    C7 6719   5.595   2.099   4.039 -0.2702 -0.0790  0.4322
   16CHTO   H20 6720   5.512   2.133   4.105 -1.0643 -0.7562 -0.1981
   16CHTO    O4 6721   5.529   1.997   3.963  0.2882  0.0157  0.4074
   16CHTO   C14 6722   5.490   2.004   3.826  0.0404 -0.3329 -0.5400
   16CHTO   H27 6723   5.384   2.035   3.817  0.8505  2.5368 -0.5081
   16CHTO   C18 6724   5.494   1.854   3.779 -0.2927  0.1624 -0.4916
   16CHTO   O13 6725   5.427   1.842   3.648  0.1451 -0.0458 -0.0674
   16CHTO    H7 6726   5.483   1.872   3.579  0.4451 -2.4654 -0.9305
   16CHTO    O2 6727   5.707   2.030   4.114  0.3268  0.1214  0.3157
   16CHTO    C1 6728   5.685   1.927   4.219 -0.2740 -0.8753  0.1145
   16CHTO   H14 6729   5.578   1.902   4.208 -0.0870 -1.6054 -0.0650
   16CHTO    C2 6730   5.694   1.972   4.374  0.1636 -0.3518  0.6231
   16CHTO   H15 6731   5.797   1.997   4.402 -0.6839  0.3810  3.1727
   16CHTO    O6 6732   5.605   2.091   4.387 -0.0598 -0.1076 -0.3551
   16CHTO    H1 6733   5.627   2.167   4.338 -0.1325  0.2892  0.2135
   16CHTO    C3 6734   5.641   1.857   4.467 -0.5045  0.0979 -0.4249
   16CHTO   H16 6735   5.535   1.842   4.441 -1.0175 -0.0450  1.6514
   16CHTO    N1 6736   5.649   1.894   4.615  0.5109 -0.4617 -0.4185
   16CHTO    H8 6737   5.748   1.906   4.657  0.8911 -2.6869 -0.5777
   16CHTO    H9 6738   5.593   1.985   4.620  1.4325  0.1450 -0.9530
   16CHTO    C4 6739   5.717   1.725   4.437  0.5262  0.0970 -0.2709
   16CHTO   H17 6740   5.817   1.731   4.480  0.2242  1.6187  0.2716
   16CHTO    O1 6741   5.731   1.701   4.297  0.8308  0.2456  0.1165
   16CHTO    C5 6742   5.780   1.808   4.209  0.3874  0.9156  0.1509
   16CHTO   H18 6743   5.882   1.831   4.240  0.9401 -2.0656  0.6512
   16CHTO   C16 6744   5.781   1.749   4.068 -0.1767  0.2219  0.0422
   16CHTO   O11 6745   5.855   1.630   4.047 -0.2067 -0.9912 -0.8579
   16CHTO    H5 6746   5.947   1.648   4.041 -0.0526  0.9041  4.1359
   16CHTO    O3 6747   5.646   1.617   4.495  0.1466 -0.3354 -0.3441
   16CHTO    C6 6748   5.731   1.503   4.541  0.1859 -0.3118  0.1331
   16CHTO   H19 6749   5.826   1.496   4.489 -0.9865 -1.0290 -1.9804
   16CHTO    C8 6750   5.756   1.497   4.699 -0.1983  0.0861  0.3696
   16CHTO   H21 6751   5.658   1.488   4.745  0.2011 -1.8613  0.9089
   16CHTO    O7 6752   5.828   1.616   4.728 -0.1381  0.0987  0.6399
   16CHTO    H2 6753   5.762   1.670   4.767 -0.1402  1.4884 -1.2395
   16CHTO   C12 6754   5.842   1.370   4.744 -0.0522  0.8824  0.2814
   16CHTO   H25 6755   5.941   1.382   4.696  0.3295  0.5303  0.9805
   16CHTO    N3 6756   5.861   1.368   4.892  1.2136  0.5509 -0.2167
   16CHTO   H12 6757   5.910   1.280   4.933 -2.8203 -2.4861 -1.5678
   16CHTO   H13 6758   5.906   1.459   4.927 -0.5964  1.1175  0.7123
   16CHTO   C15 6759   5.762   1.243   4.688  0.1210 -0.0719 -0.1193
   16CHTO   H28 6760   5.668   1.226   4.740  2.1816  0.2172  3.8561
   16CHTO   O10 6761   5.841   1.112   4.702 -0.1938 -0.1101  0.4841
   16CHTO    H4 6762   5.855   1.099   4.794 -1.7581  0.9949  0.9226
   16CHTO    O5 6763   5.729   1.250   4.550 -0.3645 -0.3252 -0.2733
   16CHTO   C10 6764   5.656   1.366   4.510  0.3876  0.4051  0.0837
   16CHTO   H23 6765   5.555   1.371   4.552 -0.0882  1.0695 -1.0919
   16CHTO   C17 6766   5.621   1.367   4.361  0.3699  0.1025 -0.4857
   16CHTO   O12 6767   5.736   1.376   4.275  0.2735  0.6828 -0.0051
   16CHTO    H6 6768   5.708   1.429   4.203 -0.9215  0.2888  0.1547
   17CHTO  H203 6769   6.079   4.221   4.996 -0.4468  0.1659  0.8380
   17CHTO   O82 6770   6.131   4.293   5.028 -0.0085  0.1395  0.1959
   17CHTO  C123 6771   6.044   4.409   5.033  0.1119 -0.0934  0.7834
   17CHTO  H227 6772   5.955   4.381   5.091  0.2357 -0.7685  0.6505
   17CHTO   O77 6773   6.125   4.506   5.095 -0.1835  0.0151  0.0498
   17CHTO  C118 6774   6.059   4.633   5.113  0.1468  0.1000  0.5044
   17CHTO  H222 6775   5.972   4.638   5.180 -0.1471  3.0682 -0.0124
   17CHTO  C125 6776   6.173   4.724   5.173 -0.2881 -0.1312 -0.3155
   17CHTO   O84 6777   6.115   4.847   5.224  0.3844  0.2695 -0.7178
   17CHTO  H205 6778   6.039   4.828   5.275  0.0832  2.0859 -0.4421
   17CHTO  C114 6779   6.009   4.694   4.979 -0.3437 -0.1894 -0.1270
   17CHTO  H218 6780   6.095   4.719   4.917 -0.8112  1.8349  0.0223
   17CHTO  C116 6781   5.915   4.597   4.900 -0.5021 -0.1644  0.6066
   17CHTO  H220 6782   5.822   4.591   4.960 -1.8669 -0.6643 -1.5082
   17CHTO   O79 6783   5.876   4.638   4.765  0.2499 -0.1852  0.2727
   17CHTO  H201 6784   5.800   4.692   4.766  0.2578 -0.1611 -0.4445
   17CHTO  C120 6785   5.997   4.457   4.893  0.0266  0.2272  0.6464
   17CHTO  H224 6786   6.087   4.466   4.828 -1.0627  1.9977 -0.6609
   17CHTO   N21 6787   5.913   4.353   4.827 -0.9923 -0.7292  0.2103
   17CHTO  H211 6788   5.975   4.279   4.778  1.7652 -0.0114  2.5239
   17CHTO  H212 6789   5.859   4.304   4.907  0.6569 -0.1093  1.7126
   17CHTO   O75 6790   5.938   4.811   5.017 -0.6077  0.1570 -0.0425
   17CHTO  C112 6791   5.904   4.923   4.895  0.3888 -0.1222 -0.5487
   17CHTO  H216 6792   5.820   4.882   4.838 -0.1255 -0.7974  0.6681
   17CHTO   O73 6793   6.027   4.930   4.817 -0.3359 -0.0664  0.2468
   17CHTO  C113 6794   6.020   5.041   4.720  0.2401  0.1580 -0.2964
   17CHTO  H217 6795   5.936   5.013   4.653 -0.6005  0.2371  0.7067
   17CHTO  C124 6796   6.163   5.022   4.653 -0.3650 -0.0374 -0.4189
   17CHTO   O83 6797   6.178   5.120   4.554 -0.4336 -0.4856 -0.0802
   17CHTO  H204 6798   6.152   5.206   4.581 -0.8853 -0.7803  0.4265
   17CHTO  C109 6799   6.009   5.181   4.791 -0.0592  0.0967 -0.0892
   17CHTO  H213 6800   6.092   5.183   4.864  0.5902 -1.2178 -0.7724
   17CHTO  C110 6801   5.872   5.182   4.867  0.1976  0.1025  0.5615
   17CHTO  H214 6802   5.787   5.179   4.798  0.5323 -2.0615  0.2005
   17CHTO   O78 6803   5.872   5.303   4.940 -0.2161  0.0575  0.3961
   17CHTO  H200 6804   5.814   5.364   4.896 -2.3126 -1.8415  0.4478
   17CHTO  C111 6805   5.861   5.061   4.968  0.0674  0.0801 -0.1202
   17CHTO  H215 6806   5.931   5.072   5.052 -1.9122  1.4654  1.4172
   17CHTO   N19 6807   5.727   5.041   5.023 -0.3151  0.1654  0.5017
   17CHTO  H207 6808   5.715   5.083   5.121 -0.0223  1.2646  0.0777
   17CHTO  H208 6809   5.655   5.082   4.954 -0.0836  0.8260  0.6575
   17CHTO   O74 6810   6.023   5.291   4.700 -0.0974 -0.4795  0.3516
   17CHTO  C115 6811   6.132   5.412   4.745 -0.1569 -0.1094  0.0633
   17CHTO  H219 6812   6.191   5.390   4.835 -0.7650  0.7648  0.6816
   17CHTO   O76 6813   6.228   5.447   4.630  0.2260  0.2995  0.5622
   17CHTO  C122 6814   6.173   5.504   4.512  0.2089  0.0825  0.1524
   17CHTO  H226 6815   6.117   5.425   4.461  0.7442 -2.0316  2.7665
   17CHTO  C126 6816   6.288   5.542   4.413 -0.3866  0.0974 -0.0325
   17CHTO   O85 6817   6.366   5.432   4.366  0.3685  0.5313  0.3495
   17CHTO  H206 6818   6.311   5.368   4.324  0.3831 -0.6529  2.0564
   17CHTO  C121 6819   6.079   5.630   4.542  0.1043 -0.0855  0.0050
   17CHTO  H225 6820   6.112   5.720   4.485  1.8320  0.0467  1.1681
   17CHTO   O81 6821   5.950   5.603   4.498  0.3217 -0.4641  0.7561
   17CHTO  H202 6822   5.904   5.683   4.481 -1.3678 -1.5315  0.2034
   17CHTO  C119 6823   6.083   5.665   4.693 -0.3230  0.0318 -0.1358
   17CHTO  H223 6824   6.182   5.702   4.721  0.4078 -1.8785 -0.0706
   17CHTO  C117 6825   6.051   5.537   4.782  0.4079 -0.6146  0.4167
   17CHTO  H221 6826   5.949   5.498   4.775  0.3741 -0.5725  0.6681
   17CHTO   N20 6827   6.067   5.570   4.929  0.0307  0.7970 -0.2606
   17CHTO  H209 6828   6.165   5.613   4.945  0.3896 -0.3021  0.5368
   17CHTO  H210 6829   6.058   5.476   4.981 -3.3681  0.8260 -0.7064
   17CHTO   O80 6830   5.992   5.791   4.710 -0.1632  0.1744 -0.3672
   17CHTO  C103 6831   6.059   5.930   4.742 -0.2517  0.4537  0.1326
   17CHTO  H190 6832   6.154   5.915   4.793  0.1910 -0.5647 -0.9570
   17CHTO  C101 6833   6.080   6.023   4.617 -0.6352 -0.3206 -0.1222
   17CHTO  H188 6834   5.984   6.046   4.570 -0.4146  0.4994 -0.1793
   17CHTO   O68 6835   6.162   5.957   4.523 -0.1752 -0.1613 -0.0914
   17CHTO  H168 6836   6.121   5.886   4.477  0.1760 -0.2024 -0.3393
   17CHTO   C99 6837   6.139   6.167   4.660  0.3026  0.0050 -0.4134
   17CHTO  H186 6838   6.237   6.157   4.710  0.2364 -1.0359 -0.4794
   17CHTO   N17 6839   6.157   6.270   4.554  0.1731  0.7042  0.2111
   17CHTO  H174 6840   6.065   6.290   4.500 -0.1374 -0.0117  0.4831
   17CHTO  H175 6841   6.248   6.264   4.495  1.2831  1.0037  1.8691
   17CHTO   C97 6842   6.046   6.224   4.776 -0.0501  0.6355 -0.0804
   17CHTO  H184 6843   5.945   6.243   4.735 -0.4475  1.0009  1.0568
   17CHTO   O64 6844   6.041   6.121   4.878 -0.2822  0.4499  0.0198
   17CHTO  C104 6845   5.959   6.010   4.841 -0.1418  0.0115  0.3428
   17CHTO  H191 6846   5.869   6.037   4.787 -0.1862  1.0673  0.9358
   17CHTO  C108 6847   5.920   5.932   4.960 -1.1318 -0.2583 -0.5107
   17CHTO   O71 6848   5.820   5.996   5.042 -0.3096 -0.0087  0.6790
   17CHTO  H171 6849   5.797   5.936   5.110 -0.5443 -0.4931  0.1778
   17CHTO   O62 6850   6.106   6.338   4.837 -0.2813  0.4408  0.2939
   17CHTO   C91 6851   6.031   6.428   4.919 -0.1395 -0.0372  0.3897
   17CHTO  H178 6852   5.926   6.432   4.892  0.1055  1.0867 -0.4390
   17CHTO   C92 6853   6.089   6.574   4.896 -0.0646  0.7090  0.3782
   17CHTO  H179 6854   6.107   6.597   4.790  0.4396 -0.8411  0.1097
   17CHTO   O66 6855   5.984   6.655   4.943  0.2503 -0.0595  0.4493
   17CHTO  H166 6856   5.958   6.616   5.024 -1.9752 -1.6178 -0.9514
   17CHTO   C93 6857   6.208   6.611   4.986 -0.4288 -0.2752 -0.4660
   17CHTO  H180 6858   6.203   6.721   4.991 -4.8752 -0.3200 -1.9429
   17CHTO   N16 6859   6.334   6.594   4.910 -0.7095  0.8977 -0.7356
   17CHTO  H172 6860   6.417   6.540   4.954  0.3720  2.0439 -1.3158
   17CHTO  H173 6861   6.372   6.688   4.874 -0.7451  1.0871 -0.2794
   17CHTO   C94 6862   6.204   6.555   5.134  0.1871 -0.4718  0.2035
   17CHTO  H181 6863   6.269   6.469   5.145  0.0728 -0.5882 -0.0242
   17CHTO   O61 6864   6.075   6.502   5.160  0.2028  0.4941 -0.1948
   17CHTO   C95 6865   6.031   6.395   5.077 -0.6475  0.3719 -0.5369
   17CHTO  H182 6866   6.101   6.312   5.086  0.6328  1.5726  0.8460
   17CHTO  C106 6867   5.892   6.339   5.119 -0.1925 -0.0236 -0.6702
   17CHTO   O69 6868   5.907   6.264   5.239 -0.1805 -0.1222  0.1661
   17CHTO  H169 6869   5.862   6.182   5.236  1.9116 -1.2858 -0.4642
   17CHTO   O63 6870   6.253   6.661   5.237 -0.3971  0.6565  0.2531
   17CHTO   C96 6871   6.143   6.756   5.314 -0.0594  0.3486 -0.0064
   17CHTO  H183 6872   6.059   6.687   5.301  1.1378 -0.7905 -1.9746
   17CHTO   C98 6873   6.108   6.896   5.260  0.6963  0.0414 -0.0435
   17CHTO  H185 6874   6.202   6.953   5.256 -1.1831  3.2260 -0.5402
   17CHTO   O67 6875   6.065   6.877   5.121 -0.2279 -0.0974 -0.6763
   17CHTO  H167 6876   6.046   6.965   5.093  1.6343 -0.0336 -1.8511
   17CHTO  C102 6877   5.996   6.970   5.350 -0.8427 -0.3814 -0.1939
   17CHTO  H189 6878   5.905   6.908   5.345 -0.0609 -1.4888 -0.9987
   17CHTO   N18 6879   5.962   7.109   5.308  0.3810  0.0968  1.1240
   17CHTO  H176 6880   6.026   7.146   5.229 -0.7756  2.1533  1.0887
   17CHTO  H177 6881   5.860   7.117   5.274  1.2734 -1.2779 -2.0524
   17CHTO  C105 6882   6.042   6.954   5.500  0.7001  0.0959 -0.7321
   17CHTO  H192 6883   6.119   7.030   5.521  0.1208  0.7398 -0.9171
   17CHTO   O65 6884   6.077   6.821   5.546 -0.2168  0.0154 -0.2192
   17CHTO  C100 6885   6.188   6.769   5.468  0.2722  0.3612  0.2591
   17CHTO  H187 6886   6.272   6.839   5.475 -0.7060  1.8483 -2.1561
   17CHTO  C107 6887   6.227   6.627   5.530  0.0814  1.1328 -0.8154
   17CHTO   O70 6888   6.119   6.536   5.509  0.3774 -0.5218  0.1482
   17CHTO  H170 6889   6.101   6.526   5.417 -3.1390 -0.3672  0.7715
   17CHTO   O57 6890   5.913   7.002   5.582  0.2607 -0.0686 -0.1475
   17CHTO   C85 6891   5.919   7.093   5.694  0.0449  0.6059  0.3406
   17CHTO  H157 6892   5.986   7.176   5.665  0.1598  0.1217 -0.8130
   17CHTO   C83 6893   5.977   7.019   5.816 -0.3102 -0.0090 -0.1999
   17CHTO  H155 6894   6.072   6.978   5.784  0.0059  1.7505 -1.6308
   17CHTO   O56 6895   5.899   6.899   5.855  0.4466 -0.1005 -0.3712
   17CHTO  H135 6896   5.832   6.924   5.916  0.7864 -1.6120  0.6444
   17CHTO   C81 6897   5.997   7.121   5.932 -0.0867 -0.5243 -0.2626
   17CHTO  H153 6898   6.056   7.206   5.898 -2.6871  1.2680 -0.5402
   17CHTO   N14 6899   6.071   7.068   6.049  0.2218 -0.6054 -0.2762
   17CHTO  H141 6900   6.169   7.109   6.064 -0.1247 -0.5715  2.1408
   17CHTO  H142 6901   6.017   7.072   6.142 -0.3771 -2.6327 -0.5058
   17CHTO   C79 6902   5.851   7.181   5.979  0.5118 -0.0556 -0.4491
   17CHTO  H151 6903   5.871   7.266   6.044  0.7364 -0.4168 -0.0481
   17CHTO   O52 6904   5.781   7.229   5.865 -0.0858 -0.3837  0.1251
   17CHTO   C86 6905   5.779   7.144   5.741 -0.1353 -0.2119 -0.0382
   17CHTO  H158 6906   5.708   7.063   5.768 -0.5973  0.2934  0.2856
   17CHTO   C90 6907   5.726   7.212   5.618  0.1623 -0.7033 -0.2180
   17CHTO   O60 6908   5.581   7.194   5.613 -0.0843  0.6518  0.2670
   17CHTO  H138 6909   5.552   7.271   5.567  0.0309  1.0599  0.8739
   17CHTO   O50 6910   5.766   7.087   6.048 -0.1954 -0.5440 -1.2008
   17CHTO   C73 6911   5.662   7.144   6.130 -0.4173 -0.2877 -0.0786
   17CHTO  H145 6912   5.638   7.244   6.090  0.2470  0.2140  0.7613
   17CHTO   C74 6913   5.711   7.150   6.280 -0.3940  0.7329  0.1912
   17CHTO  H146 6914   5.794   7.222   6.276  1.3030 -1.0596  1.9805
   17CHTO   O54 6915   5.607   7.208   6.370 -0.2303 -0.5201 -0.0578
   17CHTO  H133 6916   5.621   7.190   6.461 -1.6118  0.1115  0.2939
   17CHTO   C75 6917   5.761   7.006   6.326 -0.0518  0.3734  0.0220
   17CHTO  H147 6918   5.829   6.964   6.250  0.5873 -0.1395  0.8667
   17CHTO   N13 6919   5.814   6.986   6.462 -0.0950  0.0333 -0.5596
   17CHTO  H139 6920   5.899   7.052   6.476 -0.8035  1.3718 -2.4478
   17CHTO  H140 6921   5.848   6.886   6.485  0.5716  0.2373 -0.6352
   17CHTO   C76 6922   5.646   6.907   6.302 -0.3103 -0.0946  0.2817
   17CHTO  H148 6923   5.570   6.919   6.380 -0.7893 -1.0352 -0.0309
   17CHTO   O49 6924   5.576   6.912   6.172 -0.1134 -0.8535  0.2562
   17CHTO   C77 6925   5.540   7.051   6.134 -0.0363  0.5111  0.6430
   17CHTO  H149 6926   5.466   7.098   6.198  1.3260  0.4738  2.2747
   17CHTO   C88 6927   5.470   7.051   6.001 -0.1100  0.0005 -0.1855
   17CHTO   O58 6928   5.431   7.183   5.944 -0.6046 -0.2542 -0.1591
   17CHTO  H136 6929   5.362   7.175   5.880 -0.1077  0.1680 -0.7528
   17CHTO   O51 6930   5.700   6.759   6.298  0.3180 -0.2835  0.0130
   17CHTO   C78 6931   5.601   6.642   6.275 -0.4134  0.3589 -0.3121
   17CHTO  H150 6932   5.519   6.667   6.204  0.3475 -0.1189 -1.3796
   17CHTO   C80 6933   5.543   6.587   6.411  0.2572 -0.0988 -0.2864
   17CHTO  H152 6934   5.627   6.561   6.479  0.3766  1.8899  0.3455
   17CHTO   O55 6935   5.466   6.685   6.486  0.6779 -0.0456  0.2209
   17CHTO  H134 6936   5.468   6.670   6.579  1.4190  0.3772  0.2756
   17CHTO   C84 6937   5.459   6.458   6.385 -0.0020  0.1248 -0.1244
   17CHTO  H156 6938   5.372   6.492   6.328 -0.7078  0.0923  0.9304
   17CHTO   N15 6939   5.412   6.391   6.510 -0.0153 -0.3222 -0.6698
   17CHTO  H143 6940   5.496   6.376   6.575  0.4918 -0.3107 -1.3230
   17CHTO  H144 6941   5.332   6.440   6.562 -0.8392 -1.0348 -1.2409
   17CHTO   C87 6942   5.534   6.365   6.287 -0.0507  0.4760  0.0500
   17CHTO  H159 6943   5.612   6.320   6.348 -0.6035  1.1392  1.2662
   17CHTO   O53 6944   5.583   6.431   6.160  0.2598  0.2560 -0.8995
   17CHTO   C82 6945   5.676   6.534   6.198 -0.3536 -0.4640  0.7562
   17CHTO  H154 6946   5.755   6.488   6.258  0.9529  0.6169 -0.0841
   17CHTO   C89 6947   5.745   6.593   6.072 -0.3996 -0.1750  0.3190
   17CHTO   O59 6948   5.837   6.493   6.025  0.1858 -0.2515  0.3559
   17CHTO  H137 6949   5.896   6.533   5.964  1.1472 -1.8123  0.2299
   17CHTO   O45 6950   5.420   6.269   6.238  0.0386  0.3636 -0.5175
   17CHTO   C67 6951   5.466   6.142   6.194 -0.6739  0.3712 -0.3419
   17CHTO  H124 6952   5.557   6.106   6.243 -0.8101 -1.0508 -1.0850
   17CHTO   C65 6953   5.341   6.043   6.215  0.1033 -0.7709 -0.5051
   17CHTO  H122 6954   5.311   6.057   6.319  0.6257  0.0354 -0.4508
   17CHTO   O44 6955   5.391   5.907   6.197 -0.6421 -0.6470  0.3886
   17CHTO  H102 6956   5.425   5.886   6.113 -1.7713  1.9578 -0.7599
   17CHTO   C63 6957   5.215   6.088   6.129  0.0395 -0.2219 -0.1997
   17CHTO  H120 6958   5.178   6.185   6.161 -2.4655 -0.2942 -2.6585
   17CHTO   N11 6959   5.089   6.016   6.159  0.1074 -0.3374 -0.1359
   17CHTO  H108 6960   5.014   6.092   6.163  1.3111  0.8869 -0.6462
   17CHTO  H109 6961   5.079   5.947   6.078  0.0747 -0.5267  0.0284
   17CHTO   C61 6962   5.254   6.088   5.973  0.4280 -0.1476 -0.2766
   17CHTO  H118 6963   5.177   6.145   5.920  0.5589 -1.3078 -1.7568
   17CHTO   O40 6964   5.380   6.152   5.940  0.2130 -0.0623  0.2634
   17CHTO   C68 6965   5.498   6.141   6.037  0.6582  0.0843 -0.7299
   17CHTO  H125 6966   5.565   6.230   6.037  1.0595 -0.1951  1.2802
   17CHTO   C72 6967   5.583   6.017   6.007 -0.1168  0.8069 -0.0894
   17CHTO   O48 6968   5.633   6.001   5.870 -0.0488  0.5411 -0.3428
   17CHTO  H105 6969   5.684   5.924   5.857 -0.9700  0.3040 -2.7664
   17CHTO   O38 6970   5.271   5.954   5.922 -0.2880  0.0176 -0.0833
   17CHTO   C55 6971   5.220   5.918   5.794 -0.5989  0.1631 -0.6587
   17CHTO  H112 6972   5.290   5.836   5.770 -0.1191 -0.2571  2.0173
   17CHTO   C56 6973   5.223   6.027   5.676 -0.1063 -0.0158 -0.9009
   17CHTO  H113 6974   5.164   6.112   5.715 -0.1656 -1.3069  1.9034
   17CHTO   O42 6975   5.361   6.073   5.646 -0.1575 -0.0260 -0.6028
   17CHTO  H100 6976   5.394   6.105   5.727 -2.6362 -0.7207  0.7339
   17CHTO   C57 6977   5.152   5.977   5.550  0.1131  0.4303 -0.8449
   17CHTO  H114 6978   5.206   5.893   5.504 -1.9238 -1.1417 -0.4103
   17CHTO   N10 6979   5.145   6.084   5.443 -0.0466 -0.3126  0.3743
   17CHTO  H106 6980   5.132   6.180   5.490 -1.5973 -0.1031 -0.4553
   17CHTO  H107 6981   5.241   6.080   5.393  1.5228  0.7784  3.1722
   17CHTO   C58 6982   5.013   5.919   5.587  0.2322  0.1672 -0.3199
   17CHTO  H115 6983   4.951   6.004   5.622  0.5877  0.0853  0.5254
   17CHTO   O37 6984   5.022   5.814   5.690 -0.5302  0.3744  0.0638
   17CHTO   C59 6985   5.076   5.857   5.820  0.0702 -0.0274 -0.4422
   17CHTO  H116 6986   5.014   5.938   5.858 -0.3038  0.1032 -1.3251
   17CHTO   C70 6987   5.071   5.731   5.913 -0.1259 -0.3418  0.5445
   17CHTO   O46 6988   5.141   5.611   5.869  0.3723 -0.3727 -0.5417
   17CHTO  H103 6989   5.118   5.593   5.780 -0.0972 -0.3967 -0.4172
   17CHTO   O39 6990   4.934   5.830   5.452 -0.0103  0.4314  0.6204
   17CHTO   C60 6991   4.791   5.852   5.450  0.5564  0.1586 -0.2669
   17CHTO  H117 6992   4.760   5.898   5.544  0.1213  2.2785 -1.4051
   17CHTO   C62 6993   4.764   5.953   5.328  0.1051  0.1588  0.2025
   17CHTO  H119 6994   4.817   6.049   5.350  0.7945 -0.4556  1.2282
   17CHTO   O43 6995   4.828   5.897   5.214  0.0381  0.3195  0.5542
   17CHTO  H101 6996   4.785   5.814   5.203 -1.4311  1.0246  0.8115
   17CHTO   C66 6997   4.607   5.981   5.318  0.0648 -0.2888  0.3987
   17CHTO  H123 6998   4.569   6.011   5.416 -0.3610 -0.7822  0.3879
   17CHTO   N12 6999   4.577   6.084   5.215 -0.1567 -0.2777  0.0637
   17CHTO  H110 7000   4.641   6.083   5.128  0.4637  1.9752  0.4562
   17CHTO  H111 7001   4.474   6.078   5.181  0.3810 -0.2239 -1.6221
   17CHTO   C69 7002   4.520   5.856   5.305  0.3222 -0.1585  0.0127
   17CHTO  H126 7003   4.516   5.814   5.203 -0.1139 -0.1836  0.0397
   17CHTO   O41 7004   4.553   5.745   5.408  0.0452 -0.0225  0.4548
   17CHTO   C64 7005   4.710   5.717   5.425 -0.1380  0.6297  0.1074
   17CHTO  H121 7006   4.749   5.667   5.334 -1.8329 -0.8569  0.1697
   17CHTO   C71 7007   4.728   5.621   5.548  0.4773  0.3730 -0.5603
   17CHTO   O47 7008   4.694   5.689   5.673  0.0628  0.0345 -1.0226
   17CHTO  H104 7009   4.736   5.655   5.750 -0.1176 -1.4828 -1.5882
   17CHTO   O34 7010   4.361   5.914   5.345  0.0218  0.1511 -0.3923
   17CHTO   C49 7011   4.241   5.980   5.425 -0.1684 -0.5087  0.4534
   17CHTO   H91 7012   4.211   6.069   5.371 -0.6823 -0.7303  0.3722
   17CHTO   C47 7013   4.302   6.011   5.566 -0.3610  0.0468 -0.2390
   17CHTO   H89 7014   4.219   6.057   5.623  0.5562 -0.1256  1.2480
   17CHTO   O33 7015   4.407   6.099   5.555  0.1582  0.1514  0.2663
   17CHTO   H70 7016   4.380   6.176   5.509 -2.9892  0.5006  2.5231
   17CHTO   C45 7017   4.348   5.874   5.642  0.4668 -0.1915 -0.2926
   17CHTO   H87 7018   4.452   5.844   5.619  1.3043  1.5467  1.1619
   17CHTO    N8 7019   4.346   5.900   5.789  0.1952  0.0405  0.1691
   17CHTO   H75 7020   4.262   5.953   5.830  2.0608  3.8121 -0.6637
   17CHTO   H76 7021   4.336   5.805   5.840  0.4562 -0.8358 -1.3770
   17CHTO   C43 7022   4.258   5.746   5.595 -0.2385  0.2962  0.1343
   17CHTO   H85 7023   4.320   5.702   5.518  0.7117  0.7215  0.6382
   17CHTO   O29 7024   4.132   5.783   5.554 -0.3586 -0.6037 -0.2297
   17CHTO   C50 7025   4.123   5.883   5.444  0.1768 -0.0003 -0.3313
   17CHTO   H92 7026   4.103   5.832   5.349 -1.7093  1.8009 -0.9329
   17CHTO   C54 7027   3.996   5.972   5.460 -0.2852 -0.1426  0.9552
   17CHTO   O36 7028   3.880   5.895   5.441 -0.1643 -0.0072  0.3204
   17CHTO   H72 7029   3.810   5.937   5.488  0.9995  1.1839  1.0219
   17CHTO   O27 7030   4.259   5.635   5.688 -1.0522  0.5179  0.4087
   17CHTO   C37 7031   4.357   5.525   5.708 -0.3298  0.2921 -0.7007
   17CHTO   H79 7032   4.455   5.546   5.663 -0.2873 -0.5638 -1.0082
   17CHTO   C38 7033   4.395   5.506   5.866  0.8463 -0.4251  0.4286
   17CHTO   H80 7034   4.302   5.504   5.925  0.8368  1.4446  0.5156
   17CHTO   O31 7035   4.467   5.622   5.900 -0.5346  0.7108 -0.2656
   17CHTO   H68 7036   4.547   5.620   5.851 -0.2697  2.3647  0.0601
   17CHTO   C39 7037   4.478   5.377   5.889 -0.0153 -0.2716 -0.7181
   17CHTO   H81 7038   4.577   5.394   5.846  0.8370  1.2134  1.7707
   17CHTO    N7 7039   4.506   5.352   6.031  0.2039  0.1686  0.2949
   17CHTO   H73 7040   4.419   5.328   6.091 -0.2414  0.4708 -0.2369
   17CHTO   H74 7041   4.578   5.272   6.046 -0.3205 -0.1653  1.0643
   17CHTO   C40 7042   4.417   5.251   5.819  0.4196  0.0967 -0.7616
   17CHTO   H82 7043   4.333   5.200   5.867  0.9034 -1.1898 -1.2685
   17CHTO   O26 7044   4.390   5.286   5.678  0.4752  1.1933 -0.3150
   17CHTO   C41 7045   4.303   5.401   5.660 -0.1604 -0.1810 -0.3493
   17CHTO   H83 7046   4.206   5.381   5.707 -0.6261 -1.7565 -1.9496
   17CHTO   C52 7047   4.286   5.402   5.505 -0.0080 -0.7194  0.4335
   17CHTO   O35 7048   4.389   5.464   5.427  0.0757  0.1513 -0.2822
   17CHTO   H71 7049   4.365   5.551   5.404  1.8159  0.6270 -0.4102
   17CHTO   O28 7050   4.504   5.141   5.789  0.0893 -0.0462  0.0551
   17CHTO   C42 7051   4.636   5.133   5.719  0.0321 -0.6520 -0.4888
   17CHTO   H84 7052   4.649   5.025   5.713 -2.1149 -0.8418 -2.4983
   17CHTO   C44 7053   4.757   5.197   5.792 -0.3336  0.5504  1.0687
   17CHTO   H86 7054   4.742   5.304   5.803 -0.6917  0.6609 -0.3733
   17CHTO   O32 7055   4.770   5.144   5.926 -1.0003 -0.0065 -0.0286
   17CHTO   H69 7056   4.770   5.050   5.923 -1.6986  0.0086 -0.5090
   17CHTO   C48 7057   4.888   5.178   5.704  0.7009 -0.7030 -0.2957
   17CHTO   H90 7058   4.913   5.073   5.689 -0.1964 -0.8159 -1.0204
   17CHTO    N9 7059   5.010   5.235   5.772 -0.6164  0.1970 -0.2813
   17CHTO   H77 7060   5.020   5.343   5.765 -0.8205  0.2051 -0.4731
   17CHTO   H78 7061   5.014   5.211   5.877  0.7281 -2.2646 -0.8583
   17CHTO   C51 7062   4.861   5.241   5.562  0.6259 -0.2446  0.0512
   17CHTO   H93 7063   4.828   5.344   5.574 -0.0818 -0.5072  0.3513
   17CHTO   O30 7064   4.761   5.164   5.491  0.1679 -0.1496  0.2731
   17CHTO   C46 7065   4.627   5.182   5.576 -0.1037  0.2879  0.2978
   17CHTO   H88 7066   4.600   5.287   5.564 -2.6935  0.1924  4.3791
   17CHTO   C53 7067   4.538   5.086   5.487  0.0137 -0.1905  0.1826
   17CHTO   O72 7068   4.451   5.160   5.404  0.5789  0.1260 -0.9185
   17CHTO  H199 7069   4.429   5.244   5.440  0.6533 -0.2120 -0.0776
   17CHTO   O22 7070   4.983   5.230   5.482  0.1595  0.5785 -0.4654
   17CHTO   C31 7071   5.003   5.306   5.357  0.0739 -0.3112  0.0697
   17CHTO   H59 7072   5.086   5.252   5.305 -0.1815 -0.1989 -0.4554
   17CHTO   C29 7073   4.890   5.326   5.257 -0.0490  0.2473 -0.1354
   17CHTO   H57 7074   4.812   5.386   5.306 -1.2491 -1.5320  0.1697
   17CHTO   O21 7075   4.825   5.205   5.216 -0.0226  0.2764  0.0512
   17CHTO   H37 7076   4.825   5.142   5.285 -1.1685  0.2866  0.0650
   17CHTO   C27 7077   4.941   5.408   5.126  0.8481 -0.6350  0.4368
   17CHTO   H55 7078   5.012   5.350   5.066  0.0993 -0.3440 -0.7526
   17CHTO    N5 7079   4.829   5.453   5.040  0.6283 -0.0586  0.7127
   17CHTO   H43 7080   4.762   5.500   5.111 -1.5745 -1.4632 -0.4075
   17CHTO   H44 7081   4.791   5.360   5.002 -0.7012  0.5967  0.4392
   17CHTO   C25 7082   5.024   5.533   5.172 -0.3360  0.4330  0.0646
   17CHTO   H53 7083   4.950   5.605   5.210  1.7503  1.7985  1.6908
   17CHTO   O17 7084   5.110   5.507   5.282 -0.4291 -0.2301 -0.3920
   17CHTO   C32 7085   5.058   5.442   5.396 -0.5785  0.1453 -0.2746
   17CHTO   H60 7086   4.981   5.503   5.442 -2.0720 -2.5694  0.9646
   17CHTO   C36 7087   5.172   5.433   5.496 -1.2589  0.1982 -0.1927
   17CHTO   O25 7088   5.231   5.559   5.534 -0.1868 -0.3767 -0.5401
   17CHTO   H40 7089   5.297   5.547   5.599 -0.3247 -1.2780 -0.5700
   17CHTO   O15 7090   5.112   5.594   5.055 -0.3215 -0.0247 -0.2036
   17CHTO   C19 7091   5.138   5.739   5.027 -0.0906 -0.1231  0.2204
   17CHTO   H47 7092   5.219   5.733   4.953 -1.3261 -0.6408 -1.1009
   17CHTO   C20 7093   5.025   5.827   4.955  0.0791  0.5712 -0.0844
   17CHTO   H48 7094   4.932   5.830   5.015 -0.8897  2.7348 -1.6354
   17CHTO   O19 7095   4.990   5.765   4.832  0.2590  0.4684 -0.0526
   17CHTO   H35 7096   5.043   5.791   4.759  1.7100  1.1251  1.2054
   17CHTO   C21 7097   5.071   5.980   4.934 -0.6419 -0.5115 -0.2012
   17CHTO   H49 7098   5.143   5.987   4.854 -0.7258  1.1374 -0.1368
   17CHTO    N4 7099   4.951   6.066   4.913 -0.0094 -0.1025 -0.0894
   17CHTO   H41 7100   4.855   6.016   4.917 -1.8070  3.2776  0.8539
   17CHTO   H42 7101   4.963   6.104   4.812  0.1434  0.7186  0.2289
   17CHTO   C22 7102   5.155   6.035   5.053 -0.0790 -0.5087 -0.2971
   17CHTO   H50 7103   5.088   6.054   5.137  0.5602 -0.6157  0.2436
   17CHTO   O14 7104   5.254   5.943   5.105 -0.0824  0.3681  0.3682
   17CHTO   C23 7105   5.195   5.822   5.153 -0.2667 -0.2403 -0.2580
   17CHTO   H51 7106   5.116   5.857   5.221 -0.4060  1.1827 -1.1277
   17CHTO   C34 7107   5.299   5.751   5.245 -0.2918 -0.4129 -0.1714
   17CHTO   O23 7108   5.429   5.740   5.183  0.0882 -0.0276 -0.1163
   17CHTO   H38 7109   5.421   5.671   5.120  0.5549 -0.3757  0.2081
   17CHTO   O16 7110   5.239   6.153   5.012  0.2670  0.0509  0.3657
   17CHTO   C24 7111   5.283   6.238   5.124  0.5262  0.1761  0.1575
   17CHTO   H52 7112   5.276   6.188   5.221  2.6848  0.7375  0.6394
   17CHTO   C26 7113   5.209   6.377   5.124  0.8634 -0.8426 -0.3207
   17CHTO   H54 7114   5.218   6.427   5.025  0.0080 -1.8424 -0.9201
   17CHTO   O20 7115   5.072   6.350   5.152 -0.1247  0.2434  0.3256
   17CHTO   H36 7116   5.016   6.424   5.136 -1.2767 -0.6188  0.2790
   17CHTO   C30 7117   5.272   6.482   5.224  0.2254 -0.6958 -0.0475
   17CHTO   H58 7118   5.255   6.444   5.326 -1.9702 -3.6694 -1.4519
   17CHTO    N6 7119   5.222   6.620   5.213 -0.2023 -0.2496  0.0017
   17CHTO   H45 7120   5.280   6.693   5.269  2.4020 -2.7708  0.6722
   17CHTO   H46 7121   5.224   6.650   5.109  1.9878  0.8083  0.3237
   17CHTO   C33 7122   5.425   6.488   5.208  0.1313  0.3654  1.1514
   17CHTO   H61 7123   5.451   6.532   5.110 -1.9000 -0.4236  0.2379
   17CHTO   O18 7124   5.480   6.356   5.210 -0.1454 -0.1659  0.7317
   17CHTO   C28 7125   5.426   6.268   5.110 -0.3674 -0.3399  0.6529
   17CHTO   H56 7126   5.440   6.324   5.016  0.5173 -0.6776  0.5782
   17CHTO   C35 7127   5.519   6.146   5.112  0.0259 -0.2168 -0.3216
   17CHTO   O24 7128   5.505   6.065   5.228 -0.2587  0.2544  0.1871
   17CHTO   H39 7129   5.412   6.070   5.242 -0.3019  0.6296 -0.2319
   17CHTO    O9 7130   5.482   6.576   5.311  0.4884 -0.5755  0.5830
   17CHTO   C13 7131   5.651   6.596   5.305  0.0854 -0.1537 -0.0366
   17CHTO   H26 7132   5.695   6.565   5.208 -3.4584  2.7641 -2.7532
   17CHTO   C11 7133   5.724   6.540   5.433  0.0331  0.0404  0.2738
   17CHTO   H24 7134   5.820   6.504   5.394  1.3388  3.2541  0.3009
   17CHTO    O8 7135   5.657   6.423   5.475  0.1036  0.6690  0.2774
   17CHTO    H3 7136   5.564   6.425   5.467 -0.1394 -2.5357  1.6093
   17CHTO    C9 7137   5.746   6.653   5.539  0.1412 -0.8059  0.2282
   17CHTO   H22 7138   5.821   6.720   5.495 -0.6368  0.6681  1.1063
   17CHTO    N2 7139   5.817   6.612   5.664  0.2069  0.0301  0.0737
   17CHTO   H10 7140   5.921   6.638   5.657  0.5687 -1.3535  0.1463
   17CHTO   H11 7141   5.772   6.649   5.755 -0.7096 -0.0768 -0.3260
   17CHTO    C7 7142   5.622   6.746   5.553  0.0268  0.7262 -0.6763
   17CHTO   H20 7143   5.628   6.821   5.634 -0.1912 -1.8444  1.7874
   17CHTO    O4 7144   5.596   6.808   5.423  0.0145 -0.2630 -0.5697
   17CHTO   C14 7145   5.659   6.753   5.307 -0.2057 -0.1045  0.7134
   17CHTO   H27 7146   5.764   6.788   5.313  0.0235 -0.3893 -1.3078
   17CHTO   C18 7147   5.604   6.807   5.167  0.2220 -0.3218 -0.0022
   17CHTO   O13 7148   5.651   6.939   5.156 -0.1137 -0.3843 -0.1991
   17CHTO    H7 7149   5.743   6.952   5.170 -0.5288  0.1032  2.4030
   17CHTO    O2 7150   5.500   6.672   5.593  0.1060  0.0817 -0.3140
   17CHTO    C1 7151   5.446   6.699   5.729 -0.3186  0.0270  0.3428
   17CHTO   H14 7152   5.528   6.738   5.793  0.4641 -2.4645  0.9029
   17CHTO    C2 7153   5.399   6.564   5.799 -0.0390 -0.0743  0.4658
   17CHTO   H15 7154   5.333   6.516   5.725  2.1187 -0.9813 -0.9322
   17CHTO    O6 7155   5.518   6.480   5.824 -0.0670 -0.6588 -0.4506
   17CHTO    H1 7156   5.568   6.510   5.898 -1.5059 -0.4822  0.4725
   17CHTO    C3 7157   5.314   6.585   5.937 -0.1968 -0.1846  0.3469
   17CHTO   H16 7158   5.377   6.619   6.021  1.3786 -0.7874 -0.5784
   17CHTO    N1 7159   5.257   6.453   5.980  0.4939  0.5048  0.2178
   17CHTO    H8 7160   5.158   6.421   5.951  1.1761 -2.8555  1.3590
   17CHTO    H9 7161   5.288   6.435   6.082 -0.8645 -1.4184  0.3191
   17CHTO    C4 7162   5.207   6.696   5.917 -0.1985  0.3559  0.3331
   17CHTO   H17 7163   5.125   6.654   5.859  0.6921 -2.6585  1.1899
   17CHTO    O1 7164   5.262   6.810   5.850  0.0047  0.1797 -0.2777
   17CHTO    C5 7165   5.320   6.795   5.723 -0.4970 -0.0391  0.5405
   17CHTO   H18 7166   5.238   6.743   5.674  0.2462 -1.0115  0.3093
   17CHTO   C16 7167   5.334   6.942   5.668  0.2526  0.4803  0.2378
   17CHTO   O11 7168   5.343   6.941   5.526  0.3318 -0.2165  0.2384
   17CHTO    H5 7169   5.399   6.872   5.495 -0.7835 -0.5183 -1.1680
   17CHTO    O3 7170   5.163   6.742   6.046 -0.0456  0.2220  0.0993
   17CHTO    C6 7171   5.100   6.870   6.070  0.4856 -1.0690 -0.3599
   17CHTO   H19 7172   5.156   6.955   6.032 -2.6881  1.4820  0.4677
   17CHTO    C8 7173   4.947   6.871   6.016  0.0493  0.5685  0.2882
   17CHTO   H21 7174   4.911   6.769   6.032  0.7449  0.4437  1.0475
   17CHTO    O7 7175   4.957   6.890   5.875  0.6092 -0.2369  0.4040
   17CHTO    H2 7176   4.928   6.976   5.851 -1.0503 -0.4657  1.4909
   17CHTO   C12 7177   4.862   6.975   6.086 -0.4069 -0.0993  0.1146
   17CHTO   H25 7178   4.878   7.070   6.031  2.8095 -1.2889 -1.1805
   17CHTO    N3 7179   4.725   6.950   6.051 -0.4957  0.3719  0.4113
   17CHTO   H12 7180   4.695   6.850   6.081 -2.7441  0.3032 -1.8654
   17CHTO   H13 7181   4.698   6.953   5.946 -2.6241  0.6483  0.9453
   17CHTO   C15 7182   4.896   7.000   6.236  0.3130  0.2928  0.1502
   17CHTO   H28 7183   4.858   6.917   6.296 -0.2389  0.5655  0.1814
   17CHTO   O10 7184   4.842   7.135   6.285 -0.4765  0.2107  0.0303
   17CHTO    H4 7185   4.751   7.129   6.263 -0.4972  1.7233 -0.3447
   17CHTO    O5 7186   5.036   7.009   6.246 -0.2992 -0.0277 -0.3738
   17CHTO   C10 7187   5.101   6.883   6.220 -0.3650 -0.0349  0.3562
   17CHTO   H23 7188   5.046   6.799   6.261 -1.8541  0.4795 -0.5719
   17CHTO   C17 7189   5.243   6.887   6.283  0.0595  0.1269 -0.0381
   17CHTO   O12 7190   5.234   6.927   6.420  0.5743  0.2676 -0.4678
   17CHTO    H6 7191   5.313   6.956   6.463 -0.0410 -1.7978  2.1628
   18CHTO  H203 7192   6.184   7.639   1.060  0.4374 -0.2623  0.1770
   18CHTO   O82 7193   6.189   7.615   0.969  0.0480  0.5157 -0.0546
   18CHTO  C123 7194   6.272   7.493   0.943  0.2746  0.0552 -0.4698
   18CHTO  H227 7195   6.237   7.420   1.016 -0.7194  0.7482 -0.2508
   18CHTO   O77 7196   6.236   7.461   0.805  0.3001  0.0422  0.1146
   18CHTO  C118 7197   6.283   7.339   0.747  0.3688 -0.8254  0.4849
   18CHTO  H222 7198   6.250   7.252   0.807 -1.5082 -0.3984  0.0912
   18CHTO  C125 7199   6.234   7.317   0.601 -0.3610  0.3930 -0.4994
   18CHTO   O84 7200   6.092   7.312   0.602 -0.6222 -0.1083  0.1041
   18CHTO  H205 7201   6.074   7.220   0.592  2.3090 -0.4976 -2.3595
   18CHTO  C114 7202   6.437   7.351   0.754 -0.1804  0.4674  0.3950
   18CHTO  H218 7203   6.469   7.436   0.692 -0.3207  1.6632  1.9314
   18CHTO  C116 7204   6.496   7.376   0.897  0.3511  0.2307 -0.4510
   18CHTO  H220 7205   6.468   7.292   0.964 -0.9106 -0.1185 -1.3962
   18CHTO   O79 7206   6.639   7.376   0.891 -0.1600  0.1436  0.3729
   18CHTO  H201 7207   6.672   7.291   0.869 -1.6849 -0.4490  0.3667
   18CHTO  C120 7208   6.429   7.513   0.947 -0.1082 -0.2961 -0.0752
   18CHTO  H224 7209   6.465   7.597   0.884  0.3249  0.8515  1.6633
   18CHTO   N21 7210   6.467   7.536   1.086  0.4714 -0.3061 -0.6431
   18CHTO  H211 7211   6.560   7.591   1.092 -1.4601  2.9897  0.0254
   18CHTO  H212 7212   6.391   7.575   1.151  0.3678 -2.2102  0.4383
   18CHTO   O75 7213   6.487   7.228   0.702  0.0873  0.0543 -0.3079
   18CHTO  C112 7214   6.624   7.237   0.613  0.2197  0.7154  0.2695
   18CHTO  H216 7215   6.714   7.252   0.674  1.3362 -0.5454 -1.0267
   18CHTO   O73 7216   6.607   7.344   0.515  0.1087  0.1438  0.4029
   18CHTO  C113 7217   6.721   7.363   0.431 -0.3316  0.5288  0.1877
   18CHTO  H217 7218   6.805   7.400   0.493  0.8567 -0.8420 -0.5802
   18CHTO  C124 7219   6.700   7.483   0.339  0.0708  0.3318  0.5152
   18CHTO   O83 7220   6.593   7.465   0.241 -0.0684  0.4961 -0.2168
   18CHTO  H204 7221   6.512   7.446   0.284 -0.2728 -1.7834 -1.5327
   18CHTO  C109 7222   6.753   7.234   0.350  0.2501  0.3156 -0.6612
   18CHTO  H213 7223   6.670   7.214   0.280  0.5555 -1.5067 -0.5217
   18CHTO  C110 7224   6.776   7.124   0.458 -0.5756  0.3130 -0.5899
   18CHTO  H214 7225   6.853   7.151   0.531 -2.0729  0.4127  0.9961
   18CHTO   O78 7226   6.823   7.002   0.396 -0.0662 -0.3817 -0.4180
   18CHTO  H200 7227   6.910   7.015   0.364 -0.0430 -1.7161 -0.9515
   18CHTO  C111 7228   6.654   7.099   0.550  0.0538  0.0395 -0.1770
   18CHTO  H215 7229   6.571   7.063   0.486  0.8610 -0.1498 -1.1281
   18CHTO   N19 7230   6.676   6.999   0.656  0.0982  0.6751  0.3729
   18CHTO  H207 7231   6.782   6.987   0.672 -0.0767 -0.4883  0.6916
   18CHTO  H208 7232   6.620   6.909   0.632 -0.7963  1.8400 -2.1310
   18CHTO   O74 7233   6.873   7.258   0.272 -0.5320  0.0236 -0.6462
   18CHTO  C115 7234   6.860   7.204   0.122 -0.4194 -0.1289 -0.3742
   18CHTO  H219 7235   6.800   7.113   0.113 -2.4870  1.2770 -1.4093
   18CHTO   O76 7236   6.777   7.316   0.031 -0.6442 -0.2381  0.3340
   18CHTO  C122 7237   6.848   7.435   0.008 -0.6723 -0.1338  0.1633
   18CHTO  H226 7238   6.885   7.473   0.103  1.6396 -1.3758 -0.2111
   18CHTO  C126 7239   6.768   7.550  -0.054  0.8948  0.6934  0.6354
   18CHTO   O85 7240   6.713   7.528  -0.186  0.1454 -0.7582 -0.3329
   18CHTO  H206 7241   6.661   7.601  -0.213  0.4882 -0.1035  0.7416
   18CHTO  C121 7242   6.975   7.399  -0.070 -0.1602  0.6089  0.0455
   18CHTO  H225 7243   6.961   7.427  -0.177  0.9586 -1.4764 -0.6592
   18CHTO   O81 7244   7.083   7.484  -0.020 -0.3565  0.1268  0.4767
   18CHTO  H202 7245   7.077   7.574  -0.047 -2.8475 -0.2268 -0.3157
   18CHTO  C119 7246   7.017   7.251  -0.066  0.6204  0.0850  0.2922
   18CHTO  H223 7247   6.942   7.207  -0.132 -0.2654  0.9936  0.6789
   18CHTO  C117 7248   7.009   7.188   0.071 -0.0638  0.1957  0.1089
   18CHTO  H221 7249   7.069   7.232   0.151 -2.4400 -1.0797  2.6854
   18CHTO   N20 7250   7.045   7.045   0.065  0.0193  0.2268 -0.1410
   18CHTO  H209 7251   6.964   6.975   0.076 -0.8901  1.5025  1.5832
   18CHTO  H210 7252   7.092   7.010  -0.026  2.2168  1.8266  0.3176
   18CHTO   O80 7253   7.155   7.229  -0.160 -0.3034  0.0179  0.7230
   18CHTO  C103 7254   7.147   7.170  -0.315 -0.2102  0.3629  0.4218
   18CHTO  H190 7255   7.247   7.160  -0.357  0.6411  0.5767  2.3397
   18CHTO  C101 7256   7.075   7.034  -0.342 -0.4098 -0.1482 -0.5656
   18CHTO  H188 7257   6.973   7.041  -0.303  0.2087 -0.6080  1.1471
   18CHTO   O68 7258   7.160   6.910  -0.264  0.5321  0.4615  0.4113
   18CHTO  H168 7259   7.249   6.939  -0.258  0.4937  0.8339 -0.6010
   18CHTO   C99 7260   7.063   7.006  -0.496 -0.0513  0.0521  0.0970
   18CHTO  H186 7261   7.167   6.997  -0.534 -0.0040 -0.9722  0.4368
   18CHTO   N17 7262   6.992   6.875  -0.534 -0.5245 -0.8543 -0.0841
   18CHTO  H174 7263   6.889   6.878  -0.502 -0.1795  0.8037  0.9056
   18CHTO  H175 7264   7.041   6.783  -0.505  0.3057 -0.2492  0.4432
   18CHTO   C97 7265   6.998   7.131  -0.568 -0.5089  0.1688 -0.5736
   18CHTO  H184 7266   6.896   7.140  -0.529 -0.3393 -0.1646 -0.0464
   18CHTO   O64 7267   7.080   7.246  -0.536  0.0984  0.1934 -0.0458
   18CHTO  C104 7268   7.079   7.279  -0.402 -0.4192  0.6272 -0.0656
   18CHTO  H191 7269   6.978   7.295  -0.365 -0.1337 -1.1136  1.5068
   18CHTO  C108 7270   7.150   7.417  -0.390  0.3740  0.5131  0.1995
   18CHTO   O71 7271   7.291   7.420  -0.430 -0.1082 -0.6295 -0.2688
   18CHTO  H171 7272   7.291   7.399  -0.521 -0.0125  0.2372 -0.4776
   18CHTO   O62 7273   7.011   7.121  -0.710 -0.3837  0.0497 -0.1910
   18CHTO   C91 7274   6.901   7.168  -0.789  0.0803 -0.0099 -0.1416
   18CHTO  H178 7275   6.809   7.129  -0.745 -1.8481  1.8409 -2.4359
   18CHTO   C92 7276   6.904   7.091  -0.927 -0.0351 -0.2999  0.7731
   18CHTO  H179 7277   7.000   7.113  -0.976 -1.4765 -1.0267 -2.5250
   18CHTO   O66 7278   6.910   6.948  -0.894 -0.9739 -0.3772  0.1072
   18CHTO  H166 7279   6.835   6.900  -0.865 -2.2635  0.2193 -2.1103
   18CHTO   C93 7280   6.781   7.127  -1.012 -0.4622  0.0981 -0.0781
   18CHTO  H180 7281   6.695   7.100  -0.949  0.2126 -2.7196 -0.2974
   18CHTO   N16 7282   6.760   7.051  -1.136  0.1934 -0.6648 -0.2078
   18CHTO  H172 7283   6.655   7.046  -1.158  0.0323  1.6447 -0.0529
   18CHTO  H173 7284   6.816   6.958  -1.143  0.8009 -0.3270  0.0876
   18CHTO   C94 7285   6.780   7.293  -1.028  0.1495  0.5055  0.2603
   18CHTO  H181 7286   6.787   7.324  -1.132  0.1320 -0.5219 -0.0589
   18CHTO   O61 7287   6.884   7.357  -0.951 -0.4913 -0.1481 -0.0835
   18CHTO   C95 7288   6.900   7.324  -0.812  0.6485  0.4098 -0.5692
   18CHTO  H182 7289   6.995   7.355  -0.769 -0.1114 -0.3847  1.8049
   18CHTO  C106 7290   6.799   7.399  -0.719  0.1351 -0.1803  0.5683
   18CHTO   O69 7291   6.655   7.370  -0.738  0.1109 -0.5350  0.3438
   18CHTO  H169 7292   6.646   7.288  -0.783 -1.6756  0.4127 -1.0708
   18CHTO   O63 7293   6.628   7.336  -0.985 -0.0199  0.1019  0.6944
   18CHTO   C96 7294   6.556   7.451  -1.084  0.3083 -0.0757 -0.4250
   18CHTO  H183 7295   6.462   7.464  -1.030  1.3932 -2.0750  2.0421
   18CHTO   C98 7296   6.537   7.415  -1.236  0.0753 -0.2990  0.0526
   18CHTO  H185 7297   6.634   7.411  -1.287  0.6481  0.9239  1.0043
   18CHTO   O67 7298   6.481   7.284  -1.232 -0.1110  0.1480 -1.2732
   18CHTO  H167 7299   6.397   7.289  -1.191  1.7378  0.0227  2.7693
   18CHTO  C102 7300   6.436   7.521  -1.302 -0.2402 -0.7562 -0.5881
   18CHTO  H189 7301   6.344   7.510  -1.242 -0.1934 -0.7913 -0.5223
   18CHTO   N18 7302   6.387   7.508  -1.444  0.5836  0.0760  0.3909
   18CHTO  H176 7303   6.297   7.566  -1.457  1.5106  1.2232 -1.0087
   18CHTO  H177 7304   6.370   7.403  -1.460  2.6087  0.1310 -2.2455
   18CHTO  C105 7305   6.492   7.663  -1.274  0.4017  0.0308  0.7934
   18CHTO  H192 7306   6.570   7.691  -1.345  0.0111  0.7418  0.6355
   18CHTO   O65 7307   6.530   7.687  -1.143 -0.1020  0.4572 -0.6165
   18CHTO  C100 7308   6.616   7.593  -1.080 -0.1229  0.8473  0.5432
   18CHTO  H187 7309   6.714   7.601  -1.129  0.0948 -0.5589  0.7298
   18CHTO  C107 7310   6.642   7.652  -0.938 -0.3194 -0.3476 -0.1026
   18CHTO   O70 7311   6.528   7.646  -0.855 -0.2351  0.1985  0.3910
   18CHTO  H170 7312   6.546   7.683  -0.771  2.4529  1.5264 -0.7088
   18CHTO   O57 7313   6.368   7.771  -1.292  0.4576  0.0418  0.5064
   18CHTO   C85 7314   6.401   7.907  -1.295  0.5177 -0.8628  0.0633
   18CHTO  H157 7315   6.497   7.925  -1.347 -0.7241 -2.7394 -3.0193
   18CHTO   C83 7316   6.403   7.962  -1.150 -0.1779  1.0001 -0.1921
   18CHTO  H155 7317   6.475   7.906  -1.091 -1.5415  0.4454  0.9527
   18CHTO   O56 7318   6.277   7.953  -1.085  0.0580 -0.2954  0.0554
   18CHTO  H135 7319   6.222   7.883  -1.115  0.2595 -1.3399  2.0085
   18CHTO   C81 7320   6.456   8.108  -1.162 -0.0862  0.1411  0.3918
   18CHTO  H153 7321   6.544   8.110  -1.227 -1.2532  0.3962 -1.2003
   18CHTO   N14 7322   6.510   8.160  -1.032 -0.4936 -0.2464  0.6555
   18CHTO  H141 7323   6.530   8.077  -0.968  0.6497 -0.1618  0.4118
   18CHTO  H142 7324   6.600   8.216  -1.045 -1.4982  1.9564  2.8528
   18CHTO   C79 7325   6.347   8.196  -1.226 -0.0947 -0.4044  0.1034
   18CHTO  H151 7326   6.396   8.290  -1.252  0.2396  0.1807  2.7420
   18CHTO   O52 7327   6.305   8.134  -1.356  0.6891 -0.9980 -0.0131
   18CHTO   C86 7328   6.290   7.991  -1.360 -0.1005  0.5642 -0.0311
   18CHTO  H158 7329   6.192   7.967  -1.313 -0.7030  0.1888 -1.4425
   18CHTO   C90 7330   6.274   7.941  -1.502 -0.7476 -0.0877  0.0572
   18CHTO   O60 7331   6.173   8.023  -1.562 -0.3120  0.1560 -0.2479
   18CHTO  H138 7332   6.094   7.972  -1.561 -0.5989  0.5878  2.1395
   18CHTO   O50 7333   6.227   8.221  -1.151  0.3552  0.5062  0.7260
   18CHTO   C73 7334   6.142   8.336  -1.164 -0.0603  0.1208  0.4568
   18CHTO  H145 7335   6.118   8.351  -1.270  1.1608 -1.0073  0.0059
   18CHTO   C74 7336   6.203   8.466  -1.108 -0.0553  0.4225  0.3665
   18CHTO  H146 7337   6.305   8.472  -1.148  1.0407 -0.5099  2.8882
   18CHTO   O54 7338   6.128   8.579  -1.150  0.0744  0.1616  0.1038
   18CHTO  H133 7339   6.038   8.562  -1.129 -1.0137  0.6451 -3.8184
   18CHTO   C75 7340   6.205   8.454  -0.953  0.2697 -0.1552  0.1933
   18CHTO  H147 7341   6.280   8.378  -0.926  1.1954  0.9964  0.9113
   18CHTO   N13 7342   6.279   8.564  -0.887  0.3349  0.0745  0.1732
   18CHTO  H139 7343   6.320   8.629  -0.963 -2.1386  0.2389 -1.0546
   18CHTO  H140 7344   6.205   8.630  -0.844 -0.6119 -0.8407 -0.0397
   18CHTO   C76 7345   6.062   8.422  -0.894  0.6407 -0.0764  0.1805
   18CHTO  H148 7346   6.000   8.510  -0.909  0.2440 -0.4101 -0.1656
   18CHTO   O49 7347   6.008   8.294  -0.955 -0.7939  0.2244  0.1144
   18CHTO   C77 7348   6.003   8.305  -1.100  0.2243  0.1769  0.0756
   18CHTO  H149 7349   5.933   8.386  -1.123  1.3479  1.1545  0.0285
   18CHTO   C88 7350   5.934   8.173  -1.145 -0.0961  0.4993 -0.4057
   18CHTO   O58 7351   5.967   8.139  -1.298 -0.3446 -0.4302  0.0742
   18CHTO  H136 7352   6.010   8.056  -1.313  0.7902  0.6260 -2.9551
   18CHTO   O51 7353   6.074   8.387  -0.732  0.0055  0.6780 -0.6457
   18CHTO   C78 7354   5.949   8.278  -0.677 -0.6566 -0.3258  0.0688
   18CHTO  H150 7355   5.927   8.203  -0.755 -0.1124  0.0324 -0.4322
   18CHTO   C80 7356   5.816   8.343  -0.637 -0.4274  0.6046  0.7953
   18CHTO  H152 7357   5.838   8.422  -0.563  0.2196 -1.0255  2.3709
   18CHTO   O55 7358   5.770   8.419  -0.750 -0.3870  0.2788  0.3677
   18CHTO  H134 7359   5.689   8.462  -0.731 -0.9603 -0.2715 -0.7608
   18CHTO   C84 7360   5.705   8.244  -0.585  0.4878 -0.0149 -0.3814
   18CHTO  H156 7361   5.677   8.176  -0.666 -1.4169  1.0100 -0.5908
   18CHTO   N15 7362   5.570   8.309  -0.545 -0.2572  0.0046  0.3466
   18CHTO  H143 7363   5.494   8.291  -0.618 -1.0704 -0.2333  1.2443
   18CHTO  H144 7364   5.588   8.415  -0.541 -0.5031  0.0091  1.4654
   18CHTO   C87 7365   5.767   8.160  -0.464 -0.0525  0.4561  0.0573
   18CHTO  H159 7366   5.780   8.240  -0.391  0.3739  1.2056 -0.8270
   18CHTO   O53 7367   5.891   8.092  -0.521  0.2914  0.2305  0.2537
   18CHTO   C82 7368   5.997   8.189  -0.557  0.4384  0.2809  0.0615
   18CHTO  H154 7369   6.020   8.256  -0.474  1.2500 -0.2544  0.2744
   18CHTO   C89 7370   6.126   8.112  -0.585 -0.1976  0.4754 -0.1538
   18CHTO   O59 7371   6.157   8.027  -0.470  0.0289  0.1725  0.1789
   18CHTO  H137 7372   6.130   8.068  -0.390  0.7403  1.4099 -0.2145
   18CHTO   O45 7373   5.657   8.055  -0.404 -0.0157 -0.3847 -0.0822
   18CHTO   C67 7374   5.670   8.045  -0.266  0.0349  0.0672 -0.7105
   18CHTO  H124 7375   5.769   8.078  -0.234 -0.1843  1.2988 -1.2808
   18CHTO   C65 7376   5.568   8.131  -0.194  0.0969  0.2548 -0.0356
   18CHTO  H122 7377   5.471   8.122  -0.244 -0.6369  0.2521  1.3613
   18CHTO   O44 7378   5.611   8.270  -0.208 -0.2937  0.3413  0.1858
   18CHTO  H102 7379   5.691   8.287  -0.162 -1.2328  1.1816  1.5439
   18CHTO   C63 7380   5.535   8.073  -0.040 -0.7495  0.7711  0.0390
   18CHTO  H120 7381   5.452   8.003  -0.054  1.2461 -1.2184 -2.2547
   18CHTO   N11 7382   5.489   8.171   0.065 -0.3286 -0.3034 -0.0702
   18CHTO  H108 7383   5.447   8.260   0.024 -0.3180  0.1791  0.9372
   18CHTO  H109 7384   5.408   8.134   0.123 -0.3999  0.7525  0.5063
   18CHTO   C61 7385   5.660   7.993   0.004  0.3229  0.2566 -0.4882
   18CHTO  H118 7386   5.634   7.951   0.102  1.7633  0.3812 -0.0545
   18CHTO   O40 7387   5.684   7.881  -0.076 -0.1022 -0.3130  0.1542
   18CHTO   C68 7388   5.658   7.894  -0.220 -0.3227  0.3440 -0.3330
   18CHTO  H125 7389   5.554   7.857  -0.236 -0.6742 -0.2809  2.9992
   18CHTO   C72 7390   5.750   7.805  -0.308 -0.3259 -0.1354 -0.1287
   18CHTO   O48 7391   5.886   7.819  -0.282 -0.0705  0.4067 -0.1722
   18CHTO  H105 7392   5.931   7.751  -0.328  2.1668  1.6819  0.0373
   18CHTO   O38 7393   5.782   8.074   0.016 -0.3085  0.1114 -0.1355
   18CHTO   C55 7394   5.899   8.041   0.094  0.2286  0.9585  0.7331
   18CHTO  H112 7395   5.941   7.941   0.073  1.0950  0.5729  3.9230
   18CHTO   C56 7396   5.875   8.061   0.249  0.3944  0.5284  0.2608
   18CHTO  H113 7397   5.849   8.167   0.262 -2.0886 -0.0790  0.5620
   18CHTO   O42 7398   5.762   7.986   0.299  0.0125  0.3847 -0.3293
   18CHTO  H100 7399   5.773   7.894   0.283 -0.6592  0.2434  0.0307
   18CHTO   C57 7400   6.012   8.021   0.329  0.0451 -0.7132 -0.9122
   18CHTO  H114 7401   6.037   7.916   0.319 -2.1276 -1.3454 -0.1258
   18CHTO   N10 7402   6.004   8.033   0.478 -0.2994 -0.4118  0.5207
   18CHTO  H106 7403   5.909   7.997   0.512  0.2747 -3.0019 -0.4303
   18CHTO  H107 7404   6.086   7.981   0.527 -1.5579  0.6286  3.8466
   18CHTO   C58 7405   6.127   8.114   0.268 -0.6172  0.0211  0.3419
   18CHTO  H115 7406   6.122   8.215   0.313 -0.0623  0.6519 -0.9869
   18CHTO   O37 7407   6.130   8.114   0.123 -0.1942 -0.0194  0.4081
   18CHTO   C59 7408   6.011   8.137   0.049  0.3356 -0.5648  0.4703
   18CHTO  H116 7409   5.965   8.235   0.052  1.1422 -0.0618 -2.3824
   18CHTO   C70 7410   6.048   8.116  -0.101 -0.3786 -0.2777 -0.2792
   18CHTO   O46 7411   6.110   8.231  -0.163 -0.0698 -0.1648  0.0344
   18CHTO  H103 7412   6.204   8.226  -0.164 -0.1350 -1.6947  0.3797
   18CHTO   O39 7413   6.278   8.038   0.312  0.0175 -0.1827 -0.1682
   18CHTO   C60 7414   6.301   7.919   0.237 -0.0812  0.4635  0.4509
   18CHTO  H117 7415   6.204   7.873   0.219 -0.3643  1.1084  0.3175
   18CHTO   C62 7416   6.368   7.942   0.099 -0.2443 -0.4518 -1.3827
   18CHTO  H119 7417   6.321   8.026   0.045 -0.7981  0.2322  0.1356
   18CHTO   O43 7418   6.510   7.976   0.111 -0.1700 -0.2904 -0.0555
   18CHTO  H101 7419   6.519   8.026   0.190  0.8396  0.4867 -0.6477
   18CHTO   C66 7420   6.346   7.810   0.014 -0.3334 -0.1089  0.1898
   18CHTO  H123 7421   6.244   7.776   0.032  0.6506 -2.1233  2.3147
   18CHTO   N12 7422   6.374   7.842  -0.125 -0.2766  0.7595  0.3388
   18CHTO  H110 7423   6.288   7.819  -0.186  0.7884 -1.5414 -0.3585
   18CHTO  H111 7424   6.452   7.776  -0.159  0.5757  2.4398 -1.0322
   18CHTO   C69 7425   6.426   7.691   0.072 -0.2754 -0.2019  0.6035
   18CHTO  H126 7426   6.535   7.707   0.074 -0.6014  2.3142 -0.4124
   18CHTO   O41 7427   6.386   7.680   0.236 -0.3779 -0.1728 -0.3298
   18CHTO   C64 7428   6.387   7.824   0.325 -0.2524 -0.3003 -0.4489
   18CHTO  H121 7429   6.487   7.868   0.341  0.8790 -3.0785  0.3493
   18CHTO   C71 7430   6.326   7.799   0.463  0.6368  0.0557  0.2422
   18CHTO   O47 7431   6.388   7.698   0.541 -1.0002 -0.2307 -0.2884
   18CHTO  H104 7432   6.360   7.713   0.629 -1.0830 -1.1655 -0.1499
   18CHTO   O34 7433   6.415   7.557  -0.006  0.6022  0.3676 -0.4909
   18CHTO   C49 7434   6.357   7.415  -0.021 -0.1386 -0.5009 -0.4215
   18CHTO   H91 7435   6.446   7.358  -0.050  1.0739  0.0205  2.1378
   18CHTO   C47 7436   6.245   7.416  -0.127 -0.3358  0.6326  0.4414
   18CHTO   H89 7437   6.223   7.308  -0.139 -0.2896  0.7058 -0.2833
   18CHTO   O33 7438   6.295   7.466  -0.252  0.2231  0.6367 -0.0867
   18CHTO   H70 7439   6.294   7.560  -0.247 -1.1257  0.6134  0.2674
   18CHTO   C45 7440   6.121   7.507  -0.068  0.1112  0.1507  0.0647
   18CHTO   H87 7441   6.142   7.611  -0.098 -0.3779  0.3605  0.4347
   18CHTO    N8 7442   5.996   7.465  -0.128  0.4111 -0.2689  0.8034
   18CHTO   H75 7443   6.003   7.363  -0.161 -0.1446  0.2609 -0.9980
   18CHTO   H76 7444   5.917   7.468  -0.054 -0.8468 -0.5515 -0.5071
   18CHTO   C43 7445   6.117   7.514   0.092  0.3296 -0.1584 -0.4481
   18CHTO   H85 7446   6.182   7.594   0.128  1.0682 -1.4836  1.2493
   18CHTO   O29 7447   6.163   7.384   0.138  0.3635  0.0526 -0.5070
   18CHTO   C50 7448   6.306   7.366   0.119  0.3892  0.2505  0.5580
   18CHTO   H92 7449   6.378   7.406   0.192 -0.0798  0.9676  0.6357
   18CHTO   C54 7450   6.329   7.212   0.135  0.2800  0.3566  0.9801
   18CHTO   O36 7451   6.463   7.175   0.135 -0.3326  0.2669  0.1891
   18CHTO   H72 7452   6.501   7.203   0.053  0.0415 -0.5077  0.0906
   18CHTO   O27 7453   5.986   7.555   0.150  0.0931 -0.0761  0.7293
   18CHTO   C37 7454   5.910   7.555   0.273 -0.1976 -0.1179  0.4149
   18CHTO   H79 7455   5.879   7.451   0.291  1.4049 -0.6501  0.1135
   18CHTO   C38 7456   5.981   7.603   0.399  0.1701  0.4052 -0.0754
   18CHTO   H80 7457   6.022   7.704   0.378  0.7933 -0.1737 -1.7438
   18CHTO   O31 7458   6.093   7.514   0.416 -0.4599  0.5203  0.1650
   18CHTO   H68 7459   6.169   7.558   0.381 -0.3938 -0.8009 -1.3738
   18CHTO   C39 7460   5.875   7.617   0.519  0.7037  0.0071  0.1369
   18CHTO   H81 7461   5.841   7.519   0.554  0.0136 -0.4362 -1.7010
   18CHTO    N7 7462   5.938   7.679   0.641 -0.4643  0.3765  0.4923
   18CHTO   H73 7463   5.935   7.613   0.727 -0.0836 -1.3348 -0.7844
   18CHTO   H74 7464   5.891   7.773   0.666  0.0847  0.2923  1.8868
   18CHTO   C40 7465   5.744   7.694   0.473 -0.6873 -0.2123 -0.2064
   18CHTO   H82 7466   5.781   7.791   0.441 -0.7248 -0.6097 -1.4775
   18CHTO   O26 7467   5.695   7.620   0.363 -0.4789  0.3754  0.2879
   18CHTO   C41 7468   5.776   7.638   0.245  0.4934 -0.2609  0.1806
   18CHTO   H83 7469   5.811   7.741   0.229 -0.8385  0.2316  0.3474
   18CHTO   C52 7470   5.704   7.587   0.124  0.1485  1.0815 -0.2837
   18CHTO   O35 7471   5.600   7.458   0.141 -0.3807  0.1015 -0.8905
   18CHTO   H71 7472   5.651   7.381   0.160 -0.3900  0.2912 -0.1000
   18CHTO   O28 7473   5.647   7.692   0.578 -0.5514 -0.1916  0.6757
   18CHTO   C42 7474   5.496   7.666   0.573  0.4568 -0.0472 -0.2801
   18CHTO   H84 7475   5.464   7.714   0.666  2.6113 -1.3128  1.1599
   18CHTO   C44 7476   5.450   7.513   0.590  0.0575  0.1397  1.0425
   18CHTO   H86 7477   5.498   7.456   0.510 -0.4791 -0.4447  1.1288
   18CHTO   O32 7478   5.511   7.472   0.714 -0.4180 -0.0324  0.1109
   18CHTO   H69 7479   5.495   7.380   0.723  0.2868 -0.4485 -2.5277
   18CHTO   C48 7480   5.290   7.493   0.578  0.2296  0.7544  0.2198
   18CHTO   H90 7481   5.238   7.533   0.665 -1.5991 -1.8827  0.3930
   18CHTO    N9 7482   5.266   7.343   0.584  0.2404 -0.0995 -0.1877
   18CHTO   H77 7483   5.166   7.317   0.554  0.8851  0.2949 -2.7953
   18CHTO   H78 7484   5.281   7.306   0.685  1.0694  0.6572 -0.0286
   18CHTO   C51 7485   5.254   7.565   0.450  0.2387 -0.2874 -0.2349
   18CHTO   H93 7486   5.313   7.525   0.367  2.0042  2.9146 -0.6001
   18CHTO   O30 7487   5.277   7.704   0.468 -0.3358  0.2117  0.0622
   18CHTO   C46 7488   5.421   7.741   0.455 -0.1259 -0.6415 -0.7861
   18CHTO   H88 7489   5.458   7.710   0.357 -0.4469  0.7373 -1.3563
   18CHTO   C53 7490   5.435   7.897   0.473  0.3999  0.0050  0.3874
   18CHTO   O72 7491   5.380   7.978   0.371 -0.8862 -0.8799  0.0515
   18CHTO  H199 7492   5.357   8.064   0.400  1.5670 -0.0289 -0.4466
   18CHTO   O22 7493   5.116   7.553   0.415 -0.8175  0.3662  0.5691
   18CHTO   C31 7494   5.074   7.542   0.273 -0.2781 -0.4196 -0.0548
   18CHTO   H59 7495   4.964   7.536   0.278 -0.4272 -1.4453 -3.5231
   18CHTO   C29 7496   5.113   7.673   0.197  0.2391  0.0501 -0.1960
   18CHTO   H57 7497   5.220   7.689   0.214  0.4376  0.0642 -1.4314
   18CHTO   O21 7498   5.052   7.785   0.258 -0.1510 -0.0965 -0.2667
   18CHTO   H37 7499   4.959   7.772   0.263 -0.2565  0.5949 -0.4223
   18CHTO   C27 7500   5.080   7.663   0.045  0.6489  0.1695 -0.2343
   18CHTO   H55 7501   4.971   7.650   0.037  0.7511 -0.6895 -0.3286
   18CHTO    N5 7502   5.127   7.781  -0.031  0.7726  0.4391 -0.3489
   18CHTO   H43 7503   5.230   7.757  -0.054  1.5325  1.7114  1.6113
   18CHTO   H44 7504   5.070   7.783  -0.122  1.6934  1.0650 -0.9266
   18CHTO   C25 7505   5.142   7.528  -0.005  0.0463 -0.1269  0.3227
   18CHTO   H53 7506   5.251   7.539   0.011  0.2095  1.0279 -1.3901
   18CHTO   O17 7507   5.110   7.405   0.062  0.0240  0.1714  0.4857
   18CHTO   C32 7508   5.117   7.405   0.207 -0.2619  0.0542 -0.3500
   18CHTO   H60 7509   5.218   7.385   0.244 -0.7233 -1.5305  0.0735
   18CHTO   C36 7510   5.026   7.294   0.263  0.4654  0.2562  0.1013
   18CHTO   O25 7511   5.005   7.301   0.406  0.3909  0.1254  0.3401
   18CHTO   H40 7512   4.955   7.230   0.443 -0.8081  0.4363 -0.6913
   18CHTO   O15 7513   5.141   7.503  -0.167 -0.2278  0.2125 -0.0162
   18CHTO   C19 7514   5.205   7.536  -0.299  0.3318 -0.3311  0.6009
   18CHTO   H47 7515   5.197   7.445  -0.361  2.4785 -0.7974  0.9797
   18CHTO   C20 7516   5.131   7.658  -0.366  0.0134 -0.3366  0.1869
   18CHTO   H48 7517   5.158   7.752  -0.317  1.5852 -0.6548 -0.0504
   18CHTO   O19 7518   4.986   7.647  -0.357  0.7384  0.3204  0.0057
   18CHTO   H35 7519   4.946   7.725  -0.391  1.6278  0.5208 -0.5962
   18CHTO   C21 7520   5.194   7.681  -0.517 -0.6962 -0.7015 -0.0753
   18CHTO   H49 7521   5.158   7.601  -0.581 -1.3363 -1.0261  0.6873
   18CHTO    N4 7522   5.143   7.808  -0.576 -0.2778  0.3345  0.3515
   18CHTO   H41 7523   5.181   7.901  -0.538  2.7826 -0.8252  0.2480
   18CHTO   H42 7524   5.036   7.809  -0.590 -0.0636  1.5248 -1.2336
   18CHTO   C22 7525   5.345   7.684  -0.501 -0.5949 -0.1580  1.1170
   18CHTO   H50 7526   5.377   7.775  -0.451 -1.2218 -2.1754  5.4495
   18CHTO   O14 7527   5.400   7.571  -0.423  0.0912 -0.3456 -0.1323
   18CHTO   C23 7528   5.360   7.563  -0.290  0.2656  0.6420  0.1024
   18CHTO   H51 7529   5.384   7.659  -0.243 -1.2054  1.2497 -0.3529
   18CHTO   C34 7530   5.444   7.456  -0.218  0.2682 -0.0148 -0.2663
   18CHTO   O23 7531   5.581   7.503  -0.202  0.1771 -0.1682  0.1248
   18CHTO   H38 7532   5.631   7.427  -0.225  1.3212  0.0160  1.9041
   18CHTO   O16 7533   5.409   7.664  -0.631  0.6264  0.2227 -0.0679
   18CHTO   C24 7534   5.556   7.705  -0.639  0.8730  0.1456 -0.4873
   18CHTO   H52 7535   5.599   7.717  -0.540 -0.2796 -0.4020  0.0990
   18CHTO   C26 7536   5.574   7.838  -0.723  0.5510 -0.7882 -0.0167
   18CHTO   H54 7537   5.522   7.827  -0.820  0.2489 -1.5223  0.2215
   18CHTO   O20 7538   5.512   7.941  -0.644 -0.1459 -0.1416  0.2034
   18CHTO   H36 7539   5.421   7.950  -0.665  0.5506 -0.5138 -3.2236
   18CHTO   C30 7540   5.720   7.870  -0.759  0.0048  0.5306 -0.4634
   18CHTO   H58 7541   5.774   7.895  -0.667  0.1748 -1.6256  0.0425
   18CHTO    N6 7542   5.728   7.982  -0.856  0.6935 -0.1378 -0.6492
   18CHTO   H45 7543   5.822   8.031  -0.834  0.3920 -0.4348  1.4224
   18CHTO   H46 7544   5.729   7.943  -0.956  1.7296  2.8946 -1.8676
   18CHTO   C33 7545   5.796   7.742  -0.805  0.1157 -0.0942 -0.3541
   18CHTO   H61 7546   5.762   7.707  -0.904 -2.0779  0.9297  0.0036
   18CHTO   O18 7547   5.773   7.640  -0.707  0.1596  0.0004  0.0505
   18CHTO   C28 7548   5.642   7.591  -0.708 -0.2976  0.5441  0.2715
   18CHTO   H56 7549   5.606   7.566  -0.807  0.1093 -0.0702  0.2777
   18CHTO   C35 7550   5.644   7.461  -0.616  0.2788 -0.0327  0.0931
   18CHTO   O24 7551   5.724   7.358  -0.676 -0.3398 -0.2071  0.5196
   18CHTO   H39 7552   5.720   7.273  -0.636 -2.3532 -1.9091 -3.0357
   18CHTO    O9 7553   5.937   7.762  -0.826  0.3124 -0.0717  0.0646
   18CHTO   C13 7554   6.021   7.668  -0.954 -0.1919 -0.1787 -0.3786
   18CHTO   H26 7555   5.998   7.727  -1.046  0.6746  1.7264  0.6001
   18CHTO   C11 7556   5.965   7.521  -0.962 -0.0057  0.2560  0.1308
   18CHTO   H24 7557   5.871   7.530  -1.019  0.1166  1.4826  0.0900
   18CHTO    O8 7558   5.949   7.471  -0.833  0.0100  0.0149  0.2944
   18CHTO    H3 7559   5.892   7.527  -0.783 -0.7280 -1.2060  0.8455
   18CHTO    C9 7560   6.068   7.432  -1.044 -0.1185 -0.1557 -0.4545
   18CHTO   H22 7561   6.087   7.489  -1.136  2.1672  1.2031  0.8144
   18CHTO    N2 7562   6.003   7.305  -1.100  0.1842  0.2350  0.3784
   18CHTO   H10 7563   6.078   7.257  -1.161 -1.4890  0.8204 -2.1866
   18CHTO   H11 7564   5.926   7.338  -1.168  0.0178  1.2746  1.0711
   18CHTO    C7 7565   6.194   7.411  -0.965 -0.2423 -0.0041  0.4281
   18CHTO   H20 7566   6.261   7.373  -1.045 -1.0055 -0.5457  0.0386
   18CHTO    O4 7567   6.244   7.528  -0.897  0.4353 -0.7337 -0.0655
   18CHTO   C14 7568   6.181   7.651  -0.934 -0.0881 -0.1662  0.2935
   18CHTO   H27 7569   6.221   7.678  -1.033 -1.4343 -0.4421 -0.3377
   18CHTO   C18 7570   6.232   7.760  -0.832  0.0124 -0.6191  0.2835
   18CHTO   O13 7571   6.189   7.737  -0.696  0.3759 -0.2131  0.1208
   18CHTO    H7 7572   6.246   7.782  -0.637 -0.6360  1.0358  0.1854
   18CHTO    O2 7573   6.166   7.278  -0.854 -0.2534  0.2797  0.2690
   18CHTO    C1 7574   6.292   7.240  -0.795  0.8641 -0.7022 -0.2251
   18CHTO   H14 7575   6.367   7.320  -0.815 -1.4934  1.2796 -1.3724
   18CHTO    C2 7576   6.351   7.101  -0.847 -0.0299 -0.2842 -0.0345
   18CHTO   H15 7577   6.271   7.026  -0.834 -0.7937  0.2973 -1.3022
   18CHTO    O6 7578   6.389   7.122  -0.988 -0.5387 -0.0478 -0.5744
   18CHTO    H1 7579   6.482   7.131  -0.995 -0.3512  0.1631  1.7349
   18CHTO    C3 7580   6.478   7.052  -0.759  0.0387  0.5246 -0.8367
   18CHTO   H16 7581   6.561   7.121  -0.782  1.7737 -1.4082 -0.5738
   18CHTO    N1 7582   6.523   6.913  -0.799 -0.3053  0.0276 -0.1604
   18CHTO    H8 7583   6.455   6.838  -0.763 -0.6890 -0.4064 -1.7445
   18CHTO    H9 7584   6.521   6.909  -0.907  0.8992 -1.6417 -0.1395
   18CHTO    C4 7585   6.456   7.070  -0.602  0.3782  0.2403  0.4010
   18CHTO   H17 7586   6.394   6.989  -0.565  1.4897 -0.7784  0.0682
   18CHTO    O1 7587   6.396   7.201  -0.573  0.1889 -0.5230 -0.3968
   18CHTO    C5 7588   6.271   7.230  -0.639  0.2481  0.0334  0.2043
   18CHTO   H18 7589   6.189   7.160  -0.625 -0.5668  0.5524 -1.7438
   18CHTO   C16 7590   6.224   7.365  -0.581 -0.5734  0.4989 -0.9897
   18CHTO   O11 7591   6.318   7.475  -0.592 -0.2816  0.5110 -0.3685
   18CHTO    H5 7592   6.404   7.457  -0.559 -0.8296 -0.6272  0.5015
   18CHTO    O3 7593   6.580   7.058  -0.529 -0.2926 -0.2252 -0.5026
   18CHTO    C6 7594   6.566   7.015  -0.389  0.1611  0.2754  0.2772
   18CHTO   H19 7595   6.463   7.024  -0.354 -0.3490  2.5159 -1.6454
   18CHTO    C8 7596   6.600   6.865  -0.380 -0.1160 -0.6855  0.6639
   18CHTO   H21 7597   6.700   6.851  -0.421 -0.5024 -1.8308  0.1021
   18CHTO    O7 7598   6.503   6.784  -0.455 -0.0207 -0.1519 -0.2833
   18CHTO    H2 7599   6.544   6.703  -0.478 -0.3577  0.0083 -1.4594
   18CHTO   C12 7600   6.606   6.813  -0.232 -0.6703 -0.7069 -0.1408
   18CHTO   H25 7601   6.505   6.805  -0.186 -0.7103  3.1287  0.6005
   18CHTO    N3 7602   6.657   6.671  -0.229 -0.0602  0.5704 -0.0444
   18CHTO   H12 7603   6.753   6.662  -0.181  0.0795  0.9469 -0.2508
   18CHTO   H13 7604   6.624   6.592  -0.295  0.4507  1.3425 -1.2479
   18CHTO   C15 7605   6.683   6.917  -0.146 -0.1299  0.3520 -0.1206
   18CHTO   H28 7606   6.792   6.905  -0.152 -0.0905 -1.0018  2.5176
   18CHTO   O10 7607   6.652   6.893   0.000  0.1521  0.1965 -0.5354
   18CHTO    H4 7608   6.563   6.908   0.025 -0.5044 -1.1453 -2.0471
   18CHTO    O5 7609   6.633   7.052  -0.153 -0.3265 -0.1978 -0.3238
   18CHTO   C10 7610   6.649   7.096  -0.289 -0.9432  0.2013 -0.0295
   18CHTO   H23 7611   6.753   7.085  -0.319 -0.9979  2.6955 -1.2836
   18CHTO   C17 7612   6.612   7.246  -0.297 -0.7697 -0.5935  0.0551
   18CHTO   O12 7613   6.641   7.306  -0.424 -0.1141  0.0180 -0.3205
   18CHTO    H6 7614   6.587   7.264  -0.488  0.5315  2.6076 -2.7036
   19CHTO  H203 7615   6.451   8.563   1.116  1.9590  0.3025 -1.6279
   19CHTO   O82 7616   6.455   8.470   1.100 -0.2439 -0.1156 -0.0264
   19CHTO  C123 7617   6.338   8.437   1.024 -0.3972 -0.2474 -0.2934
   19CHTO  H227 7618   6.330   8.503   0.936 -1.7734  1.1645  0.8538
   19CHTO   O77 7619   6.355   8.295   0.981  0.0005 -0.4646  0.4804
   19CHTO  C118 7620   6.254   8.251   0.883  0.2762  0.3821 -0.1085
   19CHTO  H222 7621   6.257   8.312   0.792 -1.5348  1.3468  0.4590
   19CHTO  C125 7622   6.304   8.110   0.840  0.1890 -0.1911 -0.3231
   19CHTO   O84 7623   6.337   8.025   0.956 -0.0583  0.7531  0.1063
   19CHTO  H205 7624   6.400   8.066   1.013 -1.0292  0.8628  1.1111
   19CHTO  C114 7625   6.121   8.256   0.957 -0.5091  0.5068  0.0427
   19CHTO  H218 7626   6.124   8.179   1.034  0.9376  1.0132  0.5266
   19CHTO  C116 7627   6.083   8.397   1.014 -0.6480  0.2125  0.2286
   19CHTO  H220 7628   6.049   8.467   0.935 -1.4184 -1.7376 -1.1784
   19CHTO   O79 7629   5.965   8.382   1.096  0.6743 -0.4754  0.2602
   19CHTO  H201 7630   5.890   8.355   1.048  0.4273  1.7747 -0.6658
   19CHTO  C120 7631   6.200   8.448   1.106 -0.3973  0.7147 -0.2007
   19CHTO  H224 7632   6.200   8.381   1.194 -0.4961  0.6917 -0.2186
   19CHTO   N21 7633   6.176   8.582   1.157 -0.4073 -0.0659  0.0238
   19CHTO  H211 7634   6.233   8.596   1.247  1.1187  2.1596 -1.2438
   19CHTO  H212 7635   6.189   8.650   1.073 -0.5946  0.9621  0.8235
   19CHTO   O75 7636   6.032   8.208   0.858  0.1643 -0.0571  0.8083
   19CHTO  C112 7637   5.898   8.127   0.926 -0.1737 -0.4644 -0.3885
   19CHTO  H216 7638   5.850   8.193   1.000  0.6346  1.5078 -1.5877
   19CHTO   O73 7639   5.952   8.010   0.984  0.3795 -0.3320 -0.2465
   19CHTO  C113 7640   5.860   7.917   1.048  0.4386 -0.1418 -0.0452
   19CHTO  H217 7641   5.797   7.966   1.125 -1.5919 -0.1927 -1.6422
   19CHTO  C124 7642   5.939   7.796   1.105  0.9862  0.1620  0.4622
   19CHTO   O83 7643   6.022   7.826   1.216 -0.5344  0.7373  0.1815
   19CHTO  H204 7644   5.971   7.872   1.280 -0.0323 -1.8827  2.6022
   19CHTO  C109 7645   5.745   7.867   0.956  0.1782  1.3076  0.1873
   19CHTO  H213 7646   5.790   7.789   0.892  1.3095 -0.5441  3.1024
   19CHTO  C110 7647   5.688   7.982   0.868  0.7008  0.4670 -0.4104
   19CHTO  H214 7648   5.609   8.029   0.927  0.4889 -0.2008 -0.1536
   19CHTO   O78 7649   5.616   7.919   0.760  0.1127 -0.1362 -0.0934
   19CHTO  H200 7650   5.665   7.852   0.717 -0.4106 -0.7295  0.2321
   19CHTO  C111 7651   5.805   8.076   0.812  0.7654  0.0897  0.6952
   19CHTO  H215 7652   5.855   8.022   0.729 -1.7258 -0.9111 -0.2031
   19CHTO   N19 7653   5.747   8.196   0.755 -0.3228 -0.5640 -0.4278
   19CHTO  H207 7654   5.785   8.226   0.659  0.1027  0.9805  0.1945
   19CHTO  H208 7655   5.640   8.202   0.755 -0.4353 -1.8591  2.0693
   19CHTO   O74 7656   5.642   7.796   1.036  0.0273  0.7545  0.5961
   19CHTO  C115 7657   5.565   7.680   0.967 -0.3960  0.2875  0.9689
   19CHTO  H219 7658   5.503   7.714   0.884 -0.0328 -1.6803 -0.1444
   19CHTO   O76 7659   5.660   7.574   0.904  0.2220  0.1110  0.2801
   19CHTO  C122 7660   5.731   7.497   0.999  0.0792 -0.2093 -0.6995
   19CHTO  H226 7661   5.806   7.567   1.038  0.6866 -0.1251 -1.9807
   19CHTO  C126 7662   5.806   7.389   0.933 -0.3810 -0.3575  0.3238
   19CHTO   O85 7663   5.907   7.432   0.842  0.0136  0.2841 -0.1751
   19CHTO  H206 7664   5.876   7.500   0.785 -0.6518 -0.7762 -1.1117
   19CHTO  C121 7665   5.651   7.434   1.111 -0.1316  0.0014 -0.1394
   19CHTO  H225 7666   5.670   7.325   1.114  0.1764  0.0364 -0.9395
   19CHTO   O81 7667   5.687   7.489   1.238 -0.2870  0.1506  0.0680
   19CHTO  H202 7668   5.753   7.438   1.281  1.7464  3.8961  1.6472
   19CHTO  C119 7669   5.500   7.460   1.083  0.0328 -0.1479 -0.0719
   19CHTO  H223 7670   5.480   7.407   0.990 -0.0750 -1.9171  0.9255
   19CHTO  C117 7671   5.471   7.620   1.078 -0.3513 -0.1267  0.7470
   19CHTO  H221 7672   5.491   7.674   1.171 -0.6528  1.5694 -0.1416
   19CHTO   N20 7673   5.324   7.643   1.045  0.4154 -0.1367 -0.2001
   19CHTO  H209 7674   5.255   7.613   1.122  1.0413 -0.7079  0.1390
   19CHTO  H210 7675   5.312   7.749   1.024 -0.0990 -0.0657  0.4260
   19CHTO   O80 7676   5.412   7.392   1.175  0.4003 -0.5071  1.0888
   19CHTO  C103 7677   5.417   7.252   1.181 -1.3578 -0.1016  0.1640
   19CHTO  H190 7678   5.476   7.208   1.101 -1.4238 -0.3140  0.2314
   19CHTO  C101 7679   5.457   7.192   1.318  0.1774  0.4649 -0.0247
   19CHTO  H188 7680   5.402   7.242   1.398 -0.1511  0.2713 -0.1304
   19CHTO   O68 7681   5.609   7.214   1.337 -0.5709 -0.5095 -0.0158
   19CHTO  H168 7682   5.654   7.164   1.272  0.9480  1.6540 -0.6937
   19CHTO   C99 7683   5.431   7.030   1.317  0.1987 -0.1905 -0.6251
   19CHTO  H186 7684   5.484   6.986   1.230  0.4580 -0.6822 -0.2234
   19CHTO   N17 7685   5.471   6.954   1.444 -0.2890  0.7824 -0.0677
   19CHTO  H174 7686   5.576   6.978   1.455 -0.4067  0.3501  2.1276
   19CHTO  H175 7687   5.421   6.984   1.534  1.6418  0.8028  1.0246
   19CHTO   C97 7688   5.278   7.007   1.292 -0.3759 -0.3015 -0.3118
   19CHTO  H184 7689   5.219   7.059   1.369 -0.8584 -0.8139 -0.3327
   19CHTO   O64 7690   5.253   7.065   1.163 -0.0828  0.1034 -0.3696
   19CHTO  C104 7691   5.265   7.207   1.161 -0.0548  0.5835  0.1113
   19CHTO  H191 7692   5.203   7.250   1.239  1.0728  0.9190  0.8365
   19CHTO  C108 7693   5.202   7.266   1.030 -0.1786  0.1481  0.6960
   19CHTO   O71 7694   5.275   7.222   0.915  0.3216  0.1719 -0.1287
   19CHTO  H171 7695   5.291   7.129   0.915 -0.6259 -0.0103 -1.6347
   19CHTO   O62 7696   5.242   6.871   1.280 -0.3284 -0.1857 -0.5295
   19CHTO   C91 7697   5.099   6.854   1.260  0.6945  0.1994 -0.0869
   19CHTO  H178 7698   5.050   6.926   1.326  1.5995  2.1970 -1.5349
   19CHTO   C92 7699   5.063   6.714   1.310  0.0155  0.0630  0.7625
   19CHTO  H179 7700   5.125   6.687   1.397  0.0428  0.1667  0.7747
   19CHTO   O66 7701   4.924   6.717   1.342  0.0327  0.1512 -0.8691
   19CHTO  H166 7702   4.889   6.632   1.364 -1.2481  1.2149  1.3176
   19CHTO   C93 7703   5.089   6.597   1.196 -0.2338 -0.3772  0.1359
   19CHTO  H180 7704   5.032   6.509   1.231  0.2473  0.1692  2.3282
   19CHTO   N16 7705   5.232   6.559   1.181 -0.3838  0.6209 -0.0289
   19CHTO  H172 7706   5.242   6.455   1.208  1.4352  0.5637 -0.8461
   19CHTO  H173 7707   5.289   6.593   1.096  2.1879 -2.0373  0.5661
   19CHTO   C94 7708   5.040   6.648   1.055  0.2611 -0.4837 -0.2472
   19CHTO  H181 7709   5.122   6.677   0.988 -0.8086 -3.0302 -2.7416
   19CHTO   O61 7710   4.956   6.765   1.072 -0.0655  0.0314 -0.2685
   19CHTO   C95 7711   5.031   6.874   1.115  0.2072 -0.7107  0.1302
   19CHTO  H182 7712   5.101   6.899   1.035 -0.1755  1.4078  0.4445
   19CHTO  C106 7713   4.932   6.995   1.123 -0.1700  0.4970  0.8788
   19CHTO   O69 7714   4.865   7.011   1.001 -0.9113 -0.1148  0.0780
   19CHTO  H169 7715   4.773   7.000   1.015 -0.6221 -2.3279  0.3563
   19CHTO   O63 7716   4.948   6.542   1.000 -0.7950  0.0292 -0.7135
   19CHTO   C96 7717   5.008   6.463   0.882  0.0983  0.2610 -0.3583
   19CHTO  H183 7718   5.105   6.432   0.921 -0.9227 -0.0666  1.9685
   19CHTO   C98 7719   5.016   6.551   0.760 -0.3130  0.2814 -0.2259
   19CHTO  H185 7720   5.045   6.654   0.785 -1.2850  0.7536 -1.0221
   19CHTO   O67 7721   5.122   6.502   0.675 -0.0069 -0.6415  0.2539
   19CHTO  H167 7722   5.118   6.541   0.589 -0.9498 -2.3916 -0.5148
   19CHTO  C102 7723   4.882   6.554   0.672  0.4277  0.1127  0.6358
   19CHTO  H189 7724   4.910   6.591   0.572  1.6417  0.9918  1.2959
   19CHTO   N18 7725   4.772   6.651   0.719  0.2409  0.4395 -0.8288
   19CHTO  H176 7726   4.676   6.619   0.755  0.9695 -1.2677 -0.3423
   19CHTO  H177 7727   4.815   6.736   0.771  3.8527 -0.8567 -1.5672
   19CHTO  C105 7728   4.825   6.409   0.648 -0.1373  0.6629 -0.5686
   19CHTO  H192 7729   4.720   6.405   0.677 -0.1027  0.9163 -0.4078
   19CHTO   O65 7730   4.903   6.311   0.717  0.0221  0.7030 -0.2767
   19CHTO  C100 7731   4.925   6.334   0.857  0.0562 -0.4552 -0.1053
   19CHTO  H187 7732   4.828   6.348   0.906 -0.0033  1.4688 -0.7466
   19CHTO  C107 7733   4.990   6.219   0.932  0.6069  0.3327 -0.3894
   19CHTO   O70 7734   4.902   6.108   0.935 -0.4289 -0.3842 -0.3891
   19CHTO  H170 7735   4.853   6.119   1.014  0.2721 -3.0424  0.4525
   19CHTO   O57 7736   4.855   6.388   0.492  0.2844 -0.3112 -0.1925
   19CHTO   C85 7737   4.752   6.339   0.414  0.4740 -0.2855 -0.0646
   19CHTO  H157 7738   4.686   6.279   0.479 -0.3878  0.6826 -0.0323
   19CHTO   C83 7739   4.806   6.234   0.317 -0.1196  0.4394 -0.1591
   19CHTO  H155 7740   4.855   6.160   0.381 -0.0435 -0.0038 -0.7310
   19CHTO   O56 7741   4.911   6.287   0.246 -0.3937  0.0078 -0.4230
   19CHTO  H135 7742   4.879   6.349   0.184 -2.8865 -0.1965  0.6052
   19CHTO   C81 7743   4.689   6.165   0.248  0.9257  0.2108 -0.0876
   19CHTO  H153 7744   4.623   6.130   0.327  0.1882  0.7802 -0.4435
   19CHTO   N14 7745   4.726   6.044   0.178  0.2453  0.4069  0.1297
   19CHTO  H141 7746   4.738   5.969   0.253 -0.2634 -0.2589 -0.4436
   19CHTO  H142 7747   4.641   6.015   0.119 -0.5236  1.7293  0.5641
   19CHTO   C79 7748   4.613   6.270   0.160  0.5556 -0.1008 -0.0633
   19CHTO  H151 7749   4.527   6.220   0.117 -0.6183  3.5822 -2.2636
   19CHTO   O52 7750   4.561   6.372   0.247  0.3555 -0.6980  0.3887
   19CHTO   C86 7751   4.669   6.440   0.322 -0.2730  0.6670  0.5217
   19CHTO  H158 7752   4.729   6.483   0.238 -0.1446  3.4787  2.0015
   19CHTO   C90 7753   4.614   6.558   0.387  0.1996  0.2788  0.3611
   19CHTO   O60 7754   4.524   6.511   0.486  0.1577 -0.3296 -0.5408
   19CHTO  H138 7755   4.442   6.516   0.441 -1.1988  2.6813  2.1357
   19CHTO   O50 7756   4.698   6.332   0.056  0.3432  0.3042 -0.6539
   19CHTO   C73 7757   4.728   6.341  -0.085  0.1892  0.7633  0.4665
   19CHTO  H145 7758   4.699   6.250  -0.140  0.8183  0.4527  0.6405
   19CHTO   C74 7759   4.876   6.351  -0.103 -0.6260  0.6165 -0.0452
   19CHTO  H146 7760   4.922   6.265  -0.053 -1.4064  1.4810  2.2137
   19CHTO   O54 7761   4.901   6.336  -0.247 -0.4898  0.1421  0.1510
   19CHTO  H133 7762   4.989   6.313  -0.270 -0.4439 -0.5549  0.9632
   19CHTO   C75 7763   4.931   6.490  -0.041  0.4424  0.6761  0.0612
   19CHTO  H147 7764   4.914   6.486   0.068  0.8188  1.2025  0.1417
   19CHTO   N13 7765   5.076   6.505  -0.059 -0.2248 -0.4594 -0.0285
   19CHTO  H139 7766   5.100   6.441  -0.142 -0.2741 -0.5487  0.0261
   19CHTO  H140 7767   5.112   6.604  -0.085  0.0075 -0.6236 -0.3237
   19CHTO   C76 7768   4.836   6.607  -0.096 -0.6827  0.2270  0.4132
   19CHTO  H148 7769   4.858   6.624  -0.202 -1.2841  2.5111  0.6214
   19CHTO   O49 7770   4.696   6.579  -0.076  0.4163 -0.1130  0.2028
   19CHTO   C77 7771   4.656   6.468  -0.150 -0.0513  0.2197 -0.1921
   19CHTO  H149 7772   4.688   6.482  -0.254  0.7226 -1.1462 -0.1618
   19CHTO   C88 7773   4.504   6.462  -0.143  0.1551 -0.4716 -0.3006
   19CHTO   O58 7774   4.447   6.355  -0.228  0.2530 -0.3245  0.0027
   19CHTO  H136 7775   4.483   6.272  -0.203 -0.6626 -1.0373 -0.9870
   19CHTO   O51 7776   4.857   6.722  -0.019  0.2257  0.4067 -0.2130
   19CHTO   C78 7777   4.813   6.869  -0.090 -0.2813 -0.1241 -0.1545
   19CHTO  H150 7778   4.757   6.849  -0.183 -2.4259  1.9690  0.6523
   19CHTO   C80 7779   4.936   6.956  -0.120 -0.4424 -1.0351 -0.2126
   19CHTO  H152 7780   4.985   6.982  -0.024 -0.1230 -0.2409 -0.5907
   19CHTO   O55 7781   5.034   6.890  -0.203 -0.2875  0.0565 -0.1125
   19CHTO  H134 7782   5.109   6.884  -0.146 -0.5193 -0.6554  0.1180
   19CHTO   C84 7783   4.900   7.094  -0.190 -0.1554  0.4246 -0.3816
   19CHTO  H156 7784   4.843   7.074  -0.280 -0.2283  0.9702 -0.4532
   19CHTO   N15 7785   5.023   7.180  -0.219 -0.0088 -0.5691  0.0391
   19CHTO  H143 7786   5.054   7.158  -0.319 -2.2147  2.0324 -1.2845
   19CHTO  H144 7787   5.100   7.156  -0.149  0.2615  3.3129  1.2209
   19CHTO   C87 7788   4.795   7.167  -0.101  0.5809 -0.1226 -0.2500
   19CHTO  H159 7789   4.847   7.207  -0.014  1.1647 -0.0087 -0.6470
   19CHTO   O53 7790   4.685   7.070  -0.056 -0.2469 -0.2723  0.1674
   19CHTO   C82 7791   4.722   6.948   0.008 -0.4236  0.6360  0.5150
   19CHTO  H154 7792   4.771   6.965   0.103  0.5658  4.0291 -0.5291
   19CHTO   C89 7793   4.595   6.852   0.042 -0.1800  0.3079 -0.3796
   19CHTO   O59 7794   4.509   6.911   0.139  0.4313  0.2204  0.0177
   19CHTO  H137 7795   4.419   6.886   0.133  1.1642 -2.7676  0.6362
   19CHTO   O45 7796   4.739   7.284  -0.194  0.0844 -0.0485 -0.0278
   19CHTO   C67 7797   4.623   7.354  -0.148 -0.5141 -0.7445  0.1046
   19CHTO  H124 7798   4.566   7.297  -0.074  0.0763  1.5629  2.4111
   19CHTO   C65 7799   4.663   7.494  -0.095 -0.3352  0.0006 -0.3469
   19CHTO  H122 7800   4.748   7.525  -0.156  0.6348  1.6565  1.7702
   19CHTO   O44 7801   4.704   7.484   0.037 -0.4974 -0.1448 -0.2692
   19CHTO  H102 7802   4.648   7.433   0.092 -1.1925  1.5455  0.6196
   19CHTO   C63 7803   4.557   7.603  -0.125  0.2647 -0.0567 -0.2862
   19CHTO  H120 7804   4.577   7.637  -0.227  2.5109 -1.2889 -0.2862
   19CHTO   N11 7805   4.578   7.737  -0.059  0.0467 -0.0825  0.4078
   19CHTO  H108 7806   4.673   7.776  -0.089  0.2345 -2.1487 -1.8502
   19CHTO  H109 7807   4.581   7.711   0.045  1.9566 -2.9860 -0.3240
   19CHTO   C61 7808   4.412   7.539  -0.133 -0.2110  0.2500  0.2207
   19CHTO  H118 7809   4.357   7.624  -0.176 -1.3901 -1.0866 -0.9499
   19CHTO   O40 7810   4.411   7.443  -0.239  0.0550  0.1362 -0.8960
   19CHTO   C68 7811   4.533   7.362  -0.274 -0.4506  0.3636 -0.2062
   19CHTO  H125 7812   4.590   7.415  -0.353  1.3840 -0.4359  0.5624
   19CHTO   C72 7813   4.487   7.230  -0.331 -0.1273  0.2775 -0.3925
   19CHTO   O48 7814   4.430   7.142  -0.233 -0.3916  0.3375  0.5065
   19CHTO  H105 7815   4.389   7.070  -0.277  2.3214 -0.9282 -0.0753
   19CHTO   O38 7816   4.359   7.498  -0.009  1.0209 -0.0799 -0.0958
   19CHTO   C55 7817   4.255   7.401  -0.016  0.3672 -0.1973 -0.0089
   19CHTO  H112 7818   4.270   7.328  -0.097 -2.0321 -0.9557  0.2078
   19CHTO   C56 7819   4.110   7.473  -0.028  0.2276 -0.0419  0.5749
   19CHTO  H113 7820   4.091   7.531   0.064 -0.8787 -0.4945  0.6330
   19CHTO   O42 7821   4.112   7.561  -0.142 -0.0987 -0.3776  0.1773
   19CHTO  H100 7822   4.149   7.519  -0.217  0.4363 -1.6165  1.1293
   19CHTO   C57 7823   3.998   7.367  -0.031  0.0227  0.4108  0.0057
   19CHTO  H114 7824   4.024   7.307  -0.118  0.2728  0.6663 -0.0988
   19CHTO   N10 7825   3.865   7.438  -0.035  0.5151 -0.1972 -0.2007
   19CHTO  H106 7826   3.795   7.366  -0.075 -1.3114 -0.1981  2.8997
   19CHTO  H107 7827   3.865   7.526  -0.098  0.4514  0.7311  1.0845
   19CHTO   C58 7828   4.008   7.271   0.093 -0.0969 -0.7146  0.0468
   19CHTO  H115 7829   3.988   7.333   0.183 -0.1170  1.0795 -1.1689
   19CHTO   O37 7830   4.138   7.215   0.106  0.4930  0.4130 -0.4337
   19CHTO   C59 7831   4.248   7.309   0.117  0.6272  0.2634  0.3201
   19CHTO  H116 7832   4.238   7.368   0.207 -1.7361  0.3057  0.0517
   19CHTO   C70 7833   4.374   7.220   0.117 -0.2051  0.3358 -0.3830
   19CHTO   O46 7834   4.393   7.134   0.233 -0.1215  0.0472  0.1807
   19CHTO  H103 7835   4.478   7.096   0.230  0.0630  0.5309 -1.9376
   19CHTO   O39 7836   3.891   7.143   0.091 -0.5772 -0.0362  0.2557
   19CHTO   C60 7837   3.888   7.062  -0.023 -0.5882  0.1348 -0.2248
   19CHTO  H117 7838   3.918   7.109  -0.117  1.4340  0.0343  0.3455
   19CHTO   C62 7839   3.990   6.944  -0.002 -0.0311  0.3021 -0.9355
   19CHTO  H119 7840   4.089   6.995  -0.004 -0.2368  0.6649 -2.0366
   19CHTO   O43 7841   3.962   6.871   0.123 -0.5187 -0.4698 -0.0537
   19CHTO  H101 7842   3.968   6.925   0.199 -1.8115 -1.0129  0.4469
   19CHTO   C66 7843   3.995   6.846  -0.125 -0.8354 -0.0008  0.6006
   19CHTO  H123 7844   3.995   6.908  -0.215  0.9805  1.0510  1.2864
   19CHTO   N12 7845   4.115   6.761  -0.128  0.9748 -0.4355 -0.0445
   19CHTO  H110 7846   4.110   6.679  -0.198  0.0108 -0.4091 -0.0253
   19CHTO  H111 7847   4.131   6.713  -0.033  1.5128  0.5068  0.3438
   19CHTO   C69 7848   3.850   6.794  -0.130 -0.3665  0.4321  0.0183
   19CHTO  H126 7849   3.817   6.750  -0.034  1.5020 -0.3435  0.3374
   19CHTO   O41 7850   3.752   6.906  -0.159  0.7687 -0.0969 -0.1232
   19CHTO   C64 7851   3.747   7.000  -0.043 -0.4524  0.1736  0.4033
   19CHTO  H121 7852   3.705   6.947   0.045  0.8306  0.6687  1.3373
   19CHTO   C71 7853   3.652   7.114  -0.074  0.8310  0.4142 -0.0687
   19CHTO   O47 7854   3.523   7.064  -0.112  0.7672 -0.1533  0.7197
   19CHTO  H104 7855   3.513   7.074  -0.205 -0.8557 -0.4438  0.8451
   19CHTO   O34 7856   3.840   6.678  -0.245 -0.3524  0.3917  0.0972
   19CHTO   C49 7857   3.781   6.581  -0.363 -0.6319 -0.0710 -0.4250
   19CHTO   H91 7858   3.679   6.552  -0.339 -0.4991 -0.7963 -0.6972
   19CHTO   C47 7859   3.866   6.456  -0.356 -0.0081 -0.3278  0.8513
   19CHTO   H89 7860   3.815   6.383  -0.423  0.1999  1.8683 -1.7717
   19CHTO   O33 7861   3.875   6.404  -0.217 -0.1024  0.1828  0.2177
   19CHTO   H70 7862   3.823   6.449  -0.153  1.0249  0.6338  0.8418
   19CHTO   C45 7863   4.020   6.483  -0.410 -0.3610 -1.3599  0.3569
   19CHTO   H87 7864   4.073   6.512  -0.318 -0.2640  1.0532 -0.4458
   19CHTO    N8 7865   4.076   6.354  -0.453  0.9862  0.1653  0.4040
   19CHTO   H75 7866   4.039   6.319  -0.548 -0.1049  3.4259 -0.4724
   19CHTO   H76 7867   4.184   6.351  -0.444  1.0016  2.6912  1.6493
   19CHTO   C43 7868   4.033   6.611  -0.504 -0.6619  0.1394  0.4920
   19CHTO   H85 7869   4.038   6.696  -0.437 -2.9440  0.6989 -0.0118
   19CHTO   O29 7870   3.913   6.613  -0.584 -0.1260 -0.5414  0.0696
   19CHTO   C50 7871   3.790   6.635  -0.517  0.2594 -0.0349 -0.0658
   19CHTO   H92 7872   3.782   6.744  -0.505 -0.1080 -0.0285 -0.3891
   19CHTO   C54 7873   3.670   6.593  -0.603  0.3173  0.0554 -0.6832
   19CHTO   O36 7874   3.652   6.666  -0.725  0.0822  0.0599  0.6477
   19CHTO   H72 7875   3.564   6.696  -0.730  0.3291  0.5026 -1.8706
   19CHTO   O27 7876   4.156   6.627  -0.584  0.1424 -0.0860  0.5712
   19CHTO   C37 7877   4.258   6.701  -0.657  0.3334  0.1158 -0.9437
   19CHTO   H79 7878   4.290   6.646  -0.746 -0.0372 -0.1204 -0.9324
   19CHTO   C38 7879   4.196   6.840  -0.713  0.4601 -0.2834  0.6634
   19CHTO   H80 7880   4.142   6.891  -0.633 -0.7783 -0.8280  0.1880
   19CHTO   O31 7881   4.099   6.808  -0.811 -0.2851  0.2371  0.1637
   19CHTO   H68 7882   4.042   6.879  -0.834  0.6831  0.6263 -1.1008
   19CHTO   C39 7883   4.310   6.940  -0.780 -0.1174  0.2544  0.1677
   19CHTO   H81 7884   4.350   6.892  -0.869 -1.9742 -1.6000  0.2911
   19CHTO    N7 7885   4.254   7.068  -0.818  0.0876  0.5366  0.7797
   19CHTO   H73 7886   4.329   7.138  -0.852 -0.6721  1.0287  0.0908
   19CHTO   H74 7887   4.199   7.048  -0.909  0.5073 -1.6444  0.9968
   19CHTO   C40 7888   4.442   6.951  -0.691  0.0228  0.0218  0.6389
   19CHTO   H82 7889   4.417   7.013  -0.605 -1.4218  1.2468 -0.6338
   19CHTO   O26 7890   4.481   6.813  -0.655  0.5440  0.5505 -0.1718
   19CHTO   C41 7891   4.382   6.740  -0.570 -0.3203 -0.1497 -0.4229
   19CHTO   H83 7892   4.336   6.808  -0.497  1.8418 -0.0320  0.8879
   19CHTO   C52 7893   4.449   6.615  -0.509  0.1984  0.1971  0.0593
   19CHTO   O35 7894   4.533   6.541  -0.599 -0.2954  0.9435 -0.4189
   19CHTO   H71 7895   4.620   6.576  -0.598 -0.2879  0.9903 -1.5002
   19CHTO   O28 7896   4.555   7.014  -0.762 -0.7858 -0.3424  0.4502
   19CHTO   C42 7897   4.657   7.082  -0.684 -0.0554  0.6722 -0.9415
   19CHTO   H84 7898   4.626   7.054  -0.583  1.7047 -0.4687 -0.7018
   19CHTO   C44 7899   4.662   7.237  -0.687 -0.3103  0.3346 -1.1847
   19CHTO   H86 7900   4.683   7.270  -0.789  0.5006  2.3506 -0.3756
   19CHTO   O32 7901   4.532   7.290  -0.660 -0.9484  0.6567  0.4979
   19CHTO   H69 7902   4.489   7.299  -0.743 -1.9585  0.2383  0.9687
   19CHTO   C48 7903   4.781   7.299  -0.599 -0.3881 -0.4589  0.1038
   19CHTO   H90 7904   4.776   7.280  -0.492  1.5873 -1.6034  0.0287
   19CHTO    N9 7905   4.788   7.447  -0.600 -0.3097  0.1498 -0.1019
   19CHTO   H77 7906   4.891   7.479  -0.600 -0.7105  1.4847 -0.9597
   19CHTO   H78 7907   4.738   7.481  -0.510  0.6545  2.3068 -0.3416
   19CHTO   C51 7908   4.916   7.237  -0.657 -0.5100 -0.0393 -0.9289
   19CHTO   H93 7909   4.923   7.258  -0.764 -3.8282 -0.6439 -1.3115
   19CHTO   O30 7910   4.915   7.099  -0.628  0.0225  0.1570  0.0246
   19CHTO   C46 7911   4.798   7.018  -0.713 -0.3413  0.1476 -0.3888
   19CHTO   H88 7912   4.824   7.029  -0.819  0.4881  3.1107  0.0658
   19CHTO   C53 7913   4.800   6.872  -0.657 -0.2072 -0.2033  0.5656
   19CHTO   O72 7914   4.928   6.817  -0.640 -0.3368  0.0382 -0.3977
   19CHTO  H199 7915   4.936   6.776  -0.556 -0.0007 -1.3043 -1.0694
   19CHTO   O22 7916   5.040   7.281  -0.594 -0.1162 -0.4493  0.4408
   19CHTO   C31 7917   5.155   7.242  -0.677  0.5749 -0.1465 -0.5683
   19CHTO   H59 7918   5.128   7.152  -0.735  2.4014  0.0693 -1.7991
   19CHTO   C29 7919   5.206   7.346  -0.778 -0.0905  0.9689 -0.1766
   19CHTO   H57 7920   5.262   7.432  -0.741 -0.4428  0.8148  0.7172
   19CHTO   O21 7921   5.087   7.418  -0.833  0.1493  0.0223  0.2652
   19CHTO   H37 7922   5.114   7.497  -0.876 -1.5779  0.2431 -0.4683
   19CHTO   C27 7923   5.294   7.275  -0.881  0.1866 -0.4814  0.3618
   19CHTO   H55 7924   5.237   7.197  -0.933  0.8790 -2.5503  2.6048
   19CHTO    N5 7925   5.344   7.366  -0.984 -0.4323 -0.0552 -0.3522
   19CHTO   H43 7926   5.294   7.347  -1.077 -0.4084 -0.0779 -0.3608
   19CHTO   H44 7927   5.452   7.364  -0.979 -0.4419 -2.6705 -0.3249
   19CHTO   C25 7928   5.411   7.191  -0.813 -0.2769  0.9264 -0.5303
   19CHTO   H53 7929   5.500   7.252  -0.794  0.1936  0.2783 -0.6415
   19CHTO   O17 7930   5.377   7.130  -0.681 -0.2358  0.2834 -0.1754
   19CHTO   C32 7931   5.280   7.199  -0.591  0.2768  0.8257  0.4015
   19CHTO   H60 7932   5.323   7.289  -0.546  2.5572  0.0215 -0.1189
   19CHTO   C36 7933   5.255   7.110  -0.471 -0.0917  0.6146  0.4101
   19CHTO   O25 7934   5.163   6.999  -0.499 -0.3435  0.4657 -0.2157
   19CHTO   H40 7935   5.089   7.018  -0.554 -1.0738  0.5543  0.7847
   19CHTO   O15 7936   5.450   7.059  -0.920  0.4556 -0.6118  0.0117
   19CHTO   C19 7937   5.444   6.921  -0.866  0.5065 -0.0622  0.0927
   19CHTO   H47 7938   5.478   6.920  -0.761  0.1541 -0.5331  0.2064
   19CHTO   C20 7939   5.303   6.853  -0.865 -0.2336  0.9706  0.2710
   19CHTO   H48 7940   5.263   6.849  -0.968  0.1556  0.1516  0.1458
   19CHTO   O19 7941   5.212   6.930  -0.782 -0.2786  0.1104  0.1513
   19CHTO   H35 7942   5.197   7.014  -0.822  0.7058 -0.2497 -0.9957
   19CHTO   C21 7943   5.307   6.707  -0.815  0.0924  0.4876 -0.3264
   19CHTO   H49 7944   5.339   6.705  -0.711 -0.8892  0.1048 -0.0332
   19CHTO    N4 7945   5.174   6.640  -0.820 -0.0825  0.0708 -0.6824
   19CHTO   H41 7946   5.102   6.691  -0.759 -0.6199 -0.1829 -1.1034
   19CHTO   H42 7947   5.138   6.635  -0.922 -1.8829 -1.1813 -0.0098
   19CHTO   C22 7948   5.424   6.637  -0.890  0.1429 -0.7210 -0.3715
   19CHTO   H50 7949   5.389   6.631  -0.993 -2.4884  1.0689  0.3651
   19CHTO   O14 7950   5.548   6.709  -0.887 -0.3166 -0.2486 -0.4208
   19CHTO   C23 7951   5.559   6.841  -0.938  0.1483 -0.1381  0.0991
   19CHTO   H51 7952   5.546   6.836  -1.047  1.3530 -1.9481  0.0254
   19CHTO   C34 7953   5.699   6.897  -0.914  0.0903 -0.0882 -0.2160
   19CHTO   O23 7954   5.751   6.861  -0.785  0.1568  0.2036  0.3403
   19CHTO   H38 7955   5.795   6.778  -0.783  2.3356  1.3302  0.3134
   19CHTO   O16 7956   5.449   6.505  -0.832  0.2552  0.0866 -0.2757
   19CHTO   C24 7957   5.492   6.376  -0.920 -0.4999 -0.0115 -0.1388
   19CHTO   H52 7958   5.513   6.291  -0.855 -0.8384  0.5834  0.7660
   19CHTO   C26 7959   5.612   6.417  -1.002 -0.6180 -0.2125 -0.2078
   19CHTO   H54 7960   5.576   6.499  -1.066  2.0985  1.5748  0.4842
   19CHTO   O20 7961   5.717   6.457  -0.914 -0.0859  0.0993  0.2280
   19CHTO   H36 7962   5.788   6.491  -0.965 -1.3672  1.5372 -0.6643
   19CHTO   C30 7963   5.667   6.300  -1.094  0.1765 -0.1707 -0.4888
   19CHTO   H58 7964   5.713   6.220  -1.035 -0.6426 -1.1768 -1.1825
   19CHTO    N6 7965   5.772   6.343  -1.188  0.5923  0.8082  0.3880
   19CHTO   H45 7966   5.834   6.260  -1.219 -0.8265 -0.0507 -0.1576
   19CHTO   H46 7967   5.727   6.389  -1.274 -0.5858 -0.6246  0.2256
   19CHTO   C33 7968   5.554   6.226  -1.170  0.1778  0.6181 -0.5476
   19CHTO   H61 7969   5.533   6.275  -1.266 -2.1839 -2.2255 -1.5752
   19CHTO   O18 7970   5.426   6.228  -1.098 -0.1391 -0.3061 -0.6440
   19CHTO   C28 7971   5.376   6.337  -1.021  0.2480 -0.4441  0.4940
   19CHTO   H56 7972   5.359   6.420  -1.089 -1.6721 -0.4548  0.9444
   19CHTO   C35 7973   5.256   6.294  -0.939 -0.3162 -0.4216  0.1578
   19CHTO   O24 7974   5.141   6.268  -1.016  0.1341 -0.0364 -0.0584
   19CHTO   H39 7975   5.086   6.344  -1.024  1.4318  0.9000 -0.3275
   19CHTO    O9 7976   5.596   6.088  -1.200  0.1873 -0.0635  0.1181
   19CHTO   C13 7977   5.645   6.061  -1.360 -0.2395  0.0940  0.0980
   19CHTO   H26 7978   5.713   6.143  -1.393  2.0384 -1.4445  0.8462
   19CHTO   C11 7979   5.520   6.048  -1.462  0.0462 -0.5494 -0.1485
   19CHTO   H24 7980   5.554   6.068  -1.565 -1.6699  1.2934 -0.4038
   19CHTO    O8 7981   5.432   6.153  -1.417  0.2747  0.0929  0.7836
   19CHTO    H3 7982   5.370   6.172  -1.486  1.8786 -1.0475 -1.0348
   19CHTO    C9 7983   5.471   5.900  -1.469  0.1197 -0.1105 -0.0079
   19CHTO   H22 7984   5.525   5.853  -1.552 -0.5499  0.3011 -0.6854
   19CHTO    N2 7985   5.331   5.895  -1.520 -0.0574 -0.5163  0.1232
   19CHTO   H10 7986   5.326   5.952  -1.611  0.1781  0.1480  0.5265
   19CHTO   H11 7987   5.303   5.794  -1.548 -2.4575  0.5296 -1.4028
   19CHTO    C7 7988   5.510   5.814  -1.340  0.2579 -0.2359  0.4569
   19CHTO   H20 7989   5.488   5.710  -1.371 -1.1914 -0.0327  0.7840
   19CHTO    O4 7990   5.650   5.822  -1.304 -0.1560 -0.2602  0.2117
   19CHTO   C14 7991   5.729   5.927  -1.370  0.3741 -0.6665 -0.0870
   19CHTO   H27 7992   5.743   5.906  -1.478 -0.9576 -0.7170 -0.2563
   19CHTO   C18 7993   5.868   5.936  -1.293  0.6893 -0.6457  0.0812
   19CHTO   O13 7994   5.934   6.049  -1.351 -0.3618 -0.6942  0.3322
   19CHTO    H7 7995   5.959   6.113  -1.288  0.0964 -0.7060  0.1585
   19CHTO    O2 7996   5.414   5.854  -1.215  0.3297  0.2249  0.7769
   19CHTO    C1 7997   5.396   5.750  -1.121 -0.3873 -0.5831 -0.6141
   19CHTO   H14 7998   5.488   5.689  -1.108 -0.2794 -0.1603  0.6772
   19CHTO    C2 7999   5.276   5.646  -1.148  0.1663 -0.2222 -0.4647
   19CHTO   H15 8000   5.183   5.703  -1.137  0.6059  0.6876 -1.4534
   19CHTO    O6 8001   5.287   5.606  -1.283 -0.5650 -0.2940 -0.0793
   19CHTO    H1 8002   5.234   5.530  -1.301 -0.4890 -0.5226  0.6366
   19CHTO    C3 8003   5.282   5.518  -1.043 -1.2817  0.3151 -0.5033
   19CHTO   H16 8004   5.362   5.452  -1.079 -1.8501  0.4564 -2.0554
   19CHTO    N1 8005   5.156   5.441  -1.055  0.3796  0.1593  0.9365
   19CHTO    H8 8006   5.143   5.383  -0.966 -1.4654  0.0968  0.6500
   19CHTO    H9 8007   5.164   5.381  -1.145 -0.5086  2.4029 -0.6980
   19CHTO    C4 8008   5.323   5.569  -0.896 -0.0833 -0.3247 -0.7092
   19CHTO   H17 8009   5.233   5.590  -0.838 -0.6799  1.6892 -2.2820
   19CHTO    O1 8010   5.407   5.690  -0.890  0.4668 -0.2100 -0.1093
   19CHTO    C5 8011   5.385   5.801  -0.974 -0.3924 -0.0669  0.4431
   19CHTO   H18 8012   5.288   5.847  -0.955  0.2950  1.9665 -0.8274
   19CHTO   C16 8013   5.491   5.904  -0.936 -0.5249  0.3569  0.0019
   19CHTO   O11 8014   5.621   5.864  -0.947 -0.3665  0.0997 -0.2854
   19CHTO    H5 8015   5.642   5.799  -0.882 -1.0753 -0.5237 -0.6769
   19CHTO    O3 8016   5.406   5.464  -0.837  0.1717  0.3999  0.0968
   19CHTO    C6 8017   5.376   5.428  -0.697 -0.3454 -0.2144  0.4093
   19CHTO   H19 8018   5.325   5.507  -0.642 -2.2430 -1.1876  0.0829
   19CHTO    C8 8019   5.304   5.290  -0.696  0.4264  0.3833 -0.0648
   19CHTO   H21 8020   5.355   5.225  -0.767  1.3849  0.3660  0.6260
   19CHTO    O7 8021   5.171   5.310  -0.742 -0.0850  0.1302 -0.0371
   19CHTO    H2 8022   5.159   5.291  -0.833 -1.4737 -1.7074  0.4958
   19CHTO   C12 8023   5.302   5.221  -0.555  0.0553  0.2466 -0.0475
   19CHTO   H25 8024   5.222   5.281  -0.507 -1.3135 -1.5625 -0.0122
   19CHTO    N3 8025   5.247   5.083  -0.553  0.4049 -0.7282  0.4165
   19CHTO   H12 8026   5.233   5.045  -0.453 -0.0355  1.2884  1.1345
   19CHTO   H13 8027   5.310   5.020  -0.614  0.4753 -0.7089  0.4700
   19CHTO   C15 8028   5.438   5.241  -0.477 -0.4609  0.3490  0.0830
   19CHTO   H28 8029   5.515   5.169  -0.504  0.1743  1.0828 -0.0817
   19CHTO   O10 8030   5.426   5.228  -0.322 -0.3469 -0.4175  0.1878
   19CHTO    H4 8031   5.499   5.184  -0.282 -0.1712  0.6355  1.0452
   19CHTO    O5 8032   5.485   5.377  -0.488 -0.6748 -0.2220 -0.0295
   19CHTO   C10 8033   5.516   5.414  -0.622  0.1603  0.5676 -0.0480
   19CHTO   H23 8034   5.567   5.341  -0.686 -0.7979 -0.8801  0.8205
   19CHTO   C17 8035   5.609   5.534  -0.617  0.5410  0.0062  0.2964
   19CHTO   O12 8036   5.679   5.551  -0.741  0.1832  0.0928  0.5105
   19CHTO    H6 8037   5.660   5.639  -0.769  1.9426  0.3259 -0.0604
   20CHTO  H203 8038   5.536   1.327   0.154  0.1201 -0.2844 -0.3333
   20CHTO   O82 8039   5.500   1.390   0.094  0.1673  0.2741  0.2234
   20CHTO  C123 8040   5.490   1.520   0.155 -0.3119 -0.1351 -0.8478
   20CHTO  H227 8041   5.515   1.591   0.075 -2.9136  2.1199  0.2309
   20CHTO   O77 8042   5.343   1.523   0.167  0.7784 -0.3276 -0.3790
   20CHTO  C118 8043   5.301   1.653   0.223  0.5020  0.4335  0.2923
   20CHTO  H222 8044   5.341   1.734   0.160  1.2799  0.1095  0.3579
   20CHTO  C125 8045   5.144   1.651   0.226  0.0963 -0.6537  0.1002
   20CHTO   O84 8046   5.102   1.543   0.304  0.4511  0.7399  0.4014
   20CHTO  H205 8047   5.157   1.470   0.279  3.1256  2.0496  2.2730
   20CHTO  C114 8048   5.351   1.679   0.363  0.1939 -0.7971  0.2805
   20CHTO  H218 8049   5.315   1.597   0.425  1.3339 -0.0977  1.8869
   20CHTO  C116 8050   5.508   1.687   0.360 -0.8903  0.2931  0.5990
   20CHTO  H220 8051   5.533   1.779   0.302 -0.6748 -1.0657 -1.4850
   20CHTO   O79 8052   5.547   1.711   0.496  0.4182  0.1731  0.2884
   20CHTO  H201 8053   5.497   1.653   0.551 -2.4036  0.9176 -1.3972
   20CHTO  C120 8054   5.555   1.549   0.300  0.0244 -0.0151 -0.1960
   20CHTO  H224 8055   5.522   1.471   0.372  2.7610  0.5355  1.7645
   20CHTO   N21 8056   5.703   1.542   0.294 -0.1075  0.4078  0.2529
   20CHTO  H211 8057   5.747   1.444   0.307 -0.8256  0.0763  0.2053
   20CHTO  H212 8058   5.744   1.603   0.214  1.9816 -0.1995  0.8237
   20CHTO   O75 8059   5.302   1.803   0.413  0.2847 -0.6764  0.3458
   20CHTO  C112 8060   5.350   1.960   0.346 -0.3939 -0.2024 -0.4554
   20CHTO  H216 8061   5.374   1.954   0.239  0.0042 -0.5822 -0.3461
   20CHTO   O73 8062   5.460   2.001   0.423 -0.4187 -0.5568  0.3221
   20CHTO  C113 8063   5.526   2.125   0.385  0.3306 -0.4141  0.2862
   20CHTO  H217 8064   5.550   2.132   0.277  0.2859 -1.1817  0.2191
   20CHTO  C124 8065   5.660   2.132   0.453  0.3009 -0.4968  0.4356
   20CHTO   O83 8066   5.757   2.034   0.412  0.5167  0.5106 -0.5352
   20CHTO  H204 8067   5.788   2.042   0.324  0.7874 -0.9180 -0.5794
   20CHTO  C109 8068   5.425   2.244   0.413  0.3367  0.7199  0.5582
   20CHTO  H213 8069   5.410   2.248   0.522 -3.3748 -2.1007  0.2583
   20CHTO  C110 8070   5.286   2.209   0.345  0.3227 -0.0403 -0.2382
   20CHTO  H214 8071   5.314   2.222   0.241  3.1056 -0.9041  0.3798
   20CHTO   O78 8072   5.193   2.303   0.380 -0.0272  0.6055 -0.2271
   20CHTO  H200 8073   5.103   2.285   0.365 -0.0110  0.3948 -0.0682
   20CHTO  C111 8074   5.233   2.068   0.363 -0.0448 -0.4970  0.2633
   20CHTO  H215 8075   5.197   2.062   0.466  0.0995 -2.3637  0.2189
   20CHTO   N19 8076   5.118   2.026   0.278  0.0208 -0.0819 -0.2995
   20CHTO  H207 8077   5.104   1.919   0.277 -1.3779 -0.0401  4.0664
   20CHTO  H208 8078   5.119   2.072   0.181 -1.8977 -0.3804 -0.4873
   20CHTO   O74 8079   5.482   2.373   0.367  0.2224  0.3839 -0.1010
   20CHTO  C115 8080   5.430   2.525   0.461 -0.3573 -0.4845  0.8629
   20CHTO  H219 8081   5.336   2.514   0.515  0.1450  1.9552  2.3515
   20CHTO   O76 8082   5.541   2.571   0.572 -0.2252 -0.0600 -0.2907
   20CHTO  C122 8083   5.677   2.596   0.531 -0.0120  0.7911  0.0248
   20CHTO  H226 8084   5.725   2.504   0.564  0.9889  0.8912 -1.1177
   20CHTO  C126 8085   5.740   2.711   0.621 -0.1167  0.3259 -0.0616
   20CHTO   O85 8086   5.720   2.686   0.758  0.4486 -0.0409  0.3956
   20CHTO  H206 8087   5.799   2.715   0.798  0.6360  1.6777 -1.1322
   20CHTO  C121 8088   5.686   2.633   0.377 -0.1004  0.1798 -0.1909
   20CHTO  H225 8089   5.781   2.690   0.367  0.9008 -1.5347 -0.8058
   20CHTO   O81 8090   5.704   2.519   0.293 -0.2202 -0.6923 -0.0345
   20CHTO  H202 8091   5.628   2.465   0.300 -1.1718  0.5905 -0.0958
   20CHTO  C119 8092   5.559   2.718   0.338 -0.1643  0.5996 -0.2342
   20CHTO  H223 8093   5.557   2.808   0.400 -0.1110 -0.1033  0.7919
   20CHTO  C117 8094   5.423   2.637   0.357  0.6024 -0.3191  0.3765
   20CHTO  H221 8095   5.389   2.578   0.272 -0.7702  2.0534 -0.7848
   20CHTO   N20 8096   5.302   2.725   0.382  0.0347 -0.0223  0.0420
   20CHTO  H209 8097   5.324   2.825   0.418  0.8434 -0.9610  2.2014
   20CHTO  H210 8098   5.244   2.664   0.449  2.1160 -0.6283  1.3354
   20CHTO   O80 8099   5.564   2.776   0.203 -0.0879  0.6875 -0.5164
   20CHTO  C103 8100   5.655   2.913   0.170  0.2882 -0.2070 -0.9494
   20CHTO  H190 8101   5.638   2.983   0.251  0.6338 -0.9122 -0.2559
   20CHTO  C101 8102   5.811   2.893   0.156  0.6407  0.2486  0.5448
   20CHTO  H188 8103   5.825   2.797   0.108 -0.6262 -0.3603  1.3634
   20CHTO   O68 8104   5.887   2.903   0.289  0.5084  0.5097 -0.2658
   20CHTO  H168 8105   5.924   2.821   0.316 -0.1331  0.4211  0.3542
   20CHTO   C99 8106   5.881   2.988   0.053  0.3946  0.1215  0.5399
   20CHTO  H186 8107   5.894   3.089   0.098  3.0355 -0.2323  0.6436
   20CHTO   N17 8108   6.023   2.947   0.020  0.0757  0.2791 -0.7309
   20CHTO  H174 8109   6.086   3.035   0.032  2.4062 -1.5252  0.6104
   20CHTO  H175 8110   6.058   2.861   0.074  2.4568  2.4043  1.3019
   20CHTO   C97 8111   5.801   3.009  -0.077  0.4985 -0.5631 -0.0884
   20CHTO  H184 8112   5.788   2.909  -0.121 -2.2678  0.0848 -0.8719
   20CHTO   O64 8113   5.671   3.064  -0.029 -0.1544 -0.2064  0.1950
   20CHTO  C104 8114   5.584   2.967   0.032  0.3212  0.3742 -0.0131
   20CHTO  H191 8115   5.558   2.882  -0.031 -0.8397 -1.2115  2.5437
   20CHTO  C108 8116   5.454   3.032   0.079 -0.2165 -0.0681  0.0792
   20CHTO   O71 8117   5.377   3.099  -0.019 -0.3647 -0.2515  0.3212
   20CHTO  H171 8118   5.358   3.029  -0.078 -0.6138  0.5653 -0.5740
   20CHTO   O62 8119   5.858   3.111  -0.166 -0.5569 -0.1394  0.0289
   20CHTO   C91 8120   5.871   3.072  -0.307  0.4547  0.4092 -0.1238
   20CHTO  H178 8121   5.883   2.964  -0.316 -0.8933 -0.0409  2.8875
   20CHTO   C92 8122   5.995   3.145  -0.364 -0.4627 -0.3736 -0.5758
   20CHTO  H179 8123   5.995   3.253  -0.346  0.0088 -0.4352 -0.1811
   20CHTO   O66 8124   6.111   3.097  -0.286 -0.6503 -0.1062  0.0917
   20CHTO  H166 8125   6.185   3.128  -0.334 -1.1466 -0.6325 -1.0418
   20CHTO   C93 8126   6.018   3.109  -0.519 -0.2855 -0.1357 -0.4389
   20CHTO  H180 8127   6.039   3.001  -0.532  2.8433  0.4983 -1.1870
   20CHTO   N16 8128   6.135   3.173  -0.590 -0.4575 -0.3127 -0.6944
   20CHTO  H172 8129   6.211   3.110  -0.634  0.1207 -0.3135  0.2758
   20CHTO  H173 8130   6.186   3.246  -0.529 -1.2300  0.0728 -0.5089
   20CHTO   C94 8131   5.881   3.148  -0.593 -0.5739 -0.7625  0.6773
   20CHTO  H181 8132   5.851   3.251  -0.574  0.2849 -0.5427  0.8607
   20CHTO   O61 8133   5.773   3.069  -0.541 -0.0311 -0.5506  0.1266
   20CHTO   C95 8134   5.748   3.101  -0.402 -0.0347 -0.0992 -0.2038
   20CHTO  H182 8135   5.730   3.209  -0.393 -1.7820 -0.3611 -0.3055
   20CHTO  C106 8136   5.621   3.023  -0.370 -0.3234 -0.0338 -0.5583
   20CHTO   O69 8137   5.619   2.883  -0.392 -0.3653 -0.1199  0.3696
   20CHTO  H169 8138   5.653   2.855  -0.475 -1.9261  1.9886 -1.0754
   20CHTO   O63 8139   5.883   3.121  -0.765 -0.5401  0.1650 -0.2099
   20CHTO   C96 8140   5.866   2.984  -0.818  0.2069  0.3380  0.4947
   20CHTO  H183 8141   5.893   2.911  -0.742  1.2369 -0.3251 -0.4957
   20CHTO   C98 8142   5.960   2.964  -0.943  0.0620 -0.0203  0.2432
   20CHTO  H185 8143   6.062   2.982  -0.906 -0.2049 -0.1418  1.0391
   20CHTO   O67 8144   5.952   2.826  -0.989  0.3554 -0.0965 -0.4302
   20CHTO  H167 8145   6.019   2.813  -1.054  0.8336 -0.3066  0.0998
   20CHTO  C102 8146   5.910   3.042  -1.069 -0.0884  0.0766 -0.1120
   20CHTO  H189 8147   5.952   2.990  -1.157 -1.7632 -2.0896  0.3371
   20CHTO   N18 8148   5.966   3.173  -1.078 -0.3015  0.0695  0.1369
   20CHTO  H176 8149   6.027   3.177  -1.166 -0.6054 -0.5010 -0.0984
   20CHTO  H177 8150   5.889   3.249  -1.087 -0.0415  0.5583  1.7785
   20CHTO  C105 8151   5.753   3.030  -1.078 -0.3928 -0.7676  0.8315
   20CHTO  H192 8152   5.708   3.128  -1.057 -1.3004 -1.4534  2.2327
   20CHTO   O65 8153   5.681   2.937  -0.993 -0.1553  0.3597  0.0317
   20CHTO  C100 8154   5.705   2.964  -0.854 -0.2093  0.0407 -1.2485
   20CHTO  H187 8155   5.648   3.053  -0.821  1.2538  0.1251  1.2325
   20CHTO  C107 8156   5.650   2.845  -0.767  0.1315  0.4337  0.3465
   20CHTO   O70 8157   5.710   2.721  -0.801 -0.5286  0.0536 -0.2669
   20CHTO  H170 8158   5.749   2.726  -0.886 -0.8758  1.0641 -0.3670
   20CHTO   O57 8159   5.728   2.992  -1.223  0.0344  0.9219  0.5304
   20CHTO   C85 8160   5.613   3.052  -1.290  0.0232 -0.0261 -0.0100
   20CHTO  H157 8161   5.574   3.137  -1.230  2.7961 -0.5349  2.6252
   20CHTO   C83 8162   5.506   2.945  -1.291  0.5724 -0.4943  0.1979
   20CHTO  H155 8163   5.478   2.913  -1.191  0.8210 -1.6648 -0.0949
   20CHTO   O56 8164   5.556   2.822  -1.356  0.3423 -0.3230  0.1446
   20CHTO  H135 8165   5.568   2.837  -1.447  2.2857 -1.7732  0.1510
   20CHTO   C81 8166   5.384   3.004  -1.363 -0.3539 -0.7031  0.1555
   20CHTO  H153 8167   5.364   3.098  -1.313  1.8662  1.5810 -3.0178
   20CHTO   N14 8168   5.258   2.925  -1.346 -0.7996 -0.1103 -0.0134
   20CHTO  H141 8169   5.269   2.850  -1.272 -0.1344  0.0087  0.0064
   20CHTO  H142 8170   5.175   2.986  -1.316 -0.8494 -0.5579  0.7565
   20CHTO   C79 8171   5.412   3.039  -1.509 -0.3136  0.4167  0.2844
   20CHTO  H151 8172   5.328   3.099  -1.544 -1.2941 -0.2506  1.4243
   20CHTO   O52 8173   5.527   3.124  -1.516 -0.6430 -0.2529 -0.0182
   20CHTO   C86 8174   5.652   3.097  -1.439  0.1588  0.4385 -0.4873
   20CHTO  H158 8175   5.708   3.011  -1.482  0.0606  1.4145 -2.6261
   20CHTO   C90 8176   5.740   3.216  -1.428  0.3245 -0.5277 -0.3617
   20CHTO   O60 8177   5.877   3.186  -1.390  0.4243 -0.2080  0.1466
   20CHTO  H138 8178   5.938   3.219  -1.453  0.1220  1.5572  0.7295
   20CHTO   O50 8179   5.434   2.926  -1.595 -0.3061  0.1924  0.2416
   20CHTO   C73 8180   5.437   2.878  -1.726 -0.1855 -0.2756 -0.5583
   20CHTO  H145 8181   5.523   2.927  -1.774  0.7106 -0.9733  0.3176
   20CHTO   C74 8182   5.309   2.914  -1.805  0.0083 -0.2226 -0.3576
   20CHTO  H146 8183   5.298   3.023  -1.797  0.4596 -0.4050  3.7696
   20CHTO   O54 8184   5.322   2.875  -1.946  0.3319  0.1909  0.1228
   20CHTO  H133 8185   5.270   2.933  -1.999  1.7612  0.4854 -0.9735
   20CHTO   C75 8186   5.183   2.840  -1.745  0.4272  0.9145  0.1620
   20CHTO  H147 8187   5.166   2.870  -1.641  1.1387 -1.9231  1.1266
   20CHTO   N13 8188   5.062   2.887  -1.816 -0.4984 -0.9286  0.0139
   20CHTO  H139 8189   5.039   2.988  -1.787  0.9447 -0.6331  0.1481
   20CHTO  H140 8190   5.082   2.882  -1.922 -1.3345 -0.1164 -0.1945
   20CHTO   C76 8191   5.217   2.685  -1.748  0.3731 -0.2575 -0.0889
   20CHTO  H148 8192   5.233   2.649  -1.849  0.5512 -0.4522  0.0092
   20CHTO   O49 8193   5.339   2.661  -1.675 -0.0109  0.3584 -0.0224
   20CHTO   C77 8194   5.457   2.718  -1.727  0.1005  0.8060  0.8264
   20CHTO  H149 8195   5.485   2.690  -1.829  1.4001  1.3275  1.0292
   20CHTO   C88 8196   5.581   2.669  -1.649  0.7222 -0.4705  0.7170
   20CHTO   O58 8197   5.696   2.692  -1.709  0.5526  0.0423 -0.2588
   20CHTO  H136 8198   5.760   2.697  -1.640 -0.3237  2.1914  0.4479
   20CHTO   O51 8199   5.115   2.603  -1.672  0.2248 -0.3476  0.2134
   20CHTO   C78 8200   5.145   2.473  -1.609 -0.4980  0.1069 -0.2636
   20CHTO  H150 8201   5.247   2.477  -1.566  0.3211  0.6479 -2.1640
   20CHTO   C80 8202   5.139   2.353  -1.706  0.5050 -0.0232  0.1955
   20CHTO  H152 8203   5.045   2.362  -1.765  1.9235  0.0238 -2.1199
   20CHTO   O55 8204   5.243   2.381  -1.806 -0.1460 -0.3192 -0.5322
   20CHTO  H134 8205   5.277   2.307  -1.853 -0.0583  0.0890 -1.1105
   20CHTO   C84 8206   5.162   2.207  -1.638 -0.1692 -0.2022 -0.0469
   20CHTO  H156 8207   5.269   2.189  -1.623  0.0849  1.2032 -0.1014
   20CHTO   N15 8208   5.112   2.092  -1.725  0.0926  0.0428 -0.0808
   20CHTO  H143 8209   5.087   2.131  -1.821 -0.2207  1.6656  0.6529
   20CHTO  H144 8210   5.187   2.015  -1.733 -0.0579 -0.0940 -0.1832
   20CHTO   C87 8211   5.098   2.196  -1.496 -0.1082  0.6371  0.3319
   20CHTO  H159 8212   4.992   2.172  -1.506  0.3013 -0.7908 -0.7237
   20CHTO   O53 8213   5.113   2.330  -1.409  0.6892  0.3567  0.7225
   20CHTO   C82 8214   5.063   2.444  -1.481 -0.5487  0.4924 -0.0042
   20CHTO  H154 8215   4.958   2.424  -1.502 -0.4539 -0.2029  0.1687
   20CHTO   C89 8216   5.078   2.572  -1.392  0.6559  0.4403  0.2256
   20CHTO   O59 8217   5.221   2.593  -1.362 -0.0067 -0.2332  0.4140
   20CHTO  H137 8218   5.222   2.675  -1.317  0.1808 -0.7971  1.4434
   20CHTO   O45 8219   5.157   2.070  -1.416 -0.0409  0.1678 -0.1548
   20CHTO   C67 8220   5.093   2.039  -1.293  0.4575  0.4551 -0.0083
   20CHTO  H124 8221   5.025   2.123  -1.276 -0.1722  0.2386 -1.3897
   20CHTO   C65 8222   5.002   1.910  -1.295 -0.4874 -0.4637  0.0838
   20CHTO  H122 8223   5.053   1.846  -1.367 -0.6899  0.1809 -0.6303
   20CHTO   O44 8224   4.875   1.952  -1.347  0.2240  0.9421  0.0187
   20CHTO  H102 8225   4.880   1.973  -1.439  1.7106 -0.3346 -0.2206
   20CHTO   C63 8226   5.007   1.827  -1.160  0.7760  0.2593  0.6314
   20CHTO  H120 8227   5.102   1.774  -1.160  0.1197 -1.0758 -2.8840
   20CHTO   N11 8228   4.910   1.710  -1.157 -0.3256  0.8546 -0.0056
   20CHTO  H108 8229   4.886   1.674  -1.255 -0.5567 -0.0467  0.3769
   20CHTO  H109 8230   4.818   1.750  -1.121 -1.0330  1.3511 -2.2484
   20CHTO   C61 8231   5.002   1.919  -1.032  0.4268  0.1057 -0.0264
   20CHTO  H118 8232   5.020   1.854  -0.945 -1.0453 -2.0480 -1.2624
   20CHTO   O40 8233   5.112   2.015  -1.036  0.1371 -0.0672  0.1784
   20CHTO   C68 8234   5.183   2.030  -1.165  0.2031 -0.0057 -0.2994
   20CHTO  H125 8235   5.253   1.944  -1.167  1.5558  1.0595  0.0883
   20CHTO   C72 8236   5.273   2.152  -1.146  0.1082  0.0542  0.2254
   20CHTO   O48 8237   5.363   2.116  -1.036 -0.0561  0.3332  0.5996
   20CHTO  H105 8238   5.403   2.033  -1.055 -1.4584 -0.4687  1.1293
   20CHTO   O38 8239   4.871   1.985  -1.020  0.1171 -0.1450 -0.7327
   20CHTO   C55 8240   4.837   2.035  -0.888 -0.5092 -0.3955  0.5660
   20CHTO  H112 8241   4.924   2.029  -0.822  0.3482 -0.8376 -0.5862
   20CHTO   C56 8242   4.701   1.969  -0.833  0.3275 -0.0049  0.5559
   20CHTO  H113 8243   4.621   1.990  -0.906 -3.3498  0.7677  4.6228
   20CHTO   O42 8244   4.719   1.828  -0.821  0.4959  0.6073 -0.2546
   20CHTO  H100 8245   4.798   1.823  -0.772 -0.7095  4.0081  2.2005
   20CHTO   C57 8246   4.665   2.031  -0.689  0.0307  0.6171  0.6079
   20CHTO  H114 8247   4.755   2.006  -0.634 -2.3739 -2.5020  3.3211
   20CHTO   N10 8248   4.543   1.977  -0.626  0.0146  0.1626 -0.5511
   20CHTO  H106 8249   4.547   1.990  -0.519 -0.0933  0.3358 -0.5664
   20CHTO  H107 8250   4.508   1.877  -0.647  0.2466  0.5807 -3.0054
   20CHTO   C58 8251   4.654   2.187  -0.702 -0.3816  0.0277  0.2915
   20CHTO  H115 8252   4.579   2.210  -0.780 -0.2852  1.0978  0.5050
   20CHTO   O37 8253   4.779   2.229  -0.754  0.3441  0.2399  0.4015
   20CHTO   C59 8254   4.799   2.186  -0.887 -0.1373  0.3310  0.1585
   20CHTO  H116 8255   4.711   2.205  -0.947 -0.2670  0.6082  0.4375
   20CHTO   C70 8256   4.920   2.267  -0.946  0.0394  0.0840 -0.1186
   20CHTO   O46 8257   4.937   2.269  -1.089  0.3015 -0.2758 -0.0985
   20CHTO  H103 8258   4.965   2.351  -1.126 -1.1993 -0.8874 -2.7076
   20CHTO   O39 8259   4.628   2.260  -0.550 -0.2309 -0.0258 -0.2768
   20CHTO   C60 8260   4.725   2.349  -0.489 -0.6731 -0.2681  0.4780
   20CHTO  H117 8261   4.824   2.311  -0.517 -0.6406 -0.9966  1.5356
   20CHTO   C62 8262   4.699   2.500  -0.547  0.4590  0.3224  0.5320
   20CHTO  H119 8263   4.716   2.496  -0.656  1.1987 -1.0397  0.6935
   20CHTO   O43 8264   4.569   2.549  -0.519  0.1516  0.3009 -0.0664
   20CHTO  H101 8265   4.549   2.630  -0.563 -1.5613 -0.1984 -0.2315
   20CHTO   C66 8266   4.813   2.603  -0.492 -0.4951  0.1482 -0.5188
   20CHTO  H123 8267   4.913   2.569  -0.518 -0.7453 -1.3358  0.4263
   20CHTO   N12 8268   4.802   2.740  -0.547 -0.4069  0.1045  0.5634
   20CHTO  H110 8269   4.717   2.804  -0.528  0.1052  0.8056  0.4836
   20CHTO  H111 8270   4.827   2.727  -0.651  1.5928 -0.8574  1.1379
   20CHTO   C69 8271   4.796   2.601  -0.339 -0.1288 -0.7766  0.5452
   20CHTO  H126 8272   4.704   2.654  -0.306 -0.4460 -1.6127  1.0396
   20CHTO   O41 8273   4.801   2.454  -0.292  0.3516 -0.5914  0.0794
   20CHTO   C64 8274   4.721   2.355  -0.342 -0.4124  0.2385  0.2338
   20CHTO  H121 8275   4.617   2.365  -0.307 -0.2357 -1.2588  1.2245
   20CHTO   C71 8276   4.762   2.219  -0.288 -0.0731 -0.2546  0.8241
   20CHTO   O47 8277   4.729   2.196  -0.152  0.3066 -0.1689 -0.6121
   20CHTO  H104 8278   4.800   2.210  -0.092  0.2853 -1.3889 -0.2906
   20CHTO   O34 8279   4.927   2.665  -0.276  0.3641  0.2547 -0.4279
   20CHTO   C49 8280   5.044   2.733  -0.183  0.1805  0.3080  0.2319
   20CHTO   H91 8281   4.999   2.759  -0.087  1.0367 -0.5736  0.8795
   20CHTO   C47 8282   5.097   2.862  -0.252 -0.2463  0.6156  0.1583
   20CHTO   H89 8283   5.169   2.897  -0.175 -0.5419  3.1399 -0.6553
   20CHTO   O33 8284   4.997   2.967  -0.280 -0.6139 -0.1592  0.0911
   20CHTO   H70 8285   4.949   2.986  -0.202  0.7775  1.4930  0.5875
   20CHTO   C45 8286   5.176   2.817  -0.391 -0.1077 -0.6644 -0.2051
   20CHTO   H87 8287   5.113   2.824  -0.480 -1.8821 -1.5895  0.9404
   20CHTO    N8 8288   5.291   2.909  -0.405 -0.5219  0.1446  0.0552
   20CHTO   H75 8289   5.249   3.005  -0.434  3.2745  1.5383 -1.1002
   20CHTO   H76 8290   5.362   2.882  -0.482  0.4976  0.5718  0.8459
   20CHTO   C43 8291   5.224   2.663  -0.386  0.2721  0.1881 -0.5006
   20CHTO   H85 8292   5.134   2.607  -0.410  0.6883 -0.7781  0.1639
   20CHTO   O29 8293   5.269   2.638  -0.251 -0.4132 -0.5461 -0.0492
   20CHTO   C50 8294   5.157   2.629  -0.159 -0.8129  0.4918  0.3223
   20CHTO   H92 8295   5.114   2.528  -0.161  3.5655 -1.5577  2.3487
   20CHTO   C54 8296   5.204   2.637  -0.016 -0.0320 -0.2717 -0.1172
   20CHTO   O36 8297   5.314   2.548   0.019  0.2255  0.2389  0.2009
   20CHTO   H72 8298   5.286   2.459   0.013 -0.4091  0.4446  0.1321
   20CHTO   O27 8299   5.316   2.625  -0.490  0.3201 -0.5913 -0.8914
   20CHTO   C37 8300   5.313   2.517  -0.582  0.1232 -0.1000  0.8630
   20CHTO   H79 8301   5.280   2.424  -0.533  1.8700 -0.0515  2.1956
   20CHTO   C38 8302   5.226   2.552  -0.710 -0.1928  0.2215  0.0708
   20CHTO   H80 8303   5.254   2.654  -0.740  1.7196  0.2947  2.0078
   20CHTO   O31 8304   5.089   2.552  -0.678  0.7679  0.1913 -0.4250
   20CHTO   H68 8305   5.042   2.569  -0.757  0.6165  1.4118 -0.0837
   20CHTO   C39 8306   5.251   2.462  -0.837 -1.1347  0.5809 -0.5772
   20CHTO   H81 8307   5.211   2.362  -0.818 -1.0154  0.3308 -1.5849
   20CHTO    N7 8308   5.180   2.519  -0.964 -0.4939 -0.2630  0.1632
   20CHTO   H73 8309   5.237   2.488  -1.051  0.2361  1.1384  0.1271
   20CHTO   H74 8310   5.077   2.487  -0.956 -0.3100 -1.0647 -0.5069
   20CHTO   C40 8311   5.406   2.457  -0.863 -0.3785  0.1038  0.3572
   20CHTO   H82 8312   5.447   2.555  -0.889  1.6229 -0.9834 -0.8114
   20CHTO   O26 8313   5.472   2.404  -0.747 -0.4473  0.0072 -0.3253
   20CHTO   C41 8314   5.462   2.500  -0.630  0.1352 -0.1036  0.2366
   20CHTO   H83 8315   5.509   2.597  -0.653  0.0453  0.6198  2.8557
   20CHTO   C52 8316   5.540   2.459  -0.506  0.0431  0.2656 -0.2237
   20CHTO   O35 8317   5.683   2.443  -0.548 -0.9382 -0.0366  0.3188
   20CHTO   H71 8318   5.719   2.520  -0.587  0.7516 -1.2509 -0.6049
   20CHTO   O28 8319   5.443   2.370  -0.966 -0.4818 -0.6986 -0.6695
   20CHTO   C42 8320   5.578   2.353  -1.022 -0.1349 -0.5950  0.7964
   20CHTO   H84 8321   5.551   2.270  -1.088 -4.6523  0.4809  1.0951
   20CHTO   C44 8322   5.691   2.307  -0.928  0.2529 -0.4289  0.3402
   20CHTO   H86 8323   5.717   2.383  -0.854  0.3801 -0.3986  0.2648
   20CHTO   O32 8324   5.654   2.191  -0.850 -0.5115 -0.2323 -0.2999
   20CHTO   H69 8325   5.707   2.193  -0.773  1.0885  1.9637 -1.3864
   20CHTO   C48 8326   5.823   2.284  -1.008 -0.2766 -0.2616 -0.0309
   20CHTO   H90 8327   5.818   2.197  -1.073  0.6554 -1.8491  1.9658
   20CHTO    N9 8328   5.941   2.236  -0.923  0.1670 -0.4584  0.2722
   20CHTO   H77 8329   5.955   2.309  -0.844 -0.3530  0.2358 -0.2715
   20CHTO   H78 8330   5.909   2.141  -0.882 -4.0392  1.2696  1.2010
   20CHTO   C51 8331   5.861   2.416  -1.093  1.1755 -0.2446 -0.4267
   20CHTO   H93 8332   5.901   2.494  -1.028 -1.1477  2.4157 -2.1062
   20CHTO   O30 8333   5.750   2.456  -1.172 -0.1169 -0.5783  0.2026
   20CHTO   C46 8334   5.615   2.474  -1.109  0.4086 -0.4410  0.1390
   20CHTO   H88 8335   5.616   2.567  -1.052 -0.6140  0.6062 -1.5213
   20CHTO   C53 8336   5.530   2.498  -1.234 -0.2780  0.1508 -0.1234
   20CHTO   O72 8337   5.512   2.383  -1.315  0.0249  0.6480  0.6531
   20CHTO  H199 8338   5.435   2.388  -1.369 -0.6255 -0.7984  1.4041
   20CHTO   O22 8339   5.971   2.388  -1.182 -0.2394  0.4843 -0.1337
   20CHTO   C31 8340   6.064   2.484  -1.238  0.0990  0.6754 -0.0294
   20CHTO   H59 8341   6.114   2.433  -1.323  2.0079  2.2852  0.0829
   20CHTO   C29 8342   5.999   2.613  -1.294 -0.8471  0.2015 -0.8480
   20CHTO   H57 8343   5.943   2.661  -1.211  0.0475 -0.5667  0.2105
   20CHTO   O21 8344   5.907   2.574  -1.397  0.0417  0.2493  0.4335
   20CHTO   H37 8345   5.842   2.639  -1.414 -0.9267  0.0228  2.9796
   20CHTO   C27 8346   6.105   2.718  -1.353  0.3390 -0.0411  0.1868
   20CHTO   H55 8347   6.159   2.670  -1.436 -0.2537 -1.0585  0.3745
   20CHTO    N5 8348   6.036   2.843  -1.402 -0.6412 -0.0603  0.3191
   20CHTO   H43 8349   6.016   2.905  -1.315 -0.9471 -0.3875  0.4816
   20CHTO   H44 8350   6.095   2.895  -1.476  1.0732 -2.2435  0.0885
   20CHTO   C25 8351   6.221   2.724  -1.251  0.3249  0.1192  0.4842
   20CHTO   H53 8352   6.197   2.788  -1.165  1.4905 -0.1013  0.9822
   20CHTO   O17 8353   6.274   2.595  -1.208 -0.8942 -0.2830 -0.4741
   20CHTO   C32 8354   6.178   2.510  -1.134  0.0360 -0.2127  0.2941
   20CHTO   H60 8355   6.127   2.549  -1.046  1.2867 -1.3590  1.5445
   20CHTO   C36 8356   6.256   2.382  -1.094 -0.2271 -0.4403  0.4303
   20CHTO   O25 8357   6.311   2.302  -1.202  0.8366  0.1601 -0.6812
   20CHTO   H40 8358   6.391   2.346  -1.227  1.5012  0.7014  2.2344
   20CHTO   O15 8359   6.344   2.808  -1.320  0.2225  0.3067  0.0587
   20CHTO   C19 8360   6.488   2.798  -1.314  0.0149 -0.4646  0.1403
   20CHTO   H47 8361   6.527   2.849  -1.403 -0.7649 -1.4305 -0.7721
   20CHTO   C20 8362   6.545   2.865  -1.184  0.3721 -0.7818 -0.6542
   20CHTO   H48 8363   6.494   2.832  -1.092  1.4014 -0.0506  0.1912
   20CHTO   O19 8364   6.506   3.009  -1.185 -0.3729 -0.1494  0.5982
   20CHTO   H35 8365   6.587   3.057  -1.184 -0.3202 -0.2178 -0.1849
   20CHTO   C21 8366   6.698   2.838  -1.159 -0.2455  0.2253  0.1517
   20CHTO   H49 8367   6.756   2.880  -1.242 -0.4188  2.6582  1.2053
   20CHTO    N4 8368   6.762   2.893  -1.031  0.2416  0.9532 -0.2912
   20CHTO   H41 8369   6.805   2.991  -1.041  0.6228  0.5755 -2.4893
   20CHTO   H42 8370   6.686   2.899  -0.954 -0.5042  0.7479 -1.0043
   20CHTO   C22 8371   6.728   2.686  -1.175  0.0653 -0.5232 -0.2550
   20CHTO   H50 8372   6.665   2.638  -1.100 -2.3680  2.5318 -0.2482
   20CHTO   O14 8373   6.690   2.644  -1.310  0.3422 -0.4064 -0.0606
   20CHTO   C23 8374   6.545   2.649  -1.323  0.5134 -0.0897 -0.1965
   20CHTO   H51 8375   6.503   2.584  -1.245 -0.7321  1.0522  0.1103
   20CHTO   C34 8376   6.520   2.564  -1.448  0.2922 -0.3381 -0.3207
   20CHTO   O23 8377   6.391   2.567  -1.502 -0.2090  0.1862  0.7022
   20CHTO   H38 8378   6.382   2.521  -1.583 -1.5266  1.4334  0.1100
   20CHTO   O16 8379   6.866   2.649  -1.173 -0.3912 -0.6116  0.4451
   20CHTO   C24 8380   6.934   2.503  -1.109  0.5547 -0.3849  0.9422
   20CHTO   H52 8381   6.889   2.472  -1.015 -0.4107 -0.1050  0.5834
   20CHTO   C26 8382   7.088   2.524  -1.096 -0.1418  0.1236  0.0028
   20CHTO   H54 8383   7.118   2.573  -1.191 -0.8483  0.9256  0.1825
   20CHTO   O20 8384   7.118   2.622  -1.007 -0.5463  0.1089  0.2365
   20CHTO   H36 8385   7.079   2.611  -0.923 -1.2318  1.2367  0.0741
   20CHTO   C30 8386   7.171   2.397  -1.063  0.0620  0.4730  0.9258
   20CHTO   H58 8387   7.209   2.401  -0.960  1.3029 -0.1263  0.5025
   20CHTO    N6 8388   7.296   2.386  -1.148 -0.6160 -0.3342 -0.4418
   20CHTO   H45 8389   7.340   2.289  -1.129  0.1823  0.2928  0.9342
   20CHTO   H46 8390   7.366   2.459  -1.110  0.2148 -0.8128 -1.0205
   20CHTO   C33 8391   7.080   2.269  -1.073  0.2886 -0.0236 -0.0202
   20CHTO   H61 8392   7.143   2.179  -1.075  2.0391  1.1908 -0.1232
   20CHTO   O18 8393   6.992   2.276  -1.191 -0.9014  0.7224 -0.2334
   20CHTO   C28 8394   6.909   2.389  -1.211 -0.2651 -0.1698  0.1256
   20CHTO   H56 8395   6.929   2.432  -1.310  2.3739 -0.0710  0.6576
   20CHTO   C35 8396   6.761   2.351  -1.202  0.1859 -0.0383 -0.1279
   20CHTO   O24 8397   6.724   2.280  -1.316 -0.8725 -0.1681 -0.4229
   20CHTO   H39 8398   6.632   2.282  -1.336 -0.9362 -0.4328 -0.1623
   20CHTO    O9 8399   7.000   2.256  -0.952 -0.4267  0.3044 -0.1526
   20CHTO   C13 8400   6.979   2.081  -0.882  1.1846  0.0330 -0.4088
   20CHTO   H26 8401   7.079   2.034  -0.871  1.4033 -0.0507 -2.5790
   20CHTO   C11 8402   6.889   2.006  -0.989 -0.0839  0.7804 -0.3343
   20CHTO   H24 8403   6.959   1.988  -1.073  1.8241 -0.0950  1.3806
   20CHTO    O8 8404   6.778   2.081  -1.047  0.4976 -0.4456 -0.1570
   20CHTO    H3 8405   6.699   2.033  -1.032 -0.0798  0.2108 -1.0815
   20CHTO    C9 8406   6.839   1.874  -0.927  0.4447 -0.0775  0.4230
   20CHTO   H22 8407   6.925   1.830  -0.875 -0.2567 -2.7804 -0.6155
   20CHTO    N2 8408   6.795   1.770  -1.025  0.4201 -0.0091 -0.2115
   20CHTO   H10 8409   6.775   1.825  -1.116 -0.2137  0.4777  0.2195
   20CHTO   H11 8410   6.705   1.726  -0.986 -0.6663  3.0480  0.8143
   20CHTO    C7 8411   6.732   1.917  -0.807 -0.4805 -0.0085 -0.1915
   20CHTO   H20 8412   6.737   1.834  -0.732 -2.2133 -0.2941 -0.3693
   20CHTO    O4 8413   6.765   2.047  -0.741 -0.0652  0.5265  0.0395
   20CHTO   C14 8414   6.907   2.073  -0.739 -0.5725  0.3356  0.7845
   20CHTO   H27 8415   6.954   1.985  -0.689  0.5032  0.5272  0.1364
   20CHTO   C18 8416   6.939   2.195  -0.657  0.3161  0.2854  0.1147
   20CHTO   O13 8417   7.076   2.235  -0.643 -0.4203  0.2893 -0.1351
   20CHTO    H7 8418   7.095   2.308  -0.697  0.9566  0.3124  0.3528
   20CHTO    O2 8419   6.585   1.928  -0.872 -0.8353 -0.0096  0.0361
   20CHTO    C1 8420   6.476   1.915  -0.780  0.5448  0.5528  0.2002
   20CHTO   H14 8421   6.516   1.927  -0.677  1.2222  0.1207 -0.0070
   20CHTO    C2 8422   6.394   1.774  -0.789  0.1878 -0.4030  0.3163
   20CHTO   H15 8423   6.364   1.760  -0.894  1.3390  0.8344 -0.1887
   20CHTO    O6 8424   6.487   1.663  -0.759 -0.3861 -0.3374 -0.0275
   20CHTO    H1 8425   6.522   1.630  -0.840 -2.2457  0.7213 -1.3141
   20CHTO    C3 8426   6.263   1.773  -0.697  0.5863 -0.3260 -0.3999
   20CHTO   H16 8427   6.290   1.762  -0.591  0.0072  1.9689  0.0202
   20CHTO    N1 8428   6.173   1.650  -0.723  0.1595  0.2013  0.2407
   20CHTO    H8 8429   6.069   1.676  -0.737  0.2631  1.3484  1.4165
   20CHTO    H9 8430   6.217   1.596  -0.805  1.5324 -0.7083  1.5454
   20CHTO    C4 8431   6.181   1.906  -0.699 -0.0877 -0.3912 -0.7554
   20CHTO   H17 8432   6.117   1.905  -0.788  0.2399  2.3849 -1.0529
   20CHTO    O1 8433   6.256   2.028  -0.705  0.1366 -0.1072  0.3012
   20CHTO    C5 8434   6.367   2.023  -0.799  0.0959  0.0254  0.4209
   20CHTO   H18 8435   6.316   1.998  -0.892  0.3109 -1.9013  0.7898
   20CHTO   C16 8436   6.419   2.170  -0.803  0.0406  0.1236  0.2971
   20CHTO   O11 8437   6.523   2.192  -0.903 -0.5936 -0.0741 -0.5429
   20CHTO    H5 8438   6.607   2.159  -0.878 -0.5599 -2.7983 -3.8425
   20CHTO    O3 8439   6.109   1.923  -0.575  0.2616 -0.2780  0.0000
   20CHTO    C6 8440   5.969   1.977  -0.588 -0.0048  0.6985  0.0601
   20CHTO   H19 8441   5.954   2.012  -0.690 -1.7272  0.9038  0.3698
   20CHTO    C8 8442   5.870   1.864  -0.534 -0.1163  0.4396 -0.1964
   20CHTO   H21 8443   5.903   1.827  -0.437  1.2712 -0.2208 -0.9105
   20CHTO    O7 8444   5.878   1.750  -0.619 -0.1045 -0.2710 -0.2443
   20CHTO    H2 8445   5.875   1.778  -0.708 -1.7947  1.1787  0.2464
   20CHTO   C12 8446   5.723   1.930  -0.528 -0.0599 -0.0897 -0.2310
   20CHTO   H25 8447   5.694   1.959  -0.631  0.2472 -1.4189 -0.7029
   20CHTO    N3 8448   5.627   1.824  -0.480 -0.4906  0.5887  0.1820
   20CHTO   H12 8449   5.609   1.749  -0.556 -1.2279  2.9609 -2.0982
   20CHTO   H13 8450   5.531   1.866  -0.454 -0.8003 -1.5035  2.5761
   20CHTO   C15 8451   5.724   2.055  -0.433 -0.0731 -0.9579  0.5489
   20CHTO   H28 8452   5.742   2.039  -0.327 -0.6430  0.7734  0.9336
   20CHTO   O10 8453   5.601   2.142  -0.431 -0.5242  0.3065  0.4465
   20CHTO    H4 8454   5.603   2.202  -0.359  1.4945  2.0173 -0.9832
   20CHTO    O5 8455   5.819   2.150  -0.488  0.3179 -0.3164 -0.1494
   20CHTO   C10 8456   5.952   2.110  -0.500  0.7510  0.1034 -0.4346
   20CHTO   H23 8457   5.972   2.098  -0.394 -0.6551 -0.6470 -0.2424
   20CHTO   C17 8458   6.036   2.220  -0.568 -0.0652 -1.2409 -0.7487
   20CHTO   O12 8459   6.171   2.217  -0.533 -0.2997  0.0554  0.4317
   20CHTO    H6 8460   6.207   2.131  -0.541 -0.2518  0.0961  0.1980
   21GLOH   H03 8461   8.730   1.607   2.430  0.7127 -1.5747  2.0364
   21GLOH    O1 8462   8.794   1.679   2.446 -0.3058 -0.1757 -0.1128
   21GLOH    C1 8463   8.782   1.767   2.336 -0.0042 -0.4143  0.0729
   21GLOH   H02 8464   8.685   1.813   2.318 -0.2727 -1.3303 -0.8427
   21GLOH   H08 8465   8.803   1.716   2.243  0.9239  2.8129 -1.5690
   21GLOH    C2 8466   8.873   1.892   2.344 -0.8599 -0.0785 -0.6591
   21GLOH   H04 8467   8.877   1.935   2.445  1.9219  0.3801 -0.9249
   21GLOH    O2 8468   9.010   1.856   2.307  0.3338  0.1352 -0.1247
   21GLOH   H05 8469   9.027   1.866   2.211  1.5848 -2.0736 -0.1605
   21GLOH    C3 8470   8.814   2.001   2.247 -0.2507 -0.1804 -0.4399
   21GLOH   H06 8471   8.881   2.086   2.236 -1.4215  1.0880  1.9493
   21GLOH   H07 8472   8.726   2.034   2.303  0.7611  1.0953  0.4155
   21GLOH    O3 8473   8.785   1.960   2.113  0.4070 -0.1801  0.3755
   21GLOH   H01 8474   8.865   1.925   2.069 -0.2967 -2.2024  0.6446
   22GLOH   H03 8475   4.091   6.193   2.930  1.7773  0.6839 -1.4802
   22GLOH    O1 8476   4.125   6.279   2.960  0.1149  0.7974  0.1085
   22GLOH    C1 8477   4.080   6.330   3.085 -0.5881 -0.4837 -0.5726
   22GLOH   H02 8478   4.158   6.397   3.121 -0.4572 -1.1902  0.5143
   22GLOH   H08 8479   4.082   6.247   3.157  2.5339  0.7455  0.8451
   22GLOH    C2 8480   3.949   6.401   3.079  0.3108  0.4724 -0.3504
   22GLOH   H04 8481   3.883   6.344   3.012  0.7051 -0.9060  0.4134
   22GLOH    O2 8482   3.883   6.405   3.209  0.0543 -0.1963 -0.1774
   22GLOH   H05 8483   3.793   6.370   3.203 -0.4835  1.3226 -1.3002
   22GLOH    C3 8484   3.964   6.542   3.018 -0.6177 -0.1659  0.7750
   22GLOH   H06 8485   4.032   6.610   3.069 -0.4184 -0.9986  1.6074
   22GLOH   H07 8486   3.868   6.592   3.031 -0.8424 -0.1580 -0.7928
   22GLOH    O3 8487   3.995   6.517   2.880  1.1934  0.0956 -0.0027
   22GLOH   H01 8488   4.090   6.498   2.876  1.9597  2.5121  3.8245
   23GLOH   H03 8489   7.740   8.779   4.236  2.1324 -0.6711 -0.2934
   23GLOH    O1 8490   7.760   8.773   4.331 -0.5207 -0.3638  0.3476
   23GLOH    C1 8491   7.790   8.631   4.351 -0.2300 -0.2731 -0.1951
   23GLOH   H02 8492   7.853   8.621   4.439  2.1561 -0.1713 -1.8398
   23GLOH   H08 8493   7.859   8.600   4.272  1.1088 -1.7840  1.5199
   23GLOH    C2 8494   7.668   8.542   4.363  0.3506 -0.0514  0.4383
   23GLOH   H04 8495   7.595   8.587   4.432 -1.0848 -1.3976 -0.1746
   23GLOH    O2 8496   7.608   8.530   4.232  0.3112  0.1469  0.0222
   23GLOH   H05 8497   7.515   8.505   4.240 -0.8035  4.3163  1.7822
   23GLOH    C3 8498   7.708   8.402   4.406 -0.4976 -0.1037 -0.1650
   23GLOH   H06 8499   7.765   8.352   4.328 -0.3437  0.9975 -0.7544
   23GLOH   H07 8500   7.619   8.339   4.413  0.8182 -1.9136  0.7650
   23GLOH    O3 8501   7.772   8.410   4.539  0.6834 -0.2332  0.5526
   23GLOH   H01 8502   7.819   8.326   4.552 -0.4388 -0.7748  1.1591
   24GLOH   H03 8503   8.946   3.338   2.525  0.3704  0.7182  0.6951
   24GLOH    O1 8504   9.033   3.294   2.535  0.1344  0.1994  0.4700
   24GLOH    C1 8505   9.009   3.167   2.596 -0.2825  0.2439 -0.3719
   24GLOH   H02 8506   9.085   3.150   2.672  1.0161 -0.5962 -1.8418
   24GLOH   H08 8507   9.019   3.086   2.524  0.7481  0.5118 -0.5394
   24GLOH    C2 8508   8.870   3.143   2.651  0.3048 -0.3139 -0.5618
   24GLOH   H04 8509   8.850   3.240   2.698 -0.6690 -0.0443 -1.5170
   24GLOH    O2 8510   8.764   3.121   2.559  0.2663 -0.3073  0.1348
   24GLOH   H05 8511   8.784   3.036   2.516  0.4688 -0.5346  0.6721
   24GLOH    C3 8512   8.868   3.038   2.761  0.1032  0.3360  0.2221
   24GLOH   H06 8513   8.769   3.025   2.805  0.6616  0.5966  1.5911
   24GLOH   H07 8514   8.937   3.065   2.841 -0.0628  0.6680  0.2535
   24GLOH    O3 8515   8.911   2.907   2.719 -0.0576 -0.6029  0.0082
   24GLOH   H01 8516   9.001   2.889   2.752 -1.2599 -1.3382  2.9935
   25GLOH   H03 8517   5.825   8.742   2.458 -0.3013  0.4600  0.7901
   25GLOH    O1 8518   5.802   8.658   2.503 -0.3990  0.1261  0.1289
   25GLOH    C1 8519   5.842   8.555   2.412  0.8277  0.9875  0.3174
   25GLOH   H02 8520   5.822   8.457   2.454 -1.1533  1.1995 -0.1121
   25GLOH   H08 8521   5.948   8.567   2.390  1.2193 -2.6577 -0.1474
   25GLOH    C2 8522   5.756   8.565   2.282  0.1768  0.5330 -0.1530
   25GLOH   H04 8523   5.755   8.668   2.244 -0.7631  0.6629  0.2117
   25GLOH    O2 8524   5.815   8.474   2.183 -0.3979  0.1272 -0.2961
   25GLOH   H05 8525   5.755   8.483   2.107 -2.1703 -4.6917  0.3768
   25GLOH    C3 8526   5.607   8.529   2.316 -0.8136  0.4293 -0.1096
   25GLOH   H06 8527   5.589   8.422   2.321 -2.6158  0.6934 -0.5678
   25GLOH   H07 8528   5.546   8.564   2.233  0.8260 -2.7176 -2.7971
   25GLOH    O3 8529   5.566   8.589   2.440 -0.3599  0.2991 -0.0896
   25GLOH   H01 8530   5.640   8.587   2.504  1.0070 -3.7467 -1.6557
   26GLOH   H03 8531   6.345   9.127   4.623  0.1633 -0.2933 -0.1918
   26GLOH    O1 8532   6.335   9.059   4.554  0.5519 -0.2080 -0.3302
   26GLOH    C1 8533   6.207   9.088   4.493 -0.1369 -0.3465  0.2560
   26GLOH   H02 8534   6.122   9.066   4.557 -0.2060  0.6500  0.5128
   26GLOH   H08 8535   6.194   9.036   4.397  2.4440  0.3229 -0.4821
   26GLOH    C2 8536   6.211   9.240   4.457  0.3677 -0.5187  1.0421
   26GLOH   H04 8537   6.302   9.256   4.396 -1.0700  0.3974 -0.9405
   26GLOH    O2 8538   6.092   9.285   4.383  0.2028  0.2991  0.4787
   26GLOH   H05 8539   6.123   9.323   4.299  0.3356 -2.9610 -1.0023
   26GLOH    C3 8540   6.212   9.330   4.583 -0.0395  0.1569 -0.0122
   26GLOH   H06 8541   6.124   9.307   4.644  0.3537  0.3005  0.6224
   26GLOH   H07 8542   6.211   9.435   4.556 -2.1469  0.3256  0.6293
   26GLOH    O3 8543   6.334   9.302   4.649  0.3047  0.0944 -0.3179
   26GLOH   H01 8544   6.393   9.380   4.653 -0.4113  0.6355 -0.3589
   27GLOH   H03 8545   1.149   7.321   4.377  0.2684  0.5955 -1.1159
   27GLOH    O1 8546   1.188   7.334   4.465 -0.5691 -0.4784 -0.5771
   27GLOH    C1 8547   1.180   7.476   4.501 -0.0798  0.1044 -0.1353
   27GLOH   H02 8548   1.276   7.524   4.479 -0.2240  0.3423 -0.2504
   27GLOH   H08 8549   1.164   7.489   4.608 -0.8250 -0.8523 -0.1298
   27GLOH    C2 8550   1.066   7.554   4.430 -0.4461  0.8482 -0.3547
   27GLOH   H04 8551   0.966   7.526   4.466  0.5571  0.3097  2.0750
   27GLOH    O2 8552   1.082   7.696   4.453 -0.6745 -0.1174 -0.7940
   27GLOH   H05 8553   0.996   7.739   4.442  0.3805  1.6106 -2.5462
   27GLOH    C3 8554   1.082   7.524   4.278 -0.6808  0.0136  0.3390
   27GLOH   H06 8555   1.184   7.548   4.249 -0.5420  0.8987  1.5120
   27GLOH   H07 8556   1.017   7.583   4.213  0.8001 -1.4036 -2.5264
   27GLOH    O3 8557   1.056   7.375   4.262 -0.0191  0.6069  0.0479
   27GLOH   H01 8558   1.104   7.353   4.180  1.2421  2.1160  0.3625
   28GLOH   H03 8559   3.430   3.672   0.849  1.8327 -0.2367 -0.2356
   28GLOH    O1 8560   3.395   3.620   0.775 -0.2334  0.1981  0.4139
   28GLOH    C1 8561   3.474   3.683   0.669 -0.3018  0.1069  0.1526
   28GLOH   H02 8562   3.437   3.785   0.654  0.4005  0.2388 -0.7380
   28GLOH   H08 8563   3.452   3.637   0.573  1.2207  0.5392 -0.4241
   28GLOH    C2 8564   3.628   3.686   0.670  0.4210  0.5186  0.4063
   28GLOH   H04 8565   3.667   3.714   0.571  1.2861 -1.7972  0.0468
   28GLOH    O2 8566   3.669   3.790   0.765 -0.0703 -0.3179  0.1684
   28GLOH   H05 8567   3.613   3.780   0.844 -2.2923 -1.1758 -1.4706
   28GLOH    C3 8568   3.689   3.551   0.700 -0.1209  0.0796 -0.4037
   28GLOH   H06 8569   3.656   3.517   0.799  2.0446  2.7367  1.3069
   28GLOH   H07 8570   3.798   3.552   0.710 -0.2829 -0.0909  1.6775
   28GLOH    O3 8571   3.649   3.457   0.604  0.3802 -0.0148 -0.2598
   28GLOH   H01 8572   3.575   3.403   0.637  2.0654 -0.1188  3.5487
   29GLOH   H03 8573   3.757   3.437   4.121 -0.1442  0.9706  2.1574
   29GLOH    O1 8574   3.692   3.378   4.163 -0.3998 -0.2546  0.0892
   29GLOH    C1 8575   3.708   3.253   4.094  0.5054 -0.3740 -0.0344
   29GLOH   H02 8576   3.613   3.201   4.105  0.2283 -0.0390 -0.8134
   29GLOH   H08 8577   3.787   3.193   4.138 -0.9354 -2.2937 -0.0132
   29GLOH    C2 8578   3.750   3.254   3.946 -0.2076  0.2961  0.1177
   29GLOH   H04 8579   3.827   3.332   3.943  2.6515 -2.4679 -2.1876
   29GLOH    O2 8580   3.798   3.123   3.903 -0.4061 -0.0043 -0.2366
   29GLOH   H05 8581   3.895   3.120   3.897 -0.3543 -1.5169  0.9432
   29GLOH    C3 8582   3.635   3.291   3.849 -0.6102 -0.1915 -0.3453
   29GLOH   H06 8583   3.555   3.217   3.838  0.0178 -1.1221  1.2248
   29GLOH   H07 8584   3.685   3.306   3.753 -1.4660  2.2740 -0.4508
   29GLOH    O3 8585   3.592   3.421   3.881  0.9969  0.0029 -0.5186
   29GLOH   H01 8586   3.654   3.485   3.841 -0.9250  0.1736 -3.3781
   30GLOH   H03 8587   9.314   4.960   2.097  1.8590 -1.4460  0.3397
   30GLOH    O1 8588   9.377   5.033   2.113 -0.1981  0.5495 -0.2785
   30GLOH    C1 8589   9.488   5.027   2.019  0.3742 -0.2168 -0.0545
   30GLOH   H02 8590   9.525   5.127   1.997  1.0575 -0.1250  1.4199
   30GLOH   H08 8591   9.459   4.986   1.923  0.0672  0.5833 -0.3076
   30GLOH    C2 8592   9.609   4.942   2.072  0.4034  0.3169  0.2225
   30GLOH   H04 8593   9.569   4.847   2.110 -2.0460  0.5743 -1.5983
   30GLOH    O2 8594   9.696   4.908   1.963  0.0256  0.3059  0.5837
   30GLOH   H05 8595   9.636   4.887   1.889 -0.6871  0.7981  1.0196
   30GLOH    C3 8596   9.678   5.016   2.189  0.5451 -0.3048 -0.0156
   30GLOH   H06 8597   9.602   5.035   2.264  1.0112  1.3515  0.0563
   30GLOH   H07 8598   9.697   5.118   2.156  0.3184 -0.3759 -0.3697
   30GLOH    O3 8599   9.800   4.960   2.236 -0.6016 -0.5238  0.9352
   30GLOH   H01 8600   9.839   4.909   2.162  0.7852 -0.0480  1.3361
   31GLOH   H03 8601   2.408   5.262   0.457 -0.2803 -0.3672 -1.2992
   31GLOH    O1 8602   2.417   5.166   0.472 -0.2499 -0.2953 -0.8376
   31GLOH    C1 8603   2.539   5.158   0.551  0.7958  0.0435 -0.5535
   31GLOH   H02 8604   2.617   5.192   0.483  0.0279 -1.4505 -2.2343
   31GLOH   H08 8605   2.570   5.059   0.584  1.4947  0.6897  0.7489
   31GLOH    C2 8606   2.551   5.259   0.668 -0.2655 -0.0223  0.2895
   31GLOH   H04 8607   2.645   5.227   0.715  1.2971 -1.9362 -3.9310
   31GLOH    O2 8608   2.546   5.398   0.631 -0.2860 -0.3208  0.4045
   31GLOH   H05 8609   2.472   5.419   0.572  0.5401  0.8812 -0.2216
   31GLOH    C3 8610   2.441   5.248   0.775 -0.2291 -0.7370  0.0582
   31GLOH   H06 8611   2.347   5.286   0.735 -0.9853 -1.7337  0.8609
   31GLOH   H07 8612   2.465   5.316   0.857 -0.7937 -0.0353 -0.3483
   31GLOH    O3 8613   2.425   5.118   0.824  0.0335  0.2345  0.1460
   31GLOH   H01 8614   2.427   5.048   0.757 -1.3645  1.3287 -1.0723
   32GLOH   H03 8615   9.250   0.517   4.865 -1.5941  2.4531  0.0858
   32GLOH    O1 8616   9.272   0.522   4.960 -0.0288  0.1087 -0.1319
   32GLOH    C1 8617   9.418   0.558   4.966  0.6794 -0.1665 -0.8147
   32GLOH   H02 8618   9.480   0.468   4.956 -0.4016 -0.7215 -2.6428
   32GLOH   H08 8619   9.439   0.601   5.064 -1.5808 -1.7810  0.4303
   32GLOH    C2 8620   9.459   0.656   4.851  0.4562  0.6307 -0.5026
   32GLOH   H04 8621   9.394   0.745   4.855 -0.2516  0.1391 -0.7561
   32GLOH    O2 8622   9.595   0.691   4.864 -0.2499  0.5539 -0.0462
   32GLOH   H05 8623   9.612   0.780   4.898  0.5882  0.7604 -0.9816
   32GLOH    C3 8624   9.440   0.600   4.705  0.4742 -0.2464 -0.1020
   32GLOH   H06 8625   9.522   0.529   4.694 -0.2297 -0.9211 -1.0874
   32GLOH   H07 8626   9.443   0.683   4.635  1.3398  0.1410  0.3936
   32GLOH    O3 8627   9.306   0.546   4.691 -0.0573 -0.1346 -0.9583
   32GLOH   H01 8628   9.246   0.598   4.635 -0.2004  0.5320 -0.1971
   33GLOH   H03 8629   1.051   9.558   4.119  1.5580  1.6122 -0.8370
   33GLOH    O1 8630   0.975   9.586   4.173  1.2320  0.0530 -0.4548
   33GLOH    C1 8631   1.012   9.632   4.312 -0.0763  0.2060 -0.5384
   33GLOH   H02 8632   1.025   9.739   4.324  1.0917  0.1584 -1.2379
   33GLOH   H08 8633   1.115   9.602   4.332 -0.1937 -0.3309 -0.7141
   33GLOH    C2 8634   0.914   9.574   4.415  0.1915  0.5018 -0.4418
   33GLOH   H04 8635   0.929   9.465   4.422  0.2818  0.6041  1.0571
   33GLOH    O2 8636   0.937   9.630   4.542  0.0399 -0.2373 -0.2204
   33GLOH   H05 8637   1.030   9.611   4.564  0.5539  2.5247  0.1630
   33GLOH    C3 8638   0.772   9.607   4.370  0.4215 -0.1328  0.3868
   33GLOH   H06 8639   0.770   9.715   4.354 -1.5604 -0.1821  0.2293
   33GLOH   H07 8640   0.695   9.581   4.443  0.0806  1.5235  0.6342
   33GLOH    O3 8641   0.734   9.550   4.244 -0.1989  0.7363  0.3835
   33GLOH   H01 8642   0.814   9.548   4.188  0.8750 -1.5057  1.8859
   34GLOH   H03 8643   6.816   9.358   0.831 -1.1680  0.1074 -1.0163
   34GLOH    O1 8644   6.768   9.317   0.905 -0.4257  0.0473 -0.5633
   34GLOH    C1 8645   6.846   9.197   0.928  0.0342  1.2531  0.1793
   34GLOH   H02 8646   6.886   9.153   0.836 -0.7689  0.5808  0.1464
   34GLOH   H08 8647   6.791   9.119   0.980 -0.3562  0.2035 -1.7709
   34GLOH    C2 8648   6.969   9.231   1.016  0.3840  1.4866  0.4310
   34GLOH   H04 8649   6.946   9.289   1.106 -1.2998  0.8317  0.4429
   34GLOH    O2 8650   7.027   9.111   1.060 -0.0367  0.0356 -0.1548
   34GLOH   H05 8651   7.099   9.140   1.118  0.6470 -0.6956 -0.6339
   34GLOH    C3 8652   7.082   9.307   0.936  0.7908  0.0668 -0.1806
   34GLOH   H06 8653   7.096   9.251   0.844  2.9099 -2.2237  1.4735
   34GLOH   H07 8654   7.174   9.305   0.995 -0.8263 -2.2086  2.4379
   34GLOH    O3 8655   7.042   9.442   0.918  0.2647 -0.0283 -0.0473
   34GLOH   H01 8656   7.010   9.470   1.006 -3.2419 -0.8509 -0.9810
   35GLOH   H03 8657   3.341   2.387   4.330  2.1698  1.4544  2.5403
   35GLOH    O1 8658   3.296   2.330   4.394  0.0059  0.3407  0.1046
   35GLOH    C1 8659   3.352   2.362   4.524  0.2103 -0.2759 -0.4629
   35GLOH   H02 8660   3.375   2.468   4.537 -0.6776 -0.1214 -0.0864
   35GLOH   H08 8661   3.447   2.311   4.537  0.3510 -0.3988 -1.8501
   35GLOH    C2 8662   3.265   2.307   4.634  0.1378  0.2477 -0.3330
   35GLOH   H04 8663   3.270   2.198   4.622  1.0565  0.1580  0.8163
   35GLOH    O2 8664   3.316   2.325   4.769 -0.0055 -0.6659  0.0967
   35GLOH   H05 8665   3.289   2.416   4.787  3.4238  0.5845 -0.6190
   35GLOH    C3 8666   3.115   2.346   4.620 -0.0423  0.1923  0.1871
   35GLOH   H06 8667   3.061   2.293   4.698  0.8241  0.0681  0.7184
   35GLOH   H07 8668   3.090   2.298   4.526 -0.2840  2.5982 -1.0340
   35GLOH    O3 8669   3.086   2.486   4.616 -0.2435  0.5448 -0.3487
   35GLOH   H01 8670   2.994   2.497   4.644 -0.0265 -0.1930  0.6683
   36GLOH   H03 8671   5.117   8.217   5.575 -0.8091 -0.5053  0.1597
   36GLOH    O1 8672   5.106   8.135   5.523  0.4573 -0.4988 -0.1251
   36GLOH    C1 8673   5.100   8.172   5.384  0.0614  0.1925 -0.0025
   36GLOH   H02 8674   5.136   8.090   5.322 -3.6803 -2.0218  0.5465
   36GLOH   H08 8675   5.157   8.263   5.366  1.1692 -0.1611  1.5690
   36GLOH    C2 8676   4.949   8.200   5.347  0.0315  0.2300 -0.0457
   36GLOH   H04 8677   4.912   8.285   5.408 -0.8211 -1.1130  1.3447
   36GLOH    O2 8678   4.939   8.236   5.203 -0.1322 -0.9970 -0.4819
   36GLOH   H05 8679   5.019   8.284   5.175 -1.3417  0.5869 -1.3356
   36GLOH    C3 8680   4.853   8.080   5.361 -0.4546 -0.9750 -0.0771
   36GLOH   H06 8681   4.876   7.995   5.297 -0.2427 -0.2189 -1.0357
   36GLOH   H07 8682   4.758   8.121   5.327 -1.3482 -0.8799  2.4644
   36GLOH    O3 8683   4.847   8.044   5.499  0.7478  0.9310  0.0574
   36GLOH   H01 8684   4.925   8.063   5.555 -0.2550 -0.0975  1.8411
   37GLOH   H03 8685   4.316   3.255   3.968  1.3458  0.2900  1.8054
   37GLOH    O1 8686   4.325   3.164   3.935 -0.6451  0.6687  0.1383
   37GLOH    C1 8687   4.409   3.182   3.825 -0.1576  0.1286  0.3924
   37GLOH   H02 8688   4.411   3.101   3.752  0.1422  0.8524 -0.4151
   37GLOH   H08 8689   4.513   3.178   3.858 -0.1004  0.5452  0.2715
   37GLOH    C2 8690   4.399   3.316   3.745 -0.3500 -0.1308 -0.8632
   37GLOH   H04 8691   4.294   3.331   3.717 -0.4154 -0.6189 -0.8810
   37GLOH    O2 8692   4.446   3.423   3.835 -0.3655  0.3632 -0.4724
   37GLOH   H05 8693   4.375   3.433   3.901 -0.5936 -2.4422 -0.2205
   37GLOH    C3 8694   4.467   3.301   3.607 -0.1639 -0.2054 -0.2418
   37GLOH   H06 8695   4.576   3.303   3.618 -0.4399  3.3455  2.6782
   37GLOH   H07 8696   4.444   3.389   3.548 -1.2638  0.9303  1.8137
   37GLOH    O3 8697   4.416   3.184   3.543  0.6967 -0.6125  0.4150
   37GLOH   H01 8698   4.331   3.213   3.506  0.2721 -1.8990  0.3575
   38GLOH   H03 8699   6.969   3.732   0.579 -0.1787 -0.2004 -1.1889
   38GLOH    O1 8700   6.910   3.655   0.584 -0.1574 -0.1872 -0.7622
   38GLOH    C1 8701   6.825   3.646   0.469 -0.1096 -0.5503  0.4764
   38GLOH   H02 8702   6.769   3.553   0.467 -0.5049 -0.2960 -0.2378
   38GLOH   H08 8703   6.892   3.649   0.384 -0.1929  0.5468  0.4464
   38GLOH    C2 8704   6.733   3.768   0.461  0.0259 -0.2069 -0.2521
   38GLOH   H04 8705   6.790   3.861   0.468  0.2786 -0.4897  1.9222
   38GLOH    O2 8706   6.678   3.771   0.326 -0.5394 -0.4437 -0.2246
   38GLOH   H05 8707   6.752   3.795   0.269  1.9845  0.6758  3.3082
   38GLOH    C3 8708   6.625   3.753   0.569  0.2886 -0.0417  0.1939
   38GLOH   H06 8709   6.587   3.651   0.562 -0.0906 -0.0369  2.0133
   38GLOH   H07 8710   6.541   3.819   0.548 -0.2469 -0.5251  0.8089
   38GLOH    O3 8711   6.690   3.768   0.696  0.2809  0.9878 -0.3756
   38GLOH   H01 8712   6.758   3.698   0.690  0.4565  1.2269 -1.2072
   39GLOH   H03 8713   7.119   3.136   0.993 -0.4124 -1.1932 -0.6670
   39GLOH    O1 8714   7.053   3.197   1.032  0.6895 -0.3491 -0.1050
   39GLOH    C1 8715   7.113   3.325   1.066 -0.3684 -0.3853  0.6859
   39GLOH   H02 8716   7.040   3.389   1.116 -2.7078 -1.2326 -1.5113
   39GLOH   H08 8717   7.128   3.389   0.979 -1.6640 -0.6128  0.2751
   39GLOH    C2 8718   7.243   3.316   1.146  0.0017  0.3789 -0.1182
   39GLOH   H04 8719   7.314   3.258   1.085 -0.3369 -0.4170  0.2359
   39GLOH    O2 8720   7.299   3.451   1.163 -0.3397  0.3572  0.0301
   39GLOH   H05 8721   7.384   3.444   1.115 -0.4770 -1.1442 -0.0215
   39GLOH    C3 8722   7.208   3.254   1.288  0.0383  0.1325 -1.1181
   39GLOH   H06 8723   7.149   3.167   1.261 -3.2400  2.1555 -0.8427
   39GLOH   H07 8724   7.149   3.323   1.349  0.1628  0.0825 -0.9389
   39GLOH    O3 8725   7.330   3.211   1.359  0.6318  0.7721  0.1738
   39GLOH   H01 8726   7.380   3.148   1.304  0.4654  2.3961 -1.8852
   40GLOH   H03 8727   4.933   0.086   2.517  0.3875  1.1124 -0.3096
   40GLOH    O1 8728   4.990   0.042   2.453  0.3267  0.0388  0.3637
   40GLOH    C1 8729   4.923  -0.078   2.413 -0.5019 -0.1151 -0.4435
   40GLOH   H02 8730   4.958  -0.100   2.313 -0.9763 -1.6465 -0.2836
   40GLOH   H08 8731   4.814  -0.074   2.413 -0.5980 -2.0593  0.9969
   40GLOH    C2 8732   4.967  -0.197   2.502 -0.1304  0.7761 -0.2784
   40GLOH   H04 8733   4.955  -0.177   2.610  1.1567  0.5378 -0.0758
   40GLOH    O2 8734   4.883  -0.307   2.460 -0.0569 -0.1690 -0.2363
   40GLOH   H05 8735   4.902  -0.386   2.514  1.2724  1.0635  1.1639
   40GLOH    C3 8736   5.113  -0.228   2.475 -1.1185  0.1383  0.4543
   40GLOH   H06 8737   5.128  -0.280   2.380  3.6621  0.8226  0.7492
   40GLOH   H07 8738   5.133  -0.301   2.554 -1.5965  0.3522  0.7785
   40GLOH    O3 8739   5.190  -0.104   2.499  0.6661 -0.2163 -0.1524
   40GLOH   H01 8740   5.127  -0.030   2.505  0.0822 -0.6860 -0.4647
   41GLOH   H03 8741   6.892   3.187   0.987  0.3506 -1.4944 -1.0649
   41GLOH    O1 8742   6.805   3.174   0.945 -0.1047 -0.4384 -0.4710
   41GLOH    C1 8743   6.741   3.302   0.952 -0.2031 -0.4333  0.4764
   41GLOH   H02 8744   6.749   3.348   1.051  0.6222 -0.5560  0.4635
   41GLOH   H08 8745   6.633   3.286   0.941 -0.0067 -1.7681  0.3566
   41GLOH    C2 8746   6.781   3.400   0.838 -0.2538 -0.1537 -0.0087
   41GLOH   H04 8747   6.731   3.498   0.843 -0.4956 -0.1519 -1.9197
   41GLOH    O2 8748   6.923   3.426   0.856 -0.0214  0.4583  0.4817
   41GLOH   H05 8749   6.932   3.521   0.874  0.5207  0.3286  0.9098
   41GLOH    C3 8750   6.758   3.339   0.699  0.5419  0.9275  0.2855
   41GLOH   H06 8751   6.829   3.257   0.685  1.3361  1.7956 -0.8622
   41GLOH   H07 8752   6.778   3.415   0.623  0.3105 -0.0879 -0.8048
   41GLOH    O3 8753   6.618   3.295   0.681 -0.1689  0.3344 -0.5000
   41GLOH   H01 8754   6.588   3.224   0.741 -0.2402 -0.8304 -1.8580
   42GLOH   H03 8755   5.651   4.323   0.287 -0.1774  1.3994  1.3577
   42GLOH    O1 8756   5.659   4.413   0.248  0.2198  0.3978 -0.9752
   42GLOH    C1 8757   5.626   4.522   0.338  0.5604  0.2657  0.7840
   42GLOH   H02 8758   5.681   4.615   0.323 -0.3809  0.5164 -1.1786
   42GLOH   H08 8759   5.648   4.493   0.441  0.0496 -2.1623  0.2427
   42GLOH    C2 8760   5.477   4.558   0.326 -0.1390  0.3495 -0.3339
   42GLOH   H04 8761   5.421   4.464   0.335  4.3654 -2.6564 -2.0200
   42GLOH    O2 8762   5.437   4.665   0.414  0.4434 -0.1346 -0.0801
   42GLOH   H05 8763   5.344   4.650   0.439  0.1445  0.4226 -0.8458
   42GLOH    C3 8764   5.459   4.611   0.183 -0.1194 -0.1352 -0.1095
   42GLOH   H06 8765   5.525   4.697   0.174 -0.2116  0.1207  1.5313
   42GLOH   H07 8766   5.356   4.646   0.170 -0.2923 -0.4920  0.2891
   42GLOH    O3 8767   5.493   4.513   0.084 -0.5897 -0.6747 -0.1024
   42GLOH   H01 8768   5.571   4.466   0.119  1.3552  1.4842 -1.3734
   43GLOH   H03 8769   6.696   4.341   0.691  0.4551 -2.8465  2.2076
   43GLOH    O1 8770   6.698   4.282   0.614  0.4892  0.3793 -0.4024
   43GLOH    C1 8771   6.588   4.300   0.522  0.3091 -0.3962  0.1715
   43GLOH   H02 8772   6.581   4.390   0.461 -1.3136  0.0579  1.0070
   43GLOH   H08 8773   6.504   4.313   0.589  2.2772  2.2153  2.2544
   43GLOH    C2 8774   6.571   4.191   0.420 -0.0073 -0.2430  0.6253
   43GLOH   H04 8775   6.554   4.098   0.476  2.4539 -1.1116 -0.0144
   43GLOH    O2 8776   6.457   4.223   0.335 -0.1828  0.1582  0.3836
   43GLOH   H05 8777   6.444   4.151   0.270 -2.2523 -0.4087  1.4146
   43GLOH    C3 8778   6.706   4.181   0.344 -0.3762  0.1895 -0.1567
   43GLOH   H06 8779   6.708   4.268   0.280  0.6285 -0.2423 -0.7372
   43GLOH   H07 8780   6.696   4.099   0.273 -2.4446  0.8002 -0.5886
   43GLOH    O3 8781   6.825   4.170   0.429  0.0032 -0.0275 -0.3670
   43GLOH   H01 8782   6.798   4.211   0.513 -1.9561 -0.0652 -0.9664
   44GLOH   H03 8783   2.073   0.272   1.079  0.4396  1.0652 -0.6683
   44GLOH    O1 8784   2.160   0.308   1.052  1.0382  0.3149  0.2403
   44GLOH    C1 8785   2.151   0.394   0.936  0.4678  0.2483  0.2491
   44GLOH   H02 8786   2.052   0.393   0.891  0.1758 -1.9033  0.8730
   44GLOH   H08 8787   2.222   0.361   0.859 -1.6627  0.4790 -1.8636
   44GLOH    C2 8788   2.179   0.538   0.986  0.1028 -0.2235 -0.0023
   44GLOH   H04 8789   2.233   0.532   1.082  1.5971 -1.4920 -0.9025
   44GLOH    O2 8790   2.260   0.604   0.883 -0.5895  0.0125  0.3573
   44GLOH   H05 8791   2.207   0.645   0.813 -0.6691 -0.6785  0.0087
   44GLOH    C3 8792   2.051   0.618   1.018  0.2990  0.3390 -0.9233
   44GLOH   H06 8793   1.989   0.609   0.929  0.5243  0.8686 -1.1354
   44GLOH   H07 8794   2.086   0.718   1.041 -0.0400  0.0333  0.9683
   44GLOH    O3 8795   1.969   0.558   1.122  0.2007  0.1774  0.1576
   44GLOH   H01 8796   1.878   0.536   1.093 -0.1590  1.7259  0.0815
   45GLOH   H03 8797   7.442   2.175   1.675  0.4914  1.6000 -2.9183
   45GLOH    O1 8798   7.359   2.132   1.647  0.1389  0.2971 -0.1245
   45GLOH    C1 8799   7.269   2.089   1.761  0.0306 -0.6370  0.3284
   45GLOH   H02 8800   7.167   2.119   1.740  0.1699  0.8074  1.6188
   45GLOH   H08 8801   7.297   2.143   1.851 -1.5300 -1.3075  1.2298
   45GLOH    C2 8802   7.287   1.939   1.793 -0.5916 -0.7709  0.1550
   45GLOH   H04 8803   7.395   1.920   1.799 -1.1192 -4.6414 -0.9707
   45GLOH    O2 8804   7.227   1.921   1.925  0.2781  0.0295  0.1865
   45GLOH   H05 8805   7.135   1.893   1.916  0.1719  0.3569  0.2655
   45GLOH    C3 8806   7.239   1.851   1.673 -0.0441 -0.4581 -0.0782
   45GLOH   H06 8807   7.134   1.872   1.653  0.1625  1.7652  0.9705
   45GLOH   H07 8808   7.240   1.745   1.697 -2.1008 -0.2280  1.1150
   45GLOH    O3 8809   7.320   1.882   1.560  0.4431  0.4075 -0.1134
   45GLOH   H01 8810   7.365   1.963   1.591  1.5129  0.2765 -1.2506
   46GLOH   H03 8811   3.755   4.254   3.011  1.7308  0.9193  1.8199
   46GLOH    O1 8812   3.805   4.174   2.986 -0.2217  0.1661  0.2092
   46GLOH    C1 8813   3.801   4.152   2.848  0.2976  0.2493 -0.3841
   46GLOH   H02 8814   3.828   4.050   2.821  1.0905  0.9339 -2.3184
   46GLOH   H08 8815   3.890   4.205   2.814  0.5816 -1.1276 -1.8720
   46GLOH    C2 8816   3.677   4.192   2.759  0.7039  0.1488  0.1853
   46GLOH   H04 8817   3.666   4.302   2.761 -0.1414  0.0661  0.0872
   46GLOH    O2 8818   3.689   4.151   2.628  0.0722 -0.0712  0.6264
   46GLOH   H05 8819   3.679   4.232   2.577 -1.5661 -0.1988  0.7282
   46GLOH    C3 8820   3.552   4.139   2.824 -0.8763  0.1175 -0.2754
   46GLOH   H06 8821   3.539   4.192   2.919  0.7954 -0.0082  0.0273
   46GLOH   H07 8822   3.547   4.033   2.850  0.9222  0.1212  0.1003
   46GLOH    O3 8823   3.439   4.172   2.743  0.4416 -0.3468 -0.4786
   46GLOH   H01 8824   3.425   4.116   2.664 -1.4066  0.7958 -1.0019
   47GLOH   H03 8825   3.202   7.741   4.254 -0.0342 -0.2826  1.8992
   47GLOH    O1 8826   3.105   7.733   4.252 -0.1055  0.5447  0.0655
   47GLOH    C1 8827   3.063   7.640   4.348  0.8036 -0.6231 -0.5627
   47GLOH   H02 8828   3.081   7.679   4.448  0.6499  1.0883 -1.1901
   47GLOH   H08 8829   3.133   7.556   4.346  3.0124  1.1689  0.2218
   47GLOH    C2 8830   2.919   7.599   4.334 -0.5950 -0.5416 -0.4580
   47GLOH   H04 8831   2.870   7.694   4.310  2.3322  0.7297 -1.5574
   47GLOH    O2 8832   2.877   7.512   4.234  0.1539  0.0477  0.4016
   47GLOH   H05 8833   2.836   7.439   4.283 -0.6325 -0.1211 -0.4823
   47GLOH    C3 8834   2.862   7.558   4.475  0.0938 -0.1503 -0.5335
   47GLOH   H06 8835   2.914   7.467   4.503 -0.3047  0.1320  1.2063
   47GLOH   H07 8836   2.759   7.522   4.468 -0.9634  2.7601 -1.1760
   47GLOH    O3 8837   2.876   7.660   4.569 -0.3324  0.3824 -0.3425
   47GLOH   H01 8838   2.798   7.719   4.560 -0.3870  0.2610 -0.6907
   48GLOH   H03 8839   0.548   1.950   3.775  0.3210  0.9729  1.3022
   48GLOH    O1 8840   0.456   1.934   3.802  0.2388 -0.7892  0.0437
   48GLOH    C1 8841   0.403   1.830   3.716 -0.1860 -0.6684  0.0400
   48GLOH   H02 8842   0.464   1.740   3.716 -0.6032 -0.9600 -1.1985
   48GLOH   H08 8843   0.402   1.882   3.620 -3.2303  1.9691  1.4088
   48GLOH    C2 8844   0.260   1.783   3.757  0.3723  0.5135 -0.5078
   48GLOH   H04 8845   0.207   1.878   3.772 -0.5872  0.1598 -1.5687
   48GLOH    O2 8846   0.202   1.707   3.653 -0.1071 -0.3793  0.4004
   48GLOH   H05 8847   0.171   1.764   3.581  2.2034  0.2963 -0.0821
   48GLOH    C3 8848   0.271   1.703   3.890 -0.1135  0.0459 -0.5697
   48GLOH   H06 8849   0.167   1.677   3.910  0.0749  0.3586  0.8862
   48GLOH   H07 8850   0.301   1.768   3.972  0.7377 -1.4097  0.2967
   48GLOH    O3 8851   0.350   1.582   3.888 -0.3973  0.6501  0.5192
   48GLOH   H01 8852   0.323   1.541   3.972 -2.1567 -1.3241 -0.9688
   49GLOH   H03 8853   9.450   7.535   2.008 -1.2539  1.2990  1.1825
   49GLOH    O1 8854   9.493   7.606   1.958 -0.6983 -0.1899 -0.5165
   49GLOH    C1 8855   9.627   7.618   2.002 -0.0834 -0.9283 -0.3497
   49GLOH   H02 8856   9.695   7.572   1.930  0.7374 -0.5770  0.2014
   49GLOH   H08 8857   9.635   7.566   2.097  0.5822 -0.3019 -0.0580
   49GLOH    C2 8858   9.674   7.760   2.025 -0.7254  0.1827 -0.9004
   49GLOH   H04 8859   9.654   7.809   1.929 -1.3275 -1.1285 -1.4621
   49GLOH    O2 8860   9.600   7.832   2.122  0.2336 -0.5014 -0.2278
   49GLOH   H05 8861   9.620   7.927   2.117 -2.1211 -0.0449 -1.3096
   49GLOH    C3 8862   9.826   7.756   2.053 -0.0411  0.1490  0.2434
   49GLOH   H06 8863   9.834   7.692   2.141 -0.0403  0.1471  0.2420
   49GLOH   H07 8864   9.863   7.852   2.090  0.0779  0.1654  0.0798
   49GLOH    O3 8865   9.912   7.715   1.944  0.0672  0.0809 -0.0572
   49GLOH   H01 8866   9.906   7.780   1.872 -1.8777 -0.2585 -0.2156
   50GLOH   H03 8867   0.258   6.532   1.642  0.2330 -2.4093 -0.7853
   50GLOH    O1 8868   0.325   6.529   1.712  0.0557  0.0222 -0.4635
   50GLOH    C1 8869   0.260   6.536   1.837  0.0988  0.4292 -0.0659
   50GLOH   H02 8870   0.179   6.465   1.854  1.1870 -0.1525  2.9265
   50GLOH   H08 8871   0.219   6.636   1.851 -0.5606 -0.0394  1.3988
   50GLOH    C2 8872   0.365   6.511   1.950 -0.0531 -0.0578  0.2552
   50GLOH   H04 8873   0.426   6.602   1.944 -0.3474  0.1031 -0.3558
   50GLOH    O2 8874   0.308   6.515   2.080 -0.0698 -0.4965 -0.1635
   50GLOH   H05 8875   0.352   6.583   2.135  0.4155  0.6376 -1.9016
   50GLOH    C3 8876   0.443   6.380   1.932  0.3526 -0.2431  0.2981
   50GLOH   H06 8877   0.479   6.374   1.829 -0.0631  0.5020  0.1103
   50GLOH   H07 8878   0.359   6.311   1.944  0.7453 -0.8876 -0.5970
   50GLOH    O3 8879   0.551   6.357   2.025  0.0408 -0.1137  0.0126
   50GLOH   H01 8880   0.597   6.438   2.052 -1.7346  0.9766 -0.1844
   51GLOH   H03 8881   8.892   7.706   2.871  0.4079 -0.0478  0.4014
   51GLOH    O1 8882   8.864   7.699   2.777 -0.5799  0.8276  0.6243
   51GLOH    C1 8883   8.971   7.667   2.692 -0.0688 -0.2941  0.2710
   51GLOH   H02 8884   9.006   7.567   2.716  1.4236  0.2175  0.2846
   51GLOH   H08 8885   9.048   7.744   2.701 -0.2593 -0.0630 -0.0812
   51GLOH    C2 8886   8.928   7.679   2.541 -0.1930 -0.7643  0.0086
   51GLOH   H04 8887   9.017   7.660   2.478  0.4160  3.7463 -0.6709
   51GLOH    O2 8888   8.838   7.578   2.491  0.0544  0.3394  0.6051
   51GLOH   H05 8889   8.853   7.492   2.534  2.1292  0.6724  0.5925
   51GLOH    C3 8890   8.889   7.822   2.490 -0.1679 -0.1351  0.0542
   51GLOH   H06 8891   8.960   7.884   2.544  0.6256 -2.8183  2.1966
   51GLOH   H07 8892   8.787   7.836   2.526  0.0221  0.2017  0.4629
   51GLOH    O3 8893   8.895   7.850   2.348  0.1372  0.6467 -0.2613
   51GLOH   H01 8894   8.839   7.930   2.342 -1.2370 -0.2691 -0.0617
   52GLOH   H03 8895   9.431   2.060   4.868 -0.3247  1.1573  0.5654
   52GLOH    O1 8896   9.404   2.011   4.947 -0.5508 -0.4263 -0.4708
   52GLOH    C1 8897   9.454   1.878   4.944 -0.4953  0.7113 -0.1053
   52GLOH   H02 8898   9.428   1.840   4.845 -2.0071  0.0484  0.5241
   52GLOH   H08 8899   9.396   1.812   5.008  1.2248 -0.1342  0.5997
   52GLOH    C2 8900   9.600   1.860   4.986 -0.3396 -0.4491  0.2173
   52GLOH   H04 8901   9.656   1.923   4.914 -2.1032  1.1378  0.2136
   52GLOH    O2 8902   9.636   1.885   5.123  0.2817 -0.7411  0.3642
   52GLOH   H05 8903   9.685   1.969   5.131  0.5036 -0.8741  0.3774
   52GLOH    C3 8904   9.639   1.717   4.945 -0.5804  0.0790 -0.4263
   52GLOH   H06 8905   9.565   1.649   4.987  0.8815 -0.5563  1.1607
   52GLOH   H07 8906   9.732   1.700   4.999  0.7623  1.1393 -2.3160
   52GLOH    O3 8907   9.642   1.692   4.809  0.2070 -0.2367 -0.0501
   52GLOH   H01 8908   9.735   1.697   4.781  0.1956  0.6880  0.0556
   53GLOH   H03 8909   8.472   0.683   4.128  1.5494 -0.1324  1.1122
   53GLOH    O1 8910   8.502   0.729   4.048  0.3162 -1.2639 -0.0293
   53GLOH    C1 8911   8.601   0.653   3.977 -0.4337  0.0361  0.4000
   53GLOH   H02 8912   8.560   0.606   3.888 -0.6212  0.4971  0.2382
   53GLOH   H08 8913   8.645   0.583   4.047  2.6275  1.1131 -0.3800
   53GLOH    C2 8914   8.712   0.738   3.921 -0.1503 -0.2796  0.6320
   53GLOH   H04 8915   8.798   0.683   3.881 -0.3038 -1.1055  1.4237
   53GLOH    O2 8916   8.665   0.817   3.815  0.6389  0.0954 -0.3646
   53GLOH   H05 8917   8.584   0.866   3.836 -0.2785  0.1293 -3.6293
   53GLOH    C3 8918   8.767   0.835   4.028  0.5740  0.8318 -0.1025
   53GLOH   H06 8919   8.803   0.781   4.115 -2.6696 -2.2676 -0.5489
   53GLOH   H07 8920   8.677   0.888   4.057  0.2247  0.2204 -0.0571
   53GLOH    O3 8921   8.873   0.918   3.978  0.3401  0.4001  0.1149
   53GLOH   H01 8922   8.927   0.860   3.921  0.4612 -0.4630  1.0952
   54GLOH   H03 8923   3.271   6.613   0.634  0.0285  1.4540  1.0792
   54GLOH    O1 8924   3.272   6.547   0.706 -0.1335  0.3076  0.0544
   54GLOH    C1 8925   3.391   6.465   0.683  0.1198  0.1349 -0.4314
   54GLOH   H02 8926   3.406   6.437   0.579 -2.9315 -1.6922 -0.4401
   54GLOH   H08 8927   3.391   6.374   0.743 -0.7866 -0.0325 -0.6725
   54GLOH    C2 8928   3.530   6.526   0.705  0.9398  0.4382 -0.5824
   54GLOH   H04 8929   3.528   6.614   0.639 -3.1245 -0.3021 -1.6010
   54GLOH    O2 8930   3.558   6.572   0.842  0.0325 -0.0558  0.1567
   54GLOH   H05 8931   3.609   6.505   0.890 -2.3603 -1.9141  0.2004
   54GLOH    C3 8932   3.645   6.443   0.644 -0.4352  0.0207  0.3030
   54GLOH   H06 8933   3.737   6.500   0.659 -0.0293 -0.7792  0.9429
   54GLOH   H07 8934   3.628   6.431   0.537  0.9303  1.1443 -0.0589
   54GLOH    O3 8935   3.642   6.319   0.704 -0.7899  0.5557 -0.7677
   54GLOH   H01 8936   3.676   6.330   0.795  1.0936  0.1643 -1.4061
   55GLOH   H03 8937   2.674   1.312   0.737  1.2305  1.4707 -0.2746
   55GLOH    O1 8938   2.632   1.400   0.733 -0.4189  0.6658 -0.8553
   55GLOH    C1 8939   2.537   1.394   0.842 -0.2303  0.5208  0.5066
   55GLOH   H02 8940   2.497   1.493   0.865 -1.1985  0.5006 -0.9923
   55GLOH   H08 8941   2.586   1.355   0.931  2.3452 -0.3577 -1.2624
   55GLOH    C2 8942   2.424   1.299   0.818  0.2138  0.2250  0.1622
   55GLOH   H04 8943   2.388   1.310   0.714 -1.0180  0.7808  0.6422
   55GLOH    O2 8944   2.467   1.163   0.823  0.2897 -0.3621  0.0087
   55GLOH   H05 8945   2.499   1.136   0.911  2.2933 -1.9593 -1.1723
   55GLOH    C3 8946   2.305   1.326   0.910 -0.1409 -0.4097 -0.4000
   55GLOH   H06 8947   2.337   1.314   1.013 -0.0147  0.0765 -0.3848
   55GLOH   H07 8948   2.233   1.248   0.886  0.6340 -0.8150 -1.4588
   55GLOH    O3 8949   2.238   1.454   0.904  0.4499  0.3462 -0.1174
   55GLOH   H01 8950   2.167   1.456   0.971 -0.7155 -0.1213 -1.3077
   56GLOH   H03 8951   0.741   9.430   4.830 -1.2684 -0.1934 -0.9590
   56GLOH    O1 8952   0.827   9.401   4.794 -0.4528  0.0597  0.7232
   56GLOH    C1 8953   0.928   9.462   4.868 -0.7457 -0.6364 -0.2845
   56GLOH   H02 8954   0.887   9.488   4.965  0.2126 -0.9809  0.2249
   56GLOH   H08 8955   0.958   9.556   4.822  0.3440 -0.7875  0.1030
   56GLOH    C2 8956   1.061   9.393   4.865 -0.1409 -0.0048  0.2018
   56GLOH   H04 8957   1.040   9.287   4.886  2.8034 -1.2389 -2.6219
   56GLOH    O2 8958   1.127   9.398   4.735 -0.0052  0.3900 -0.4652
   56GLOH   H05 8959   1.122   9.321   4.676  1.4412  2.0884 -2.9145
   56GLOH    C3 8960   1.161   9.438   4.978 -0.1660 -0.4599  0.5278
   56GLOH   H06 8961   1.168   9.546   4.965 -0.1128 -0.7216 -1.7302
   56GLOH   H07 8962   1.260   9.396   4.962  0.5805  2.0725 -1.9037
   56GLOH    O3 8963   1.109   9.402   5.107 -0.3914  0.1477 -0.0433
   56GLOH   H01 8964   1.106   9.305   5.116  0.0748  0.4386  3.8889
   57GLOH   H03 8965   3.223   9.438   4.598 -0.3105 -0.5504  1.2163
   57GLOH    O1 8966   3.153   9.502   4.620 -0.1815  0.2061 -0.5145
   57GLOH    C1 8967   3.078   9.467   4.736 -0.0648  0.3524  0.3421
   57GLOH   H02 8968   2.993   9.535   4.737  1.1543  1.9346 -1.4939
   57GLOH   H08 8969   3.138   9.470   4.828  0.8237  0.2186 -0.2302
   57GLOH    C2 8970   3.022   9.322   4.721 -0.5627 -0.2069  0.7031
   57GLOH   H04 8971   3.103   9.249   4.708  0.9812  1.2428  2.0030
   57GLOH    O2 8972   2.958   9.294   4.845  0.2728  0.1404 -0.5072
   57GLOH   H05 8973   2.939   9.378   4.890  2.6304  0.4677 -0.0744
   57GLOH    C3 8974   2.935   9.318   4.591  0.2445  0.1671  0.5715
   57GLOH   H06 8975   2.932   9.219   4.545 -3.1981  1.4886 -2.3106
   57GLOH   H07 8976   2.988   9.373   4.513 -2.1437 -1.0293 -1.9722
   57GLOH    O3 8977   2.803   9.374   4.614 -0.9476  0.0235  0.5686
   57GLOH   H01 8978   2.751   9.323   4.679 -2.4257  1.2901  0.3730
   58GLOH   H03 8979   6.562   6.605   3.616  1.8194  1.9480 -0.0920
   58GLOH    O1 8980   6.615   6.523   3.616  0.2667  0.9152 -0.2221
   58GLOH    C1 8981   6.647   6.479   3.484 -0.1725  0.4128 -0.3281
   58GLOH   H02 8982   6.624   6.553   3.407 -3.5674  0.0174  0.2546
   58GLOH   H08 8983   6.578   6.400   3.456 -0.7018  0.1441  1.7152
   58GLOH    C2 8984   6.787   6.422   3.465  0.2885  0.0127 -0.1195
   58GLOH   H04 8985   6.796   6.330   3.524 -0.0026  0.4348  0.5939
   58GLOH    O2 8986   6.816   6.392   3.325  0.2045  0.0729  0.2737
   58GLOH   H05 8987   6.859   6.465   3.278 -0.1537  1.3861  1.9649
   58GLOH    C3 8988   6.892   6.514   3.520  0.5909  0.3748 -0.4574
   58GLOH   H06 8989   6.870   6.614   3.482  0.5199  0.8053  0.7130
   58GLOH   H07 8990   6.987   6.487   3.474  0.0698 -0.2586 -1.1803
   58GLOH    O3 8991   6.910   6.502   3.667  0.2628 -0.5450 -0.0719
   58GLOH   H01 8992   6.938   6.590   3.697 -0.5600 -0.4860  0.5264
   59GLOH   H03 8993   1.534   9.315   2.886  0.8426 -0.0638 -0.5701
   59GLOH    O1 8994   1.502   9.338   2.797  1.0441  0.0440 -0.6149
   59GLOH    C1 8995   1.604   9.397   2.722 -0.0225  0.2817  0.5274
   59GLOH   H02 8996   1.619   9.503   2.742  0.9432 -0.1016  1.9363
   59GLOH   H08 8997   1.587   9.382   2.616  2.5426 -0.0558  0.1247
   59GLOH    C2 8998   1.741   9.325   2.735  1.0261  0.8520  0.1493
   59GLOH   H04 8999   1.768   9.334   2.841  2.1192  1.6150 -0.1790
   59GLOH    O2 9000   1.739   9.185   2.701 -0.0531  0.5192  0.5970
   59GLOH   H05 9001   1.686   9.137   2.767 -1.1097  0.4122 -0.3104
   59GLOH    C3 9002   1.846   9.380   2.641  0.7747 -1.2255  0.6381
   59GLOH   H06 9003   1.811   9.372   2.538 -0.6309  1.2979  0.8826
   59GLOH   H07 9004   1.942   9.328   2.647  1.7502  0.5373  0.7136
   59GLOH    O3 9005   1.872   9.517   2.678  0.0412  0.4017  0.0648
   59GLOH   H01 9006   1.895   9.528   2.772 -2.2167 -1.7948  0.9351
   60GLOH   H03 9007   1.311   3.699   0.107 -0.3755 -2.3894  1.5759
   60GLOH    O1 9008   1.360   3.646   0.041 -0.2711 -0.4968  0.0806
   60GLOH    C1 9009   1.278   3.613  -0.074  0.2549  0.0041  0.2056
   60GLOH   H02 9010   1.333   3.565  -0.155 -2.0392 -2.0516 -0.2074
   60GLOH   H08 9011   1.240   3.705  -0.119 -0.4914 -0.6871 -0.6105
   60GLOH    C2 9012   1.163   3.512  -0.032 -0.0622  0.0793 -0.2570
   60GLOH   H04 9013   1.202   3.437   0.038  0.0923 -0.4150 -0.8693
   60GLOH    O2 9014   1.052   3.584   0.031  0.0963  0.4853 -0.3613
   60GLOH   H05 9015   1.085   3.637   0.105  0.2198 -1.0983  0.7279
   60GLOH    C3 9016   1.124   3.432  -0.157 -0.1976 -0.0909  0.3600
   60GLOH   H06 9017   1.087   3.498  -0.235  0.0045 -0.4550 -0.0489
   60GLOH   H07 9018   1.037   3.371  -0.135 -1.5578  1.6402 -0.1106
   60GLOH    O3 9019   1.235   3.354  -0.208 -0.8711 -0.2519 -0.2357
   60GLOH   H01 9020   1.266   3.292  -0.139  0.7315  1.1339  0.3131
   61GLOH   H03 9021   2.159   1.851   4.218 -1.7539  2.3564  1.1451
   61GLOH    O1 9022   2.081   1.861   4.160 -1.0904  0.4774 -0.1183
   61GLOH    C1 9023   1.968   1.877   4.250 -0.3967  0.3005 -0.1277
   61GLOH   H02 9024   1.992   1.952   4.325 -0.0730  0.3246 -0.2551
   61GLOH   H08 9025   1.955   1.789   4.314 -3.1336  1.1359  0.5005
   61GLOH    C2 9026   1.836   1.916   4.183  0.8687  1.0176 -0.2718
   61GLOH   H04 9027   1.809   1.855   4.096 -0.9925  2.6837 -0.9077
   61GLOH    O2 9028   1.724   1.902   4.279  0.2707  0.4718 -0.1078
   61GLOH   H05 9029   1.694   1.811   4.265  1.1250  0.3685 -1.2875
   61GLOH    C3 9030   1.845   2.060   4.130 -0.4013 -0.1127  0.0580
   61GLOH   H06 9031   1.844   2.127   4.217  0.6745  0.6520 -0.5020
   61GLOH   H07 9032   1.755   2.087   4.076 -0.0806 -1.7543 -1.3596
   61GLOH    O3 9033   1.963   2.069   4.047  0.5115  0.0792  0.2788
   61GLOH   H01 9034   2.025   2.003   4.084  0.6223 -0.7978 -1.4529
   62GLOH   H03 9035   5.478   9.290   2.079  0.7483  0.0728 -0.7083
   62GLOH    O1 9036   5.501   9.374   2.123  0.9465 -0.3920  0.1041
   62GLOH    C1 9037   5.634   9.369   2.183 -0.1370 -0.0465 -0.9052
   62GLOH   H02 9038   5.639   9.273   2.234  0.9386  0.9749  1.0127
   62GLOH   H08 9039   5.644   9.449   2.257 -0.0262 -0.1362 -0.8230
   62GLOH    C2 9040   5.739   9.373   2.075  0.0096 -0.2861  0.0667
   62GLOH   H04 9041   5.728   9.464   2.014  1.6226  0.4876  0.9018
   62GLOH    O2 9042   5.870   9.384   2.144 -0.3499 -0.0517  0.8695
   62GLOH   H05 9043   5.935   9.416   2.080 -2.7624  3.8048  0.1976
   62GLOH    C3 9044   5.753   9.242   1.988  0.0547 -0.9368 -0.0236
   62GLOH   H06 9045   5.810   9.164   2.039 -1.1299 -2.3230 -0.8005
   62GLOH   H07 9046   5.822   9.258   1.905  0.7213  1.6112  0.9603
   62GLOH    O3 9047   5.626   9.196   1.937  0.1561  0.1336 -0.1119
   62GLOH   H01 9048   5.627   9.100   1.920  1.8560  0.2273 -0.6379
   63GLOH   H03 9049   6.729   7.945   4.192 -3.1223  1.3348  2.3549
   63GLOH    O1 9050   6.689   7.971   4.107 -0.1178 -0.1233  0.4475
   63GLOH    C1 9051   6.664   7.852   4.034 -0.0955 -0.1424  0.3294
   63GLOH   H02 9052   6.592   7.785   4.081 -0.5746  0.7697  0.9089
   63GLOH   H08 9053   6.753   7.790   4.025  0.0497  0.2552 -1.2178
   63GLOH    C2 9054   6.618   7.893   3.891  0.3678 -0.4221  0.1233
   63GLOH   H04 9055   6.705   7.943   3.845 -1.4372  1.2118 -1.6118
   63GLOH    O2 9056   6.598   7.774   3.824 -0.0473 -0.5653 -0.4975
   63GLOH   H05 9057   6.644   7.776   3.738  0.6132  0.1164 -0.1255
   63GLOH    C3 9058   6.496   7.983   3.883  1.2056  1.0303 -0.0107
   63GLOH   H06 9059   6.517   8.054   3.963  0.8007 -1.1323  2.0735
   63GLOH   H07 9060   6.407   7.928   3.914  2.4808 -1.5197 -0.7444
   63GLOH    O3 9061   6.479   8.056   3.756  0.2273  0.0440  0.0443
   63GLOH   H01 9062   6.450   7.988   3.692  0.1317 -0.1788  0.3257
   64GLOH   H03 9063   9.826   1.271   4.093  0.6601 -2.7108  0.4620
   64GLOH    O1 9064   9.807   1.252   3.999  0.0010 -0.1460  0.0307
   64GLOH    C1 9065   9.865   1.120   3.965  0.1857 -0.1475  0.3082
   64GLOH   H02 9066   9.838   1.050   4.044  0.1850 -0.5594 -0.0588
   64GLOH   H08 9067   9.973   1.132   3.977  0.3796 -0.8238 -0.8140
   64GLOH    C2 9068   9.826   1.079   3.825  0.5436  0.6736  0.1711
   64GLOH   H04 9069   9.874   1.145   3.751 -0.0538 -0.1002 -0.9345
   64GLOH    O2 9070   9.867   0.942   3.800  0.0650  0.2689  0.6274
   64GLOH   H05 9071   9.950   0.926   3.846 -0.5610 -0.0535  1.6584
   64GLOH    C3 9072   9.670   1.090   3.810 -0.6681 -0.4993 -0.3256
   64GLOH   H06 9073   9.626   1.046   3.899 -2.3208  0.7848 -0.4755
   64GLOH   H07 9074   9.634   1.044   3.718  0.6747  2.4995 -2.4513
   64GLOH    O3 9075   9.632   1.228   3.814  0.5863 -0.0886 -0.3645
   64GLOH   H01 9076   9.677   1.262   3.893  1.2788 -2.4470  0.2992
   65GLOH   H03 9077   2.742   0.088   2.616  0.1971  0.3068  1.2751
   65GLOH    O1 9078   2.712  -0.001   2.642 -0.2887  0.1791  0.2983
   65GLOH    C1 9079   2.830  -0.083   2.624  0.6792  0.4213  0.0985
   65GLOH   H02 9080   2.915  -0.050   2.684  0.5827 -0.9479  1.0170
   65GLOH   H08 9081   2.865  -0.080   2.521  2.3700  0.9946  0.6715
   65GLOH    C2 9082   2.795  -0.227   2.659  0.1439  0.7743  0.0893
   65GLOH   H04 9083   2.721  -0.256   2.583  0.0366  1.2905 -0.0037
   65GLOH    O2 9084   2.916  -0.304   2.661 -0.0803  0.1736  0.2202
   65GLOH   H05 9085   2.889  -0.393   2.633  0.9782  0.1367 -0.7215
   65GLOH    C3 9086   2.733  -0.239   2.798  0.3370 -0.1661 -0.4651
   65GLOH   H06 9087   2.718  -0.342   2.830 -0.9402  0.5938  1.5391
   65GLOH   H07 9088   2.636  -0.190   2.789 -0.3273 -1.4161 -0.2414
   65GLOH    O3 9089   2.805  -0.164   2.899  0.2137  0.3796 -0.6219
   65GLOH   H01 9090   2.821  -0.071   2.872  1.6053  0.9411  1.9940
   66GLOH   H03 9091   5.012   1.416   0.841  1.5803 -2.6434 -1.6039
   66GLOH    O1 9092   5.027   1.360   0.920  0.2872 -0.2963  0.3580
   66GLOH    C1 9093   4.905   1.364   0.994  0.6833 -0.5750  0.2493
   66GLOH   H02 9094   4.825   1.318   0.938 -0.8420  3.0863 -0.6973
   66GLOH   H08 9095   4.884   1.469   1.013  1.1197 -0.5707  0.7338
   66GLOH    C2 9096   4.918   1.291   1.128  0.0105 -0.1155  0.5814
   66GLOH   H04 9097   5.008   1.332   1.175  1.0375 -0.9684 -0.6034
   66GLOH    O2 9098   4.805   1.310   1.219  0.3147  0.3396  0.3620
   66GLOH   H05 9099   4.847   1.381   1.271  2.3495  1.0882 -2.1984
   66GLOH    C3 9100   4.945   1.144   1.103 -0.2450 -0.7292 -0.0970
   66GLOH   H06 9101   4.852   1.087   1.098 -0.2905 -0.9801  2.6775
   66GLOH   H07 9102   4.984   1.112   1.200 -0.4409  2.2429  1.0164
   66GLOH    O3 9103   5.033   1.113   0.995  0.1958  0.1507 -0.0722
   66GLOH   H01 9104   5.052   1.194   0.945  0.8694 -0.9090 -1.5679
   67GLOH   H03 9105   5.191   7.276   2.768  1.7833  0.4048  0.3360
   67GLOH    O1 9106   5.199   7.185   2.801  0.3417  0.1334 -0.0468
   67GLOH    C1 9107   5.280   7.103   2.705  0.3854 -0.1159  0.5023
   67GLOH   H02 9108   5.379   7.148   2.697  0.8690 -1.3657 -0.8324
   67GLOH   H08 9109   5.233   7.110   2.607 -0.3221 -0.0190  0.8479
   67GLOH    C2 9110   5.307   6.954   2.743  0.1895 -0.2410  0.5739
   67GLOH   H04 9111   5.346   6.908   2.650 -0.5285  2.7390 -1.2685
   67GLOH    O2 9112   5.412   6.936   2.844  0.2055 -0.1275  0.1825
   67GLOH   H05 9113   5.408   7.003   2.913 -0.8029  0.9207 -0.8623
   67GLOH    C3 9114   5.174   6.880   2.771 -0.5603  0.6358 -0.2333
   67GLOH   H06 9115   5.109   6.929   2.843 -0.8572  1.5210 -1.1025
   67GLOH   H07 9116   5.202   6.784   2.816  1.0684 -0.2930 -3.0410
   67GLOH    O3 9117   5.099   6.852   2.655 -0.4835 -0.4886 -0.7224
   67GLOH   H01 9118   5.156   6.823   2.581  1.1430 -0.7364  0.6020
   68GLOH   H03 9119   1.867   5.939   1.331 -0.4003  0.7342  0.8290
   68GLOH    O1 9120   1.812   5.903   1.403 -0.4262 -0.3634  0.2655
   68GLOH    C1 9121   1.799   5.763   1.390  0.0679  0.0315 -0.2453
   68GLOH   H02 9122   1.895   5.713   1.375 -1.8360 -2.9272 -3.3910
   68GLOH   H08 9123   1.747   5.735   1.298  1.1729 -3.0931  0.0265
   68GLOH    C2 9124   1.720   5.709   1.514  0.7659  0.3427  0.2888
   68GLOH   H04 9125   1.619   5.752   1.522  0.1479 -1.1006  0.3477
   68GLOH    O2 9126   1.712   5.564   1.502  0.0472 -0.0084 -0.2975
   68GLOH   H05 9127   1.791   5.511   1.520 -0.3942 -0.1147  1.4357
   68GLOH    C3 9128   1.783   5.745   1.651 -0.1095 -0.6468  0.0404
   68GLOH   H06 9129   1.810   5.850   1.643 -1.4729 -0.3189 -0.3507
   68GLOH   H07 9130   1.875   5.687   1.662  1.0529  1.1164 -0.1957
   68GLOH    O3 9131   1.711   5.725   1.770  0.0657  0.0023  0.1438
   68GLOH   H01 9132   1.678   5.813   1.797  2.6457  0.6087  1.4774
   69GLOH   H03 9133   3.917   3.438   4.923 -0.5885  1.9628 -0.3297
   69GLOH    O1 9134   3.953   3.432   4.833  0.6650  0.3824  0.2509
   69GLOH    C1 9135   4.008   3.301   4.819 -0.3188  0.2964  0.6486
   69GLOH   H02 9136   4.058   3.265   4.909  1.1619  1.4142  0.3019
   69GLOH   H08 9137   4.078   3.288   4.737 -0.2532  0.2598  0.7097
   69GLOH    C2 9138   3.879   3.220   4.789 -0.4909  0.1538  0.1622
   69GLOH   H04 9139   3.903   3.114   4.803 -0.2736  0.3749  1.6406
   69GLOH    O2 9140   3.782   3.235   4.903 -0.3216  0.3724  0.4749
   69GLOH   H05 9141   3.814   3.185   4.980  2.2520 -0.5247 -1.1020
   69GLOH    C3 9142   3.831   3.229   4.649  0.0537 -0.5652  0.2896
   69GLOH   H06 9143   3.749   3.161   4.626 -0.4254 -0.6311  2.1440
   69GLOH   H07 9144   3.922   3.190   4.604  0.4114  0.3306  0.2216
   69GLOH    O3 9145   3.795   3.356   4.595  0.3352  0.6357  0.3189
   69GLOH   H01 9146   3.813   3.425   4.662  1.2913 -0.3086  1.0446
   70GLOH   H03 9147   3.741   3.841   0.309  0.5897  0.1172  0.2727
   70GLOH    O1 9148   3.660   3.887   0.281  0.3534 -0.6176 -0.2750
   70GLOH    C1 9149   3.653   3.872   0.141  0.3446  0.2220  0.0417
   70GLOH   H02 9150   3.616   3.775   0.107 -2.4507  1.6609 -1.2876
   70GLOH   H08 9151   3.751   3.886   0.096  1.1797 -2.1708  1.0287
   70GLOH    C2 9152   3.558   3.975   0.072 -0.0440 -0.3509 -0.7749
   70GLOH   H04 9153   3.595   4.070   0.114  4.1281 -2.5579  0.9180
   70GLOH    O2 9154   3.567   3.955  -0.070 -0.0577  0.1257  0.5602
   70GLOH   H05 9155   3.635   4.018  -0.097 -0.0238 -0.3625 -0.5103
   70GLOH    C3 9156   3.413   3.959   0.115 -0.4324  0.2468 -0.0624
   70GLOH   H06 9157   3.366   3.876   0.062  1.5095  0.8160 -2.7664
   70GLOH   H07 9158   3.361   4.043   0.071 -0.2507 -0.5767 -1.9039
   70GLOH    O3 9159   3.401   3.955   0.259 -0.3008 -0.3645  0.1444
   70GLOH   H01 9160   3.486   3.915   0.284 -0.7645 -2.1182 -1.0173
   71GLOH   H03 9161   3.132   7.012   4.513 -2.7861 -1.2866 -0.5728
   71GLOH    O1 9162   3.097   7.058   4.435 -0.2456  0.3246 -0.8135
   71GLOH    C1 9163   3.134   7.197   4.439  0.2620  0.2508  0.0834
   71GLOH   H02 9164   3.203   7.208   4.522 -1.1067  0.5687  1.2110
   71GLOH   H08 9165   3.050   7.258   4.472  2.3487  1.0301  4.3422
   71GLOH    C2 9166   3.196   7.246   4.311  0.4429 -0.0442  0.5211
   71GLOH   H04 9167   3.113   7.258   4.240 -0.0944 -1.7555  0.8143
   71GLOH    O2 9168   3.264   7.371   4.313 -0.1570  0.5992 -0.7774
   71GLOH   H05 9169   3.300   7.388   4.401 -1.7446  2.0888 -0.3854
   71GLOH    C3 9170   3.288   7.134   4.258 -0.7103 -0.0798  0.7342
   71GLOH   H06 9171   3.336   7.173   4.168  1.3501 -0.3019  1.7231
   71GLOH   H07 9172   3.222   7.052   4.230 -3.3697  2.3215 -0.3604
   71GLOH    O3 9173   3.392   7.096   4.348  0.8970  0.0593  0.4251
   71GLOH   H01 9174   3.444   7.027   4.303 -2.4203 -3.0437  1.1373
   72GLOH   H03 9175   9.251   0.870   1.878  1.6789  0.0234 -2.0496
   72GLOH    O1 9176   9.186   0.882   1.807 -0.6737  0.0588  0.0156
   72GLOH    C1 9177   9.103   0.764   1.803 -0.1230 -0.7475  0.5129
   72GLOH   H02 9178   9.141   0.692   1.730  0.0200  0.1597 -0.3229
   72GLOH   H08 9179   9.005   0.794   1.764  0.9897  1.8473 -0.3936
   72GLOH    C2 9180   9.081   0.706   1.945  0.0034 -0.3231 -0.6293
   72GLOH   H04 9181   9.181   0.720   1.990  0.7940 -0.8089 -2.1732
   72GLOH    O2 9182   8.994   0.790   2.026 -0.0608  0.7318  0.6700
   72GLOH   H05 9183   8.987   0.883   1.997 -0.8126 -0.0130 -1.6877
   72GLOH    C3 9184   9.026   0.564   1.932  0.0544  0.0247  0.1845
   72GLOH   H06 9185   8.943   0.558   1.862  1.2835 -0.8632 -1.2223
   72GLOH   H07 9186   8.983   0.543   2.030 -1.4523 -0.7278 -0.6159
   72GLOH    O3 9187   9.114   0.468   1.883  0.0661 -0.4227  0.3349
   72GLOH   H01 9188   9.206   0.499   1.892  0.6723 -1.8406 -0.6921
   73GLOH   H03 9189   2.814   9.165   4.807  0.1302  0.4334 -0.1889
   73GLOH    O1 9190   2.722   9.152   4.777  0.0198 -0.5064  0.5262
   73GLOH    C1 9191   2.714   9.039   4.682  0.0756 -0.0139  0.3845
   73GLOH   H02 9192   2.703   8.950   4.745  1.7647 -0.4754  0.0693
   73GLOH   H08 9193   2.806   9.021   4.626 -0.9876  1.5661 -1.9391
   73GLOH    C2 9194   2.605   9.043   4.581  0.9203 -0.3825 -0.6954
   73GLOH   H04 9195   2.607   9.145   4.539 -0.7195 -0.7269 -1.6571
   73GLOH    O2 9196   2.627   8.937   4.482  0.4025  0.8487  0.4938
   73GLOH   H05 9197   2.718   8.935   4.448  0.1282 -0.6716 -0.1873
   73GLOH    C3 9198   2.465   9.020   4.641 -0.5162 -0.6710  0.2343
   73GLOH   H06 9199   2.467   8.915   4.671 -0.9315 -0.6610  0.3025
   73GLOH   H07 9200   2.408   9.036   4.550  0.1978  1.3147  0.1111
   73GLOH    O3 9201   2.431   9.098   4.761  0.6408  0.0610  0.6499
   73GLOH   H01 9202   2.442   9.034   4.834 -0.2512  0.3286  1.0380
   74GLOH   H03 9203   4.262   3.974   4.499 -1.3080  0.7865 -0.2518
   74GLOH    O1 9204   4.177   3.942   4.466 -0.8368 -0.5375 -0.2361
   74GLOH    C1 9205   4.125   3.838   4.547  0.3418 -0.0718  0.4676
   74GLOH   H02 9206   4.053   3.877   4.619 -1.1705  2.7849 -2.4075
   74GLOH   H08 9207   4.206   3.790   4.602  0.1800 -0.4830  0.3497
   74GLOH    C2 9208   4.050   3.739   4.463 -0.5401 -0.2586  0.3999
   74GLOH   H04 9209   3.966   3.796   4.421  0.0366  0.5246  0.3084
   74GLOH    O2 9210   4.143   3.691   4.366  0.2783  0.2620  0.6719
   74GLOH   H05 9211   4.188   3.770   4.332 -1.4954  0.6202 -0.9623
   74GLOH    C3 9212   4.004   3.622   4.547  0.2060  0.8999 -0.0561
   74GLOH   H06 9213   4.095   3.590   4.600 -1.3488 -2.1452  0.9146
   74GLOH   H07 9214   3.964   3.546   4.481 -0.4890  0.9705  0.2766
   74GLOH    O3 9215   3.899   3.665   4.638  0.6298 -0.4776  0.1118
   74GLOH   H01 9216   3.819   3.666   4.582  0.4204 -0.0869  0.4141
   75GLOH   H03 9217   0.286   8.733   1.876 -1.5250 -0.4078 -0.9328
   75GLOH    O1 9218   0.304   8.803   1.811  0.4160 -0.5495 -0.5567
   75GLOH    C1 9219   0.324   8.923   1.891 -0.4905 -0.1984 -0.4237
   75GLOH   H02 9220   0.377   8.999   1.834 -0.8346  2.4792  2.6966
   75GLOH   H08 9221   0.391   8.902   1.975 -0.2031  2.4393  0.0633
   75GLOH    C2 9222   0.196   8.984   1.958  0.1508  0.3137  0.0133
   75GLOH   H04 9223   0.139   8.906   2.010 -0.4367  0.9596  0.3386
   75GLOH    O2 9224   0.238   9.093   2.050 -0.3074 -0.5650  0.1694
   75GLOH   H05 9225   0.309   9.141   2.004  0.2122 -1.1789  0.3259
   75GLOH    C3 9226   0.110   9.038   1.841  0.7248  0.0123 -0.3896
   75GLOH   H06 9227   0.024   9.091   1.880  1.1447  1.8046 -1.8304
   75GLOH   H07 9228   0.076   8.954   1.781  2.7493 -0.8533 -0.3881
   75GLOH    O3 9229   0.185   9.135   1.765  0.9278  0.3045  0.1932
   75GLOH   H01 9230   0.172   9.229   1.785  2.0782  0.5693 -0.2831
   76GLOH   H03 9231   1.399   8.722   3.726  0.0997 -2.0147 -0.3932
   76GLOH    O1 9232   1.432   8.738   3.635  0.8878  0.9518  0.3564
   76GLOH    C1 9233   1.480   8.874   3.645 -0.6520 -1.2880 -0.2632
   76GLOH   H02 9234   1.553   8.874   3.726  0.4687 -0.4518 -1.2537
   76GLOH   H08 9235   1.402   8.948   3.662  1.6240  1.6617 -2.2268
   76GLOH    C2 9236   1.559   8.924   3.521 -0.5293 -0.1409  1.0357
   76GLOH   H04 9237   1.507   8.914   3.425  3.5334  1.3640 -1.4383
   76GLOH    O2 9238   1.592   9.062   3.530  0.7218  0.6038  0.3526
   76GLOH   H05 9239   1.639   9.083   3.448  0.4115 -1.6743 -0.4567
   76GLOH    C3 9240   1.683   8.837   3.514  0.5532 -0.1022  0.1278
   76GLOH   H06 9241   1.740   8.851   3.606  0.4146 -3.9928  0.8598
   76GLOH   H07 9242   1.755   8.863   3.436  1.0365 -1.4838  0.1069
   76GLOH    O3 9243   1.641   8.699   3.505  0.2253  0.8173  0.1840
   76GLOH   H01 9244   1.560   8.685   3.558  0.5753  0.0815  0.5362
   77GLOH   H03 9245   7.701   7.476   1.604  0.6080  0.3784 -1.3479
   77GLOH    O1 9246   7.785   7.430   1.615  0.1247 -0.1039  0.5124
   77GLOH    C1 9247   7.776   7.282   1.613 -0.2537 -0.9412  0.1713
   77GLOH   H02 9248   7.789   7.257   1.508 -2.8646  2.8288 -1.1630
   77GLOH   H08 9249   7.678   7.247   1.646 -0.2441 -0.5307  0.6376
   77GLOH    C2 9250   7.877   7.198   1.694 -0.1080  0.0339 -0.2196
   77GLOH   H04 9251   7.841   7.094   1.687 -1.8148  0.7018 -1.8947
   77GLOH    O2 9252   8.008   7.211   1.631 -0.4690  0.0030 -0.5367
   77GLOH   H05 9253   8.015   7.302   1.598  1.0029 -0.1454 -0.6697
   77GLOH    C3 9254   7.875   7.250   1.843 -0.9496  0.4930 -0.7150
   77GLOH   H06 9255   7.897   7.357   1.846  2.8119 -0.2801  0.7683
   77GLOH   H07 9256   7.956   7.211   1.903 -1.4331  1.3695  0.5174
   77GLOH    O3 9257   7.749   7.229   1.914  0.6212  0.3826  0.0822
   77GLOH   H01 9258   7.768   7.209   2.007  1.4704 -0.4433 -0.2650
   78GLOH   H03 9259   8.153   9.815   1.384  1.4617 -0.8854  0.7911
   78GLOH    O1 9260   8.226   9.875   1.360  0.2725  0.1258 -0.3695
   78GLOH    C1 9261   8.356   9.817   1.359  0.6715 -0.3700  0.2850
   78GLOH   H02 9262   8.349   9.714   1.394  2.4017 -0.9626 -1.0626
   78GLOH   H08 9263   8.413   9.878   1.430  1.9078 -1.8439  0.5839
   78GLOH    C2 9264   8.420   9.820   1.218  0.4822  0.0122 -0.1286
   78GLOH   H04 9265   8.466   9.917   1.197  5.3990 -1.9282  1.1012
   78GLOH    O2 9266   8.540   9.733   1.228 -0.0973  0.1025  0.1815
   78GLOH   H05 9267   8.516   9.653   1.279  2.6382 -1.7050 -1.2482
   78GLOH    C3 9268   8.336   9.762   1.101  0.4090 -0.1458 -1.0426
   78GLOH   H06 9269   8.232   9.797   1.099  0.3340 -0.1230  1.5855
   78GLOH   H07 9270   8.343   9.653   1.110 -1.9355 -0.1867  1.2152
   78GLOH    O3 9271   8.395   9.795   0.977  0.1110  0.4814  0.0668
   78GLOH   H01 9272   8.357   9.738   0.908 -0.8060 -0.8896  1.6806
   79GLOH   H03 9273   5.394   4.418   5.605 -0.3103  0.2543 -0.4249
   79GLOH    O1 9274   5.355   4.365   5.534  0.5683 -0.2421 -0.5295
   79GLOH    C1 9275   5.233   4.312   5.590  0.0769  0.5553  0.6092
   79GLOH   H02 9276   5.248   4.222   5.649 -0.0001 -0.2550 -0.6004
   79GLOH   H08 9277   5.154   4.287   5.519 -0.8221 -1.6537  2.3502
   79GLOH    C2 9278   5.163   4.415   5.679  0.5697 -0.4831  0.7753
   79GLOH   H04 9279   5.063   4.369   5.690 -0.1472  1.4577  2.5159
   79GLOH    O2 9280   5.217   4.433   5.815  0.0535 -0.6600  0.4327
   79GLOH   H05 9281   5.155   4.484   5.870 -0.7203  0.4623 -1.4003
   79GLOH    C3 9282   5.129   4.546   5.598  0.1222 -0.1525 -0.0618
   79GLOH   H06 9283   5.213   4.595   5.549 -0.2198  1.6712  1.1099
   79GLOH   H07 9284   5.085   4.615   5.670 -0.6704  0.4578 -1.1283
   79GLOH    O3 9285   5.042   4.529   5.490  1.2198 -0.1290 -0.1376
   79GLOH   H01 9286   4.966   4.588   5.499  1.6747  0.4536 -0.0995
   80GLOH   H03 9287   5.754   9.275   4.500  0.0532  0.7950  0.1411
   80GLOH    O1 9288   5.661   9.246   4.495  0.2023  0.4268 -0.6178
   80GLOH    C1 9289   5.650   9.179   4.368 -0.2487  0.0182 -0.8477
   80GLOH   H02 9290   5.730   9.105   4.366 -1.3001 -1.1320 -1.1519
   80GLOH   H08 9291   5.670   9.243   4.282  0.3275  0.2299 -0.5633
   80GLOH    C2 9292   5.517   9.107   4.349  0.0655  0.3038 -0.0034
   80GLOH   H04 9293   5.437   9.182   4.336  0.6354  1.3886  2.3755
   80GLOH    O2 9294   5.521   9.029   4.227  0.0279 -0.2587  0.2978
   80GLOH   H05 9295   5.489   9.093   4.161 -1.0833  0.0825  1.1408
   80GLOH    C3 9296   5.501   9.009   4.471 -0.4797  0.4662  0.6997
   80GLOH   H06 9297   5.556   8.917   4.453  0.8088  1.0095  1.8377
   80GLOH   H07 9298   5.396   8.983   4.482  0.4412 -2.6590  2.5752
   80GLOH    O3 9299   5.550   9.059   4.598  0.6940 -0.3134 -0.2174
   80GLOH   H01 9300   5.604   9.136   4.574  2.1291 -0.6434  1.8380
   81GLOH   H03 9301   4.822   1.938   3.710  1.5634 -0.7964  1.3455
   81GLOH    O1 9302   4.755   1.911   3.776  0.0097 -0.2531  0.0516
   81GLOH    C1 9303   4.764   1.766   3.795  0.2401 -0.1320  0.1007
   81GLOH   H02 9304   4.771   1.708   3.702  1.0093 -2.4603  1.5741
   81GLOH   H08 9305   4.674   1.732   3.847 -0.0144  2.6171  1.5056
   81GLOH    C2 9306   4.887   1.722   3.873  0.0556 -0.1891 -0.8886
   81GLOH   H04 9307   4.881   1.613   3.857 -2.9626 -0.3873  1.1924
   81GLOH    O2 9308   5.015   1.769   3.825  0.4459  0.3400 -1.0171
   81GLOH   H05 9309   5.074   1.694   3.803 -0.0133  0.1764 -1.6922
   81GLOH    C3 9310   4.861   1.757   4.019 -0.2957 -0.3942  0.1306
   81GLOH   H06 9311   4.852   1.866   4.020  0.5756 -0.2665 -2.0155
   81GLOH   H07 9312   4.954   1.736   4.072 -0.6245  0.6158  1.1233
   81GLOH    O3 9313   4.751   1.687   4.074 -1.0418 -0.5827  0.4708
   81GLOH   H01 9314   4.706   1.740   4.142  0.5049 -0.0354  1.0837
   82GLOH   H03 9315   4.566   1.494   0.731 -0.1022  4.5164 -1.5757
   82GLOH    O1 9316   4.600   1.463   0.645  0.1680 -0.1194  0.0647
   82GLOH    C1 9317   4.738   1.406   0.658  0.3462 -0.2844  0.3752
   82GLOH   H02 9318   4.759   1.344   0.571 -0.7656  0.8588 -0.7453
   82GLOH   H08 9319   4.724   1.338   0.742  0.4505 -2.1393 -1.0652
   82GLOH    C2 9320   4.850   1.508   0.692  0.7255 -0.4588 -0.0419
   82GLOH   H04 9321   4.851   1.544   0.796  2.3170  1.5843 -0.7205
   82GLOH    O2 9322   4.974   1.437   0.683 -0.1268  0.0850  0.4406
   82GLOH   H05 9323   4.976   1.408   0.590 -0.4387  0.5856  0.2811
   82GLOH    C3 9324   4.861   1.641   0.611 -0.3527  0.0555  0.0496
   82GLOH   H06 9325   4.857   1.617   0.505 -1.1426  0.0631  0.0721
   82GLOH   H07 9326   4.957   1.690   0.624 -0.1686  0.2497 -2.0248
   82GLOH    O3 9327   4.758   1.738   0.634  0.3488 -0.0184 -0.3916
   82GLOH   H01 9328   4.755   1.752   0.730 -1.1599  1.2976 -0.6065
   83GLOH   H03 9329   3.482   5.545   2.907 -1.2572 -0.1668  0.8149
   83GLOH    O1 9330   3.485   5.642   2.922 -0.4646 -0.1699  0.7116
   83GLOH    C1 9331   3.412   5.660   3.043 -0.4996 -0.7308  0.3476
   83GLOH   H02 9332   3.447   5.593   3.122  0.3281 -0.2617  0.3748
   83GLOH   H08 9333   3.305   5.641   3.032 -0.4922 -0.3527 -0.3578
   83GLOH    C2 9334   3.427   5.807   3.091 -0.1607 -0.5259 -0.3656
   83GLOH   H04 9335   3.370   5.859   3.013  1.5833  1.2904 -0.4916
   83GLOH    O2 9336   3.362   5.832   3.218 -0.2032  0.1237  0.0884
   83GLOH   H05 9337   3.278   5.784   3.222  0.2634 -0.8181 -1.0477
   83GLOH    C3 9338   3.572   5.861   3.104 -0.5194  0.1390  0.2444
   83GLOH   H06 9339   3.613   5.798   3.183  1.3676  0.2363 -0.6448
   83GLOH   H07 9340   3.582   5.965   3.138  1.6810  0.4684 -1.3103
   83GLOH    O3 9341   3.632   5.841   2.984 -0.3301  0.3490 -0.2003
   83GLOH   H01 9342   3.582   5.770   2.939  1.5760 -0.2779 -1.3687
   84GLOH   H03 9343   9.733   3.616   1.669  2.3207  0.1743 -1.2353
   84GLOH    O1 9344   9.680   3.579   1.596  0.1087  0.4375  0.1703
   84GLOH    C1 9345   9.585   3.674   1.545  0.1924  0.0633 -0.3279
   84GLOH   H02 9346   9.642   3.766   1.527 -0.7521  0.0534 -3.9076
   84GLOH   H08 9347   9.499   3.691   1.609 -0.9091  0.4200 -1.8666
   84GLOH    C2 9348   9.537   3.646   1.405 -0.1482 -0.7603 -0.5503
   84GLOH   H04 9349   9.479   3.553   1.410  3.4322 -3.0497  1.3549
   84GLOH    O2 9350   9.462   3.750   1.358 -0.1133 -0.2454 -0.4694
   84GLOH   H05 9351   9.398   3.723   1.290 -0.6459  2.7375 -1.2515
   84GLOH    C3 9352   9.661   3.612   1.318  0.1214 -0.7552  0.1722
   84GLOH   H06 9353   9.731   3.695   1.331 -3.6852  2.5684  0.3115
   84GLOH   H07 9354   9.629   3.598   1.215 -0.8016 -0.8115  0.4583
   84GLOH    O3 9355   9.728   3.496   1.377  0.1378  0.3004 -0.4568
   84GLOH   H01 9356   9.730   3.520   1.472  2.2633 -0.8609 -0.1818
   85GLOH   H03 9357   4.771   1.520   0.107 -1.0785  3.0258  0.8444
   85GLOH    O1 9358   4.808   1.557   0.025 -0.8682  0.2877 -0.3451
   85GLOH    C1 9359   4.806   1.701   0.033  0.0728  0.1570  0.0918
   85GLOH   H02 9360   4.909   1.734   0.049 -0.2940  1.6149 -0.4368
   85GLOH   H08 9361   4.749   1.741   0.118 -1.6961 -0.8683 -0.5983
   85GLOH    C2 9362   4.768   1.776  -0.100 -0.3138 -0.2436 -0.2884
   85GLOH   H04 9363   4.663   1.753  -0.123 -0.1767 -1.2589  0.0921
   85GLOH    O2 9364   4.788   1.916  -0.078  0.3092  0.1818 -0.2942
   85GLOH   H05 9365   4.733   1.958  -0.010  1.0616 -0.8041  0.9580
   85GLOH    C3 9366   4.848   1.726  -0.216 -0.2122 -0.3265  0.2596
   85GLOH   H06 9367   4.954   1.746  -0.203 -0.4547 -0.5057  2.6192
   85GLOH   H07 9368   4.805   1.769  -0.307  1.7740 -0.2156 -0.6615
   85GLOH    O3 9369   4.841   1.579  -0.228 -0.0051  0.0068  0.2761
   85GLOH   H01 9370   4.858   1.541  -0.140 -1.5305 -1.4988 -0.0532
   86GLOH   H03 9371   0.286   9.845   3.832  1.7970 -2.9834 -0.1959
   86GLOH    O1 9372   0.226   9.828   3.757  0.7394 -0.4852  0.0521
   86GLOH    C1 9373   0.185   9.686   3.774 -0.0114 -0.0135 -0.3430
   86GLOH   H02 9374   0.273   9.623   3.770  1.2042  1.6075  0.2759
   86GLOH   H08 9375   0.119   9.656   3.692 -0.0209  0.2900 -0.4458
   86GLOH    C2 9376   0.110   9.655   3.906 -0.5352  0.3408 -0.3858
   86GLOH   H04 9377   0.171   9.687   3.991  0.0424  1.2406 -1.1266
   86GLOH    O2 9378  -0.020   9.723   3.900  0.4388  0.0630 -0.2575
   86GLOH   H05 9379  -0.061   9.703   3.814  1.1495 -2.3905 -0.0673
   86GLOH    C3 9380   0.074   9.507   3.907 -0.0123  0.0886  0.3283
   86GLOH   H06 9381   0.008   9.501   3.821 -1.4634  1.4087  1.3227
   86GLOH   H07 9382   0.007   9.496   3.992 -0.7756 -0.0958 -0.2903
   86GLOH    O3 9383   0.187   9.417   3.905 -0.2161 -0.3762 -0.6382
   86GLOH   H01 9384   0.198   9.387   3.997  0.4487 -1.4000 -1.0423
   87GLOH   H03 9385   7.122   2.471   2.480 -0.2532 -1.7813  0.6542
   87GLOH    O1 9386   7.143   2.454   2.386  0.2228  0.1872  0.3734
   87GLOH    C1 9387   7.216   2.565   2.333 -0.0157  0.2626 -0.3747
   87GLOH   H02 9388   7.205   2.651   2.400  2.3738 -0.5059  1.0564
   87GLOH   H08 9389   7.170   2.605   2.242 -0.9283 -0.6163 -0.3062
   87GLOH    C2 9390   7.361   2.547   2.309  0.2800 -0.3081  0.0204
   87GLOH   H04 9391   7.379   2.463   2.240 -0.7323 -0.5107 -0.0177
   87GLOH    O2 9392   7.418   2.664   2.247 -0.6426  0.1227 -0.9299
   87GLOH   H05 9393   7.478   2.637   2.176 -0.3857  0.8146 -0.9829
   87GLOH    C3 9394   7.421   2.515   2.442 -0.1181  0.2480 -0.0527
   87GLOH   H06 9395   7.350   2.453   2.496  0.4566 -0.8921 -0.6026
   87GLOH   H07 9396   7.420   2.606   2.503 -3.6255  0.1362  0.1203
   87GLOH    O3 9397   7.551   2.457   2.434 -0.2878  0.4235 -0.0532
   87GLOH   H01 9398   7.556   2.360   2.441 -2.7114  0.1191 -1.6576
   88GLOH   H03 9399   3.969   6.683   3.811 -2.3744 -0.8083  0.7378
   88GLOH    O1 9400   3.969   6.639   3.723 -0.0935 -0.1869  0.3805
   88GLOH    C1 9401   4.077   6.691   3.649  0.0655  0.2058 -1.2301
   88GLOH   H02 9402   4.093   6.623   3.564 -1.4955  1.7983 -2.8334
   88GLOH   H08 9403   4.170   6.696   3.705 -0.5828 -0.0339 -0.1252
   88GLOH    C2 9404   4.026   6.820   3.579 -0.6075 -0.0767 -1.0231
   88GLOH   H04 9405   3.974   6.877   3.657 -1.5696 -0.3181 -1.4758
   88GLOH    O2 9406   4.142   6.888   3.528  0.2481  0.6727  0.0974
   88GLOH   H05 9407   4.150   6.887   3.431 -0.7472  0.0824  0.0197
   88GLOH    C3 9408   3.929   6.792   3.463  0.8368 -0.7454  0.4284
   88GLOH   H06 9409   3.850   6.737   3.513 -1.6423  1.4317 -0.9962
   88GLOH   H07 9410   3.966   6.739   3.376 -2.2162  0.5033 -1.7082
   88GLOH    O3 9411   3.876   6.913   3.407  0.1614 -0.0485  0.2766
   88GLOH   H01 9412   3.793   6.947   3.444 -1.6680 -0.9656 -2.7959
   89GLOH   H03 9413   6.497   7.073   3.963 -1.5738 -1.2330 -0.6947
   89GLOH    O1 9414   6.565   7.005   3.950 -0.0948 -0.0727  0.8549
   89GLOH    C1 9415   6.565   6.976   3.805  0.3598 -0.2027  0.4583
   89GLOH   H02 9416   6.468   6.935   3.777 -0.2018 -0.1887  2.3373
   89GLOH   H08 9417   6.634   6.896   3.779  0.1765 -0.2028 -0.0311
   89GLOH    C2 9418   6.585   7.098   3.706 -0.6506  0.1392 -0.3366
   89GLOH   H04 9419   6.499   7.167   3.714 -1.1136 -0.6701  2.1078
   89GLOH    O2 9420   6.701   7.173   3.732  0.3330 -0.5559  0.2115
   89GLOH   H05 9421   6.777   7.130   3.690  1.6412 -0.8864  2.8153
   89GLOH    C3 9422   6.579   7.043   3.563 -0.1932 -0.1620 -0.3085
   89GLOH   H06 9423   6.488   6.982   3.552 -0.6086  0.2403  0.8309
   89GLOH   H07 9424   6.661   6.974   3.544 -1.9591 -2.6807  0.8457
   89GLOH    O3 9425   6.583   7.146   3.464 -0.2777  0.2702  0.3016
   89GLOH   H01 9426   6.661   7.128   3.410  0.6014 -2.2588  2.2861
   90GLOH   H03 9427   8.354   4.427   2.537 -0.5276  1.4017  0.8563
   90GLOH    O1 9428   8.372   4.347   2.591  0.0112  0.5085 -0.6387
   90GLOH    C1 9429   8.246   4.311   2.645 -0.2494 -0.1550 -0.3400
   90GLOH   H02 9430   8.163   4.378   2.627  0.3573  0.4585 -0.9125
   90GLOH   H08 9431   8.257   4.311   2.754 -1.2883  1.7229 -0.2162
   90GLOH    C2 9432   8.210   4.171   2.600  0.2294  0.4496  0.1494
   90GLOH   H04 9433   8.286   4.099   2.635 -2.3247 -1.2006  2.5617
   90GLOH    O2 9434   8.082   4.133   2.660  0.6140  0.0292  0.1270
   90GLOH   H05 9435   8.080   4.054   2.718 -1.9380 -1.9342 -2.5120
   90GLOH    C3 9436   8.204   4.152   2.451  0.8329  0.8416  0.1072
   90GLOH   H06 9437   8.118   4.202   2.406  1.3541 -0.1189 -2.0446
   90GLOH   H07 9438   8.177   4.047   2.441  0.7562  1.0157 -1.8459
   90GLOH    O3 9439   8.335   4.173   2.386 -0.1627 -0.0602  0.5457
   90GLOH   H01 9440   8.395   4.098   2.402 -0.9055 -0.7050  0.3703
   91GLOH   H03 9441   7.564   2.148   3.407  0.1285 -2.9881 -2.9964
   91GLOH    O1 9442   7.608   2.093   3.475  0.4762 -0.1647 -0.8614
   91GLOH    C1 9443   7.608   2.161   3.600  0.6739  0.0133  0.5102
   91GLOH   H02 9444   7.655   2.258   3.586 -0.2352  0.4247  0.2812
   91GLOH   H08 9445   7.664   2.116   3.683  1.3418 -0.4252 -0.1672
   91GLOH    C2 9446   7.461   2.192   3.647  0.2310  0.0672 -0.6600
   91GLOH   H04 9447   7.401   2.211   3.557  1.2007 -1.9976 -1.8028
   91GLOH    O2 9448   7.402   2.077   3.711  0.1268 -0.5088 -0.1056
   91GLOH   H05 9449   7.308   2.093   3.730  0.8363  1.3750  2.0166
   91GLOH    C3 9450   7.452   2.316   3.734 -1.0706 -0.1219 -0.2178
   91GLOH   H06 9451   7.525   2.316   3.814 -1.3891 -2.1392  0.1073
   91GLOH   H07 9452   7.355   2.333   3.781 -1.9116  0.9578 -2.2561
   91GLOH    O3 9453   7.482   2.437   3.654  0.4480  0.0539 -0.3117
   91GLOH   H01 9454   7.416   2.457   3.586 -0.4145  3.8665  1.5235
   92GLOH   H03 9455   2.451   4.035   0.210  0.1851 -0.8412  0.7312
   92GLOH    O1 9456   2.379   4.056   0.271 -0.2754 -0.0444 -0.0803
   92GLOH    C1 9457   2.442   4.112   0.389 -0.0649  0.1130  0.7473
   92GLOH   H02 9458   2.376   4.167   0.456  0.6565  0.5240  1.1288
   92GLOH   H08 9459   2.521   4.179   0.355 -0.9619  0.5574 -0.4964
   92GLOH    C2 9460   2.510   4.008   0.479  0.0364  0.0416 -0.3329
   92GLOH   H04 9461   2.595   3.962   0.426  0.3485 -1.4287  1.3772
   92GLOH    O2 9462   2.563   4.072   0.590  0.1305  0.3472 -0.1320
   92GLOH   H05 9463   2.587   4.000   0.651 -0.8322  0.5483  0.4884
   92GLOH    C3 9464   2.419   3.890   0.519 -0.7687  0.0694  0.2678
   92GLOH   H06 9465   2.398   3.844   0.423  0.1865 -1.7360  0.9049
   92GLOH   H07 9466   2.332   3.944   0.558 -2.7125 -2.4790 -0.4059
   92GLOH    O3 9467   2.489   3.801   0.605 -0.2704  0.0542  0.0152
   92GLOH   H01 9468   2.430   3.725   0.623 -1.4298  0.9414 -0.0118
   93GLOH   H03 9469   4.792   8.203   5.131  0.2483 -2.2334 -1.3186
   93GLOH    O1 9470   4.701   8.201   5.098 -0.3150  0.5884 -0.0293
   93GLOH    C1 9471   4.664   8.339   5.113 -0.1582 -0.1119 -0.1732
   93GLOH   H02 9472   4.752   8.403   5.113  1.2475 -2.0054 -1.1506
   93GLOH   H08 9473   4.612   8.349   5.209 -1.7736 -2.5092 -0.7742
   93GLOH    C2 9474   4.575   8.384   4.994 -0.4342  0.5496  0.1624
   93GLOH   H04 9475   4.489   8.315   4.999  1.1618 -1.5427 -0.7055
   93GLOH    O2 9476   4.523   8.515   5.009 -0.7731  1.0483 -0.0670
   93GLOH   H05 9477   4.507   8.552   4.921  0.4390  0.8548 -0.3720
   93GLOH    C3 9478   4.647   8.362   4.863  0.6336 -0.1344  0.7079
   93GLOH   H06 9479   4.641   8.256   4.837 -1.3274 -0.0564  0.7794
   93GLOH   H07 9480   4.755   8.376   4.875  0.8058 -1.2250  0.4809
   93GLOH    O3 9481   4.585   8.431   4.749 -0.1179 -0.2556  0.1301
   93GLOH   H01 9482   4.650   8.447   4.678  0.6081  2.6368  1.3663
   94GLOH   H03 9483   6.854   4.141   0.758  1.5208 -2.0585  1.4542
   94GLOH    O1 9484   6.936   4.138   0.706  0.5682 -0.5830 -0.1675
   94GLOH    C1 9485   6.947   4.002   0.654  0.3636  0.8153 -0.2627
   94GLOH   H02 9486   6.873   3.995   0.574 -0.8451  1.0641  0.8213
   94GLOH   H08 9487   6.927   3.926   0.730 -0.2964 -0.1543 -1.3833
   94GLOH    C2 9488   7.084   3.959   0.598  0.0509 -0.0602  0.4064
   94GLOH   H04 9489   7.162   3.992   0.667 -0.2738 -1.5583  1.5253
   94GLOH    O2 9490   7.086   3.819   0.585 -0.0529 -0.2842  0.5514
   94GLOH   H05 9491   7.181   3.796   0.584  0.2490  0.9453 -0.6055
   94GLOH    C3 9492   7.112   4.043   0.472  0.4570  0.0058 -0.6772
   94GLOH   H06 9493   7.213   4.015   0.444 -0.5638 -5.0797  0.2467
   94GLOH   H07 9494   7.112   4.150   0.493  1.1472  0.4488 -2.8061
   94GLOH    O3 9495   7.014   4.018   0.367 -0.4580  0.4033 -0.1497
   94GLOH   H01 9496   6.937   4.076   0.378 -0.7290  0.0398 -0.1274
   95GLOH   H03 9497   5.006   0.897   5.581 -0.8021  0.0927 -0.5959
   95GLOH    O1 9498   5.028   0.992   5.588 -0.4274 -0.0585  0.2984
   95GLOH    C1 9499   4.911   1.066   5.547 -0.3373 -0.2111 -0.1243
   95GLOH   H02 9500   4.842   1.081   5.630  0.9464 -1.0077  1.0994
   95GLOH   H08 9501   4.857   1.009   5.471  1.6579 -1.1217 -0.9136
   95GLOH    C2 9502   4.945   1.207   5.496  0.3528  0.1834  0.5622
   95GLOH   H04 9503   5.017   1.194   5.413  0.3771  1.5077  0.3567
   95GLOH    O2 9504   4.828   1.276   5.447  0.2110  0.2885  0.1649
   95GLOH   H05 9505   4.856   1.347   5.387  0.8244 -0.3707 -0.3328
   95GLOH    C3 9506   5.003   1.294   5.611  0.1187 -0.3896 -0.1040
   95GLOH   H06 9507   4.928   1.305   5.689  0.1066  0.0140 -0.1734
   95GLOH   H07 9508   5.024   1.393   5.570 -0.4060 -0.5061 -0.6654
   95GLOH    O3 9509   5.127   1.234   5.662  0.4670  0.2182  0.3822
   95GLOH   H01 9510   5.122   1.137   5.647  0.4440  0.5208 -1.8476
   96GLOH   H03 9511   6.718   9.111   2.617 -0.1482 -0.0106  0.1140
   96GLOH    O1 9512   6.698   9.132   2.710 -0.3081  0.1671  0.0393
   96GLOH    C1 9513   6.667   9.273   2.719 -0.2161  0.0906  0.4150
   96GLOH   H02 9514   6.747   9.346   2.714  1.4431 -1.5949  1.5117
   96GLOH   H08 9515   6.612   9.298   2.809  0.1180  0.4776  0.5135
   96GLOH    C2 9516   6.561   9.308   2.608 -0.1617  0.0787 -0.2753
   96GLOH   H04 9517   6.479   9.236   2.605 -0.7394  0.7580 -0.9795
   96GLOH    O2 9518   6.500   9.439   2.623 -0.5734 -0.1338  0.3759
   96GLOH   H05 9519   6.426   9.458   2.563 -1.9447 -2.1911  1.3355
   96GLOH    C3 9520   6.637   9.300   2.474 -0.2080 -0.7899  0.0150
   96GLOH   H06 9521   6.724   9.363   2.488 -0.2010 -1.0189  1.0120
   96GLOH   H07 9522   6.581   9.346   2.392  0.7554 -0.3895 -0.4198
   96GLOH    O3 9523   6.675   9.162   2.442  0.4561 -0.5826  0.5889
   96GLOH   H01 9524   6.695   9.166   2.347  0.0451  1.5446  0.5848
   97GLOH   H03 9525   1.946   5.598   2.920  0.2816 -0.2720 -2.7285
   97GLOH    O1 9526   1.911   5.510   2.941 -0.1256  0.5392  0.2419
   97GLOH    C1 9527   1.801   5.524   3.027  0.5132 -0.8826 -0.2168
   97GLOH   H02 9528   1.717   5.463   2.993  1.4070 -3.3532  1.8602
   97GLOH   H08 9529   1.756   5.623   3.025 -0.9216 -1.4613  2.0085
   97GLOH    C2 9530   1.838   5.470   3.169 -0.1732  0.4625  0.2515
   97GLOH   H04 9531   1.759   5.505   3.238 -1.0933  3.5948 -2.2679
   97GLOH    O2 9532   1.838   5.324   3.181  0.2502  0.0365 -0.0451
   97GLOH   H05 9533   1.908   5.308   3.246  0.0590 -1.5575 -0.2047
   97GLOH    C3 9534   1.972   5.535   3.203 -0.2973 -0.3409 -0.3180
   97GLOH   H06 9535   2.042   5.489   3.133  1.8165  0.4014  1.2525
   97GLOH   H07 9536   1.999   5.495   3.301 -1.1845 -0.9918 -0.3378
   97GLOH    O3 9537   1.978   5.679   3.197 -0.2533 -0.2388 -0.0251
   97GLOH   H01 9538   2.071   5.702   3.218 -0.9323  1.6215  1.1313
   98GLOH   H03 9539   4.547   8.818   2.469  0.1222  1.7231 -1.9223
   98GLOH    O1 9540   4.459   8.780   2.449  0.4830  0.0197 -0.3979
   98GLOH    C1 9541   4.398   8.898   2.394  0.4856 -0.2735 -0.7771
   98GLOH   H02 9542   4.354   8.865   2.300  0.2190 -1.7534 -0.1422
   98GLOH   H08 9543   4.469   8.975   2.362  0.9810 -0.6012 -0.4781
   98GLOH    C2 9544   4.298   8.956   2.496  0.1515  0.2755 -0.9179
   98GLOH   H04 9545   4.211   8.889   2.492  0.9757 -0.8751 -0.0644
   98GLOH    O2 9546   4.360   8.966   2.625 -0.4398  0.2249  0.3616
   98GLOH   H05 9547   4.398   8.880   2.647  1.4065  0.8401 -0.3068
   98GLOH    C3 9548   4.250   9.095   2.459 -0.3923  1.0235 -0.0968
   98GLOH   H06 9549   4.339   9.157   2.446  1.6839 -1.6381  1.1377
   98GLOH   H07 9550   4.200   9.134   2.548  0.6948 -2.0688  1.9489
   98GLOH    O3 9551   4.167   9.094   2.345  0.4382  0.2572  0.3105
   98GLOH   H01 9552   4.079   9.066   2.376  0.8992 -1.4604  0.1308
   99GLOH   H03 9553   4.054   6.179   2.355 -1.1489 -3.5482 -0.1061
   99GLOH    O1 9554   4.147   6.149   2.355 -0.0146 -0.2139  0.2192
   99GLOH    C1 9555   4.237   6.222   2.267  0.7030  0.3621  0.2210
   99GLOH   H02 9556   4.247   6.325   2.302 -1.8306  0.6569  0.1617
   99GLOH   H08 9557   4.196   6.219   2.166  1.3924  0.8197 -0.0743
   99GLOH    C2 9558   4.374   6.150   2.275 -0.1264  0.4644 -0.0247
   99GLOH   H04 9559   4.355   6.044   2.250  2.9657  0.5735 -3.1847
   99GLOH    O2 9560   4.455   6.194   2.167 -0.3643  0.4640  0.0015
   99GLOH   H05 9561   4.534   6.234   2.205 -0.2210 -1.4155  1.7904
   99GLOH    C3 9562   4.430   6.156   2.413  0.6713 -0.6301  0.1846
   99GLOH   H06 9563   4.515   6.088   2.417  2.6104  1.6782 -0.4833
   99GLOH   H07 9564   4.355   6.122   2.484 -1.0675 -1.5652 -2.0188
   99GLOH    O3 9565   4.469   6.288   2.439 -0.2130  0.0173  0.2834
   99GLOH   H01 9566   4.561   6.316   2.425 -0.0052 -0.1538  1.3004
  100GLOH   H03 9567   5.110   8.441   5.061  0.8482 -1.1665 -0.9509
  100GLOH    O1 9568   5.133   8.397   5.145  0.2877 -0.3027 -0.3314
  100GLOH    C1 9569   5.162   8.504   5.239  0.5109 -0.3970 -0.3576
  100GLOH   H02 9570   5.231   8.575   5.194 -1.2730  0.9773 -0.9588
  100GLOH   H08 9571   5.206   8.473   5.334  2.5512 -1.1618 -1.5021
  100GLOH    C2 9572   5.032   8.588   5.256  0.2533 -0.8395 -0.3895
  100GLOH   H04 9573   4.958   8.513   5.286  0.1241  0.1348  1.8383
  100GLOH    O2 9574   5.051   8.692   5.359 -0.3117 -0.2550 -0.2536
  100GLOH   H05 9575   4.972   8.747   5.346 -1.3601 -1.6725  0.0493
  100GLOH    C3 9576   4.982   8.655   5.120 -0.0260 -0.2620  0.9082
  100GLOH   H06 9577   5.039   8.745   5.098  1.0154 -0.7600  1.5483
  100GLOH   H07 9578   4.880   8.691   5.131 -0.0004 -0.2916  1.2556
  100GLOH    O3 9579   4.995   8.567   5.010 -0.6999  0.8063 -0.7211
  100GLOH   H01 9580   4.969   8.610   4.927  1.7828  2.7195 -0.5481
  101GLOH   H03 9581   4.890   4.207   2.301 -0.3198  0.1913  0.9517
  101GLOH    O1 9582   4.850   4.118   2.309  0.7241 -0.3575  0.3634
  101GLOH    C1 9583   4.862   4.061   2.181  0.9075  0.1237 -0.1941
  101GLOH   H02 9584   4.774   4.092   2.125  0.4356 -1.3483 -0.2890
  101GLOH   H08 9585   4.849   3.954   2.195  1.8928 -0.7548 -5.0497
  101GLOH    C2 9586   4.987   4.107   2.102 -0.2836  0.4583  0.7377
  101GLOH   H04 9587   5.082   4.079   2.150 -0.3068  0.8094  0.9854
  101GLOH    O2 9588   5.001   4.054   1.967 -0.1604 -0.4393  0.2072
  101GLOH   H05 9589   4.969   3.962   1.961  2.3351 -1.3021 -0.5033
  101GLOH    C3 9590   4.991   4.264   2.095  0.3838 -0.3287 -0.2415
  101GLOH   H06 9591   4.905   4.303   2.040 -0.0414 -0.5045  0.2982
  101GLOH   H07 9592   5.084   4.291   2.044  0.3424  0.1519 -0.0647
  101GLOH    O3 9593   4.987   4.319   2.226  0.3980  0.5539  0.2207
  101GLOH   H01 9594   4.983   4.414   2.208  0.9420  1.1186  2.9120
  102GLOH   H03 9595   4.750   2.506   3.984 -1.0532 -2.2165  0.3955
  102GLOH    O1 9596   4.770   2.461   3.900 -0.1156 -0.0163 -0.5879
  102GLOH    C1 9597   4.697   2.336   3.918 -0.5771 -0.5640  0.9160
  102GLOH   H02 9598   4.590   2.352   3.911 -0.6095 -1.2862 -0.4223
  102GLOH   H08 9599   4.726   2.298   4.016 -0.5907 -3.1272 -0.0107
  102GLOH    C2 9600   4.732   2.224   3.817 -0.5435  0.5308 -0.3319
  102GLOH   H04 9601   4.833   2.185   3.839 -0.8903 -1.6114 -2.3915
  102GLOH    O2 9602   4.637   2.113   3.833  1.0761 -0.6983  0.8418
  102GLOH   H05 9603   4.679   2.028   3.812 -2.4180 -1.9075 -1.6663
  102GLOH    C3 9604   4.727   2.268   3.669 -0.0872 -0.6844 -0.6480
  102GLOH   H06 9605   4.623   2.295   3.653  0.0372  2.7414  3.2668
  102GLOH   H07 9606   4.765   2.187   3.607  1.6068  0.7207 -1.5245
  102GLOH    O3 9607   4.820   2.380   3.661 -0.5430 -0.2997  0.2568
  102GLOH   H01 9608   4.819   2.434   3.742  0.9594 -1.4254  1.0617
  103GLOH   H03 9609   0.394   6.708   0.553 -1.9929 -1.4026 -0.1489
  103GLOH    O1 9610   0.403   6.691   0.458 -0.1481  0.2582 -0.2912
  103GLOH    C1 9611   0.488   6.577   0.469 -0.1506 -0.2568  0.4678
  103GLOH   H02 9612   0.593   6.603   0.472 -0.5766  1.4492  0.9532
  103GLOH   H08 9613   0.470   6.523   0.376 -1.3937  2.5970 -0.9887
  103GLOH    C2 9614   0.454   6.479   0.587  0.0348  0.4898  0.1194
  103GLOH   H04 9615   0.355   6.437   0.565 -0.3688  1.1207  0.7075
  103GLOH    O2 9616   0.546   6.368   0.589  0.0119  0.1012 -0.1663
  103GLOH   H05 9617   0.520   6.310   0.663 -0.8875  1.6226  0.7296
  103GLOH    C3 9618   0.454   6.565   0.719  0.2294  0.1850  0.5057
  103GLOH   H06 9619   0.560   6.588   0.733  0.0482  0.5709  1.2212
  103GLOH   H07 9620   0.431   6.494   0.798 -1.4793  0.2063  0.0324
  103GLOH    O3 9621   0.374   6.683   0.717  0.2468 -0.0562  0.5707
  103GLOH   H01 9622   0.347   6.699   0.809 -0.0113  0.0019  0.4849
  104GLOH   H03 9623   7.097   7.644   2.068  2.1716  0.7046 -0.7663
  104GLOH    O1 9624   7.124   7.553   2.088 -0.1676  0.1181 -0.1653
  104GLOH    C1 9625   7.211   7.501   1.982  0.2815  0.2368 -0.5978
  104GLOH   H02 9626   7.238   7.399   2.010 -1.4264 -0.0460  0.1088
  104GLOH   H08 9627   7.298   7.566   1.984 -1.1001  2.1650 -1.6436
  104GLOH    C2 9628   7.151   7.498   1.838  0.1136  0.4125  0.3152
  104GLOH   H04 9629   7.156   7.602   1.801  0.2398 -0.3405 -1.8864
  104GLOH    O2 9630   7.237   7.421   1.748  0.4017  0.4131 -0.1489
  104GLOH   H05 9631   7.263   7.337   1.790 -1.3589  0.5296  1.2687
  104GLOH    C3 9632   7.009   7.452   1.838  0.0943  0.1874  0.1818
  104GLOH   H06 9633   7.014   7.361   1.898 -1.4910  1.6631  2.6432
  104GLOH   H07 9634   6.984   7.425   1.735  0.6662  0.5848 -0.0614
  104GLOH    O3 9635   6.925   7.555   1.889  0.0992 -0.6792 -0.0864
  104GLOH   H01 9636   6.836   7.519   1.906 -0.9048  2.2517  1.2914
  105GLOH   H03 9637   3.647   4.337   3.380 -1.2792  1.1898  0.2562
  105GLOH    O1 9638   3.656   4.406   3.312 -0.3381  0.2834 -0.5700
  105GLOH    C1 9639   3.543   4.491   3.322 -0.1235 -0.2301 -0.4183
  105GLOH   H02 9640   3.552   4.560   3.238 -0.5274  0.5829  0.2022
  105GLOH   H08 9641   3.546   4.542   3.419 -2.1519 -0.3101 -0.2887
  105GLOH    C2 9642   3.412   4.417   3.319  0.8063 -0.4387  0.1261
  105GLOH   H04 9643   3.416   4.333   3.391 -1.7492 -1.0906 -0.4420
  105GLOH    O2 9644   3.308   4.515   3.357  0.1020  0.1994 -0.6041
  105GLOH   H05 9645   3.263   4.466   3.428  3.5996 -0.9219  0.9530
  105GLOH    C3 9646   3.399   4.342   3.188 -0.5806  0.0194 -0.1416
  105GLOH   H06 9647   3.493   4.297   3.155  0.2274 -0.2663  2.4203
  105GLOH   H07 9648   3.368   4.414   3.113 -2.7421 -0.5770  0.1409
  105GLOH    O3 9649   3.292   4.242   3.193 -0.4723  0.5990  0.2010
  105GLOH   H01 9650   3.211   4.294   3.212  0.4733  1.0035  3.3776
  106GLOH   H03 9651   3.676   3.931   0.685  1.8267  0.9760 -0.5490
  106GLOH    O1 9652   3.670   4.009   0.627  0.2294  0.5397 -0.9779
  106GLOH    C1 9653   3.768   4.096   0.678  0.1761  0.3329 -0.2449
  106GLOH   H02 9654   3.772   4.096   0.787 -2.7171  2.1628 -0.0789
  106GLOH   H08 9655   3.744   4.198   0.647 -3.2005 -0.2650  0.1445
  106GLOH    C2 9656   3.908   4.071   0.608  0.2007  0.0037 -0.1551
  106GLOH   H04 9657   3.889   4.068   0.500  1.5688  4.3528 -0.5912
  106GLOH    O2 9658   4.001   4.188   0.626 -0.3095  0.1808  0.4727
  106GLOH   H05 9659   4.056   4.212   0.549 -4.4110  0.8827 -2.3780
  106GLOH    C3 9660   3.975   3.942   0.654  0.7199 -0.1069  0.1209
  106GLOH   H06 9661   3.980   3.940   0.763  2.1920  2.1592  0.1167
  106GLOH   H07 9662   4.078   3.945   0.619  0.8938  0.1313  0.6423
  106GLOH    O3 9663   3.922   3.818   0.610  0.0687  0.3373  0.0904
  106GLOH   H01 9664   3.843   3.803   0.666  0.7208  0.6143  1.0754
  107GLOH   H03 9665   0.659   1.075   0.266  0.4942 -0.3032  0.2886
  107GLOH    O1 9666   0.593   1.139   0.299  0.4203 -0.2522  0.0398
  107GLOH    C1 9667   0.618   1.265   0.231 -0.6444 -0.0929  0.1596
  107GLOH   H02 9668   0.666   1.254   0.134  1.1205  1.4442  0.8349
  107GLOH   H08 9669   0.682   1.320   0.299  0.6864 -0.2788 -0.9353
  107GLOH    C2 9670   0.481   1.340   0.220  0.3573 -0.1049  0.0314
  107GLOH   H04 9671   0.434   1.329   0.319 -0.2694  0.7309 -0.1662
  107GLOH    O2 9672   0.505   1.482   0.184  0.1511 -0.3476  0.6019
  107GLOH   H05 9673   0.459   1.546   0.241  1.3844  1.2955 -0.1962
  107GLOH    C3 9674   0.385   1.278   0.115  0.4909 -0.0550 -0.2199
  107GLOH   H06 9675   0.296   1.339   0.104 -0.8035 -1.9139 -0.2985
  107GLOH   H07 9676   0.350   1.183   0.155  2.6119 -1.6108 -1.9689
  107GLOH    O3 9677   0.443   1.258  -0.018 -0.4777  0.1515 -0.4906
  107GLOH   H01 9678   0.447   1.344  -0.063 -0.8247  0.6893  0.4825
  108GLOH   H03 9679   4.367   2.492   4.769  2.2804 -0.4187  3.2745
  108GLOH    O1 9680   4.450   2.500   4.720  0.1205  0.2143 -0.4732
  108GLOH    C1 9681   4.446   2.628   4.655 -0.0390 -0.6212 -0.3926
  108GLOH   H02 9682   4.372   2.633   4.576 -0.8622 -0.8667  0.3584
  108GLOH   H08 9683   4.541   2.642   4.602  0.1505  0.5604  0.2379
  108GLOH    C2 9684   4.428   2.751   4.737  0.1097 -0.6624  0.4303
  108GLOH   H04 9685   4.426   2.840   4.673  0.3230  0.0071  1.3400
  108GLOH    O2 9686   4.294   2.743   4.799 -0.5229  0.0531  0.4790
  108GLOH   H05 9687   4.297   2.672   4.866 -0.6572  0.2940  0.7381
  108GLOH    C3 9688   4.547   2.753   4.829 -0.6105 -0.7701  0.0338
  108GLOH   H06 9689   4.638   2.778   4.774 -0.3860  0.3499  0.8820
  108GLOH   H07 9690   4.553   2.651   4.866  2.7025 -0.7301 -0.2595
  108GLOH    O3 9691   4.531   2.846   4.944 -0.1436 -0.0467  0.8029
  108GLOH   H01 9692   4.459   2.816   5.002 -1.9864 -0.9172 -1.7972
  109GLOH   H03 9693   3.549   2.769   2.330 -0.3956 -1.0600  0.7393
  109GLOH    O1 9694   3.559   2.695   2.268  0.0099 -0.5510  0.1921
  109GLOH    C1 9695   3.597   2.766   2.146 -0.4080  0.4101 -0.2527
  109GLOH   H02 9696   3.705   2.763   2.138 -0.4155  0.9900 -0.6036
  109GLOH   H08 9697   3.564   2.870   2.148  1.2767  0.9329  0.9307
  109GLOH    C2 9698   3.539   2.717   2.015  0.5626 -0.5879  0.2025
  109GLOH   H04 9699   3.584   2.785   1.941  0.2093 -1.4616 -0.8407
  109GLOH    O2 9700   3.575   2.579   1.987 -0.3439 -0.3653 -0.7056
  109GLOH   H05 9701   3.637   2.570   1.913 -1.7928  0.3159 -2.0217
  109GLOH    C3 9702   3.388   2.736   2.005 -0.3344  0.1903 -0.0222
  109GLOH   H06 9703   3.344   2.700   2.098  0.5936  1.3166  0.8721
  109GLOH   H07 9704   3.353   2.665   1.930  0.2180  0.2810 -0.3658
  109GLOH    O3 9705   3.346   2.870   1.965 -0.6114  0.2120 -0.1392
  109GLOH   H01 9706   3.250   2.877   1.955 -0.2630  2.3898 -2.2593
  110GLOH   H03 9707   4.628   9.215   2.251  0.1876 -0.3775  0.2953
  110GLOH    O1 9708   4.591   9.237   2.339 -0.6444  0.1199 -0.1759
  110GLOH    C1 9709   4.520   9.363   2.317 -0.4766 -0.4241 -0.0292
  110GLOH   H02 9710   4.578   9.422   2.247 -0.7422 -0.0414  0.0729
  110GLOH   H08 9711   4.519   9.430   2.403 -3.1268  0.4284 -0.6756
  110GLOH    C2 9712   4.375   9.368   2.267 -0.0528  0.0456 -0.1468
  110GLOH   H04 9713   4.311   9.333   2.350 -0.3976  0.3990 -0.2605
  110GLOH    O2 9714   4.343   9.508   2.238 -0.1343 -0.0470 -0.0370
  110GLOH   H05 9715   4.250   9.519   2.264  0.1649 -1.3395  1.6992
  110GLOH    C3 9716   4.353   9.258   2.166  0.0823 -0.6343  0.2442
  110GLOH   H06 9717   4.401   9.164   2.195  1.0453  0.5195  2.4642
  110GLOH   H07 9718   4.389   9.291   2.068 -2.2775 -0.1221 -0.4669
  110GLOH    O3 9719   4.209   9.237   2.157  0.1627 -0.2964  0.1033
  110GLOH   H01 9720   4.181   9.191   2.239 -0.3530 -0.1733 -0.0062
  111GLOH   H03 9721   5.118   3.674   0.386 -0.1682 -1.1691  0.4547
  111GLOH    O1 9722   5.154   3.647   0.300 -0.0404 -0.0431  0.1548
  111GLOH    C1 9723   5.245   3.752   0.252 -0.4996 -0.4827  1.0678
  111GLOH   H02 9724   5.345   3.708   0.247 -1.0098 -1.9584  3.2714
  111GLOH   H08 9725   5.258   3.830   0.326  0.9635 -0.7298  1.0839
  111GLOH    C2 9726   5.199   3.810   0.120 -0.3169 -0.6354  0.1224
  111GLOH   H04 9727   5.090   3.822   0.121 -0.3023 -0.5700  0.7783
  111GLOH    O2 9728   5.253   3.943   0.102  0.4322 -0.4044  0.2419
  111GLOH   H05 9729   5.205   3.978   0.025  3.0876 -0.7029 -1.5952
  111GLOH    C3 9730   5.239   3.720   0.001  0.3446  0.4637  0.6598
  111GLOH   H06 9731   5.217   3.764  -0.096  2.6941 -0.6567 -0.4164
  111GLOH   H07 9732   5.187   3.624   0.008  0.1380  0.0750 -4.3400
  111GLOH    O3 9733   5.385   3.695   0.001  0.0028  0.4062 -0.7507
  111GLOH   H01 9734   5.419   3.770  -0.050 -1.0915  0.0426 -2.0507
  112GLOH   H03 9735   6.834   1.238   1.682  1.0250  0.1424  0.7976
  112GLOH    O1 9736   6.853   1.265   1.590  0.1859  0.3314  0.6750
  112GLOH    C1 9737   6.857   1.162   1.485  0.0751  0.6366 -0.0278
  112GLOH   H02 9738   6.799   1.197   1.399  0.0751  0.1487 -0.2231
  112GLOH   H08 9739   6.808   1.069   1.514 -1.7154  0.7043 -2.6747
  112GLOH    C2 9740   7.000   1.127   1.438  0.2584  0.3758  0.2231
  112GLOH   H04 9741   7.069   1.117   1.523  0.9935  0.8936 -0.3091
  112GLOH    O2 9742   6.983   1.005   1.368 -0.0553 -0.2950  0.0017
  112GLOH   H05 9743   6.967   0.933   1.430  0.0519  0.6636  1.1544
  112GLOH    C3 9744   7.041   1.240   1.341  0.0945 -1.1237 -0.1849
  112GLOH   H06 9745   6.974   1.244   1.255 -0.3031  1.8886  0.1980
  112GLOH   H07 9746   7.140   1.210   1.306  0.9508 -0.5353  1.6991
  112GLOH    O3 9747   7.048   1.366   1.408 -0.0290  0.5599 -0.4630
  112GLOH   H01 9748   6.978   1.365   1.476  1.2952  1.5243  0.9433
  113GLOH   H03 9749   8.527   9.911   3.256  0.3354 -1.6997  0.2731
  113GLOH    O1 9750   8.454   9.877   3.311 -0.6585  0.5729  0.4211
  113GLOH    C1 9751   8.444   9.944   3.437 -0.2341 -1.0816  0.4874
  113GLOH   H02 9752   8.463  10.050   3.427 -0.3088 -0.6442  4.0435
  113GLOH   H08 9753   8.497   9.895   3.520 -0.3622 -2.2177 -0.0833
  113GLOH    C2 9754   8.296   9.948   3.485 -0.1702 -1.0584  0.4136
  113GLOH   H04 9755   8.274   9.848   3.525  0.0066 -1.0899  0.4318
  113GLOH    O2 9756   8.286  10.033   3.602 -0.0959  0.6705 -0.3057
  113GLOH   H05 9757   8.229   9.987   3.667  0.8285 -0.7797 -0.5049
  113GLOH    C3 9758   8.189   9.983   3.377  0.3651  0.2153  0.4801
  113GLOH   H06 9759   8.187  10.091   3.362 -0.4367  0.5816  3.0321
  113GLOH   H07 9760   8.095   9.958   3.426  0.5745  0.1401  0.8468
  113GLOH    O3 9761   8.205   9.907   3.252  0.0632  0.3908 -0.4990
  113GLOH   H01 9762   8.298   9.881   3.269  0.0221  0.4576 -0.1624
  114GLOH   H03 9763   1.657   3.111   3.978  0.3559  1.2140  1.2016
  114GLOH    O1 9764   1.583   3.060   4.015  0.2558  0.0684 -0.5242
  114GLOH    C1 9765   1.638   2.947   4.094 -0.1391  0.1509  0.2972
  114GLOH   H02 9766   1.588   2.925   4.189  1.1393  0.4684  1.0615
  114GLOH   H08 9767   1.740   2.971   4.126  0.9624 -3.2841 -0.4275
  114GLOH    C2 9768   1.653   2.823   4.010  0.4607 -0.1255  0.1157
  114GLOH   H04 9769   1.721   2.844   3.926  0.8419  0.9831  0.6975
  114GLOH    O2 9770   1.718   2.716   4.087 -0.1540 -0.5263  0.5772
  114GLOH   H05 9771   1.807   2.731   4.121 -0.2017  0.1077  0.4308
  114GLOH    C3 9772   1.520   2.762   3.958  0.0461  0.4307 -0.2216
  114GLOH   H06 9773   1.559   2.675   3.906  0.2736 -0.0298  0.7033
  114GLOH   H07 9774   1.463   2.821   3.886  1.4542  1.0406 -0.8522
  114GLOH    O3 9775   1.432   2.722   4.059 -0.5437  0.1378 -0.1418
  114GLOH   H01 9776   1.375   2.653   4.019  1.0804 -2.2158  1.4670
  115GLOH   H03 9777   5.409   9.036   1.299  1.4043  1.7490 -1.7210
  115GLOH    O1 9778   5.390   8.967   1.234  0.1018  0.2629  0.1858
  115GLOH    C1 9779   5.264   8.911   1.274  0.2855 -0.2889 -0.3717
  115GLOH   H02 9780   5.177   8.976   1.266  0.0320 -0.6403 -0.5019
  115GLOH   H08 9781   5.270   8.885   1.380  2.3376  0.2160 -0.3271
  115GLOH    C2 9782   5.233   8.777   1.210  0.9459  0.9717 -0.6822
  115GLOH   H04 9783   5.315   8.714   1.249 -1.6468 -1.6239  0.7118
  115GLOH    O2 9784   5.102   8.725   1.246  0.1677 -0.1447 -0.0606
  115GLOH   H05 9785   5.032   8.756   1.186  1.2105 -0.0958 -1.2726
  115GLOH    C3 9786   5.234   8.791   1.054  0.3035  0.2902  0.1943
  115GLOH   H06 9787   5.161   8.866   1.026 -0.4843  0.2117  1.9417
  115GLOH   H07 9788   5.218   8.697   1.000  0.7049 -0.4689  1.3542
  115GLOH    O3 9789   5.371   8.829   1.027 -0.3273  0.1859 -0.3899
  115GLOH   H01 9790   5.403   8.874   1.107  1.5994  0.0338 -1.0338
  116GLOH   H03 9791   1.546   9.141   5.610  0.3145  1.8495  0.3004
  116GLOH    O1 9792   1.466   9.157   5.556  0.5593  0.6561 -0.4366
  116GLOH    C1 9793   1.341   9.179   5.621  0.2660 -0.1216 -0.3531
  116GLOH   H02 9794   1.346   9.267   5.685  0.6947  0.6425 -1.4305
  116GLOH   H08 9795   1.331   9.099   5.694  1.7669 -0.5554 -0.5915
  116GLOH    C2 9796   1.217   9.181   5.522 -0.6757  0.6768  0.4907
  116GLOH   H04 9797   1.210   9.077   5.487  5.4396 -0.5424  2.3263
  116GLOH    O2 9798   1.097   9.227   5.580 -0.3861  0.8510  0.1160
  116GLOH   H05 9799   1.113   9.257   5.671  0.0886 -0.8105  0.6009
  116GLOH    C3 9800   1.254   9.270   5.398  0.1678 -0.4132 -0.1030
  116GLOH   H06 9801   1.161   9.293   5.346 -0.1434  2.1881  1.5339
  116GLOH   H07 9802   1.315   9.207   5.333  0.2839 -0.8713  0.4465
  116GLOH    O3 9803   1.321   9.392   5.440 -0.5860  0.3889  0.1909
  116GLOH   H01 9804   1.417   9.382   5.454 -0.4905  2.3748  1.1620
  117GLOH   H03 9805   7.322   3.361   0.815 -3.0351  0.4878  1.3986
  117GLOH    O1 9806   7.363   3.431   0.869  0.5367  0.1698 -0.7318
  117GLOH    C1 9807   7.312   3.556   0.820  0.5078 -0.3051  0.4079
  117GLOH   H02 9808   7.331   3.627   0.900  1.8936  1.3208 -1.3009
  117GLOH   H08 9809   7.205   3.546   0.801  0.7398 -2.1108 -0.0950
  117GLOH    C2 9810   7.380   3.614   0.693 -0.7345 -0.2883 -0.3284
  117GLOH   H04 9811   7.364   3.539   0.615 -1.5548 -2.4734  1.8462
  117GLOH    O2 9812   7.316   3.740   0.656 -0.4874  0.4802 -0.0079
  117GLOH   H05 9813   7.371   3.807   0.701 -2.2792  0.0807  2.9532
  117GLOH    C3 9814   7.532   3.623   0.711 -0.6257 -0.0336  0.2677
  117GLOH   H06 9815   7.565   3.698   0.783 -2.4380  2.6862 -1.6386
  117GLOH   H07 9816   7.571   3.635   0.610  1.3272 -2.8398  0.6122
  117GLOH    O3 9817   7.572   3.494   0.753  0.0878 -0.0697  0.0848
  117GLOH   H01 9818   7.510   3.463   0.821  1.2131 -0.4209  0.9718
  118GLOH   H03 9819   2.058   6.424   4.280  1.3342 -0.1168  0.6076
  118GLOH    O1 9820   2.122   6.404   4.209  0.6070  0.4085 -0.2024
  118GLOH    C1 9821   2.117   6.271   4.165 -0.4286  0.5850 -0.8069
  118GLOH   H02 9822   2.078   6.208   4.245  0.2573  0.6785 -0.3981
  118GLOH   H08 9823   2.221   6.245   4.148 -1.3138 -2.0704 -2.6394
  118GLOH    C2 9824   2.040   6.252   4.033  0.7198  0.0974 -0.0934
  118GLOH   H04 9825   2.062   6.338   3.967  1.1685  1.4655  1.7999
  118GLOH    O2 9826   2.086   6.130   3.967  0.4706 -0.0208 -0.3078
  118GLOH   H05 9827   2.028   6.110   3.892  0.6767  0.5473 -0.6259
  118GLOH    C3 9828   1.888   6.243   4.053 -0.0653 -0.4379  0.4989
  118GLOH   H06 9829   1.856   6.327   4.115 -0.8414 -1.0805  0.9797
  118GLOH   H07 9830   1.860   6.147   4.096 -0.7037 -2.3784 -3.9937
  118GLOH    O3 9831   1.809   6.258   3.938 -0.3742 -0.2282  0.2771
  118GLOH   H01 9832   1.819   6.173   3.892 -2.1366 -1.7801  2.6180
  119GLOH   H03 9833   6.754   9.301   4.336  1.2046 -0.2051  2.1746
  119GLOH    O1 9834   6.664   9.302   4.373  0.2421 -0.3545 -0.1024
  119GLOH    C1 9835   6.607   9.179   4.322 -0.0819  0.6641 -0.1653
  119GLOH   H02 9836   6.555   9.128   4.403 -1.5984 -0.0357 -1.5577
  119GLOH   H08 9837   6.681   9.103   4.296 -2.8133 -2.4004  0.7899
  119GLOH    C2 9838   6.520   9.208   4.200 -0.1487  0.5783  0.4701
  119GLOH   H04 9839   6.448   9.285   4.234 -1.1643  0.1824 -0.7227
  119GLOH    O2 9840   6.590   9.247   4.079  0.3180 -0.2268  0.1317
  119GLOH   H05 9841   6.534   9.226   4.002 -0.2785  1.7232  0.0112
  119GLOH    C3 9842   6.430   9.087   4.170  0.0911 -0.0098  0.7894
  119GLOH   H06 9843   6.385   9.054   4.263 -0.9423 -1.0683 -0.0735
  119GLOH   H07 9844   6.490   9.004   4.134 -0.2854 -0.0386  0.2291
  119GLOH    O3 9845   6.335   9.118   4.068  0.1130 -0.0901 -0.1365
  119GLOH   H01 9846   6.260   9.056   4.076  1.0287 -1.2402 -0.2791
  120GLOH   H03 9847   0.450   8.085   4.549 -2.6987  0.8873  0.1404
  120GLOH    O1 9848   0.474   8.147   4.620 -0.0603 -0.0863  0.1474
  120GLOH    C1 9849   0.613   8.179   4.638  0.0478  0.2196 -0.0347
  120GLOH   H02 9850   0.635   8.219   4.737  0.0126  0.4870 -0.1337
  120GLOH   H08 9851   0.640   8.249   4.559  0.2617  0.0545 -0.1079
  120GLOH    C2 9852   0.718   8.062   4.631  0.4062  0.6745  0.4413
  120GLOH   H04 9853   0.697   8.013   4.534  0.2132  0.5898  0.5267
  120GLOH    O2 9854   0.852   8.119   4.658  0.1071  0.0844 -0.2258
  120GLOH   H05 9855   0.917   8.056   4.694 -0.5194 -1.0659 -1.0322
  120GLOH    C3 9856   0.708   7.948   4.737  0.0429  0.4680 -0.0497
  120GLOH   H06 9857   0.737   7.986   4.834  0.8042 -1.3145  0.4546
  120GLOH   H07 9858   0.781   7.872   4.708 -0.3597 -0.5299  1.4944
  120GLOH    O3 9859   0.581   7.883   4.742  0.1890  0.1457  0.2789
  120GLOH   H01 9860   0.567   7.821   4.816  0.5591 -0.6444 -0.2945
  121ACOH    H4 9861   5.735   7.857   4.187 -1.2759 -1.0214  0.4726
  121ACOH    O2 9862   5.822   7.840   4.226 -0.7133  0.1703 -0.2553
  121ACOH    C2 9863   5.891   7.764   4.141 -0.2968  0.3997 -0.5321
  121ACOH    O1 9864   5.852   7.716   4.039  0.0595 -0.4911 -0.2137
  121ACOH    C1 9865   6.012   7.718   4.211  0.2637  0.3452 -0.1262
  121ACOH    H1 9866   5.980   7.660   4.297 -1.6398  1.1275 -0.3006
  121ACOH    H2 9867   6.065   7.805   4.250 -0.6645  0.9573 -0.2350
  121ACOH    H3 9868   6.087   7.664   4.153  2.3287 -0.7363  3.3552
  122ACOH    H4 9869   4.577   6.611   1.745  0.0040 -1.6987  1.2838
  122ACOH    O2 9870   4.495   6.637   1.790 -0.5091 -0.0388 -0.5255
  122ACOH    C2 9871   4.478   6.535   1.882  0.3515  0.4606  0.2217
  122ACOH    O1 9872   4.565   6.450   1.909  0.7032  0.2648  1.0129
  122ACOH    C1 9873   4.345   6.544   1.952 -0.9431 -0.4751 -0.2156
  122ACOH    H1 9874   4.273   6.524   1.872 -1.6452  0.2557  0.2188
  122ACOH    H2 9875   4.324   6.640   1.999  2.1019 -0.6249  1.5856
  122ACOH    H3 9876   4.347   6.466   2.029  3.1099 -2.0397 -1.7782
  123ACOH    H4 9877   4.870   9.173   0.941 -2.0634 -0.3747 -1.8872
  123ACOH    O2 9878   4.817   9.103   0.983 -0.1626 -0.2323  0.8946
  123ACOH    C2 9879   4.684   9.126   0.948 -0.4165 -1.0220 -0.0859
  123ACOH    O1 9880   4.639   9.199   0.860  0.0597 -0.2152  0.3174
  123ACOH    C1 9881   4.600   9.046   1.039 -0.0616  0.0695 -0.0279
  123ACOH    H1 9882   4.603   9.089   1.139 -0.7310 -0.4859  0.2310
  123ACOH    H2 9883   4.644   8.947   1.046  1.4041  0.7857  1.1462
  123ACOH    H3 9884   4.499   9.039   0.997 -0.5141  0.7028  0.9391
  124ACOH    H4 9885   7.756   5.487   2.724 -1.7656 -1.1687  1.1103
  124ACOH    O2 9886   7.751   5.418   2.656 -0.4174 -0.4296  0.2395
  124ACOH    C2 9887   7.868   5.361   2.650 -0.3546  0.5074  0.3358
  124ACOH    O1 9888   7.968   5.371   2.715  0.0729  0.2366  0.2016
  124ACOH    C1 9889   7.866   5.276   2.536 -0.2743  0.1047  0.2029
  124ACOH    H1 9890   7.843   5.336   2.448 -1.2282  0.8742  0.9572
  124ACOH    H2 9891   7.789   5.199   2.546 -0.7865  0.4772 -0.7289
  124ACOH    H3 9892   7.959   5.221   2.520 -0.3988  0.0844 -0.4746
  125ACOH    H4 9893   6.709   3.089   0.863 -1.1866  3.1842  0.6409
  125ACOH    O2 9894   6.649   3.062   0.791  0.6923 -0.1251  0.1942
  125ACOH    C2 9895   6.727   2.987   0.708  0.9665  0.4364 -0.6489
  125ACOH    O1 9896   6.828   2.926   0.738  0.2378  0.1329  0.0490
  125ACOH    C1 9897   6.657   2.971   0.581 -0.3047 -0.1915 -0.4898
  125ACOH    H1 9898   6.733   2.999   0.509 -1.5512  0.5369 -1.5431
  125ACOH    H2 9899   6.567   3.032   0.571  0.3169  1.4664  3.2539
  125ACOH    H3 9900   6.641   2.866   0.554  2.1887 -0.3867 -1.3489
  126ACOH    H4 9901   5.028   4.198   5.274  0.3408  0.0313 -1.4508
  126ACOH    O2 9902   5.068   4.112   5.294  0.1368  0.2692 -0.0005
  126ACOH    C2 9903   5.034   4.037   5.183 -0.2144  0.3302 -0.1161
  126ACOH    O1 9904   4.967   4.064   5.085 -0.0047  0.0904 -0.5459
  126ACOH    C1 9905   5.102   3.901   5.189  0.5378  0.3492  0.0086
  126ACOH    H1 9906   5.072   3.840   5.274  1.0652  2.4925  1.8025
  126ACOH    H2 9907   5.211   3.911   5.194  0.2576  3.5423  1.3097
  126ACOH    H3 9908   5.065   3.851   5.100  1.5650  0.4223 -0.4682
  127ACOH    H4 9909   5.454   8.846   0.878  1.1092 -2.4008 -0.3172
  127ACOH    O2 9910   5.484   8.848   0.785  0.0594  0.3684 -0.6404
  127ACOH    C2 9911   5.594   8.776   0.793 -0.7906 -0.5050 -0.2162
  127ACOH    O1 9912   5.647   8.725   0.889 -0.0535  0.4830 -0.2047
  127ACOH    C1 9913   5.646   8.763   0.650 -0.3725  0.5465 -0.4491
  127ACOH    H1 9914   5.570   8.706   0.598 -0.8223 -0.8369  1.6586
  127ACOH    H2 9915   5.739   8.705   0.651 -0.9384 -0.3621  1.0072
  127ACOH    H3 9916   5.667   8.860   0.605  0.3614  1.0555  0.9481
  128ACOH    H4 9917   4.523   6.283   0.769 -1.3261 -0.4895  0.3943
  128ACOH    O2 9918   4.493   6.219   0.703  0.1698 -0.5354 -0.2607
  128ACOH    C2 9919   4.549   6.097   0.738 -0.1958  0.3907  0.6296
  128ACOH    O1 9920   4.616   6.078   0.838  0.2386 -0.3547  0.6761
  128ACOH    C1 9921   4.494   5.997   0.643 -0.1846  0.0909 -0.0286
  128ACOH    H1 9922   4.577   5.929   0.622 -0.8581 -1.0644  0.9668
  128ACOH    H2 9923   4.456   6.043   0.551  0.1102  1.4598  0.5271
  128ACOH    H3 9924   4.414   5.942   0.694 -1.6505  0.5322 -1.7592
  129ACOH    H4 9925   5.418   6.648   3.576  0.0351  0.5715 -1.6821
  129ACOH    O2 9926   5.327   6.615   3.566 -0.2003  0.7600 -0.2239
  129ACOH    C2 9927   5.328   6.480   3.556 -0.3991  0.3820  0.2484
  129ACOH    O1 9928   5.419   6.403   3.536  0.3274 -0.4431 -0.9835
  129ACOH    C1 9929   5.188   6.433   3.557 -0.2082 -0.1827 -0.8556
  129ACOH    H1 9930   5.172   6.325   3.562 -0.2076 -0.1290  0.6340
  129ACOH    H2 9931   5.136   6.468   3.468  0.2746 -0.8488 -1.3985
  129ACOH    H3 9932   5.129   6.480   3.636  2.4260  1.7050  0.0636
  130ACOH    H4 9933   6.266   4.088   5.601 -0.3281  0.4080 -1.5009
  130ACOH    O2 9934   6.312   4.009   5.569 -0.1727 -0.4297  0.7075
  130ACOH    C2 9935   6.424   4.009   5.646  0.5310  0.8333 -0.1429
  130ACOH    O1 9936   6.435   4.057   5.756  0.6485 -0.1795 -0.1532
  130ACOH    C1 9937   6.527   3.924   5.581  0.3696  0.3863 -0.1309
  130ACOH    H1 9938   6.544   3.840   5.648  0.3439  0.7471  0.3323
  130ACOH    H2 9939   6.621   3.978   5.573  0.7698  0.2273  2.7982
  130ACOH    H3 9940   6.499   3.892   5.481 -5.2311  1.7965  0.8328
  131ACOH    H4 9941   5.118   2.831   1.316  1.3100 -0.3904 -0.3343
  131ACOH    O2 9942   5.130   2.763   1.248 -0.0943 -0.2302 -0.7579
  131ACOH    C2 9943   5.043   2.790   1.155  0.0479  0.2499 -0.7972
  131ACOH    O1 9944   4.959   2.879   1.147  0.0434  0.4886  0.0707
  131ACOH    C1 9945   5.062   2.695   1.041  0.2369 -0.7096 -0.2032
  131ACOH    H1 9946   5.085   2.759   0.956  0.4761 -1.6073 -0.8174
  131ACOH    H2 9947   4.963   2.651   1.034 -0.6895  1.2215  0.3422
  131ACOH    H3 9948   5.142   2.624   1.061  2.2073  1.2932 -0.6761
  132ACOH    H4 9949   1.990   6.730   1.045  0.9754  2.2143 -0.8161
  132ACOH    O2 9950   2.082   6.700   1.039  0.2033 -0.4675 -0.0683
  132ACOH    C2 9951   2.153   6.783   0.963 -0.1874  1.0846 -0.4369
  132ACOH    O1 9952   2.110   6.869   0.890  0.3225  0.0245 -0.0723
  132ACOH    C1 9953   2.298   6.745   0.954  0.3251 -0.1445 -0.1618
  132ACOH    H1 9954   2.324   6.677   1.036  0.3153 -2.2859 -1.8859
  132ACOH    H2 9955   2.357   6.836   0.948 -0.6543  0.4068 -1.5921
  132ACOH    H3 9956   2.318   6.696   0.859  1.0360 -1.0282  0.4393
  133ACOH    H4 9957   9.872   5.664   2.734 -1.4052 -0.3557  0.5026
  133ACOH    O2 9958   9.849   5.612   2.656 -0.0236 -0.0444 -0.1118
  133ACOH    C2 9959   9.733   5.660   2.608  0.5385  0.0332  0.3612
  133ACOH    O1 9960   9.681   5.764   2.635 -0.2839  0.6353 -0.3720
  133ACOH    C1 9961   9.662   5.574   2.510 -0.6373 -0.0662 -0.0604
  133ACOH    H1 9962   9.573   5.622   2.470  0.6282  1.0789 -1.5944
  133ACOH    H2 9963   9.630   5.479   2.551  0.3436  0.2094  1.3848
  133ACOH    H3 9964   9.730   5.550   2.427  1.6054  1.0583  1.3855
  134ACOH    H4 9965   1.952   1.175   0.916  1.3445  1.6561  0.9956
  134ACOH    O2 9966   2.028   1.116   0.928  0.2832  0.1244  0.2714
  134ACOH    C2 9967   2.066   1.060   0.812 -0.3366  0.1631 -0.2118
  134ACOH    O1 9968   2.012   1.069   0.709  0.1072 -0.0620  0.4617
  134ACOH    C1 9969   2.180   0.965   0.834 -0.3138 -0.0900  0.5288
  134ACOH    H1 9970   2.161   0.890   0.910  3.0301 -1.8747 -0.2684
  134ACOH    H2 9971   2.263   1.027   0.869 -0.3445  0.1195  0.2408
  134ACOH    H3 9972   2.222   0.922   0.743 -1.1795 -0.7679  0.4533
  135ACOH    H4 9973   3.826   5.121   2.540  0.2938  0.0611 -0.0265
  135ACOH    O2 9974   3.879   5.202   2.527  0.3400 -0.0383 -0.4503
  135ACOH    C2 9975   3.893   5.244   2.402 -0.8265 -0.1135  0.1808
  135ACOH    O1 9976   3.817   5.208   2.316  0.2555 -0.0357  0.3092
  135ACOH    C1 9977   3.987   5.358   2.381 -0.0153 -0.0237 -0.0253
  135ACOH    H1 9978   3.941   5.453   2.408  0.5068  0.8704 -2.1617
  135ACOH    H2 9979   4.007   5.364   2.274  1.0248 -0.3200  0.1480
  135ACOH    H3 9980   4.078   5.341   2.438  0.2896  2.8240  0.3961
  136ACOH    H4 9981   9.576   4.288   3.313 -0.8166 -2.8594 -1.5391
  136ACOH    O2 9982   9.669   4.288   3.282 -0.1788 -0.0419  0.1471
  136ACOH    C2 9983   9.734   4.202   3.365 -0.4532 -0.6682  0.1304
  136ACOH    O1 9984   9.682   4.138   3.451  0.4941  0.2643  0.6617
  136ACOH    C1 9985   9.872   4.174   3.331  0.1472  0.6782 -0.1904
  136ACOH    H1 9986   9.939   4.148   3.413  1.1464  0.5781 -1.0278
  136ACOH    H2 9987   9.918   4.258   3.280  2.0876  0.2256  0.7388
  136ACOH    H3 9988   9.870   4.084   3.269  2.4636 -1.5544  2.8180
  137ACOH    H4 9989   2.925   5.594   0.624  0.1431  1.3415 -0.8582
  137ACOH    O2 9990   3.020   5.604   0.611  0.3718  0.3859  0.0118
  137ACOH    C2 9991   3.053   5.717   0.666  0.5382 -0.3457  0.7564
  137ACOH    O1 9992   2.982   5.797   0.713 -0.4881  0.2041 -0.1466
  137ACOH    C1 9993   3.200   5.739   0.645 -0.2325 -0.1630  0.4479
  137ACOH    H1 9994   3.252   5.644   0.632  0.5622  0.2453  0.6099
  137ACOH    H2 9995   3.248   5.791   0.728 -0.2412  0.6504 -0.0483
  137ACOH    H3 9996   3.221   5.792   0.552  1.1609 -1.1319  0.2007
  138ACOH    H4 9997   5.253   5.069   0.637  3.4569 -0.6315 -2.6867
  138ACOH    O2 9998   5.256   5.165   0.623 -0.2242 -0.0518 -0.3660
  138ACOH    C2 9999   5.223   5.203   0.498 -0.1075 -0.0563  0.1074
  138ACOH    O110000   5.211   5.122   0.411 -0.4410 -0.4681 -0.3028
  138ACOH    C110001   5.241   5.352   0.490 -0.5147  0.6061  0.7608
  138ACOH    H110002   5.315   5.381   0.415 -0.4387 -2.2547 -0.3303
  138ACOH    H210003   5.265   5.396   0.587 -0.2484  2.0258  0.0736
  138ACOH    H310004   5.150   5.398   0.452 -0.6474 -0.2666 -0.0208
  139ACOH    H410005   6.935   6.376   3.727 -2.9376  0.9011  1.9421
  139ACOH    O210006   6.938   6.286   3.763  0.1014 -0.0235 -0.3642
  139ACOH    C210007   7.057   6.235   3.732 -0.2593 -0.4039  0.1581
  139ACOH    O110008   7.156   6.284   3.688 -0.1526  0.2204 -0.3340
  139ACOH    C110009   7.058   6.086   3.771  0.0750 -1.0266 -0.1326
  139ACOH    H110010   7.147   6.036   3.736  1.4642  2.0474 -1.1629
  139ACOH    H210011   6.966   6.038   3.737 -1.0922  0.2607  1.1464
  139ACOH    H310012   7.046   6.082   3.879  1.4347  3.3545  0.2739
  140ACOH    H410013   4.650   2.493   0.074  0.0123 -1.9818 -1.7532
  140ACOH    O210014   4.711   2.424   0.104  0.4266 -0.7029  0.4453
  140ACOH    C210015   4.824   2.486   0.125  0.1265 -0.2569  0.6227
  140ACOH    O110016   4.823   2.605   0.145 -0.0960  0.1600 -0.0226
  140ACOH    C110017   4.937   2.402   0.152  0.5725  0.8509 -0.2856
  140ACOH    H110018   4.924   2.305   0.104 -0.2407  0.5146  0.6029
  140ACOH    H210019   4.970   2.391   0.256  0.2467  0.1483 -0.2527
  140ACOH    H310020   5.023   2.446   0.101  0.2160  1.7062 -0.1635
  141ACOH    H410021   7.581   2.827   0.630  0.5064 -0.5240  1.0342
  141ACOH    O210022   7.513   2.758   0.624  0.3137 -0.2876  0.4666
  141ACOH    C210023   7.409   2.778   0.707 -0.4774  0.4574 -0.4181
  141ACOH    O110024   7.411   2.843   0.809 -0.2556 -0.3547  0.4025
  141ACOH    C110025   7.294   2.683   0.686  0.1334 -0.4873 -0.3226
  141ACOH    H110026   7.308   2.623   0.596 -1.3776 -1.4098  0.0259
  141ACOH    H210027   7.201   2.738   0.674 -0.7752 -2.0852 -0.8454
  141ACOH    H310028   7.284   2.626   0.779 -4.1200  0.3957 -0.1456
  142ACOH    H410029   5.118   1.555   4.237  1.7230 -0.5530 -1.6846
  142ACOH    O210030   5.169   1.636   4.221  0.3576  0.4906 -0.8126
  142ACOH    C210031   5.258   1.589   4.128 -0.8201 -0.1198 -0.1764
  142ACOH    O110032   5.263   1.489   4.064  0.2022  0.1655 -0.2081
  142ACOH    C110033   5.358   1.696   4.123 -0.6671 -0.4863  0.0886
  142ACOH    H110034   5.392   1.717   4.225 -0.7009  0.8673 -0.1698
  142ACOH    H210035   5.325   1.791   4.082  0.4171  0.0969  0.5527
  142ACOH    H310036   5.445   1.663   4.067  1.0349  2.8737  0.5908
  143ACOH    H410037   3.365   3.778   4.095  0.2560  0.0698  1.5844
  143ACOH    O210038   3.271   3.802   4.100  0.2385  0.4379 -0.1879
  143ACOH    C210039   3.268   3.915   4.168 -0.1871  0.4004  0.2189
  143ACOH    O110040   3.366   3.970   4.218  0.1863  0.1319  0.3379
  143ACOH    C110041   3.128   3.963   4.187 -0.1507 -0.3956  0.8871
  143ACOH    H110042   3.108   4.033   4.107  1.6447  0.3739  1.0882
  143ACOH    H210043   3.117   4.022   4.278 -0.8113  4.4732 -2.2028
  143ACOH    H310044   3.050   3.887   4.192  0.7579 -1.3848  0.1837
  144ACOH    H410045   3.435   5.892   3.352 -1.7237  0.3400  2.0862
  144ACOH    O210046   3.518   5.883   3.402 -0.3303  0.0913 -0.2081
  144ACOH    C210047   3.533   6.013   3.438  0.3382  0.0650 -0.2480
  144ACOH    O110048   3.508   6.111   3.364  0.1289  0.4879 -0.3602
  144ACOH    C110049   3.645   6.025   3.536 -0.2326  0.6120  0.1956
  144ACOH    H110050   3.630   6.097   3.616 -0.6200  0.7725 -0.0238
  144ACOH    H210051   3.733   6.063   3.483 -0.7482 -0.9569 -1.8497
  144ACOH    H310052   3.671   5.928   3.579  0.7816  0.9466  0.3501
  145ACOH    H410053   6.545   6.863   4.037  2.6140  1.0380  3.2834
  145ACOH    O210054   6.541   6.770   4.066 -0.4736  0.1177  0.1744
  145ACOH    C210055   6.510   6.764   4.196  0.3764 -1.1209  0.3606
  145ACOH    O110056   6.481   6.855   4.269  0.0536  0.2925 -0.3210
  145ACOH    C110057   6.527   6.623   4.245  0.1498  0.6853  0.1475
  145ACOH    H110058   6.632   6.607   4.270 -0.3261  0.7138  2.2560
  145ACOH    H210059   6.482   6.550   4.178  1.0462  0.0163  0.2723
  145ACOH    H310060   6.466   6.610   4.335 -2.7065  0.6881 -1.7191
  146ACOH    H410061   5.132   5.678   1.378  0.6819 -2.2393 -0.0523
  146ACOH    O210062   5.174   5.718   1.300  0.1572 -0.3861  0.5825
  146ACOH    C210063   5.114   5.832   1.285 -0.7102 -0.4310  0.4388
  146ACOH    O110064   5.014   5.869   1.345 -0.2188 -0.0604 -0.1740
  146ACOH    C110065   5.171   5.911   1.172  0.0450  0.1426  0.4780
  146ACOH    H110066   5.098   5.963   1.110  1.7849  2.9829  0.7541
  146ACOH    H210067   5.238   5.842   1.120  0.8802  1.3818 -0.1037
  146ACOH    H310068   5.235   5.987   1.216  0.1403  0.4426 -0.1767
  147ACOH    H410069   6.465   1.992   2.592  0.5616 -0.7108  0.1907
  147ACOH    O210070   6.549   1.963   2.552  0.3233 -0.2700 -0.6502
  147ACOH    C210071   6.532   1.946   2.419 -0.3279 -0.3518  0.7248
  147ACOH    O110072   6.610   1.877   2.356 -0.0282  0.1480  0.4373
  147ACOH    C110073   6.404   1.990   2.362  0.0491  0.1647  0.3303
  147ACOH    H110074   6.391   1.942   2.265 -1.5032 -1.9657  1.5346
  147ACOH    H210075   6.405   2.096   2.338  0.4945  0.1492  0.2798
  147ACOH    H310076   6.313   1.964   2.417 -1.2606  1.0562 -1.3558
  148ACOH    H410077   3.686   4.499   4.131  1.3234  1.7012 -1.8239
  148ACOH    O210078   3.741   4.484   4.210 -0.8260 -0.0123 -0.6067
  148ACOH    C210079   3.873   4.477   4.178 -0.8799  0.2957 -0.2228
  148ACOH    O110080   3.913   4.461   4.064 -0.0889 -0.1462  0.3809
  148ACOH    C110081   3.961   4.464   4.296  0.1800 -0.5672 -0.3312
  148ACOH    H110082   4.065   4.443   4.273  0.0345 -1.0056 -0.6038
  148ACOH    H210083   3.930   4.378   4.355  2.4635  0.3458  2.2983
  148ACOH    H310084   3.953   4.558   4.352 -1.2120 -0.9667  0.1718
  149ACOH    H410085   1.562   5.469   0.313 -2.7742  0.1000  2.4510
  149ACOH    O210086   1.523   5.506   0.231  0.1301 -0.3552  0.7862
  149ACOH    C210087   1.614   5.502   0.134 -0.3042  0.8284 -0.4319
  149ACOH    O110088   1.725   5.452   0.148 -0.3212 -0.4017  0.1321
  149ACOH    C110089   1.579   5.571   0.003  0.4619 -1.1157 -0.6564
  149ACOH    H110090   1.664   5.580  -0.064  2.7702 -1.1116  2.1590
  149ACOH    H210091   1.548   5.674   0.018 -0.7366 -1.5964  0.2339
  149ACOH    H310092   1.499   5.521  -0.052 -0.7558 -1.2434  1.1861
  150ACOH    H410093   6.760   2.469   3.382  1.2463 -1.5627 -1.2533
  150ACOH    O210094   6.715   2.405   3.439  0.8113 -0.3602 -0.2127
  150ACOH    C210095   6.675   2.310   3.348  0.3240 -0.6616  0.6007
  150ACOH    O110096   6.738   2.279   3.250  0.1775  0.5723 -0.1665
  150ACOH    C110097   6.583   2.206   3.400  0.4327  0.5086 -0.6956
  150ACOH    H110098   6.506   2.176   3.328 -1.6535  0.3347  1.5668
  150ACOH    H210099   6.527   2.237   3.488  1.3636  0.6971 -0.1616
  150ACOH    H310100   6.644   2.118   3.422 -0.2282  0.5661  1.4925
  151ACOH    H410101   5.162   1.440   1.329  1.2785  1.4498 -0.1639
  151ACOH    O210102   5.236   1.381   1.306 -0.1859 -0.5060  0.0182
  151ACOH    C210103   5.298   1.447   1.212  0.6148 -0.8409 -0.1202
  151ACOH    O110104   5.397   1.402   1.159 -0.7562  0.3832 -0.4150
  151ACOH    C110105   5.249   1.582   1.172 -0.8993 -0.5638  0.2649
  151ACOH    H110106   5.312   1.631   1.097 -0.0116 -4.5190 -1.7019
  151ACOH    H210107   5.238   1.642   1.262  0.6721 -1.8775  1.3618
  151ACOH    H310108   5.148   1.574   1.131 -0.6559  2.4903 -1.0912
  152ACOH    H410109   8.325   6.136   1.588 -0.8985  1.2604 -1.8916
  152ACOH    O210110   8.362   6.062   1.539 -0.4495  0.4091 -0.2969
  152ACOH    C210111   8.493   6.070   1.561 -0.3355  0.5539 -0.7988
  152ACOH    O110112   8.555   6.173   1.585 -0.9405 -0.3700 -0.5022
  152ACOH    C110113   8.561   5.941   1.523  0.0963 -0.5869 -0.0132
  152ACOH    H110114   8.666   5.968   1.535  0.6549 -2.8134  0.3183
  152ACOH    H210115   8.538   5.912   1.420  1.7001 -1.0463 -0.2507
  152ACOH    H310116   8.532   5.858   1.587  1.6646 -0.0732  1.4179
  153ACOH    H410117   1.208   5.033   3.344  1.8362 -2.9693  1.2585
  153ACOH    O210118   1.202   5.062   3.436  0.1069  0.4737  0.1601
  153ACOH    C210119   1.110   5.154   3.458 -0.7768  0.2799 -0.1180
  153ACOH    O110120   1.016   5.183   3.388 -0.0928  0.3729 -0.1277
  153ACOH    C110121   1.120   5.186   3.602 -0.2927 -0.0723  0.7465
  153ACOH    H110122   1.039   5.127   3.645 -1.5775  2.2543  1.6176
  153ACOH    H210123   1.095   5.291   3.614 -2.8734 -0.5081 -0.2618
  153ACOH    H310124   1.219   5.164   3.641  0.8323  1.1478 -1.3328
  154ACOH    H410125   8.020   4.889   1.635 -0.3700 -0.8440 -1.9123
  154ACOH    O210126   7.979   4.963   1.587 -0.5558  0.3734  0.0782
  154ACOH    C210127   7.988   5.075   1.662  0.5078  0.7360 -0.0156
  154ACOH    O110128   8.050   5.082   1.764  0.5673 -0.2044 -0.1054
  154ACOH    C110129   7.927   5.192   1.590 -0.3876 -0.0100 -0.4749
  154ACOH    H110130   7.997   5.274   1.575 -0.3269 -0.3593 -2.2084
  154ACOH    H210131   7.838   5.224   1.645  1.7913  2.4198  1.8261
  154ACOH    H310132   7.896   5.161   1.491 -0.6938  0.2876 -0.4736
  155ACOH    H410133   5.486   9.000   4.729  2.1934 -0.0967  1.0833
  155ACOH    O210134   5.439   8.970   4.808 -0.4709  0.2772 -0.2702
  155ACOH    C210135   5.316   8.920   4.797 -0.0781 -0.5637 -0.1841
  155ACOH    O110136   5.269   8.871   4.698 -0.5169 -0.3497  0.4819
  155ACOH    C110137   5.251   8.932   4.936  0.3119 -0.2968 -0.0530
  155ACOH    H110138   5.205   8.834   4.948 -0.5864 -0.0958 -1.6456
  155ACOH    H210139   5.175   9.009   4.925 -0.4012 -0.8005  1.2338
  155ACOH    H310140   5.321   8.957   5.015 -1.3212 -3.3914  2.4442
  156ACOH    H410141   4.480   8.860   0.612 -0.5239 -1.1247  1.5696
  156ACOH    O210142   4.508   8.768   0.599  0.2502 -0.6869  0.0777
  156ACOH    C210143   4.596   8.735   0.690 -0.0060 -1.1731 -0.2790
  156ACOH    O110144   4.637   8.814   0.769 -0.0190  0.3037 -0.4958
  156ACOH    C110145   4.618   8.589   0.695  0.1731 -0.5665  0.1847
  156ACOH    H110146   4.704   8.578   0.628  0.0242  2.4281 -0.5579
  156ACOH    H210147   4.538   8.531   0.650  0.6299  0.2078 -1.6788
  156ACOH    H310148   4.630   8.543   0.792 -0.0323 -2.6567 -0.7568
  157ACOH    H410149   3.019   7.564   5.432 -1.5477  2.2637 -2.5680
  157ACOH    O210150   2.992   7.481   5.389 -0.4722  0.3905  0.2073
  157ACOH    C210151   2.994   7.505   5.253 -0.1361 -0.4657 -0.0362
  157ACOH    O110152   3.038   7.606   5.198  0.4439  0.1636 -0.1632
  157ACOH    C110153   2.929   7.390   5.175  0.3312 -0.0133  0.3127
  157ACOH    H110154   2.910   7.308   5.244 -0.3432  1.0911  1.4577
  157ACOH    H210155   2.988   7.363   5.088  0.6787 -0.2559  0.6215
  157ACOH    H310156   2.829   7.420   5.143 -0.4543 -2.7309  0.0691
  158ACOH    H410157   5.022   3.762   3.355 -0.8080 -1.3044 -0.0028
  158ACOH    O210158   5.055   3.760   3.447 -0.2171 -0.5416 -0.1942
  158ACOH    C210159   4.968   3.768   3.545  0.9933  0.4222  0.8856
  158ACOH    O110160   4.848   3.777   3.524 -0.3553  0.2985  0.0638
  158ACOH    C110161   5.025   3.786   3.686  1.2433  0.1140  0.6511
  158ACOH    H110162   5.134   3.782   3.678  1.1906  1.6831 -1.2298
  158ACOH    H210163   4.981   3.708   3.748  0.3605 -0.4125 -0.6265
  158ACOH    H310164   4.986   3.883   3.715 -0.3878 -1.1291  2.7331
  159ACOH    H410165   5.630   1.295   3.402 -3.5213  0.8682 -0.0985
  159ACOH    O210166   5.640   1.390   3.424 -0.1660  0.5577 -0.0050
  159ACOH    C210167   5.568   1.455   3.322  0.1012 -0.0667 -0.0987
  159ACOH    O110168   5.512   1.399   3.225 -0.1216 -0.7756  0.0700
  159ACOH    C110169   5.549   1.601   3.351 -0.5439 -0.5021  0.1342
  159ACOH    H110170   5.639   1.663   3.346  0.1794 -1.5532 -0.1656
  159ACOH    H210171   5.516   1.612   3.454 -0.0685 -0.5687  0.2952
  159ACOH    H310172   5.474   1.641   3.283  2.3997  1.1732 -2.2740
  160ACOH    H410173   7.136   2.726   2.974 -1.0491 -0.5757  0.1091
  160ACOH    O210174   7.098   2.814   2.990  0.2103 -0.0179  0.0941
  160ACOH    C210175   7.209   2.888   3.015  0.6625 -0.1465  0.2238
  160ACOH    O110176   7.328   2.847   3.011  0.1269  0.3069 -0.3576
  160ACOH    C110177   7.168   3.025   3.045  0.2187 -0.1966  0.4115
  160ACOH    H110178   7.257   3.074   3.084  1.8048 -1.3774 -1.6739
  160ACOH    H210179   7.077   3.026   3.105  0.4119  0.4760  0.7076
  160ACOH    H310180   7.138   3.073   2.951 -0.1386 -1.9408 -0.3753
  161ACOH    H410181   2.025   1.763   3.445  0.6210  0.8900 -0.8387
  161ACOH    O210182   2.093   1.821   3.483  0.7710  0.2650 -0.1249
  161ACOH    C210183   2.030   1.913   3.554 -0.7590 -0.4794 -0.2912
  161ACOH    O110184   1.914   1.945   3.549 -0.7821 -0.1490  0.3392
  161ACOH    C110185   2.123   1.991   3.646 -0.1661 -0.3627 -0.6296
  161ACOH    H110186   2.172   2.075   3.596  3.1028 -1.0368  1.2937
  161ACOH    H210187   2.204   1.922   3.668  0.3059  1.0485  2.3623
  161ACOH    H310188   2.068   2.015   3.737  1.1803  0.2664  0.0378
  162ACOH    H410189   2.453   0.950   4.200  0.3494  0.0863 -0.2456
  162ACOH    O210190   2.425   1.042   4.187  0.1429  0.1059  0.3362
  162ACOH    C210191   2.332   1.047   4.289 -0.5642 -0.1436  0.1956
  162ACOH    O110192   2.304   0.967   4.375 -0.4880 -0.0821  0.3320
  162ACOH    C110193   2.256   1.173   4.281 -1.0020 -0.5006  0.5838
  162ACOH    H110194   2.152   1.144   4.271 -0.9825 -0.7494  1.0800
  162ACOH    H210195   2.287   1.235   4.197 -1.0700  1.9635  2.3350
  162ACOH    H310196   2.261   1.227   4.375 -1.5637 -2.1846  1.5999
  163ACOH    H410197   5.840   6.631   3.126 -0.1162 -0.5297 -3.3155
  163ACOH    O210198   5.786   6.552   3.142  0.2734 -0.1440  0.1695
  163ACOH    C210199   5.691   6.552   3.048  0.3756 -0.6209 -0.4179
  163ACOH    O110200   5.690   6.615   2.942  0.0964 -0.1815 -0.3246
  163ACOH    C110201   5.610   6.433   3.070 -0.2446  1.1524  0.3030
  163ACOH    H110202   5.563   6.408   2.975  3.7674  1.1934 -1.7971
  163ACOH    H210203   5.539   6.457   3.150  0.3420 -0.5828  1.3644
  163ACOH    H310204   5.676   6.352   3.100 -1.0685 -0.1460 -1.2904
  164ACOH    H410205   7.550   8.639   0.942  0.9859 -1.5587  0.3485
  164ACOH    O210206   7.596   8.629   0.857 -0.2264 -0.4997 -0.4476
  164ACOH    C210207   7.728   8.586   0.869  0.8538 -0.4180 -0.6357
  164ACOH    O110208   7.794   8.600   0.968 -0.2575 -0.1973  0.1127
  164ACOH    C110209   7.784   8.560   0.737  0.3318 -0.2239 -0.2283
  164ACOH    H110210   7.893   8.554   0.736  0.4651  1.5646  0.9452
  164ACOH    H210211   7.755   8.640   0.669  0.1547 -0.5206 -0.5034
  164ACOH    H310212   7.762   8.459   0.703  0.4449 -0.7138  1.1170
  165ACOH    H410213   6.889   7.553   4.266  0.8899  0.8225 -0.4857
  165ACOH    O210214   6.885   7.564   4.362  0.5144  0.3270 -0.4391
  165ACOH    C210215   6.968   7.663   4.395  0.3306 -0.0591  0.3831
  165ACOH    O110216   7.004   7.753   4.325  0.1725  0.1931 -0.0983
  165ACOH    C110217   7.005   7.669   4.538 -0.1048  1.0254  0.4400
  165ACOH    H110218   6.978   7.769   4.573 -1.9894  1.0278 -0.9407
  165ACOH    H210219   7.114   7.657   4.533 -0.3408 -1.8881  1.3957
  165ACOH    H310220   6.958   7.589   4.595  1.5917  1.2584  2.2176
  166ACOH    H410221   4.907   3.537   2.237 -0.0400 -0.8444 -2.7790
  166ACOH    O210222   4.991   3.579   2.213  0.2450  0.1722 -0.1732
  166ACOH    C210223   5.071   3.477   2.204 -0.0171 -0.0194 -0.1256
  166ACOH    O110224   5.050   3.357   2.210  0.3458  0.4889 -0.5238
  166ACOH    C110225   5.211   3.531   2.169  0.0051  0.0119  0.5985
  166ACOH    H110226   5.290   3.458   2.184  0.9645  0.7612 -0.6746
  166ACOH    H210227   5.231   3.620   2.229  1.4585 -0.6968  1.1824
  166ACOH    H310228   5.212   3.555   2.062 -2.6584  0.0881  0.5597
  167ACOH    H410229   1.327   6.470   4.209  1.4468  1.6409 -0.7080
  167ACOH    O210230   1.408   6.420   4.190  0.6209 -0.1673  0.4406
  167ACOH    C210231   1.470   6.396   4.302  0.0855 -0.3029 -0.0188
  167ACOH    O110232   1.431   6.416   4.413  0.2821  0.0775 -0.4866
  167ACOH    C110233   1.591   6.315   4.275 -0.3171  0.2345  0.7650
  167ACOH    H110234   1.681   6.363   4.314  1.9503 -1.4782 -2.1509
  167ACOH    H210235   1.607   6.292   4.170 -1.5650  1.4986  0.2948
  167ACOH    H310236   1.580   6.217   4.322 -0.5346 -0.6124 -1.0295
  168ACOH    H410237   4.854   6.406   2.386  1.8151  2.0030  0.0540
  168ACOH    O210238   4.904   6.342   2.333 -0.3498  0.3120  0.0090
  168ACOH    C210239   4.821   6.286   2.244 -0.6170  0.5009 -0.1751
  168ACOH    O110240   4.702   6.295   2.230 -0.1703 -0.3702  0.5088
  168ACOH    C110241   4.898   6.182   2.167 -0.0815 -0.1901  0.2053
  168ACOH    H110242   4.965   6.133   2.238  1.0302  0.5298 -0.3360
  168ACOH    H210243   4.959   6.232   2.092 -1.0823 -0.4917 -0.8287
  168ACOH    H310244   4.837   6.106   2.119  0.5981 -0.7646  0.2348
  169ACOH    H410245   4.365   6.939   3.795 -2.5608  0.3270 -0.2139
  169ACOH    O210246   4.365   6.917   3.890 -0.1698  0.4360 -0.1551
  169ACOH    C210247   4.469   6.835   3.908  0.0239  0.3502  0.5188
  169ACOH    O110248   4.553   6.792   3.830  0.6365  0.9216  0.0308
  169ACOH    C110249   4.467   6.797   4.054  0.1217 -0.1940 -0.1547
  169ACOH    H110250   4.537   6.715   4.069 -0.6896 -0.8797 -0.0919
  169ACOH    H210251   4.371   6.763   4.090  0.0858  1.5144  1.4555
  169ACOH    H310252   4.499   6.884   4.113 -0.8541 -0.9331  1.4885
  170ACOH    H410253   0.448   9.410   0.596  0.2991 -0.2779 -1.8457
  170ACOH    O210254   0.366   9.362   0.579 -0.3538  0.1571 -0.0458
  170ACOH    C210255   0.261   9.449   0.567  0.1072  0.0052  0.3639
  170ACOH    O110256   0.261   9.568   0.602  0.2002 -0.2073  0.0418
  170ACOH    C110257   0.134   9.383   0.512 -0.3645  0.2323 -0.0939
  170ACOH    H110258   0.151   9.341   0.413  3.0404  2.0633 -0.3620
  170ACOH    H210259   0.056   9.459   0.516  0.0637  0.5830  2.3606
  170ACOH    H310260   0.107   9.298   0.576  2.1108  1.8585  3.3034
  171ACOH    H410261   6.362   4.362   0.372  2.2283  0.3866  1.6606
  171ACOH    O210262   6.306   4.414   0.432 -0.3071 -0.4155  0.0648
  171ACOH    C210263   6.184   4.392   0.379 -0.5516  0.4655 -0.2215
  171ACOH    O110264   6.154   4.348   0.271 -0.4517  0.6338  0.1540
  171ACOH    C110265   6.079   4.435   0.479  0.7408 -0.1959  0.0223
  171ACOH    H110266   6.122   4.467   0.574 -1.5750  1.2648  0.6040
  171ACOH    H210267   6.008   4.354   0.497 -0.2699  0.9152  1.0760
  171ACOH    H310268   6.016   4.517   0.447  0.6269  0.2785  1.4104
  172ACOH    H410269   4.809   1.291   4.777  2.0028 -2.5910  0.2657
  172ACOH    O210270   4.826   1.305   4.872 -0.4949 -0.3862  0.4349
  172ACOH    C210271   4.761   1.417   4.900 -0.0712  0.6745  0.5383
  172ACOH    O110272   4.688   1.494   4.837  0.4746 -0.1114 -0.6115
  172ACOH    C110273   4.757   1.420   5.050  0.2709  0.0123 -0.6568
  172ACOH    H110274   4.745   1.522   5.087 -0.2983  0.2999 -1.6272
  172ACOH    H210275   4.855   1.395   5.091 -0.6033 -0.2688  1.3311
  172ACOH    H310276   4.677   1.354   5.084  1.0030 -0.6312 -0.1795
  173ACOH    H410277   3.481   0.623   4.082  0.7178 -0.6025  4.0499
  173ACOH    O210278   3.571   0.601   4.055 -0.3603 -0.0617 -0.2850
  173ACOH    C210279   3.572   0.515   3.951  0.1593 -0.4669 -0.1917
  173ACOH    O110280   3.471   0.468   3.899 -0.0271  0.2020  0.6722
  173ACOH    C110281   3.705   0.481   3.907  0.1518 -0.4169 -0.0824
  173ACOH    H110282   3.782   0.532   3.965  1.0424 -0.1852 -1.4542
  173ACOH    H210283   3.717   0.512   3.804 -0.0207 -1.1446 -0.3263
  173ACOH    H310284   3.713   0.372   3.908  1.0957 -0.3616  2.2886
  174ACOH    H410285   4.713   6.541   2.025 -1.4276 -0.0599  1.3239
  174ACOH    O210286   4.772   6.614   2.050 -0.0769 -0.6774  0.0535
  174ACOH    C210287   4.895   6.570   2.016 -0.0665  0.3435  0.0800
  174ACOH    O110288   4.923   6.458   1.966 -0.0738  0.4777 -0.1483
  174ACOH    C110289   5.009   6.654   2.046 -0.3502  0.2738  0.0069
  174ACOH    H110290   5.085   6.600   2.104  0.8493  1.1750 -0.7004
  174ACOH    H210291   4.976   6.740   2.104  1.6055 -0.0847  1.7630
  174ACOH    H310292   5.060   6.697   1.960  0.0148  2.9699  1.5228
  175ACOH    H410293   7.295   2.152   1.484 -0.9549  1.3814  0.8725
  175ACOH    O210294   7.227   2.162   1.415  0.1848  0.2185 -0.4493
  175ACOH    C210295   7.203   2.293   1.399 -0.6682 -0.5308  0.2116
  175ACOH    O110296   7.294   2.375   1.420 -0.2986 -0.5909  0.2136
  175ACOH    C110297   7.100   2.305   1.302 -0.6414  0.3496  0.4093
  175ACOH    H110298   7.084   2.408   1.270 -0.3505  0.3632  0.3036
  175ACOH    H210299   7.011   2.253   1.338 -0.4296 -0.7293 -0.5767
  175ACOH    H310300   7.130   2.252   1.211 -1.2003  0.6566  0.0386
  176ACOH    H410301   0.035   2.950   4.439 -0.6345 -1.6983 -1.1360
  176ACOH    O210302  -0.033   2.935   4.507 -0.2679  0.1189 -0.3307
  176ACOH    C210303  -0.027   2.805   4.544 -0.4224 -0.1284  0.2194
  176ACOH    O110304   0.037   2.708   4.504 -0.1825 -0.2811 -0.2626
  176ACOH    C110305  -0.145   2.788   4.636 -0.4764  0.7018 -0.1592
  176ACOH    H110306  -0.110   2.728   4.720 -1.1169  0.2206 -0.2315
  176ACOH    H210307  -0.214   2.722   4.583  1.1114  0.3452 -1.8183
  176ACOH    H310308  -0.197   2.881   4.661 -0.8858  1.3878 -3.3706
  177ACOH    H410309   8.169   7.908   1.377 -2.1917  0.3175  0.5899
  177ACOH    O210310   8.131   7.870   1.296 -0.0639  0.3960 -0.4806
  177ACOH    C210311   8.023   7.944   1.275 -0.3418 -0.4027  0.0726
  177ACOH    O110312   7.980   8.028   1.352 -0.3209 -0.1371 -0.2445
  177ACOH    C110313   7.939   7.903   1.157 -0.0077 -0.3315 -0.1110
  177ACOH    H110314   7.980   7.808   1.122  3.3992  0.5628  1.2029
  177ACOH    H210315   7.954   7.982   1.084  1.3220  0.0360  0.5508
  177ACOH    H310316   7.833   7.898   1.182  0.1321 -0.4607  0.4678
  178ACOH    H410317   3.249   3.917   3.280  1.1514  1.0540  0.4755
  178ACOH    O210318   3.317   3.930   3.212  0.4850 -0.5378 -0.5024
  178ACOH    C210319   3.426   3.989   3.277  0.4771 -0.3815 -0.1318
  178ACOH    O110320   3.428   4.006   3.397  0.2112 -0.4403  0.1694
  178ACOH    C110321   3.543   3.988   3.197 -0.2087  0.4281 -0.1875
  178ACOH    H110322   3.529   4.012   3.092  2.5395 -3.2456 -1.4856
  178ACOH    H210323   3.585   3.888   3.197  1.0642  0.9530 -0.8948
  178ACOH    H310324   3.627   4.045   3.238 -0.0694 -0.9128  1.4483
  179ACOH    H410325   2.702   1.487   2.890  0.1501 -0.6163  0.5075
  179ACOH    O210326   2.731   1.580   2.893 -0.4380 -0.4000 -0.4367
  179ACOH    C210327   2.634   1.662   2.853  0.3882 -0.3590  0.3753
  179ACOH    O110328   2.540   1.632   2.784 -0.1318  0.1747  0.2139
  179ACOH    C110329   2.659   1.789   2.930 -0.1601 -0.2273  0.2184
  179ACOH    H110330   2.564   1.829   2.967 -0.9092 -2.6542  0.9815
  179ACOH    H210331   2.708   1.857   2.861 -2.4376  0.3304 -0.8889
  179ACOH    H310332   2.720   1.769   3.018 -0.3986  0.5000  0.5599
  180ACOH    H410333   4.609   4.215   2.477  3.2009  0.8184  0.2092
  180ACOH    O210334   4.570   4.296   2.513  0.1539 -0.4122 -0.1947
  180ACOH    C210335   4.511   4.361   2.413  0.1147 -0.6269  0.4835
  180ACOH    O110336   4.494   4.326   2.298  0.5708 -0.1434 -0.7938
  180ACOH    C110337   4.455   4.493   2.451 -0.4671 -0.0731 -0.3159
  180ACOH    H110338   4.380   4.476   2.528 -1.1314  2.4988 -0.3339
  180ACOH    H210339   4.407   4.549   2.371  0.3402  2.3434  0.8321
  180ACOH    H310340   4.531   4.556   2.499  1.7803 -3.3526  0.5577
  181ACOH    H410341   7.504   3.405   1.643 -0.0650 -2.6281  1.0756
  181ACOH    O210342   7.411   3.393   1.621 -0.2320 -0.2796  0.4068
  181ACOH    C210343   7.389   3.262   1.643  0.7141  0.0216  0.3420
  181ACOH    O110344   7.483   3.189   1.664 -0.3576  0.5394 -0.1811
  181ACOH    C110345   7.245   3.223   1.651  0.0149  0.3363  0.2687
  181ACOH    H110346   7.218   3.218   1.757  0.6741  2.0234  0.5281
  181ACOH    H210347   7.232   3.133   1.590 -1.6274  0.0728  0.9795
  181ACOH    H310348   7.192   3.306   1.605 -1.6307 -0.0386  1.4651
  182ACOH    H410349   0.494   2.808   3.216  0.7325  0.5030 -1.0060
  182ACOH    O210350   0.521   2.718   3.191 -0.1421 -0.0147 -0.1259
  182ACOH    C210351   0.647   2.731   3.142 -0.3914 -0.3976  0.4142
  182ACOH    O110352   0.700   2.831   3.100 -0.2874 -0.3232  0.4564
  182ACOH    C110353   0.700   2.596   3.133  0.2440  0.4307  0.2925
  182ACOH    H110354   0.623   2.525   3.102 -2.3821  1.7662  3.5285
  182ACOH    H210355   0.739   2.560   3.228 -0.9054  0.3461  0.7407
  182ACOH    H310356   0.780   2.593   3.059  1.2464  2.7941  1.2515
  183ACOH    H410357   9.236   9.055   3.487 -0.7788 -1.4790  0.8855
  183ACOH    O210358   9.184   9.066   3.405  0.3800 -0.4183  0.2685
  183ACOH    C210359   9.178   9.193   3.375 -0.3129  0.6523  0.1392
  183ACOH    O110360   9.242   9.282   3.429  0.1375 -0.5371  0.8230
  183ACOH    C110361   9.081   9.226   3.270  0.7027  0.4588 -0.0365
  183ACOH    H110362   9.069   9.333   3.253  0.0631  0.2566 -0.8997
  183ACOH    H210363   8.982   9.181   3.275  1.5295 -1.2166  2.0200
  183ACOH    H310364   9.111   9.196   3.170 -1.1155 -0.6940 -0.2564
  184ACOH    H410365   5.666   0.398   0.481 -0.8759 -1.2604 -0.7933
  184ACOH    O210366   5.696   0.418   0.390  0.6295  0.2305  0.0071
  184ACOH    C210367   5.810   0.492   0.391  0.0029  0.4547  0.2213
  184ACOH    O110368   5.849   0.548   0.492  0.6955 -0.5014  0.0286
  184ACOH    C110369   5.854   0.531   0.254 -0.3208 -0.7957 -0.5098
  184ACOH    H110370   5.962   0.525   0.240 -0.1795 -0.5262  0.3907
  184ACOH    H210371   5.821   0.634   0.236  1.1799 -0.3208 -0.5999
  184ACOH    H310372   5.804   0.471   0.178  0.7985  0.1170 -2.0058
  185ACOH    H410373   4.921   5.768   0.954  0.8476 -1.1186  0.0289
  185ACOH    O210374   4.987   5.823   0.909  0.4374 -0.3773  0.3250
  185ACOH    C210375   5.096   5.742   0.887 -0.1314  0.0786 -0.4217
  185ACOH    O110376   5.113   5.638   0.941  0.2159  0.1163 -0.3165
  185ACOH    C110377   5.191   5.798   0.795  0.0434  0.3843 -0.4348
  185ACOH    H110378   5.191   5.904   0.822  1.3541  0.1478  0.5757
  185ACOH    H210379   5.162   5.788   0.691  2.4259 -0.4047 -1.0675
  185ACOH    H310380   5.289   5.754   0.815  1.1449  2.7108 -0.4958
  186ACOH    H410381   4.576   7.534   4.246  1.1079 -0.9061  0.7759
  186ACOH    O210382   4.562   7.450   4.198 -0.1341 -0.1501 -0.2091
  186ACOH    C210383   4.452   7.397   4.263 -0.2132 -0.1567 -0.0986
  186ACOH    O110384   4.370   7.458   4.332  0.4129  0.3051  0.2417
  186ACOH    C110385   4.427   7.251   4.232 -0.5265  0.1847  0.0755
  186ACOH    H110386   4.509   7.186   4.262 -0.6534 -0.3595 -0.7458
  186ACOH    H210387   4.414   7.239   4.125 -5.8794 -1.0036  0.7090
  186ACOH    H310388   4.332   7.208   4.264 -0.0450 -1.9171 -1.2793
  187ACOH    H410389   6.702   7.413   1.331  1.0053 -0.2232 -0.9449
  187ACOH    O210390   6.650   7.331   1.322 -0.2258  0.3961  0.3683
  187ACOH    C210391   6.555   7.345   1.412  0.2323  0.0015 -0.1443
  187ACOH    O110392   6.505   7.452   1.444 -0.2078  0.0618 -0.4524
  187ACOH    C110393   6.489   7.213   1.432  0.1960 -0.6016 -0.1250
  187ACOH    H110394   6.397   7.219   1.375  0.6121  1.4538 -0.6050
  187ACOH    H210395   6.466   7.194   1.537 -1.6954 -1.3716 -0.6624
  187ACOH    H310396   6.548   7.130   1.393 -2.2905 -2.2030 -0.6355
  188ACOH    H410397   7.041   4.243   0.725  1.1594 -0.8655  0.6455
  188ACOH    O210398   7.113   4.309   0.730  0.4472 -0.0260  0.0568
  188ACOH    C210399   7.180   4.263   0.839  0.2360  0.2407  0.4014
  188ACOH    O110400   7.187   4.144   0.868 -0.3686  0.9453 -0.6203
  188ACOH    C110401   7.272   4.371   0.873  0.2454  0.2941  0.0759
  188ACOH    H110402   7.356   4.333   0.931 -1.5400 -1.2806  1.6621
  188ACOH    H210403   7.218   4.442   0.935  0.2826  0.6771 -0.3268
  188ACOH    H310404   7.313   4.422   0.785 -1.2161  0.9890 -0.2129
  189ACOH    H410405   2.311   9.537   3.049 -2.6237  0.1055 -0.9472
  189ACOH    O210406   2.319   9.442   3.031  0.3095  0.2068 -0.5062
  189ACOH    C210407   2.435   9.435   2.967  0.1637  0.7010  0.6896
  189ACOH    O110408   2.528   9.511   2.967  0.4250 -0.4146 -0.7463
  189ACOH    C110409   2.449   9.289   2.929 -0.3827  0.3905  0.0594
  189ACOH    H110410   2.424   9.278   2.823 -0.6248  1.0527  0.0482
  189ACOH    H210411   2.382   9.228   2.990  1.9694 -0.4393  1.8861
  189ACOH    H310412   2.549   9.251   2.948  0.1222  0.2940 -2.6494
  190ACOH    H410413   8.593   3.343   0.695  0.4614 -0.2960  0.1251
  190ACOH    O210414   8.684   3.342   0.729  0.3483  0.2412  0.4544
  190ACOH    C210415   8.698   3.458   0.792  0.0704  0.3562  0.1072
  190ACOH    O110416   8.609   3.539   0.816 -0.6147 -0.3413  0.0647
  190ACOH    C110417   8.835   3.488   0.840 -0.1780 -0.1363  1.0254
  190ACOH    H110418   8.919   3.446   0.785 -0.3564 -2.3738  2.4060
  190ACOH    H210419   8.863   3.450   0.939  2.1422  1.4323  1.0116
  190ACOH    H310420   8.854   3.596   0.839  1.5342 -0.4208 -0.3784
  191ACOH    H410421   5.920   4.614   5.577  1.5558 -1.7058 -2.3133
  191ACOH    O210422   5.991   4.676   5.558  0.9429 -0.1799  0.0515
  191ACOH    C210423   6.111   4.612   5.559 -0.0806  0.1647 -0.5843
  191ACOH    O110424   6.111   4.496   5.531 -0.6295  0.7019  0.7373
  191ACOH    C110425   6.227   4.696   5.556 -0.4627 -0.5898  0.0828
  191ACOH    H110426   6.307   4.663   5.622 -1.0927  2.1704  2.3627
  191ACOH    H210427   6.200   4.799   5.581  1.6173 -0.1835  0.7866
  191ACOH    H310428   6.269   4.692   5.456 -0.7444  0.3804 -0.0781
  192ACOH    H410429   5.633   4.238   5.573  0.2115 -0.0008  0.9662
  192ACOH    O210430   5.712   4.288   5.546 -0.2901  0.3266  0.0877
  192ACOH    C210431   5.718   4.283   5.410  0.4266 -0.4030  0.4767
  192ACOH    O110432   5.625   4.294   5.332 -0.5111 -0.0988  0.9446
  192ACOH    C110433   5.858   4.294   5.364  0.8530 -0.0929  0.0700
  192ACOH    H110434   5.891   4.397   5.373  0.5191  0.1835 -1.7013
  192ACOH    H210435   5.873   4.262   5.261  0.9291 -0.9819  0.3520
  192ACOH    H310436   5.931   4.238   5.422  1.2954  0.0955 -0.3026
  193ACOH    H410437   5.843   7.104   1.575 -2.8774 -0.4495  0.6774
  193ACOH    O210438   5.852   7.007   1.579  0.3290 -0.2188  0.2960
  193ACOH    C210439   5.943   6.978   1.677 -0.0836  0.7204  0.1367
  193ACOH    O110440   6.005   7.059   1.742  0.0635 -0.0030  0.2093
  193ACOH    C110441   5.963   6.834   1.709  0.7487  0.4403  0.6410
  193ACOH    H110442   5.931   6.817   1.812  1.1789 -1.3570  0.5066
  193ACOH    H210443   6.064   6.799   1.686  0.1825  0.2216 -1.6482
  193ACOH    H310444   5.901   6.769   1.647 -0.1441 -0.0413  2.0047
  194ACOH    H410445   6.285   3.768   0.200 -0.8029  0.2255  0.9022
  194ACOH    O210446   6.198   3.755   0.158 -0.2877 -0.0825 -0.1113
  194ACOH    C210447   6.108   3.828   0.233  0.5784 -0.6124 -0.1280
  194ACOH    O110448   6.125   3.908   0.317 -0.4019 -0.0540  0.1121
  194ACOH    C110449   5.968   3.800   0.183  0.2949 -0.2196  0.3270
  194ACOH    H110450   5.968   3.797   0.074 -1.7660  4.3466  0.1363
  194ACOH    H210451   5.900   3.873   0.226  0.2188  0.5222 -1.0426
  194ACOH    H310452   5.937   3.701   0.216  1.0262 -0.1006  1.4096
  195ACOH    H410453  10.000   8.153   4.971 -0.4191 -1.2822  0.7461
  195ACOH    O210454  10.074   8.135   4.911 -0.4000 -0.5632  0.5498
  195ACOH    C210455  10.160   8.052   4.974  0.4437  0.2469  1.0858
  195ACOH    O110456  10.151   8.037   5.093  0.1716 -0.0713 -0.4531
  195ACOH    C110457  10.269   7.996   4.888  0.0665 -0.0883 -0.3701
  195ACOH    H110458  10.302   7.902   4.931  1.3611  0.2821 -0.5141
  195ACOH    H210459  10.356   8.062   4.898 -0.2672  0.2394  0.4450
  195ACOH    H310460  10.238   7.993   4.784  2.2251  2.6690 -1.1783
  196ACOH    H410461   3.694   6.701   3.788  0.7768  0.1269 -0.7704
  196ACOH    O210462   3.739   6.697   3.874 -0.4802 -0.1634 -0.1252
  196ACOH    C210463   3.660   6.621   3.960  0.2000 -0.1425  0.0927
  196ACOH    O110464   3.553   6.568   3.935 -0.3453 -0.1514 -0.5578
  196ACOH    C110465   3.725   6.611   4.090 -0.3291 -0.1116  0.3962
  196ACOH    H110466   3.737   6.713   4.126 -0.6422 -0.0757  0.3980
  196ACOH    H210467   3.825   6.573   4.067 -0.8584 -0.1512 -1.9542
  196ACOH    H310468   3.666   6.548   4.156  1.2733 -2.0389  0.0589
  197ACOH    H410469   5.906   1.033   1.616  0.2410 -1.2585  0.6055
  197ACOH    O210470   5.987   1.027   1.562 -0.2044  0.1916 -0.2330
  197ACOH    C210471   6.089   0.992   1.646 -0.0830  0.7677 -0.4454
  197ACOH    O110472   6.086   0.996   1.769  0.0976  0.2409 -0.0399
  197ACOH    C110473   6.212   0.975   1.571  0.7784 -0.5530  0.1012
  197ACOH    H110474   6.277   0.911   1.631  1.7867  0.4609  0.1004
  197ACOH    H210475   6.267   1.068   1.559  2.4579 -1.7357 -1.7874
  197ACOH    H310476   6.194   0.926   1.475  1.7156 -1.6346  0.4591
  198ACOH    H410477   3.238   1.936   3.826 -0.3384  1.7534 -0.5508
  198ACOH    O210478   3.213   1.947   3.919  0.5361 -0.6646 -0.0163
  198ACOH    C210479   3.125   1.850   3.946  0.5184  0.0451 -0.1830
  198ACOH    O110480   3.074   1.774   3.867  0.4248  0.2074  0.4870
  198ACOH    C110481   3.073   1.856   4.087 -0.1906  0.0646 -0.7821
  198ACOH    H110482   3.065   1.957   4.126  0.9405  0.4164 -1.4380
  198ACOH    H210483   3.138   1.799   4.153  0.5930  0.3801 -1.2878
  198ACOH    H310484   2.979   1.800   4.091 -0.3062  0.3503  0.4395
  199ACOH    H410485   5.180   9.179   1.133 -0.3300  0.2388 -0.2747
  199ACOH    O210486   5.210   9.122   1.060 -0.0607  0.1696 -0.1122
  199ACOH    C210487   5.325   9.177   1.017  0.4634  0.0153  0.4542
  199ACOH    O110488   5.404   9.246   1.073  0.7001  1.1722 -0.1858
  199ACOH    C110489   5.344   9.129   0.879  0.5880 -0.0827 -0.4850
  199ACOH    H110490   5.411   9.201   0.831 -0.1819  1.0067  0.0653
  199ACOH    H210491   5.251   9.110   0.826  1.4428 -4.4017 -0.6733
  199ACOH    H310492   5.388   9.029   0.884 -2.2090 -1.3054  0.1338
  200ACOH    H410493   4.714   9.925   0.337 -0.4322  2.2358 -0.5575
  200ACOH    O210494   4.680   9.893   0.251 -0.0062  0.1379  0.0309
  200ACOH    C210495   4.617   9.777   0.277  0.8513  0.3812  0.1646
  200ACOH    O110496   4.627   9.709   0.378  0.4557 -0.4595 -0.6583
  200ACOH    C110497   4.538   9.749   0.154  0.0383  0.2627 -0.0505
  200ACOH    H110498   4.483   9.657   0.176  0.6419 -0.3278 -0.9603
  200ACOH    H210499   4.602   9.727   0.068  0.9930  0.6246  0.5688
  200ACOH    H310500   4.475   9.835   0.131 -0.0289  0.7489  1.8902
  201ACOH    H410501   7.111   8.795   0.975  0.0480 -0.2757 -0.3701
  201ACOH    O210502   7.053   8.806   0.897 -0.2105 -0.3326 -0.1900
  201ACOH    C210503   7.141   8.859   0.810 -0.0281 -0.5207  0.2016
  201ACOH    O110504   7.257   8.828   0.786 -0.3715 -0.5918 -0.9244
  201ACOH    C110505   7.063   8.924   0.700 -0.0153 -0.3084 -0.1989
  201ACOH    H110506   6.987   8.857   0.660 -1.6543 -0.0829  2.3868
  201ACOH    H210507   7.129   8.959   0.621 -0.7578  1.8335  0.0739
  201ACOH    H310508   7.015   9.016   0.734 -1.3237 -1.6235  1.6330
  202ACOH    H410509   3.449   0.852   3.846  1.2256 -2.3923 -1.0769
  202ACOH    O210510   3.536   0.883   3.875  0.2455  0.5289 -1.0451
  202ACOH    C210511   3.632   0.800   3.831  0.3720 -0.5816 -0.1051
  202ACOH    O110512   3.620   0.736   3.732 -0.1374 -0.0710 -0.2167
  202ACOH    C110513   3.771   0.845   3.872 -0.2506 -0.6238  0.3537
  202ACOH    H110514   3.834   0.757   3.880 -1.6517 -1.8260 -1.1925
  202ACOH    H210515   3.761   0.903   3.963 -1.0371  0.1445 -0.2089
  202ACOH    H310516   3.812   0.908   3.794 -1.8218  1.2811  1.0414
  203ACOH    H410517   6.428   8.946   4.517  1.1223  1.6513  0.9607
  203ACOH    O210518   6.496   8.876   4.513 -0.0522  0.5223  0.3949
  203ACOH    C210519   6.463   8.781   4.426 -0.7947  0.3834 -0.9087
  203ACOH    O110520   6.384   8.802   4.332 -0.3828 -0.3321  0.1101
  203ACOH    C110521   6.551   8.665   4.454 -0.1822  0.5182  1.1067
  203ACOH    H110522   6.500   8.579   4.410  0.5188  1.0213 -0.7578
  203ACOH    H210523   6.563   8.654   4.561 -1.8644  0.1564  1.2657
  203ACOH    H310524   6.652   8.670   4.412 -0.8150 -3.2090 -1.1002
  204ACOH    H410525   5.012   5.622   1.777  0.3781 -0.5039  2.9837
  204ACOH    O210526   5.093   5.569   1.765  0.2329 -0.1752  0.2905
  204ACOH    C210527   5.127   5.549   1.632 -0.2342 -0.5986 -0.2822
  204ACOH    O110528   5.060   5.575   1.533 -0.2864 -0.5578 -0.3162
  204ACOH    C110529   5.249   5.462   1.626  0.0072 -0.5827 -0.2590
  204ACOH    H110530   5.244   5.381   1.699 -2.4260 -0.7913 -0.6346
  204ACOH    H210531   5.333   5.530   1.640 -0.0561 -0.5277 -0.1453
  204ACOH    H310532   5.270   5.429   1.524  0.7121  1.8124 -0.9191
  205ACOH    H410533   0.602   1.648   2.717 -1.9438 -0.2228  3.4888
  205ACOH    O210534   0.671   1.687   2.773  0.2346  0.4474  0.4001
  205ACOH    C210535   0.644   1.647   2.900 -0.0857  0.0204  1.0293
  205ACOH    O110536   0.550   1.577   2.933  0.6034  0.1052 -0.0744
  205ACOH    C110537   0.730   1.723   2.993 -0.6474 -0.6936  0.4191
  205ACOH    H110538   0.692   1.711   3.095 -1.6440 -0.0001  0.1351
  205ACOH    H210539   0.731   1.828   2.963  0.0464 -1.1862 -1.3100
  205ACOH    H310540   0.831   1.684   2.983 -0.0869  0.4413  1.4566
  206ACOH    H410541   1.279   9.052   5.087  2.5309 -3.3185 -1.5913
  206ACOH    O210542   1.231   8.984   5.137 -0.4128  0.0152  0.3722
  206ACOH    C210543   1.100   9.027   5.146  0.0545 -0.0662  0.2390
  206ACOH    O110544   1.075   9.144   5.171  0.2721  0.4427 -0.2566
  206ACOH    C110545   1.007   8.910   5.179 -0.2990 -0.0194  0.6917
  206ACOH    H110546   1.018   8.822   5.116 -1.7932  0.5598 -0.4044
  206ACOH    H210547   0.904   8.945   5.172 -0.0140  0.1777 -4.3295
  206ACOH    H310548   1.036   8.880   5.279  2.0877  1.6814  0.5548
  207ACOH    H410549   3.119   4.709   3.883 -2.6418  0.1929 -1.1934
  207ACOH    O210550   3.073   4.716   3.968  0.0764  0.2234  0.3376
  207ACOH    C210551   3.121   4.618   4.049 -0.4997 -0.1153  0.2339
  207ACOH    O110552   3.228   4.560   4.038  0.9246 -0.3573  0.4152
  207ACOH    C110553   3.019   4.582   4.150 -0.5810 -0.4244  0.2022
  207ACOH    H110554   3.052   4.494   4.205 -0.1059  0.1468  0.8537
  207ACOH    H210555   2.924   4.562   4.100 -1.0170  3.5793 -0.7786
  207ACOH    H310556   3.003   4.665   4.219 -0.3716 -2.5393  2.8777
  208ACOH    H410557   8.162   8.293   3.135  0.6719  0.5760  0.7847
  208ACOH    O210558   8.118   8.380   3.134 -0.0790  0.1980 -0.0131
  208ACOH    C210559   7.990   8.351   3.093  0.5002  0.0100  0.3687
  208ACOH    O110560   7.934   8.252   3.084  0.1136  0.0210 -0.3458
  208ACOH    C110561   7.922   8.474   3.037  0.1849 -0.3789  0.2440
  208ACOH    H110562   7.992   8.519   2.966 -1.0740  2.5189  0.7662
  208ACOH    H210563   7.895   8.543   3.116 -1.7800  1.1063 -1.6600
  208ACOH    H310564   7.832   8.450   2.981 -0.0329 -1.3361  1.0039
  209ACOH    H410565   4.976   7.963   1.422  0.5156  0.1251 -1.5182
  209ACOH    O210566   4.910   7.903   1.383 -0.1316 -0.1020 -0.1074
  209ACOH    C210567   4.929   7.899   1.248  0.6278  0.0105  0.1028
  209ACOH    O110568   5.027   7.939   1.183  0.0038  0.1044  0.2890
  209ACOH    C110569   4.817   7.848   1.173  0.0209 -0.2130 -0.1218
  209ACOH    H110570   4.867   7.778   1.105  1.6240 -0.7607  1.5915
  209ACOH    H210571   4.760   7.915   1.109 -1.1679 -2.0426 -1.0240
  209ACOH    H310572   4.753   7.792   1.241  0.5302 -2.1835 -1.2276
  210ACOH    H410573   8.665   6.995   3.728  2.2062  0.1677 -0.5142
  210ACOH    O210574   8.664   6.956   3.817  0.9277  0.6928 -0.2896
  210ACOH    C210575   8.777   6.973   3.884  0.0410  0.2091  0.2640
  210ACOH    O110576   8.874   7.029   3.835  0.0217  0.6396 -0.1469
  210ACOH    C110577   8.769   6.920   4.019  0.9120 -0.3242 -0.3570
  210ACOH    H110578   8.863   6.911   4.072  1.5522  3.9904 -0.5899
  210ACOH    H210579   8.724   6.822   4.004  0.2960  0.3076 -2.9204
  210ACOH    H310580   8.701   6.987   4.073  1.4711  0.5158 -0.6824
  211ACOH    H410581   0.319   3.064   4.541  2.1670  0.0720  1.6169
  211ACOH    O210582   0.250   3.065   4.609  0.4396 -0.4104 -0.0791
  211ACOH    C210583   0.279   2.973   4.703  0.1333 -0.2017 -0.4374
  211ACOH    O110584   0.361   2.885   4.694 -0.5554  0.0650 -0.3411
  211ACOH    C110585   0.176   2.968   4.812  0.0671  0.1268  0.4009
  211ACOH    H110586   0.175   2.881   4.878 -3.0550 -0.4172 -0.2938
  211ACOH    H210587   0.082   2.982   4.759  0.4759  1.4217 -0.0006
  211ACOH    H310588   0.197   3.052   4.878 -0.7788 -0.0030  0.8369
  212ACOH    H410589   2.712   0.544   5.398 -1.8901 -0.3709 -0.7582
  212ACOH    O210590   2.723   0.612   5.329  0.0156 -0.1696 -0.2802
  212ACOH    C210591   2.686   0.729   5.383  0.4822  0.1452  0.1014
  212ACOH    O110592   2.613   0.732   5.480 -0.5038  0.6352  0.3900
  212ACOH    C110593   2.729   0.847   5.308  0.3569 -0.2605  0.2196
  212ACOH    H110594   2.792   0.904   5.376 -1.4433 -1.1099  2.6776
  212ACOH    H210595   2.639   0.907   5.293  1.0011  0.5047 -0.6520
  212ACOH    H310596   2.784   0.827   5.215 -0.7231 -1.5800 -0.1632
  213ACOH    H410597   5.610   2.012   2.410  1.3427 -0.3645 -0.9566
  213ACOH    O210598   5.623   2.056   2.496 -0.6818  0.2873 -0.9502
  213ACOH    C210599   5.750   2.049   2.537  0.1868  0.6384  0.4737
  213ACOH    O110600   5.847   2.020   2.470 -1.2378 -0.9484 -0.0843
  213ACOH    C110601   5.764   2.130   2.659 -0.5769 -0.6108  0.2365
  213ACOH    H110602   5.744   2.065   2.744  2.9071 -1.1831  0.6758
  213ACOH    H210603   5.681   2.199   2.675 -2.3781 -2.9956  1.4061
  213ACOH    H310604   5.862   2.178   2.664 -0.1334 -1.3111 -1.4584
  214ACOH    H410605   4.310   1.857   5.332  0.4460  0.1696  2.4363
  214ACOH    O210606   4.404   1.832   5.325  0.2390 -0.1144  0.0515
  214ACOH    C210607   4.408   1.703   5.307 -0.0854 -0.4511  0.3457
  214ACOH    O110608   4.327   1.613   5.336 -0.1002 -0.3014  0.4784
  214ACOH    C110609   4.545   1.660   5.264 -0.0090 -0.3227 -0.2396
  214ACOH    H110610   4.603   1.743   5.225  0.8650 -1.0516 -0.4968
  214ACOH    H210611   4.531   1.591   5.181  0.2630  2.1577 -2.4444
  214ACOH    H310612   4.603   1.621   5.347  4.1401  1.1800 -2.3094
  215ACOH    H410613   8.581   8.270   4.880  2.8254 -1.0728 -0.9286
  215ACOH    O210614   8.598   8.251   4.973 -0.1578  0.0353 -0.1085
  215ACOH    C210615   8.712   8.194   4.980  0.5386  0.8246 -0.6157
  215ACOH    O110616   8.781   8.176   4.880 -0.1056  0.2806  0.1770
  215ACOH    C110617   8.763   8.179   5.121  0.2535 -0.2151  0.8009
  215ACOH    H110618   8.687   8.122   5.173  0.0056 -2.1183 -1.5602
  215ACOH    H210619   8.776   8.272   5.178  0.6229 -0.8691  1.8021
  215ACOH    H310620   8.858   8.125   5.124  0.7906  0.6997  0.5248
  216ACOH    H410621   3.478   5.614   0.479 -1.8678  0.8174 -0.9064
  216ACOH    O210622   3.527   5.697   0.462 -0.1402 -0.1146 -0.6362
  216ACOH    C210623   3.443   5.766   0.389 -0.5099  0.3405 -0.6141
  216ACOH    O110624   3.348   5.726   0.322  0.5783  0.5526  0.1438
  216ACOH    C110625   3.494   5.901   0.366 -0.6862 -0.2265  0.0251
  216ACOH    H110626   3.417   5.977   0.353 -1.8952 -1.3652  0.4525
  216ACOH    H210627   3.562   5.901   0.281  0.6927 -2.1914  1.0813
  216ACOH    H310628   3.547   5.922   0.459 -0.0667  2.3193 -0.8594
  217ACOH    H410629   4.825   2.712   2.236 -1.0210  0.1417  0.3359
  217ACOH    O210630   4.902   2.741   2.287 -0.6981  0.6585 -0.4406
  217ACOH    C210631   5.004   2.670   2.234 -0.3583 -0.2851 -0.2863
  217ACOH    O110632   5.003   2.570   2.167  0.5510 -0.0509 -0.5610
  217ACOH    C110633   5.128   2.712   2.297 -0.2974  0.2307 -0.4525
  217ACOH    H110634   5.212   2.653   2.259  0.0081  0.3514  0.0420
  217ACOH    H210635   5.118   2.690   2.403 -0.0684  0.7379 -0.3258
  217ACOH    H310636   5.142   2.819   2.281 -1.6053  0.2620 -1.4408
  218ACOH    H410637   4.722   8.542   0.405  2.8380  0.5792  2.9877
  218ACOH    O210638   4.722   8.639   0.399  0.2806  0.4442 -0.2556
  218ACOH    C210639   4.623   8.649   0.304  0.5419  0.6730  0.3395
  218ACOH    O110640   4.518   8.582   0.296 -0.4895  0.0027 -0.0397
  218ACOH    C110641   4.649   8.775   0.228  0.2134  0.2161 -0.4864
  218ACOH    H110642   4.744   8.774   0.176  1.0480 -0.1296  1.0158
  218ACOH    H210643   4.661   8.847   0.310  3.3167 -0.1637 -0.5547
  218ACOH    H310644   4.570   8.801   0.158  1.3900  2.0647 -1.1765
  219ACOH    H410645   7.280   7.492   1.625  2.5587 -0.5934  0.3507
  219ACOH    O210646   7.297   7.532   1.539 -0.4690  0.6611  0.2796
  219ACOH    C210647   7.430   7.530   1.514  0.1592 -0.3689  0.4440
  219ACOH    O110648   7.516   7.480   1.579 -0.3624  0.3925  0.1512
  219ACOH    C110649   7.463   7.614   1.393  0.0190  0.3244 -0.0759
  219ACOH    H110650   7.454   7.720   1.418 -2.5725  0.0991  0.0130
  219ACOH    H210651   7.384   7.590   1.321 -0.8375 -0.0239  0.9765
  219ACOH    H310652   7.558   7.581   1.350 -0.1936  1.4650 -1.4786
  220ACOH    H410653   4.674   3.697   3.775 -1.6800 -0.2732  1.0021
  220ACOH    O210654   4.716   3.747   3.847 -0.2733 -0.0490  0.0443
  220ACOH    C210655   4.625   3.768   3.942  0.0024 -0.4122  0.8539
  220ACOH    O110656   4.508   3.777   3.910 -0.4065  0.0692 -0.2534
  220ACOH    C110657   4.678   3.844   4.060 -0.1116 -0.3089  0.2390
  220ACOH    H110658   4.777   3.804   4.082  0.6863  1.1447 -0.6318
  220ACOH    H210659   4.610   3.850   4.145 -1.7397  1.5542 -1.1721
  220ACOH    H310660   4.688   3.944   4.019 -1.3745 -0.4353 -0.3946
  221ACOH    H410661   7.134   1.545   0.975 -2.7852  1.4717  0.4637
  221ACOH    O210662   7.146   1.578   0.884  0.4851  0.4512  0.4526
  221ACOH    C210663   7.266   1.536   0.852 -0.6901 -0.7109 -0.0299
  221ACOH    O110664   7.317   1.435   0.886  0.2350  0.1471  0.6605
  221ACOH    C110665   7.325   1.613   0.738  0.0146 -0.0254  0.7786
  221ACOH    H110666   7.240   1.663   0.692 -0.7540 -1.7891  0.2301
  221ACOH    H210667   7.374   1.555   0.660 -0.8504  1.7143 -1.0855
  221ACOH    H310668   7.390   1.697   0.762  0.0491 -0.3165  1.7380
  222ACOH    H410669   6.567   1.901   3.238 -0.4955  2.1729  0.0103
  222ACOH    O210670   6.471   1.916   3.229 -0.9735 -0.4737  0.1411
  222ACOH    C210671   6.446   1.920   3.094  0.0818  0.0142  0.6788
  222ACOH    O110672   6.522   1.932   3.002  0.7620 -0.0760  0.3650
  222ACOH    C110673   6.302   1.934   3.073 -0.1982  0.0386 -0.4609
  222ACOH    H110674   6.243   1.968   3.158 -0.2793  0.5015 -0.6981
  222ACOH    H210675   6.266   1.834   3.048 -0.0157  0.0199 -0.6586
  222ACOH    H310676   6.284   2.000   2.988  0.5862 -0.9319 -1.3949
  223ACOH    H410677   7.861   6.310   2.148 -1.2767  0.4734 -0.6454
  223ACOH    O210678   7.858   6.213   2.151 -0.0891  0.4326 -0.5849
  223ACOH    C210679   7.725   6.192   2.187  0.3648  0.1516 -0.3438
  223ACOH    O110680   7.633   6.271   2.201  0.2790  0.6051  0.0992
  223ACOH    C110681   7.692   6.048   2.197  0.3360 -0.5441  0.7774
  223ACOH    H110682   7.600   6.037   2.138  1.8216  0.5918 -1.8552
  223ACOH    H210683   7.677   6.022   2.302 -1.8286 -1.4766  0.2789
  223ACOH    H310684   7.774   5.992   2.153 -0.5687 -1.2013 -0.1087
  224ACOH    H410685   5.036   2.931   2.023  1.7946 -1.2404 -1.4458
  224ACOH    O210686   5.111   2.944   2.084  0.1395  0.7614  0.2506
  224ACOH    C210687   5.179   3.048   2.043  0.2578 -0.5680  0.5531
  224ACOH    O110688   5.148   3.120   1.952  0.3517  0.1153 -0.1168
  224ACOH    C110689   5.298   3.066   2.132  0.0537  0.9226 -0.5706
  224ACOH    H110690   5.325   2.969   2.175  0.0767  1.1749 -0.0063
  224ACOH    H210691   5.283   3.148   2.202 -0.4591 -0.1902  0.6447
  224ACOH    H310692   5.366   3.093   2.052 -1.4487  0.3242 -2.0663
  225ACOH    H410693   8.036   5.137   1.947 -0.1779  2.2533 -0.2921
  225ACOH    O210694   8.038   5.140   2.045 -0.1003 -0.5419 -0.1436
  225ACOH    C210695   7.936   5.059   2.081  0.0478 -0.1843 -0.0073
  225ACOH    O110696   7.909   4.957   2.022 -0.7981  0.4313 -0.1888
  225ACOH    C110697   7.900   5.057   2.229  0.0058 -0.5143  0.1973
  225ACOH    H110698   7.959   4.979   2.277  1.2721 -0.4243 -1.1993
  225ACOH    H210699   7.794   5.031   2.237 -0.1838  0.0892 -0.3816
  225ACOH    H310700   7.910   5.155   2.275  0.2154  0.0070 -0.9473
  226ACOH    H410701   4.681   5.243   1.124  0.3785 -1.3259 -2.0201
  226ACOH    O210702   4.768   5.283   1.103  0.6007 -0.3386  0.5315
  226ACOH    C210703   4.777   5.398   1.162 -0.7054  0.4073  0.8054
  226ACOH    O110704   4.700   5.437   1.249 -0.0315  0.1996 -0.1689
  226ACOH    C110705   4.906   5.465   1.112 -0.2324 -0.3111  0.4322
  226ACOH    H110706   4.903   5.572   1.129 -0.1855 -0.1230 -0.7699
  226ACOH    H210707   4.914   5.444   1.006  2.9049  0.4547  0.4824
  226ACOH    H310708   4.987   5.421   1.170  0.3052  1.1943  0.8478
  227ACOH    H410709   8.229   0.868   3.494 -0.5972  0.5188 -0.1461
  227ACOH    O210710   8.200   0.874   3.401 -0.3849 -0.8793 -0.3117
  227ACOH    C210711   8.252   0.794   3.314  0.2689 -0.0332 -0.1850
  227ACOH    O110712   8.320   0.694   3.334 -0.5287  1.0839  0.2242
  227ACOH    C110713   8.218   0.844   3.177 -0.7112  0.2795  0.2051
  227ACOH    H110714   8.265   0.778   3.103  2.4052  1.9920  0.5524
  227ACOH    H210715   8.248   0.948   3.166 -0.7375  0.5098  2.0959
  227ACOH    H310716   8.111   0.839   3.160 -0.5718 -2.6919 -0.0423
  228ACOH    H410717   5.290   4.670   0.689  1.2112 -3.0073  0.5747
  228ACOH    O210718   5.343   4.701   0.765  0.2442 -0.0482  0.1051
  228ACOH    C210719   5.340   4.836   0.770  0.2501  0.0128 -0.7248
  228ACOH    O110720   5.298   4.908   0.683  0.4572  0.0824  0.0638
  228ACOH    C110721   5.371   4.876   0.913  0.2285 -0.0220  0.3310
  228ACOH    H110722   5.418   4.975   0.915 -1.1560  0.6998 -1.4970
  228ACOH    H210723   5.435   4.805   0.965  0.8531 -0.3236 -0.8202
  228ACOH    H310724   5.283   4.877   0.977  1.9036  0.3943  2.6726
  229ACOH    H410725   7.986   4.294   1.218  0.0866  0.0181  1.8332
  229ACOH    O210726   7.951   4.381   1.194  0.6068 -0.1552  0.3820
  229ACOH    C210727   7.942   4.463   1.300 -0.1173  0.0012 -0.1184
  229ACOH    O110728   7.981   4.438   1.412  0.3770 -0.0314  0.5952
  229ACOH    C110729   7.885   4.593   1.274 -0.5373 -0.4447  0.6318
  229ACOH    H110730   7.863   4.609   1.168 -0.8081  0.3823  0.8042
  229ACOH    H210731   7.948   4.675   1.310 -1.1226 -0.4704  1.7325
  229ACOH    H310732   7.795   4.608   1.334 -1.3931 -0.1990 -0.6815
  230ACOH    H410733   6.451   9.265   1.095 -1.0025  2.1796 -1.4318
  230ACOH    O210734   6.363   9.223   1.090 -0.0558 -0.0698 -0.0186
  230ACOH    C210735   6.284   9.300   1.008  0.4043  0.0074  0.2692
  230ACOH    O110736   6.298   9.417   0.980  0.2186 -0.1477 -0.1267
  230ACOH    C110737   6.152   9.243   0.971  0.4499  0.3232 -0.5584
  230ACOH    H110738   6.134   9.272   0.867  0.7597  2.9105  0.0784
  230ACOH    H210739   6.088   9.304   1.034  0.8913  0.0194  0.1879
  230ACOH    H310740   6.138   9.139   0.998 -1.6727  0.7919  0.2135
  231ACOH    H410741   7.783   1.549   4.059 -0.5086 -0.7636  0.1445
  231ACOH    O210742   7.765   1.609   4.133 -0.3992 -0.2175 -0.2678
  231ACOH    C210743   7.634   1.583   4.156  0.0275 -0.4190 -0.7077
  231ACOH    O110744   7.552   1.541   4.078  0.6249 -0.3962 -0.0327
  231ACOH    C110745   7.590   1.644   4.281  0.2994  0.7664  0.3403
  231ACOH    H110746   7.528   1.731   4.257  0.3592  0.2292 -1.8648
  231ACOH    H210747   7.682   1.673   4.331  1.1569  0.2168 -0.8997
  231ACOH    H310748   7.543   1.570   4.345  0.6214  0.2341 -0.0288
  232ACOH    H410749   7.182   6.842   3.844  0.0667  0.9275  0.7563
  232ACOH    O210750   7.109   6.854   3.906 -0.2323  1.0588  0.3790
  232ACOH    C210751   6.992   6.826   3.853 -0.1633  0.4277  0.4437
  232ACOH    O110752   6.987   6.767   3.744  0.2862  0.7228  0.1079
  232ACOH    C110753   6.898   6.798   3.967 -0.0399  0.4430  0.8183
  232ACOH    H110754   6.793   6.822   3.948 -0.2696 -0.8219  0.4013
  232ACOH    H210755   6.931   6.852   4.056  3.8773  0.4351 -0.5470
  232ACOH    H310756   6.902   6.691   3.988  3.5246  0.4366  0.4465
  233ACOH    H410757   8.581   2.663   1.032  1.1000  0.0507 -0.8621
  233ACOH    O210758   8.597   2.695   1.123 -0.4596 -0.5866 -0.3527
  233ACOH    C210759   8.556   2.822   1.121  0.1320 -0.5253 -0.0368
  233ACOH    O110760   8.552   2.894   1.024  0.8426  1.0700  0.4111
  233ACOH    C110761   8.528   2.886   1.249  0.1846 -0.4054  0.0497
  233ACOH    H110762   8.489   2.987   1.236  1.6389  0.3018  1.0681
  233ACOH    H210763   8.620   2.894   1.308 -0.1396 -1.0451  0.6426
  233ACOH    H310764   8.456   2.824   1.303 -0.8153 -0.2707 -1.1139
  234ACOH    H410765   3.606   4.795   5.586 -1.8976 -0.2503  1.2655
  234ACOH    O210766   3.571   4.872   5.538 -0.2717 -0.5723 -0.4806
  234ACOH    C210767   3.616   4.855   5.411  0.0497 -0.4346  0.2999
  234ACOH    O110768   3.669   4.757   5.364 -0.6949 -0.1472  0.1045
  234ACOH    C110769   3.584   4.969   5.325 -0.6083  0.1404 -0.1876
  234ACOH    H110770   3.542   4.933   5.232 -3.1920  0.1705  0.9422
  234ACOH    H210771   3.676   5.024   5.304  0.7098 -1.5947  0.8422
  234ACOH    H310772   3.513   5.032   5.379  1.4455 -0.5636  3.5499
  235ACOH    H410773   7.033   3.912   0.248 -0.0324 -0.5642  0.7979
  235ACOH    O210774   7.083   3.833   0.224  0.5610  0.0233  0.0684
  235ACOH    C210775   6.989   3.757   0.165  0.4613 -0.4247  0.3927
  235ACOH    O110776   6.878   3.787   0.120  0.4298 -0.1748  0.4123
  235ACOH    C110777   7.054   3.628   0.141 -0.1778  0.7725  0.1126
  235ACOH    H110778   7.083   3.579   0.234  0.4811 -0.0615 -0.5314
  235ACOH    H210779   7.142   3.642   0.078  0.4350 -0.8728  0.5892
  235ACOH    H310780   6.980   3.562   0.096 -1.2910  1.5471  0.7611
  236ACOH    H410781   5.073   3.358   1.583  1.0858  0.8278  0.9725
  236ACOH    O210782   5.068   3.415   1.505  0.1337 -0.4056  0.1132
  236ACOH    C210783   5.121   3.333   1.407  0.3444 -0.0543 -1.4207
  236ACOH    O110784   5.131   3.213   1.411 -0.1977  0.6198 -0.7437
  236ACOH    C110785   5.187   3.419   1.317  0.2051  0.2404 -0.0451
  236ACOH    H110786   5.278   3.371   1.282  0.7727 -0.0622  1.7985
  236ACOH    H210787   5.215   3.514   1.364  2.3368 -0.0721 -0.6449
  236ACOH    H310788   5.116   3.436   1.236  0.0862 -0.9251 -0.2010
  237ACOH    H410789   7.778   9.694   5.028 -0.4279 -0.5147 -0.0212
  237ACOH    O210790   7.796   9.608   4.986  0.2139 -0.4363  0.0910
  237ACOH    C210791   7.921   9.633   4.940  0.6045 -0.1452 -0.0704
  237ACOH    O110792   7.974   9.737   4.927 -0.1539 -0.2854  0.3269
  237ACOH    C110793   7.966   9.511   4.865  0.3504 -0.3163  0.4813
  237ACOH    H110794   7.895   9.431   4.889 -1.5193  2.1412  3.5113
  237ACOH    H210795   8.063   9.477   4.900  0.2037  0.6759  1.9242
  237ACOH    H310796   7.973   9.528   4.758 -1.0082  0.7449  0.5448
  238ACOH    H410797   5.706   7.005   2.739  1.2357 -0.7387 -0.1747
  238ACOH    O210798   5.770   7.077   2.732  0.1955  0.2030 -0.1112
  238ACOH    C210799   5.725   7.159   2.642 -0.4772  0.2186  0.3584
  238ACOH    O110800   5.615   7.148   2.593 -0.0726  0.1358 -0.6911
  238ACOH    C110801   5.823   7.259   2.605  0.2435  0.0327  0.5060
  238ACOH    H110802   5.855   7.324   2.686  0.5697  0.3632  0.1087
  238ACOH    H210803   5.775   7.326   2.534  1.4585  2.0858  1.5606
  238ACOH    H310804   5.911   7.213   2.561  1.0230 -0.6466  2.6854
  239ACOH    H410805   3.342   4.164   4.304  0.8608 -0.8859  2.3797
  239ACOH    O210806   3.326   4.258   4.319  0.2389 -0.4835 -0.4006
  239ACOH    C210807   3.445   4.317   4.329  0.1754  0.9183  0.3669
  239ACOH    O110808   3.548   4.281   4.273 -0.6806 -0.2901  0.4387
  239ACOH    C110809   3.438   4.446   4.395 -0.4251  0.2520 -0.3642
  239ACOH    H110810   3.351   4.510   4.377 -0.8948 -0.2810  0.0078
  239ACOH    H210811   3.521   4.511   4.366 -0.2249  2.0140  3.8445
  239ACOH    H310812   3.450   4.440   4.503 -0.1151 -0.3571 -0.4304
  240ACOH    H410813   9.873   9.967   4.574 -1.3555  2.3966  0.8169
  240ACOH    O210814   9.915   9.970   4.662  0.4081 -0.6066  0.1523
  240ACOH    C210815  10.014  10.062   4.659 -0.7881 -0.4495  0.5230
  240ACOH    O110816  10.041  10.127   4.563  0.7599 -0.6296 -0.6144
  240ACOH    C110817  10.092  10.078   4.789  0.2458 -0.2026 -0.1703
  240ACOH    H110818  10.067  10.008   4.869  3.5306 -0.4123  0.7369
  240ACOH    H210819  10.086  10.178   4.832 -3.4549 -0.9231  1.2192
  240ACOH    H310820  10.197  10.062   4.769 -0.0390 -2.7609  0.1721
  241ACOH    H410821   7.320   3.620   1.164  1.4325  0.3048 -2.6965
  241ACOH    O210822   7.351   3.712   1.176 -0.1634  0.5190  0.0907
  241ACOH    C210823   7.235   3.789   1.162 -0.1598  0.2580  0.3291
  241ACOH    O110824   7.126   3.765   1.114  0.7139 -0.0306  0.5751
  241ACOH    C110825   7.271   3.926   1.204  0.3925 -0.4543  0.0965
  241ACOH    H110826   7.360   3.958   1.150  0.8439  0.0283  1.1144
  241ACOH    H210827   7.287   3.943   1.311 -0.3053  1.6872 -0.1110
  241ACOH    H310828   7.192   3.996   1.179  0.2622  0.3070  2.4980
  242ACOH    H410829   0.850   8.062   0.981 -0.6438 -0.2486 -0.6339
  242ACOH    O210830   0.930   8.016   0.950 -0.1304  0.1545  0.0808
  242ACOH    C210831   0.888   7.925   0.860  0.3765 -0.2890  0.1650
  242ACOH    O110832   0.776   7.898   0.830  0.5753  0.2725  0.4965
  242ACOH    C110833   1.005   7.856   0.791 -0.1423 -0.1479 -0.4355
  242ACOH    H110834   1.038   7.916   0.707  0.8347  1.0666  0.8001
  242ACOH    H210835   0.979   7.754   0.761 -1.3712 -0.8548  2.7807
  242ACOH    H310836   1.088   7.844   0.861 -1.1528 -3.3290  0.3338
  243ACOH    H410837   4.788   7.439   1.606 -1.1383 -1.5238  0.4528
  243ACOH    O210838   4.763   7.460   1.515  0.4106 -0.6268  0.2203
  243ACOH    C210839   4.881   7.493   1.454 -0.2817 -0.3287 -0.3130
  243ACOH    O110840   4.990   7.526   1.505 -0.0818 -0.5380 -0.7092
  243ACOH    C110841   4.866   7.492   1.303  0.0496  0.6729  0.2884
  243ACOH    H110842   4.790   7.418   1.277  1.3186 -0.7901  0.6203
  243ACOH    H210843   4.966   7.472   1.264  0.9934  2.8318  1.4986
  243ACOH    H310844   4.832   7.587   1.263 -0.6298  0.0339 -0.6475
  244ACOH    H410845   4.472   4.662   0.009  1.8085 -1.7533  2.8200
  244ACOH    O210846   4.435   4.728   0.070 -0.2712  0.2929 -0.5356
  244ACOH    C210847   4.330   4.796   0.012 -0.0003  0.3233  0.2573
  244ACOH    O110848   4.276   4.762  -0.092 -0.6099 -0.0225 -0.4010
  244ACOH    C110849   4.282   4.909   0.091 -0.4130  0.5694 -0.1131
  244ACOH    H110850   4.177   4.892   0.113 -0.3263  0.5976  0.3266
  244ACOH    H210851   4.304   4.997   0.030  2.6169 -0.5451 -0.7625
  244ACOH    H310852   4.336   4.919   0.185 -1.6674  2.3397  0.4223
  245ACOH    H410853   2.681   5.113   0.154 -1.8059  0.0198 -0.5018
  245ACOH    O210854   2.663   5.193   0.101 -0.2190  0.2839 -0.6741
  245ACOH    C210855   2.719   5.299   0.165 -0.0841  0.8113  0.4152
  245ACOH    O110856   2.759   5.301   0.280  0.0425 -0.6085 -0.0702
  245ACOH    C110857   2.698   5.421   0.084 -0.7471  0.9600 -0.0228
  245ACOH    H110858   2.605   5.405   0.031 -0.7516  1.7542 -0.2459
  245ACOH    H210859   2.782   5.419   0.014  0.3844 -3.1065  1.2785
  245ACOH    H310860   2.708   5.508   0.149  0.7797  0.9062 -0.1532
  246ACOH    H410861   7.864   7.295   2.158 -0.4150  1.4800  0.8839
  246ACOH    O210862   7.795   7.227   2.160  0.7412  0.2434 -0.2782
  246ACOH    C210863   7.806   7.171   2.285 -1.0908 -0.4806  0.0358
  246ACOH    O110864   7.903   7.165   2.358 -0.8690  0.2122 -0.4690
  246ACOH    C110865   7.691   7.086   2.313  0.6333  0.3467  0.9989
  246ACOH    H110866   7.604   7.142   2.349 -0.7314 -0.4893 -0.8683
  246ACOH    H210867   7.698   7.000   2.378 -1.2343 -0.3791  0.2773
  246ACOH    H310868   7.665   7.044   2.216  1.2631  1.1777  0.4601
  247ACOH    H410869   3.890   2.507   4.033 -0.0611 -0.3745  1.0555
  247ACOH    O210870   3.807   2.463   4.008  0.2554 -0.2096 -0.3098
  247ACOH    C210871   3.765   2.411   4.129 -0.5888  0.4829 -0.2946
  247ACOH    O110872   3.820   2.413   4.239  0.1768  0.6125  0.8219
  247ACOH    C110873   3.642   2.332   4.111  0.0150 -0.0915 -0.2716
  247ACOH    H110874   3.670   2.227   4.120  0.0870  0.0934  1.7181
  247ACOH    H210875   3.598   2.353   4.013 -1.7111  3.5886  1.1928
  247ACOH    H310876   3.562   2.356   4.180  1.6408  1.5689  1.1149
  248ACOH    H410877   7.987   1.375   4.414  0.6025  0.1668  2.6474
  248ACOH    O210878   7.894   1.376   4.384  1.2804 -0.0571  0.4250
  248ACOH    C210879   7.851   1.252   4.369 -0.3610 -0.5645 -0.1919
  248ACOH    O110880   7.911   1.152   4.396 -0.4848  0.2141  0.5085
  248ACOH    C110881   7.713   1.251   4.315 -0.2433  0.3779 -0.5016
  248ACOH    H110882   7.654   1.161   4.332 -1.3116  1.3490  1.1291
  248ACOH    H210883   7.716   1.268   4.208  0.9877 -1.5290 -0.7886
  248ACOH    H310884   7.661   1.335   4.361 -1.3311 -0.4406 -0.1915
  249ACOH    H410885   5.100   9.658   0.714 -0.8820  1.9468 -2.5264
  249ACOH    O210886   5.195   9.675   0.705 -0.1453  0.0095  0.5356
  249ACOH    C210887   5.247   9.586   0.790  0.4412 -0.7963 -0.1641
  249ACOH    O110888   5.194   9.495   0.849 -0.1080  0.6367  0.0162
  249ACOH    C110889   5.389   9.606   0.794  0.0232  0.6967 -0.4715
  249ACOH    H110890   5.434   9.641   0.700  2.0658 -2.3904 -0.7215
  249ACOH    H210891   5.443   9.515   0.818 -1.0593  0.1530 -0.0885
  249ACOH    H310892   5.413   9.673   0.877 -0.4908 -0.2585  0.4531
  250ACOH    H410893   8.193   3.857   2.736 -0.9033 -4.0926  0.4645
  250ACOH    O210894   8.120   3.890   2.790  0.0994  0.1149 -0.5729
  250ACOH    C210895   8.120   3.807   2.899  0.3015  0.0925 -0.2221
  250ACOH    O110896   8.170   3.696   2.903 -0.0690 -0.2652  0.1977
  250ACOH    C110897   8.021   3.865   3.003 -0.0871 -0.1715 -1.0049
  250ACOH    H110898   8.083   3.881   3.092 -0.2601 -1.1667 -0.7000
  250ACOH    H210899   7.943   3.793   3.026  0.4979 -1.3707 -2.6598
  250ACOH    H310900   7.976   3.957   2.966  0.5149 -0.1495 -1.6851
  251ACOH    H410901   6.235   8.312   4.094  1.2589 -0.4801 -1.7639
  251ACOH    O210902   6.148   8.336   4.058  0.5351  0.0093  0.2525
  251ACOH    C210903   6.112   8.457   4.108  0.3405 -0.1050  0.3808
  251ACOH    O110904   6.176   8.543   4.161  0.0884  0.1420 -0.0855
  251ACOH    C110905   5.968   8.458   4.103  0.4635  0.4014  0.5575
  251ACOH    H110906   5.927   8.362   4.135  1.3804 -0.8882 -2.0104
  251ACOH    H210907   5.943   8.464   3.997  1.5476  1.6709  0.3727
  251ACOH    H310908   5.928   8.547   4.151 -1.6066  0.4206 -1.1195
  252ACOH    H410909   4.782   4.649   2.129  0.5661 -0.7015  0.9478
  252ACOH    O210910   4.840   4.724   2.106 -0.0363 -0.5841 -0.1864
  252ACOH    C210911   4.960   4.677   2.077 -0.1124 -0.0887 -0.1398
  252ACOH    O110912   5.010   4.576   2.115 -0.2521 -0.0815  0.1680
  252ACOH    C110913   5.039   4.781   2.020 -0.2945  0.4338 -0.3902
  252ACOH    H110914   5.032   4.801   1.913 -3.2756  1.3266 -0.0467
  252ACOH    H210915   5.145   4.763   2.040 -1.0157 -2.1059  1.3807
  252ACOH    H310916   5.020   4.874   2.074  1.4278  0.4148  0.2904
  253ACOH    H410917   6.573   3.368   0.545  1.2137  0.0393 -0.3923
  253ACOH    O210918   6.543   3.420   0.469 -0.2348 -0.3266 -0.0991
  253ACOH    C210919   6.588   3.367   0.348 -0.1713  0.6589 -0.2278
  253ACOH    O110920   6.680   3.293   0.336  0.0847 -0.6022 -0.5225
  253ACOH    C110921   6.563   3.462   0.239 -0.1100 -0.0243  0.2413
  253ACOH    H110922   6.647   3.531   0.236  1.8608 -2.4181 -3.2578
  253ACOH    H210923   6.468   3.516   0.242  1.5382  2.8874  1.5912
  253ACOH    H310924   6.575   3.418   0.139 -0.8020  1.4218 -0.4869
  254ACOH    H410925   1.674   3.520   3.424 -1.7762  2.5392  0.1608
  254ACOH    O210926   1.737   3.545   3.494 -0.2347 -0.1363 -0.1723
  254ACOH    C210927   1.806   3.655   3.451  0.8420  0.3127 -0.1610
  254ACOH    O110928   1.756   3.747   3.388  0.0375 -0.3703  0.4261
  254ACOH    C110929   1.917   3.681   3.546 -0.0857  0.2537  0.2738
  254ACOH    H110930   1.875   3.739   3.629 -0.9527 -0.2566  0.2044
  254ACOH    H210931   1.989   3.743   3.494 -0.8529 -0.1692 -1.3238
  254ACOH    H310932   1.972   3.593   3.581 -1.3976 -1.0083 -0.7607
  255ACOH    H410933   4.768   2.057   1.303 -2.2274 -1.2396  2.1956
  255ACOH    O210934   4.825   1.987   1.339  0.5401 -0.5733 -0.6872
  255ACOH    C210935   4.873   2.024   1.465 -0.3743 -0.4619  0.0515
  255ACOH    O110936   4.830   2.112   1.539 -0.3880  0.0304  0.0548
  255ACOH    C110937   4.973   1.931   1.515 -0.4421 -0.0272 -0.5110
  255ACOH    H110938   5.053   1.982   1.568 -1.4326  0.5448  0.4685
  255ACOH    H210939   5.021   1.869   1.439  1.3568 -1.4927  1.7755
  255ACOH    H310940   4.926   1.858   1.580  0.6762 -1.2026 -1.0010
  256ACOH    H410941   6.898   6.260   3.318  0.9922  0.3376 -0.8753
  256ACOH    O210942   6.956   6.184   3.308  0.4422 -0.2269  0.1812
  256ACOH    C210943   7.081   6.217   3.350 -0.0884  0.6185 -0.4850
  256ACOH    O110944   7.131   6.325   3.350 -0.4759 -0.2860 -0.0324
  256ACOH    C110945   7.162   6.094   3.384 -0.4798 -0.1310 -0.5652
  256ACOH    H110946   7.180   6.098   3.491  0.4330 -3.6845 -0.5287
  256ACOH    H210947   7.249   6.087   3.318  0.1105  1.0569  0.0689
  256ACOH    H310948   7.092   6.013   3.367 -0.2756  0.1975 -3.2138
  257ACOH    H410949   5.784   1.760   3.643  0.1857 -0.8567 -2.2640
  257ACOH    O210950   5.845   1.830   3.616 -0.1986  0.3590 -0.1155
  257ACOH    C210951   5.928   1.782   3.522  0.5261  0.7113  0.4384
  257ACOH    O110952   5.924   1.669   3.470  0.0034  0.0675  0.1129
  257ACOH    C110953   6.012   1.890   3.465 -0.5648  0.0979  0.5355
  257ACOH    H110954   6.112   1.851   3.444  0.1570  1.3523  1.5741
  257ACOH    H210955   6.034   1.973   3.531  0.3114  1.9744 -2.0143
  257ACOH    H310956   5.959   1.929   3.378 -1.0977  0.0213  0.8253
  258ACOH    H410957   2.000   5.851   3.642  2.4926  1.8662 -1.8307
  258ACOH    O210958   2.069   5.816   3.701  0.1348  0.2978  0.1146
  258ACOH    C210959   2.163   5.761   3.621 -0.1251 -0.5302  0.0996
  258ACOH    O110960   2.142   5.740   3.502  0.1671 -0.4291 -0.1086
  258ACOH    C110961   2.284   5.710   3.683  0.4201 -0.6185 -0.3504
  258ACOH    H110962   2.355   5.697   3.602  0.6228 -0.3607 -0.2135
  258ACOH    H210963   2.263   5.608   3.714  2.5933 -1.5331 -1.7561
  258ACOH    H310964   2.314   5.783   3.758  0.9821  0.2734 -1.4229
  259ACOH    H410965   5.827   1.598   2.130 -0.1657  0.0057 -2.6897
  259ACOH    O210966   5.921   1.623   2.139 -0.3485 -0.3162  0.4634
  259ACOH    C210967   5.968   1.684   2.029  0.0073 -0.3304 -0.0049
  259ACOH    O110968   5.917   1.666   1.922 -0.8790  0.3465 -0.5374
  259ACOH    C110969   6.110   1.732   2.042  0.1940 -0.3427 -0.1430
  259ACOH    H110970   6.106   1.820   2.107 -1.4989 -1.2062  0.9564
  259ACOH    H210971   6.153   1.759   1.946  0.0372 -0.6909 -0.3101
  259ACOH    H310972   6.171   1.654   2.088  0.7048  0.3922  0.4353
  260ACOH    H410973   1.598   2.589   4.123  2.2980 -2.8475 -0.0781
  260ACOH    O210974   1.562   2.521   4.183 -0.9630 -0.4563  0.8917
  260ACOH    C210975   1.620   2.403   4.151 -0.5331  0.4739 -0.2077
  260ACOH    O110976   1.724   2.387   4.091  0.2025  0.7588 -0.1599
  260ACOH    C110977   1.559   2.302   4.243 -0.5764  0.0205 -0.1664
  260ACOH    H110978   1.641   2.258   4.299 -0.6408  0.5631  0.3697
  260ACOH    H210979   1.502   2.224   4.192 -0.3374 -0.8565  0.9033
  260ACOH    H310980   1.490   2.337   4.320 -0.6818  0.6438 -0.5384
  261ACOH    H410981   5.231   3.254   0.609  0.1078 -1.0490 -0.0827
  261ACOH    O210982   5.313   3.255   0.558  0.4533  0.1513  0.4894
  261ACOH    C210983   5.312   3.144   0.482  0.8815  0.5935  0.3123
  261ACOH    O110984   5.226   3.057   0.482  0.0267 -0.5958  0.2240
  261ACOH    C110985   5.444   3.128   0.419  0.0889 -0.5218 -0.2848
  261ACOH    H110986   5.456   3.204   0.341 -2.3747 -0.1423 -0.3102
  261ACOH    H210987   5.445   3.034   0.363 -0.2694 -0.8298  0.2175
  261ACOH    H310988   5.520   3.139   0.497  1.3585 -0.0506 -1.5570
  262ACOH    H410989   4.873   4.930   0.503 -2.2574  0.3741  1.2306
  262ACOH    O210990   4.913   5.007   0.547 -0.4018 -0.2260  0.6674
  262ACOH    C210991   4.838   5.027   0.651  0.3828 -0.5160 -0.9297
  262ACOH    O110992   4.783   4.946   0.725 -0.2600 -0.0744 -0.3633
  262ACOH    C110993   4.867   5.161   0.698 -0.3440 -1.0307  0.0750
  262ACOH    H110994   4.772   5.197   0.737 -0.7291 -0.5569 -1.3089
  262ACOH    H210995   4.909   5.226   0.622  0.2097  0.0138  1.2456
  262ACOH    H310996   4.931   5.152   0.786  0.8372 -0.2929 -0.6856
  263ACOH    H410997   5.032   8.509   0.170  0.9526 -2.3578  1.8098
  263ACOH    O210998   5.123   8.534   0.146 -0.0393 -0.1496  0.1129
  263ACOH    C210999   5.154   8.470   0.035  0.6120 -0.6444  0.6847
  263ACOH    O111000   5.079   8.408  -0.038 -1.0407  0.4119 -0.1605
  263ACOH    C111001   5.291   8.497  -0.021  0.0099  0.3079 -0.3764
  263ACOH    H111002   5.338   8.403  -0.047  0.3657  0.6318 -0.9229
  263ACOH    H211003   5.349   8.547   0.057 -0.7366 -1.9009  1.6406
  263ACOH    H311004   5.275   8.565  -0.105  0.5659  2.0111  0.8659
  264ACOH    H411005   7.581   6.007   3.191 -0.9965 -1.3758 -1.8865
  264ACOH    O211006   7.523   5.956   3.250 -0.3879 -0.3325 -0.3376
  264ACOH    C211007   7.534   6.007   3.376 -0.5816 -0.2365  0.0821
  264ACOH    O111008   7.618   6.095   3.408  0.0427  0.4838  0.0534
  264ACOH    C111009   7.453   5.933   3.475  0.4476  0.5388  0.1216
  264ACOH    H111010   7.364   5.890   3.428  0.3509 -0.0317  0.8150
  264ACOH    H211011   7.419   6.001   3.553  0.1117 -0.6546  1.0430
  264ACOH    H311012   7.503   5.846   3.517 -0.2190 -0.8412 -1.8390
  265ACOH    H411013   4.760   3.500   2.734 -1.0000  0.2693 -0.2447
  265ACOH    O211014   4.794   3.499   2.643 -0.2615  0.2455  0.0299
  265ACOH    C211015   4.930   3.481   2.647  0.2171  0.3727 -0.2952
  265ACOH    O111016   5.002   3.508   2.739  0.0654 -0.0307 -0.5556
  265ACOH    C111017   4.980   3.433   2.512  0.5897 -0.1739  0.1305
  265ACOH    H111018   5.046   3.502   2.460  1.8183 -0.6191  1.0490
  265ACOH    H211019   4.901   3.398   2.446  1.1611 -1.4114  0.0927
  265ACOH    H311020   5.044   3.349   2.537 -0.1657 -0.6007  0.6579
  266ACOH    H411021   4.745   4.226   1.308 -1.8896 -1.4420 -1.8796
  266ACOH    O211022   4.805   4.150   1.301  0.4723  0.2863 -0.8486
  266ACOH    C211023   4.762   4.075   1.201  0.8574  0.6047 -0.1079
  266ACOH    O111024   4.694   4.117   1.109 -0.3849 -0.2096 -1.0271
  266ACOH    C111025   4.822   3.939   1.202  0.3955 -0.4379  0.9171
  266ACOH    H111026   4.815   3.892   1.104 -0.0241  1.1854  0.1558
  266ACOH    H211027   4.769   3.873   1.272 -2.5490 -0.4034 -1.2160
  266ACOH    H311028   4.929   3.941   1.222  0.6538 -0.6412 -0.4139
  267ACOH    H411029   3.917   6.069   2.913  0.0922  0.4562 -1.0179
  267ACOH    O211030   4.010   6.074   2.883  0.4528 -0.2736 -0.0521
  267ACOH    C211031   4.009   6.058   2.750 -0.3395 -0.6736  0.0769
  267ACOH    O111032   3.907   6.047   2.680  0.1097  0.1564  0.4105
  267ACOH    C111033   4.140   6.071   2.682  0.4343  0.5309 -0.2783
  267ACOH    H111034   4.204   6.131   2.747  0.6603  0.2582 -0.2537
  267ACOH    H211035   4.137   6.117   2.583  0.2777 -0.0924 -0.5599
  267ACOH    H311036   4.175   5.968   2.681  0.3606  0.4409  2.9644
  268ACOH    H411037   7.343   2.791   2.301  1.9085  0.4491  3.9438
  268ACOH    O211038   7.274   2.857   2.318 -0.0375 -0.3214 -0.2863
  268ACOH    C211039   7.345   2.972   2.331 -0.3239  0.0214  0.3596
  268ACOH    O111040   7.466   2.982   2.336 -0.1639 -0.0899  0.3817
  268ACOH    C111041   7.263   3.092   2.354 -0.3507  0.1452 -0.2047
  268ACOH    H111042   7.276   3.158   2.269 -1.0061  0.7615  0.1624
  268ACOH    H211043   7.300   3.145   2.442  0.6304 -0.7445 -0.0691
  268ACOH    H311044   7.158   3.064   2.363 -0.7283  1.8633  1.2056
  269ACOH    H411045   4.752   7.111   3.854 -1.0641  0.3588  1.1541
  269ACOH    O211046   4.826   7.079   3.908 -0.0060 -0.1936 -0.5537
  269ACOH    C211047   4.921   7.177   3.910  0.5030 -0.1768 -0.4839
  269ACOH    O111048   4.910   7.284   3.859  0.0015  0.2803  0.4990
  269ACOH    C111049   5.012   7.156   4.026  0.4352 -0.1961 -0.1589
  269ACOH    H111050   5.042   7.255   4.059  2.7041 -0.7807 -0.3673
  269ACOH    H211051   5.103   7.100   4.003 -0.6285 -0.9769 -2.5896
  269ACOH    H311052   4.964   7.101   4.107 -1.4975  1.6778 -0.0028
  270ACOH    H411053   5.461   2.081   2.821 -1.6344 -1.7356 -2.1236
  270ACOH    O211054   5.534   2.018   2.836 -0.2929  0.2004 -0.2151
  270ACOH    C211055   5.482   1.907   2.896 -0.2445 -0.4610  0.3294
  270ACOH    O111056   5.373   1.902   2.955 -0.3533  0.0187  0.3808
  270ACOH    C111057   5.595   1.803   2.895  0.0652 -0.6757 -0.4556
  270ACOH    H111058   5.686   1.839   2.943 -1.3408 -0.8014  2.3658
  270ACOH    H211059   5.613   1.770   2.793 -0.4918 -1.0543 -0.4322
  270ACOH    H311060   5.556   1.726   2.961  1.2818 -0.6387  0.3129
  271ACOH    H411061   3.751   5.858   1.168  0.1034 -0.4959  0.5168
  271ACOH    O211062   3.665   5.815   1.182 -0.3091  0.1263 -0.0673
  271ACOH    C211063   3.683   5.694   1.133 -0.7107 -0.3916 -0.4196
  271ACOH    O111064   3.787   5.653   1.075  0.5761 -0.5818  0.2725
  271ACOH    C111065   3.561   5.610   1.139  0.5587  0.3150  0.5327
  271ACOH    H111066   3.586   5.510   1.172 -1.1215 -1.6866 -3.8695
  271ACOH    H211067   3.511   5.594   1.043  1.6794  0.2196 -0.0375
  271ACOH    H311068   3.488   5.654   1.207  0.4945 -0.1615  0.7758
  272ACOH    H411069   3.461   4.220   2.300 -0.0212 -0.4817 -0.0230
  272ACOH    O211070   3.412   4.284   2.355  0.5438  0.0315 -0.1212
  272ACOH    C211071   3.298   4.288   2.284  0.1820 -0.3415 -0.0440
  272ACOH    O111072   3.284   4.271   2.166  0.3483 -0.6675 -0.0631
  272ACOH    C111073   3.188   4.337   2.373 -0.6063  0.0852 -0.0254
  272ACOH    H111074   3.099   4.377   2.323 -2.3719 -1.6592  1.6394
  272ACOH    H211075   3.240   4.416   2.427  0.0622  0.7732 -1.6473
  272ACOH    H311076   3.158   4.264   2.448  0.4388  0.9085  1.2108
  273ACOH    H411077   7.856   2.524   3.688  0.7806 -1.1250 -0.8255
  273ACOH    O211078   7.926   2.507   3.754 -0.0532 -0.4774  0.2381
  273ACOH    C211079   7.951   2.374   3.731 -0.0877  0.2567 -0.6663
  273ACOH    O111080   7.943   2.319   3.624  0.1423  0.7854 -0.8088
  273ACOH    C111081   8.022   2.315   3.850 -0.0009 -0.4713  0.6476
  273ACOH    H111082   8.027   2.206   3.849 -0.2757 -0.4670 -0.9521
  273ACOH    H211083   7.966   2.357   3.934  1.9493 -1.1956  2.3437
  273ACOH    H311084   8.123   2.356   3.848 -1.0171  2.0817 -1.9029
  274ACOH    H411085   7.704   3.223   3.081  1.0304 -0.8135  1.5021
  274ACOH    O211086   7.634   3.225   3.148 -0.6147  0.1622 -0.2328
  274ACOH    C211087   7.557   3.335   3.140 -0.9527 -0.0053  0.2293
  274ACOH    O111088   7.584   3.437   3.079 -0.3057  0.0672  0.2030
  274ACOH    C111089   7.429   3.316   3.206  0.4054 -0.2096  0.1754
  274ACOH    H111090   7.402   3.410   3.253  1.1944  0.6620 -1.0900
  274ACOH    H211091   7.445   3.230   3.271 -1.4514  0.0838  1.0396
  274ACOH    H311092   7.350   3.293   3.135 -1.0066  2.5752  0.7788
  275ACOH    H411093   2.793   1.876   1.699 -0.4566  2.3097 -3.0475
  275ACOH    O211094   2.843   1.825   1.634 -0.0527 -0.5385 -0.6446
  275ACOH    C211095   2.882   1.899   1.530 -0.5084 -0.3257 -0.0677
  275ACOH    O111096   2.844   2.007   1.497 -0.2095  0.2382 -0.0839
  275ACOH    C111097   2.943   1.808   1.428 -0.1276  0.7894  0.5138
  275ACOH    H111098   2.993   1.727   1.481 -0.9594  0.0065  0.1150
  275ACOH    H211099   3.017   1.862   1.369 -1.7017  1.4469 -0.8918
  275ACOH    H311100   2.867   1.774   1.359  0.9112  1.4416 -0.9659
  276ACOH    H411101   7.121   2.608   3.141  0.1787 -1.1076  0.1813
  276ACOH    O211102   7.148   2.646   3.226  0.0700 -0.0924 -0.2244
  276ACOH    C211103   7.055   2.611   3.317  0.1997 -0.7974 -0.6278
  276ACOH    O111104   6.946   2.564   3.296  0.0885  0.7227  0.2339
  276ACOH    C111105   7.079   2.678   3.451 -0.0854  0.1469 -0.0412
  276ACOH    H111106   7.025   2.772   3.463  0.1851  0.3591 -0.4630
  276ACOH    H211107   7.187   2.694   3.456  0.0822 -0.4295 -1.6286
  276ACOH    H311108   7.047   2.610   3.530 -0.2309 -0.5922 -0.7358
  277ACOH    H411109   8.779   1.265   3.464 -0.8131  2.4474  0.6397
  277ACOH    O211110   8.833   1.304   3.393 -0.3309 -0.1054 -0.4334
  277ACOH    C211111   8.760   1.398   3.331  0.2075 -0.1117 -0.0255
  277ACOH    O111112   8.640   1.403   3.337 -0.0161 -0.4264  0.0135
  277ACOH    C111113   8.847   1.476   3.242  0.4740 -0.6765 -0.0985
  277ACOH    H111114   8.869   1.413   3.156  2.3409 -1.6229  1.0400
  277ACOH    H211115   8.945   1.499   3.284  0.0346 -0.2666  0.7046
  277ACOH    H311116   8.794   1.565   3.207  0.1839 -0.8326 -0.0530
  278ACOH    H411117   2.712   5.740   3.850  0.7991  0.7491  0.2668
  278ACOH    O211118   2.760   5.735   3.935  0.3003 -0.0170  0.5170
  278ACOH    C211119   2.847   5.837   3.945 -0.0546 -0.5214  0.6176
  278ACOH    O111120   2.893   5.882   3.839  0.0289 -0.6005 -0.1039
  278ACOH    C111121   2.899   5.863   4.077 -0.1426 -0.1432 -0.3117
  278ACOH    H111122   2.922   5.768   4.124 -1.0135 -0.4118 -0.4291
  278ACOH    H211123   2.822   5.902   4.143 -0.4703 -0.0258 -0.7586
  278ACOH    H311124   2.985   5.931   4.078  0.9870 -1.4127 -3.7054
  279ACOH    H411125   8.200   5.424   1.624  0.5685 -1.0416 -1.1450
  279ACOH    O211126   8.170   5.464   1.540 -0.0318 -0.3187 -0.5920
  279ACOH    C211127   8.279   5.526   1.488  0.1809 -0.1704 -0.0384
  279ACOH    O111128   8.391   5.537   1.535 -0.3888 -0.4379  0.1588
  279ACOH    C111129   8.249   5.602   1.368 -0.2012  0.0169 -0.4264
  279ACOH    H111130   8.324   5.596   1.290 -3.3550 -0.3879 -3.5637
  279ACOH    H211131   8.232   5.706   1.397  1.3190  1.4671 -4.3370
  279ACOH    H311132   8.156   5.576   1.317 -0.6775  2.1516 -0.7263
  280ACOH    H411133   6.345   1.801   3.597 -0.9899  0.3508 -0.9713
  280ACOH    O211134   6.296   1.831   3.675  0.1534 -0.4513  0.0613
  280ACOH    C211135   6.211   1.733   3.728  0.2136 -0.6441 -0.0229
  280ACOH    O111136   6.188   1.631   3.670 -0.0164  0.1905 -0.0332
  280ACOH    C111137   6.126   1.782   3.838  0.0026 -0.1630  0.0116
  280ACOH    H111138   6.170   1.748   3.931  2.4697 -0.9117 -1.3882
  280ACOH    H211139   6.022   1.748   3.833 -0.2771  0.6904 -0.0320
  280ACOH    H311140   6.130   1.890   3.827  0.3594 -0.1671  0.0975
  281ACOH    H411141   5.657   1.064   0.586  1.8545 -1.2798  0.6147
  281ACOH    O211142   5.714   1.140   0.562 -0.0332 -0.1212 -0.2642
  281ACOH    C211143   5.806   1.160   0.655 -0.0810 -0.0239 -0.9045
  281ACOH    O111144   5.797   1.112   0.766 -0.9049  0.7481  0.0889
  281ACOH    C111145   5.907   1.258   0.613  0.2543  0.0525  0.5123
  281ACOH    H111146   5.862   1.336   0.551  3.6031  0.3878 -1.6124
  281ACOH    H211147   5.977   1.213   0.543  0.4032  1.9119 -0.5612
  281ACOH    H311148   5.970   1.304   0.689  0.6030  0.9868 -0.3302
  282ACOH    H411149   8.209   3.058   2.363  0.3611  0.4573  1.8436
  282ACOH    O211150   8.138   3.124   2.367  0.1142  0.3295 -0.1003
  282ACOH    C211151   8.115   3.171   2.242  0.0091  0.2599 -0.2177
  282ACOH    O111152   8.167   3.144   2.142  0.0471 -0.9664  0.6922
  282ACOH    C111153   8.004   3.270   2.243  0.4184 -0.2086  0.4474
  282ACOH    H111154   7.917   3.211   2.271 -1.1420  0.7665 -2.2124
  282ACOH    H211155   7.982   3.317   2.148  4.2140 -1.4614 -1.1806
  282ACOH    H311156   8.033   3.338   2.323 -1.7145 -0.4564  1.4546
  283ACOH    H411157   4.906   2.191   1.670 -3.4135  0.9190  0.7856
  283ACOH    O211158   4.952   2.254   1.727  0.2163 -0.4688 -0.4600
  283ACOH    C211159   4.854   2.328   1.796 -0.1161  0.2704 -0.3406
  283ACOH    O111160   4.734   2.306   1.794 -0.4983  0.6158  0.5446
  283ACOH    C111161   4.922   2.423   1.889 -1.1508 -0.5332  0.7901
  283ACOH    H111162   4.947   2.512   1.832 -1.9895 -0.9359 -0.2110
  283ACOH    H211163   5.018   2.387   1.926 -1.4436 -3.4287 -1.1084
  283ACOH    H311164   4.860   2.454   1.973 -0.4023 -1.1612  1.5926
  284ACOH    H411165   9.310   7.739   0.732 -0.8306  0.6847  3.2516
  284ACOH    O211166   9.230   7.773   0.690  0.6791  0.2777 -0.1864
  284ACOH    C211167   9.245   7.897   0.653 -0.1200 -0.4772 -0.0503
  284ACOH    O111168   9.342   7.964   0.673  0.0086 -0.0625 -0.2213
  284ACOH    C111169   9.117   7.962   0.623  0.1600  0.0596 -0.1901
  284ACOH    H111170   9.043   7.929   0.696  0.7186 -0.4957  0.1353
  284ACOH    H211171   9.084   7.940   0.521 -1.5536  3.5637 -0.4765
  284ACOH    H311172   9.128   8.069   0.643  1.0015 -0.5947  3.2619
  285ACOH    H411173   4.912   2.332   3.534  0.6119 -1.6143  1.0736
  285ACOH    O211174   4.942   2.300   3.448  0.4291  0.7206  0.1025
  285ACOH    C211175   5.043   2.215   3.460  0.0128  0.4800  0.2286
  285ACOH    O111176   5.079   2.158   3.566  0.0962  0.4499  0.7940
  285ACOH    C111177   5.111   2.183   3.330 -0.5216 -1.6401 -0.2766
  285ACOH    H111178   5.143   2.269   3.272  1.7706 -2.3393 -0.1366
  285ACOH    H211179   5.055   2.107   3.276  0.3928 -2.6680  0.1933
  285ACOH    H311180   5.208   2.142   3.359  0.1905 -0.1072 -0.4753
  286ACOH    H411181   4.010   7.742   0.145 -0.4206  0.0347 -2.2476
  286ACOH    O211182   3.931   7.692   0.173  0.3953 -0.1933 -0.2633
  286ACOH    C211183   3.965   7.633   0.292 -0.3147 -0.2941 -0.3574
  286ACOH    O111184   4.061   7.655   0.365 -0.1419  0.3590 -0.3772
  286ACOH    C111185   3.851   7.545   0.335 -0.4811  0.5502  0.5254
  286ACOH    H111186   3.832   7.468   0.261 -0.9372  0.0889  1.1148
  286ACOH    H211187   3.756   7.598   0.351 -0.3291  1.1400 -0.5030
  286ACOH    H311188   3.866   7.493   0.430 -0.8867 -0.2976  0.1335
  287ACOH    H411189   5.468   3.559   0.033 -0.4342 -0.2563 -2.1056
  287ACOH    O211190   5.503   3.475   0.066 -0.0087  0.6736 -0.0979
  287ACOH    C211191   5.590   3.502   0.162 -0.0867 -0.2347 -0.3609
  287ACOH    O111192   5.589   3.599   0.230  0.4031  0.2539 -0.2342
  287ACOH    C111193   5.670   3.384   0.200 -0.5958 -0.0022 -0.0672
  287ACOH    H111194   5.612   3.295   0.175 -3.2082  1.2804  1.2674
  287ACOH    H211195   5.678   3.384   0.309  1.9976  0.3712 -0.2251
  287ACOH    H311196   5.764   3.390   0.145 -0.6432  0.9107 -0.0529
  288ACOH    H411197   5.374   7.408   4.215 -2.4535  1.2393 -0.0937
  288ACOH    O211198   5.396   7.462   4.293  0.3932  0.3640 -0.2335
  288ACOH    C211199   5.530   7.489   4.290  0.1173 -0.1432  0.3108
  288ACOH    O111200   5.618   7.433   4.226 -0.4856  0.1210 -0.3179
  288ACOH    C111201   5.566   7.588   4.395 -0.8868 -0.4064  0.1946
  288ACOH    H111202   5.635   7.666   4.364 -1.9556 -0.1247 -1.5476
  288ACOH    H211203   5.604   7.533   4.481  1.9230  0.3486 -0.5269
  288ACOH    H311204   5.472   7.633   4.427 -0.2148  0.3028  1.2106
  289ACOH    H411205   2.909   7.516   4.710  3.2477  2.5369  0.4815
  289ACOH    O211206   2.932   7.445   4.772 -0.3614  0.1056 -0.7801
  289ACOH    C211207   3.049   7.399   4.730  0.1983 -0.5719 -0.0538
  289ACOH    O111208   3.128   7.461   4.655  0.2137  0.0821  0.1409
  289ACOH    C111209   3.089   7.278   4.803 -0.2929  0.2029 -0.4078
  289ACOH    H111210   3.190   7.244   4.781  0.1400  0.9852  0.3499
  289ACOH    H211211   3.030   7.198   4.758  0.7685 -0.2624 -0.9763
  289ACOH    H311212   3.068   7.282   4.910  0.9530 -0.7800 -0.1150
  290ACOH    H411213   5.368   8.173   0.979  2.6039  1.6461  1.9478
  290ACOH    O211214   5.402   8.220   0.901  0.2489 -0.0726 -0.2054
  290ACOH    C211215   5.369   8.352   0.920 -0.7007  0.0970 -0.8686
  290ACOH    O111216   5.302   8.398   1.008 -0.2271 -0.1172  0.1562
  290ACOH    C111217   5.430   8.435   0.813  0.1855  0.5874 -0.3170
  290ACOH    H111218   5.535   8.411   0.797 -0.4768 -1.5093 -1.7361
  290ACOH    H211219   5.437   8.539   0.845 -1.1602  1.9927 -4.3047
  290ACOH    H311220   5.371   8.416   0.724  0.3902 -0.5974 -0.2110
  291ACOH    H411221   8.090   2.431   3.183  1.7184 -1.1721  0.0534
  291ACOH    O211222   8.103   2.474   3.269 -0.1012 -0.3306 -0.0650
  291ACOH    C211223   8.118   2.604   3.242 -0.5748  0.1803 -0.6215
  291ACOH    O111224   8.155   2.656   3.139 -0.0332 -0.2507  0.3841
  291ACOH    C111225   8.082   2.691   3.359  0.2183  0.0951 -0.4525
  291ACOH    H111226   8.005   2.639   3.415  1.2611  0.2361  1.1266
  291ACOH    H211227   8.042   2.786   3.323  0.3405  0.1129 -0.5439
  291ACOH    H311228   8.171   2.699   3.421 -0.8598 -2.1321  1.4540
  292ACOH    H411229   6.243   1.462   4.050 -0.7681  0.3849 -1.3405
  292ACOH    O211230   6.166   1.481   4.107  0.4278  0.4879  0.2867
  292ACOH    C211231   6.177   1.410   4.222 -0.7054 -0.3010 -0.5985
  292ACOH    O111232   6.264   1.325   4.247 -0.0223  0.2108  0.4748
  292ACOH    C111233   6.074   1.466   4.317 -0.0139 -0.1394  0.7595
  292ACOH    H111234   6.044   1.397   4.395  0.2757 -1.1859 -0.0448
  292ACOH    H211235   5.983   1.488   4.260 -0.7016 -2.1496  1.0599
  292ACOH    H311236   6.101   1.564   4.357 -1.7909  1.2959 -1.3924
  293ACOH    H411237   7.901   3.153   3.414 -1.4845  1.1875  0.0227
  293ACOH    O211238   7.979   3.203   3.442 -0.3269 -0.3107 -0.4354
  293ACOH    C211239   8.003   3.302   3.353  0.1177 -0.3975  0.9222
  293ACOH    O111240   7.927   3.335   3.264 -0.2876 -0.2231  0.3274
  293ACOH    C111241   8.117   3.384   3.388 -0.5378 -0.1230 -0.1841
  293ACOH    H111242   8.205   3.327   3.359 -0.7972 -1.0899  0.8681
  293ACOH    H211243   8.126   3.410   3.494 -0.3603 -1.8786  0.2435
  293ACOH    H311244   8.126   3.477   3.332  1.7258 -0.1658  0.0668
  294ACOH    H411245   0.317   0.150   1.809 -2.6241 -2.2446  2.1685
  294ACOH    O211246   0.379   0.150   1.883  0.2646  0.0653 -0.1405
  294ACOH    C211247   0.426   0.024   1.897  0.3267 -0.7099 -0.0493
  294ACOH    O111248   0.393  -0.075   1.832  0.3085 -0.0351 -0.6857
  294ACOH    C111249   0.528   0.030   2.003 -0.6106  0.0325 -0.3931
  294ACOH    H111250   0.525  -0.062   2.061  0.0789 -0.4479 -1.1089
  294ACOH    H211251   0.499   0.107   2.074  0.0688  0.1118 -0.1978
  294ACOH    H311252   0.619   0.055   1.947 -0.2539 -1.3538 -0.4402
  295ACOH    H411253   4.309   4.198   3.965  0.8646 -2.1135  0.0205
  295ACOH    O211254   4.395   4.239   3.985 -0.1086 -0.2698  0.6175
  295ACOH    C211255   4.430   4.219   4.111 -0.8901 -0.1810 -0.2756
  295ACOH    O111256   4.401   4.122   4.182 -0.3576  0.1298  0.3484
  295ACOH    C111257   4.544   4.308   4.148  0.2107 -0.4858  0.0556
  295ACOH    H111258   4.502   4.403   4.181 -1.3590 -0.9064 -0.7101
  295ACOH    H211259   4.587   4.330   4.050 -2.0114 -1.9167 -1.3013
  295ACOH    H311260   4.613   4.262   4.219  1.0602 -1.2979 -1.2749
  296ACOH    H411261   9.410   9.771   4.221 -0.1503  1.8638 -0.7291
  296ACOH    O211262   9.416   9.740   4.129  0.0966 -0.5082  0.0452
  296ACOH    C211263   9.375   9.839   4.050 -0.4640 -0.4041  0.0457
  296ACOH    O111264   9.403   9.954   4.080  0.2747 -0.6260 -0.2770
  296ACOH    C111265   9.349   9.789   3.915  0.2233  0.2787  1.0269
  296ACOH    H111266   9.347   9.680   3.906 -2.1524  0.1585  2.4440
  296ACOH    H211267   9.429   9.832   3.855 -1.6803  2.2570 -0.1767
  296ACOH    H311268   9.255   9.835   3.885  0.6479 -0.1720 -1.0464
  297ACOH    H411269   7.598   8.027   1.239  0.3512  0.3363  1.6023
  297ACOH    O211270   7.650   8.074   1.172 -0.2244 -0.2514  0.7279
  297ACOH    C211271   7.571   8.093   1.064 -0.1707  0.1805 -0.0117
  297ACOH    O111272   7.453   8.083   1.057 -0.5102  0.2849  0.3771
  297ACOH    C111273   7.640   8.160   0.957 -0.6864 -0.1205  0.1982
  297ACOH    H111274   7.598   8.261   0.958  0.8928  0.5850 -1.6673
  297ACOH    H211275   7.616   8.110   0.864 -1.3338  0.1702  0.2021
  297ACOH    H311276   7.748   8.161   0.970 -0.6547  0.5921 -0.1009
  298ACOH    H411277   7.733   3.202   1.947 -2.7292 -0.0782  0.2914
  298ACOH    O211278   7.734   3.297   1.932 -0.0096 -0.2058 -0.5123
  298ACOH    C211279   7.619   3.335   1.988 -0.4931  0.5779  0.2509
  298ACOH    O111280   7.545   3.257   2.044 -0.2185 -0.0504  0.3209
  298ACOH    C111281   7.621   3.483   2.020 -0.0402 -0.8522 -0.2080
  298ACOH    H111282   7.682   3.529   1.942 -0.6673  0.2891 -0.0370
  298ACOH    H211283   7.673   3.505   2.113  0.1490 -1.4255 -0.1746
  298ACOH    H311284   7.525   3.533   2.032  0.2252 -0.8537  2.1182
  299ACOH    H411285   4.471   4.691   1.589 -0.8713 -0.1673 -0.9191
  299ACOH    O211286   4.559   4.710   1.551 -0.1238 -0.2477  0.7560
  299ACOH    C211287   4.558   4.697   1.416 -0.1587  0.6539 -0.2102
  299ACOH    O111288   4.463   4.659   1.354 -0.1969  0.6150  0.0589
  299ACOH    C111289   4.677   4.759   1.353 -0.5950 -0.3367  0.2543
  299ACOH    H111290   4.715   4.702   1.268  2.2524  2.0180 -0.0970
  299ACOH    H211291   4.755   4.759   1.429  0.5217  2.4434 -0.8434
  299ACOH    H311292   4.652   4.861   1.323 -0.5711 -0.0936  1.0586
  300ACOH    H411293   6.721   8.335   4.265  0.7500 -0.2988 -0.1659
  300ACOH    O211294   6.762   8.375   4.344 -0.6104 -0.1364  0.4779
  300ACOH    C211295   6.848   8.292   4.409  0.1182 -0.3443 -0.3734
  300ACOH    O111296   6.893   8.184   4.378 -0.2615 -0.2571 -0.0542
  300ACOH    C111297   6.914   8.360   4.525  0.1119 -0.0613 -0.1969
  300ACOH    H111298   6.847   8.403   4.599  0.3256  0.0283 -0.0560
  300ACOH    H211299   6.979   8.440   4.488 -0.9619 -0.0800 -2.1714
  300ACOH    H311300   6.980   8.291   4.578  2.0543  1.2963 -0.7688
  301ACOH    H411301   4.932   2.281   2.601 -0.4227 -0.2007 -0.0786
  301ACOH    O211302   4.895   2.369   2.620 -0.5285 -0.3504  0.4174
  301ACOH    C211303   4.991   2.468   2.595  0.3886  0.8346 -0.4132
  301ACOH    O111304   4.971   2.585   2.609  0.3441 -0.5053 -0.4890
  301ACOH    C111305   5.119   2.414   2.537  0.2094  0.4614  0.3981
  301ACOH    H111306   5.189   2.378   2.613  0.1958  1.9852  1.1472
  301ACOH    H211307   5.171   2.499   2.494  2.5234 -0.7241  0.7317
  301ACOH    H311308   5.119   2.334   2.463  2.8790  1.3407 -0.6246
  302ACOH    H411309   8.681   7.687   0.728  0.2109 -0.0897 -0.6495
  302ACOH    O211310   8.654   7.736   0.648 -0.0715  0.0614 -0.4647
  302ACOH    C211311   8.553   7.677   0.586 -0.1116 -0.9581 -0.4045
  302ACOH    O111312   8.474   7.606   0.640 -0.0339  0.4515  0.3628
  302ACOH    C111313   8.531   7.744   0.453  0.1753  0.1955 -0.0181
  302ACOH    H111314   8.470   7.685   0.385  1.8458  0.1698 -1.5454
  302ACOH    H211315   8.621   7.761   0.393 -0.1394  0.7336 -0.3393
  302ACOH    H311316   8.488   7.843   0.468 -1.7966 -0.4078 -1.5254
  303ACOH    H411317   3.031   6.731   5.586 -2.4902  1.7417  2.3072
  303ACOH    O211318   2.997   6.640   5.585  0.1373  0.7136  0.4491
  303ACOH    C211319   3.032   6.580   5.474  0.8403 -0.2497 -0.2724
  303ACOH    O111320   3.102   6.620   5.383 -0.2180 -0.4820  0.0174
  303ACOH    C111321   2.972   6.451   5.468  0.1985  0.2669  0.2448
  303ACOH    H111322   2.952   6.409   5.566  1.4436 -0.8581  0.0311
  303ACOH    H211323   3.034   6.379   5.414 -1.9607 -2.1563  0.8657
  303ACOH    H311324   2.874   6.453   5.420 -0.6240 -0.9195  1.8306
  304ACOH    H411325   5.878   2.019   2.315  1.1464  1.0827  0.1072
  304ACOH    O211326   5.891   1.998   2.221 -0.1259  0.2889  0.0972
  304ACOH    C211327   5.774   1.992   2.151 -1.0975  0.0049 -0.2467
  304ACOH    O111328   5.672   1.944   2.193  0.0702  0.8370 -0.4719
  304ACOH    C111329   5.791   2.010   2.003  0.2538  0.2583 -0.5480
  304ACOH    H111330   5.817   1.916   1.954  1.7735  0.5536 -0.3314
  304ACOH    H211331   5.872   2.081   1.989  0.6164 -0.2854 -1.2102
  304ACOH    H311332   5.702   2.049   1.954 -0.8197 -0.0677  1.0709
  305ACOH    H411333   8.441   5.876   2.117 -1.2087  1.2583  1.2210
  305ACOH    O211334   8.356   5.842   2.086 -0.1979 -0.6070  0.4092
  305ACOH    C211335   8.284   5.957   2.049  0.1977  0.5698  0.2643
  305ACOH    O111336   8.323   6.073   2.047  1.0247  0.4305 -0.7336
  305ACOH    C111337   8.145   5.920   2.015  0.1488 -0.2135  0.5331
  305ACOH    H111338   8.079   6.005   2.031  1.0324  0.3512  1.2901
  305ACOH    H211339   8.114   5.839   2.081  1.7835 -3.5995 -2.6590
  305ACOH    H311340   8.130   5.889   1.912 -0.6435  1.4135  0.1471
  306ACOH    H411341   3.316   9.861   4.883  0.9887  0.3586  0.1634
  306ACOH    O211342   3.285   9.919   4.811  0.8041  0.1686  0.0901
  306ACOH    C211343   3.356   9.870   4.705  0.3024  0.0624  0.2272
  306ACOH    O111344   3.465   9.818   4.709 -0.2271  0.3909  0.3758
  306ACOH    C111345   3.305   9.933   4.578  0.0775 -0.1208  0.7730
  306ACOH    H111346   3.198   9.909   4.575 -0.0691  0.8012 -2.3200
  306ACOH    H211347   3.358   9.893   4.492  0.1229  0.9233  0.3135
  306ACOH    H311348   3.327  10.039   4.589  0.5280 -0.1517  0.1404
  307ACOH    H411349   4.801   1.314   0.263  0.1616 -0.3087 -3.8543
  307ACOH    O211350   4.851   1.231   0.255  0.0638 -0.8062 -0.1934
  307ACOH    C211351   4.959   1.233   0.342 -0.1595 -0.0270  0.8661
  307ACOH    O111352   4.959   1.288   0.449  0.2299  0.6901  0.1454
  307ACOH    C111353   5.047   1.111   0.315 -0.6841 -0.9595 -0.8203
  307ACOH    H111354   5.087   1.107   0.214 -1.6519 -1.2156 -1.2044
  307ACOH    H211355   4.978   1.027   0.330 -1.0183 -0.3751  1.0590
  307ACOH    H311356   5.131   1.091   0.381  0.2896  0.3178 -1.6396
  308ACOH    H411357   6.010   8.325   1.423 -0.4707 -0.8738  1.6874
  308ACOH    O211358   5.916   8.340   1.405 -0.0112 -0.4357 -0.5025
  308ACOH    C211359   5.885   8.228   1.334  0.2181 -0.8890 -0.4157
  308ACOH    O111360   5.942   8.120   1.322  0.2771  0.2060 -0.0196
  308ACOH    C111361   5.741   8.237   1.298  0.3219  0.0644 -0.4610
  308ACOH    H111362   5.694   8.139   1.296  1.1673 -0.3920  1.1868
  308ACOH    H211363   5.734   8.286   1.201 -0.8279  0.8069 -0.0179
  308ACOH    H311364   5.692   8.296   1.375  0.9148 -1.1128  0.8520
  309ACOH    H411365   6.650   6.396   3.697  1.1585  0.8728  0.8470
  309ACOH    O211366   6.651   6.311   3.743  0.8930  0.5067  0.1991
  309ACOH    C211367   6.668   6.348   3.872  0.1580  0.0129 -0.5800
  309ACOH    O111368   6.650   6.462   3.918  0.2873  0.1769 -0.0655
  309ACOH    C111369   6.676   6.229   3.966  0.0992 -0.6505  0.0666
  309ACOH    H111370   6.775   6.183   3.952  1.1782  2.6804 -4.2121
  309ACOH    H211371   6.601   6.152   3.949 -0.1017  0.0300 -2.3829
  309ACOH    H311372   6.655   6.271   4.064  1.9466 -1.0830  0.6731
  310ACOH    H411373   7.366   2.804   1.832 -0.9403 -1.6755  1.0029
  310ACOH    O211374   7.298   2.804   1.762  0.2901 -0.2925 -0.2345
  310ACOH    C211375   7.357   2.811   1.640  0.0245  0.6382  0.2875
  310ACOH    O111376   7.472   2.774   1.612  0.0195  0.1008 -0.4799
  310ACOH    C111377   7.246   2.829   1.539 -0.1601 -0.0571  0.8360
  310ACOH    H111378   7.175   2.748   1.556 -0.4851 -0.1994 -1.0462
  310ACOH    H211379   7.288   2.836   1.439 -1.0318 -1.7061  0.3332
  310ACOH    H311380   7.195   2.922   1.567  0.1029  0.9025 -1.7660
  311ACOH    H411381   7.837   4.245   2.164 -0.5082  1.2075  0.6823
  311ACOH    O211382   7.855   4.195   2.245 -0.3883  0.2137  0.0511
  311ACOH    C211383   7.883   4.065   2.213  0.4939 -0.7859 -0.7036
  311ACOH    O111384   7.912   4.023   2.104 -0.3443  0.1690  0.4946
  311ACOH    C111385   7.887   3.974   2.330 -0.2740  0.1539 -0.0458
  311ACOH    H111386   7.916   4.037   2.414  1.2768 -0.3753 -0.1720
  311ACOH    H211387   7.939   3.878   2.323 -0.2701  0.1304  0.2835
  311ACOH    H311388   7.783   3.949   2.352  0.6202 -3.0115  0.8275
  312ACOH    H411389   4.974   2.151   2.908  1.1811  1.7051 -1.4406
  312ACOH    O211390   4.923   2.218   2.958 -0.0697 -0.3432  0.1536
  312ACOH    C211391   5.005   2.319   2.985  0.0375 -0.0101 -0.1699
  312ACOH    O111392   5.119   2.324   2.951 -0.7001 -0.2916 -0.0005
  312ACOH    C111393   4.943   2.422   3.069  0.3118  0.6716  0.0379
  312ACOH    H111394   5.008   2.507   3.090  1.0760  0.3118 -0.8288
  312ACOH    H211395   4.930   2.365   3.162 -0.6144  0.6299 -0.1168
  312ACOH    H311396   4.839   2.450   3.052 -0.1190 -0.0365  1.3576
  313ACOH    H411397   8.049   8.230   1.003  0.8465  0.8051 -2.3813
  313ACOH    O211398   8.101   8.156   0.968  0.8668 -0.1850 -0.3448
  313ACOH    C211399   8.192   8.200   0.880 -0.3500  0.4457 -0.2732
  313ACOH    O111400   8.183   8.300   0.809  0.2809  0.4199 -0.2226
  313ACOH    C111401   8.325   8.131   0.890 -0.1832 -0.1003  0.2162
  313ACOH    H111402   8.358   8.138   0.993 -2.4154  1.1076  0.8938
  313ACOH    H211403   8.401   8.171   0.822 -1.5053  2.4193  0.1548
  313ACOH    H311404   8.310   8.026   0.864  1.7780 -0.4343  0.3468
  314ACOH    H411405   2.246   7.933   5.279  1.0389 -0.6108 -0.7841
  314ACOH    O211406   2.235   7.994   5.205  0.2590  0.1931 -0.0089
  314ACOH    C211407   2.219   7.930   5.086 -0.7342  0.3628 -0.7436
  314ACOH    O111408   2.267   7.824   5.060  0.2770  0.1172 -0.3307
  314ACOH    C111409   2.163   8.026   4.988  0.2606 -0.1018  0.2904
  314ACOH    H111410   2.064   8.057   5.023 -0.2949 -1.2902 -0.1974
  314ACOH    H211411   2.147   7.976   4.892 -0.0927  1.3015 -0.4016
  314ACOH    H311412   2.219   8.118   4.971  0.9887 -0.7263 -0.7361
  315ACOH    H411413   5.443   6.656   2.039  0.9141 -0.9129  2.0317
  315ACOH    O211414   5.519   6.641   1.980 -0.3408 -0.4477  0.2379
  315ACOH    C211415   5.514   6.722   1.875  0.2168  0.1999  0.8560
  315ACOH    O111416   5.408   6.763   1.834  0.4261 -0.7599 -0.4071
  315ACOH    C111417   5.640   6.734   1.793  0.0339  1.0275  0.3853
  315ACOH    H111418   5.722   6.769   1.856 -0.5790  0.6905  1.3867
  315ACOH    H211419   5.631   6.800   1.707  1.3831 -1.0081 -1.3573
  315ACOH    H311420   5.661   6.630   1.770 -1.6713  0.3490  1.7082
  316ACOH    H411421   8.796   1.217   4.597 -0.2661 -0.3535  0.7762
  316ACOH    O211422   8.866   1.152   4.616  0.3835  0.0357 -0.2607
  316ACOH    C211423   8.968   1.220   4.664 -0.5048 -0.1718  0.3000
  316ACOH    O111424   8.972   1.339   4.686 -0.4431  0.0941 -0.4364
  316ACOH    C111425   9.089   1.140   4.692 -0.0169 -0.1182 -0.2532
  316ACOH    H111426   9.183   1.177   4.650  0.2542  0.5972  0.9502
  316ACOH    H211427   9.085   1.036   4.660 -0.4820 -0.9847  2.4466
  316ACOH    H311428   9.103   1.133   4.800  0.5342  1.1867 -0.2301
  317ACOH    H411429   7.752   3.703   2.849  1.5892  1.0786 -0.4887
  317ACOH    O211430   7.716   3.791   2.828 -0.3564  0.3354 -0.3987
  317ACOH    C211431   7.768   3.820   2.704  0.6490  0.8501 -0.3509
  317ACOH    O111432   7.809   3.738   2.626 -0.5773  0.5779 -0.3176
  317ACOH    C111433   7.750   3.962   2.672 -0.1382  0.1870  0.4199
  317ACOH    H111434   7.850   4.004   2.666 -0.2369  0.5588  1.2780
  317ACOH    H211435   7.694   4.011   2.751  0.5148 -0.0171  1.0110
  317ACOH    H311436   7.695   3.971   2.578  0.2710 -0.7775  0.0843
  318ACOH    H411437   6.895   1.996   3.687  0.6181  0.1384 -0.2390
  318ACOH    O211438   6.878   2.092   3.681  0.1276  0.0663  0.0096
  318ACOH    C211439   6.997   2.159   3.702  0.0318  0.5276 -0.2015
  318ACOH    O111440   7.107   2.112   3.738  0.7368 -0.0223 -0.3184
  318ACOH    C111441   6.976   2.299   3.682 -0.4507 -0.2080 -0.3191
  318ACOH    H111442   6.900   2.325   3.756  1.2298 -0.8317  1.6412
  318ACOH    H211443   6.929   2.309   3.584 -0.9757 -0.6802 -0.1207
  318ACOH    H311444   7.066   2.359   3.694 -0.8849  0.2556  0.6252
  319ACOH    H411445   5.094   1.522   1.649  0.9019 -0.8049  0.9599
  319ACOH    O211446   5.131   1.609   1.671  0.4125 -0.2961 -0.2152
  319ACOH    C211447   5.255   1.613   1.623 -0.2802 -0.2527  0.1291
  319ACOH    O111448   5.306   1.525   1.560 -0.4211  0.2476  0.5743
  319ACOH    C111449   5.325   1.743   1.658  0.4730 -0.8763  0.2251
  319ACOH    H111450   5.402   1.733   1.735  3.1625  2.8262 -1.7896
  319ACOH    H211451   5.253   1.818   1.691  1.8809 -0.0625  1.4933
  319ACOH    H311452   5.365   1.787   1.566 -0.5884  0.3311  0.3302
  320ACOH    H411453   7.179   1.039   0.681 -1.1437 -0.3110  0.8032
  320ACOH    O211454   7.161   1.135   0.679 -0.7308 -0.2482 -0.1369
  320ACOH    C211455   7.139   1.172   0.551 -0.0343 -0.1442  0.2521
  320ACOH    O111456   7.112   1.098   0.456 -0.3089 -0.3720 -0.1434
  320ACOH    C111457   7.147   1.320   0.549 -0.3543 -0.0837 -0.1636
  320ACOH    H111458   7.116   1.340   0.446  1.1197 -1.3969 -0.8722
  320ACOH    H211459   7.251   1.347   0.561 -0.0118 -0.7927 -1.4095
  320ACOH    H311460   7.087   1.375   0.622 -0.2845 -0.3289  0.0801
  321ACOH    H411461   7.418   6.278   3.064 -1.9932  1.7068 -0.5600
  321ACOH    O211462   7.352   6.207   3.077 -0.1952  0.1904  0.4321
  321ACOH    C211463   7.281   6.192   2.968 -0.3218 -0.1113  0.5075
  321ACOH    O111464   7.294   6.242   2.859 -0.2725 -0.0324  0.3454
  321ACOH    C111465   7.178   6.086   2.974  0.2647  1.0519  0.1892
  321ACOH    H111466   7.214   6.005   3.037 -0.1185  0.1472 -0.7300
  321ACOH    H211467   7.147   6.054   2.874  1.5384 -2.3329  0.8019
  321ACOH    H311468   7.093   6.134   3.022  0.2275  0.8361  0.3392
  322ACOH    H411469   4.309   4.030   3.249 -0.4371 -1.9795  1.4081
  322ACOH    O211470   4.229   4.025   3.194  0.2127  0.3248  0.1843
  322ACOH    C211471   4.136   4.073   3.274  0.3313  0.1389 -0.1368
  322ACOH    O111472   4.124   4.068   3.396  0.0688 -0.9904 -0.2461
  322ACOH    C111473   4.022   4.125   3.198  0.3913  0.7091 -0.1791
  322ACOH    H111474   4.067   4.166   3.108  0.4692 -0.0871 -0.5135
  322ACOH    H211475   3.971   4.206   3.249  1.7401  0.5623  1.4446
  322ACOH    H311476   3.957   4.046   3.157  1.8574 -0.3017 -0.6050
  323ACOH    H411477   6.053   6.480   3.565  0.2054 -0.3670  0.3818
  323ACOH    O211478   5.991   6.429   3.512 -0.0994 -0.0376  0.4188
  323ACOH    C211479   5.871   6.483   3.545  0.6720  0.0813 -0.6227
  323ACOH    O111480   5.861   6.579   3.619 -0.6108 -0.7368  0.0067
  323ACOH    C111481   5.762   6.421   3.474  0.0244  0.4246  0.2181
  323ACOH    H111482   5.703   6.498   3.423 -0.0323 -0.1730 -0.6370
  323ACOH    H211483   5.693   6.369   3.540  1.0713  0.7508  1.5689
  323ACOH    H311484   5.794   6.356   3.392  0.5344  0.1003  0.6785
  324ACOH    H411485   7.044   7.434   2.122  0.9756 -1.4889  0.5373
  324ACOH    O211486   6.988   7.360   2.153 -0.4649 -0.5469  0.2577
  324ACOH    C211487   6.936   7.379   2.275 -0.3613  0.3562  0.3136
  324ACOH    O111488   6.917   7.488   2.329 -0.2596 -0.0953  0.7742
  324ACOH    C111489   6.866   7.255   2.308  0.8143 -0.4202 -0.4965
  324ACOH    H111490   6.811   7.211   2.225 -0.8766  0.2612  0.2452
  324ACOH    H211491   6.790   7.279   2.382 -1.0244  1.3740 -2.8756
  324ACOH    H311492   6.937   7.179   2.341  1.3969 -0.1479 -1.1119
  325ACOH    H411493   3.982   9.519   1.651  1.4622  0.2087 -0.4830
  325ACOH    O211494   4.004   9.512   1.745 -0.0991  0.1652 -0.1033
  325ACOH    C211495   3.988   9.393   1.796 -0.2836  0.2083 -0.3446
  325ACOH    O111496   3.918   9.305   1.755 -0.5552  0.3093 -0.1328
  325ACOH    C111497   4.021   9.391   1.942 -0.0312  0.6369  0.0148
  325ACOH    H111498   4.069   9.481   1.981  0.6946  0.4003 -0.3299
  325ACOH    H211499   4.072   9.298   1.966 -1.0818  0.1755  0.5139
  325ACOH    H311500   3.922   9.398   1.989  0.7928 -0.6253  2.0457
  326ACOH    H411501   7.431   0.396   0.057  0.0345  0.3373  1.1469
  326ACOH    O211502   7.348   0.371   0.101 -0.1438 -0.1871  0.5171
  326ACOH    C211503   7.255   0.330   0.007  0.4109 -0.1599 -0.7083
  326ACOH    O111504   7.274   0.303  -0.108  0.5173 -0.1769 -0.4307
  326ACOH    C111505   7.126   0.325   0.083  0.0199 -0.4188 -0.6880
  326ACOH    H111506   7.156   0.273   0.174 -1.3157 -0.3994 -0.2249
  326ACOH    H211507   7.046   0.269   0.035 -0.8162  0.3296 -0.2047
  326ACOH    H311508   7.096   0.425   0.116 -2.1875 -1.1865 -0.2748
  327ACOH    H411509   3.541   8.517   5.478  0.6610 -2.1570  0.0604
  327ACOH    O211510   3.614   8.556   5.530 -0.1279  0.0033 -0.3839
  327ACOH    C211511   3.547   8.589   5.647  0.6964  0.3158 -0.0850
  327ACOH    O111512   3.433   8.565   5.672  0.3913  0.4574 -0.1901
  327ACOH    C111513   3.639   8.645   5.756  0.0409 -0.1396  0.5698
  327ACOH    H111514   3.684   8.561   5.809  1.9350 -0.4289 -1.4541
  327ACOH    H211515   3.575   8.690   5.833 -2.1794 -2.8013  0.3460
  327ACOH    H311516   3.724   8.701   5.717  0.2523  0.3634  1.7288
  328ACOH    H411517   5.204   1.342   4.688 -1.1654 -0.0722 -2.9423
  328ACOH    O211518   5.201   1.439   4.688 -0.1525  0.0119 -0.0337
  328ACOH    C211519   5.276   1.462   4.579  0.0758 -0.2038 -0.0634
  328ACOH    O111520   5.272   1.406   4.471  0.7209  0.4703  0.0829
  328ACOH    C111521   5.341   1.590   4.595  0.2381  0.8134  0.4364
  328ACOH    H111522   5.379   1.631   4.502 -0.0093 -1.3880 -0.6600
  328ACOH    H211523   5.415   1.569   4.672  0.5693  0.5198  0.0381
  328ACOH    H311524   5.266   1.660   4.634  0.0088  0.4964  0.5685
  329ACOH    H411525   4.026   1.293   1.879 -2.4003 -1.1170 -0.9210
  329ACOH    O211526   3.998   1.384   1.860 -0.2716 -0.3443 -0.5086
  329ACOH    C211527   3.941   1.372   1.742  1.0799  0.1642 -0.0022
  329ACOH    O111528   3.881   1.272   1.704  0.1417 -0.2381 -0.1738
  329ACOH    C111529   3.926   1.507   1.678  0.6641  0.1717  0.2311
  329ACOH    H111530   3.832   1.542   1.722  0.8704  1.2952 -0.2060
  329ACOH    H211531   3.917   1.500   1.570 -0.1336  0.5296  0.2682
  329ACOH    H311532   3.998   1.580   1.716  2.5090 -1.0439 -0.8919
  330ACOH    H411533   7.684   5.522   2.232  0.6316 -2.5852 -0.0457
  330ACOH    O211534   7.697   5.534   2.137 -0.3209  0.0877  0.1102
  330ACOH    C211535   7.823   5.486   2.109 -0.7458 -0.5405  0.0165
  330ACOH    O111536   7.904   5.436   2.191 -0.2909 -0.4983 -0.2271
  330ACOH    C111537   7.873   5.519   1.975  0.0622  0.5164  0.0134
  330ACOH    H111538   7.831   5.612   1.936  0.7616  0.9333  0.2483
  330ACOH    H211539   7.843   5.443   1.903  0.3387  2.5291 -2.2917
  330ACOH    H311540   7.981   5.522   1.981 -0.0297  0.2019  2.0187
  331ACOH    H411541   6.582   7.403   2.782  0.8541  1.1322  1.3686
  331ACOH    O211542   6.564   7.484   2.732  0.2101 -0.1669 -0.5527
  331ACOH    C211543   6.687   7.507   2.674  0.0592  0.1253 -0.2710
  331ACOH    O111544   6.781   7.429   2.664  0.1199  0.3873  0.1934
  331ACOH    C111545   6.676   7.619   2.584 -0.3930 -0.2378  0.0186
  331ACOH    H111546   6.691   7.716   2.632 -1.7883  0.2690 -0.5561
  331ACOH    H211547   6.587   7.621   2.521  0.1660 -2.5500 -0.8907
  331ACOH    H311548   6.759   7.607   2.514  1.0763 -0.8852  1.8393
  332ACOH    H411549   4.111   7.368   5.197 -0.2276  1.2900  2.8617
  332ACOH    O211550   4.129   7.288   5.249  0.3343 -0.3152  0.2661
  332ACOH    C211551   4.084   7.180   5.188  0.6041  0.1832 -0.0577
  332ACOH    O111552   4.007   7.177   5.093 -0.0764 -0.0912 -0.2767
  332ACOH    C111553   4.131   7.051   5.251  0.2698  0.2568  0.7124
  332ACOH    H111554   4.054   6.975   5.240 -0.2793  1.0149 -0.9147
  332ACOH    H211555   4.166   7.075   5.351 -0.9168  0.8060  1.0099
  332ACOH    H311556   4.216   7.024   5.189 -0.6348 -0.9173 -0.0467
  333ACOH    H411557   7.764   4.531   1.912 -0.1185 -0.1931  0.0025
  333ACOH    O211558   7.697   4.471   1.874  0.2329 -0.5748 -0.0246
  333ACOH    C211559   7.694   4.355   1.944 -0.2178 -0.3928 -0.7197
  333ACOH    O111560   7.764   4.316   2.036 -0.4249 -0.3917 -0.1336
  333ACOH    C111561   7.619   4.256   1.866 -0.1555  0.0537 -0.2597
  333ACOH    H111562   7.515   4.287   1.856 -0.4315 -0.4186  1.0292
  333ACOH    H211563   7.625   4.160   1.917  2.3288 -0.5757 -1.6403
  333ACOH    H311564   7.666   4.236   1.769  1.6119 -2.1758  0.9866
  334ACOH    H411565   1.298   6.707   4.719  1.1484 -0.8883  2.5330
  334ACOH    O211566   1.213   6.681   4.758 -0.1281 -0.1230  0.3756
  334ACOH    C211567   1.197   6.760   4.865  0.0592  0.7314  0.3022
  334ACOH    O111568   1.295   6.782   4.939  0.0562  0.1106 -0.3722
  334ACOH    C111569   1.064   6.742   4.914  0.1560 -0.1283 -0.8670
  334ACOH    H111570   1.056   6.754   5.022  1.5763 -1.6673 -0.5807
  334ACOH    H211571   1.027   6.642   4.889 -0.1207  0.1427 -1.5659
  334ACOH    H311572   0.998   6.816   4.868  1.3394  1.6931  0.2920
  335ACOH    H411573   4.552   3.100   3.530  1.2614  0.6756 -0.8722
  335ACOH    O211574   4.630   3.048   3.554  0.0890 -0.3822  0.7788
  335ACOH    C211575   4.732   3.102   3.493 -0.0098 -0.3041 -0.0222
  335ACOH    O111576   4.723   3.166   3.390 -0.0427  0.0375 -0.7299
  335ACOH    C111577   4.854   3.015   3.517 -0.2164 -0.4666  0.6206
  335ACOH    H111578   4.938   3.082   3.529  0.1046 -0.4960 -1.3409
  335ACOH    H211579   4.867   2.951   3.429  0.1236  1.1062 -0.4789
  335ACOH    H311580   4.842   2.944   3.599 -2.9482 -2.9092 -1.7475
  336ACOH    H411581   4.891   9.339   5.261  1.0420  1.6313  1.1768
  336ACOH    O211582   4.935   9.379   5.184 -0.1028  0.0350 -0.3398
  336ACOH    C211583   4.874   9.498   5.169 -0.2889 -0.2198  0.0298
  336ACOH    O111584   4.757   9.518   5.183 -0.8417  0.2502 -0.6096
  336ACOH    C111585   4.960   9.576   5.083  0.1221  0.5611 -0.4731
  336ACOH    H111586   4.988   9.531   4.988 -0.4357  0.4079 -0.5682
  336ACOH    H211587   5.051   9.600   5.137 -0.0262  0.3607 -0.1348
  336ACOH    H311588   4.917   9.676   5.073  0.5045  0.9781  1.8429
  337ACOH    H411589   7.551   6.854   3.655  0.8611 -0.2866 -0.7409
  337ACOH    O211590   7.554   6.772   3.708 -0.1578  0.0757 -0.1008
  337ACOH    C211591   7.446   6.780   3.788 -0.8350  0.6300 -0.2091
  337ACOH    O111592   7.349   6.856   3.778  0.4560  0.4117  0.8729
  337ACOH    C111593   7.440   6.674   3.891  0.6099  0.0291 -1.0569
  337ACOH    H111594   7.538   6.628   3.894 -0.7797 -3.0146  3.2578
  337ACOH    H211595   7.372   6.594   3.859  0.0180 -0.2320  0.7226
  337ACOH    H311596   7.422   6.722   3.988 -0.4407 -1.6058 -0.4066
  338ACOH    H411597   5.343   4.355   5.376  0.7414 -0.4373 -0.4255
  338ACOH    O211598   5.316   4.337   5.285  0.5907 -0.3204 -0.4043
  338ACOH    C211599   5.365   4.219   5.240 -0.6676  0.4239  1.4498
  338ACOH    O111600   5.369   4.119   5.308 -0.1740  0.2519 -0.0159
  338ACOH    C111601   5.344   4.208   5.098  0.3510 -0.7412 -0.8041
  338ACOH    H111602   5.421   4.257   5.040  0.8168 -0.2553  0.2210
  338ACOH    H211603   5.247   4.249   5.070 -0.3666 -2.7329 -1.3395
  338ACOH    H311604   5.355   4.105   5.063 -0.0498  0.0086 -3.2737
  339ACOH    H411605   4.711   0.252   5.453 -3.0103 -0.4293  1.4548
  339ACOH    O211606   4.757   0.235   5.537  0.6098  0.3926 -0.2299
  339ACOH    C211607   4.681   0.154   5.617  0.6374  0.1671  0.9854
  339ACOH    O111608   4.604   0.070   5.577 -0.3867  0.4340 -0.3600
  339ACOH    C111609   4.719   0.179   5.761 -0.7086 -0.0739  0.2655
  339ACOH    H111610   4.659   0.120   5.830  2.9697 -3.0736  1.0057
  339ACOH    H211611   4.699   0.282   5.792 -1.7570 -0.6845  1.6765
  339ACOH    H311612   4.823   0.158   5.784 -0.3637  2.2624  1.0591
  340ACOH    H411613   7.407   1.352   4.371 -0.5471  0.9315  0.0567
  340ACOH    O211614   7.430   1.368   4.465  0.3561 -0.0495  0.0063
  340ACOH    C211615   7.335   1.319   4.541 -0.1045  0.5476  0.0753
  340ACOH    O111616   7.238   1.270   4.494  0.6305  0.0001  0.2484
  340ACOH    C111617   7.370   1.330   4.683  0.2913  0.1585 -0.1422
  340ACOH    H111618   7.287   1.285   4.738  3.0011 -1.2296  3.0119
  340ACOH    H211619   7.391   1.430   4.721  1.1925 -0.1063  0.0775
  340ACOH    H311620   7.458   1.268   4.703 -0.2844 -0.1536  1.4820
  341ACOH    H411621   7.503   6.763   1.726  0.6994 -1.3825  0.3800
  341ACOH    O211622   7.522   6.784   1.633  0.0444 -0.4176  0.4545
  341ACOH    C211623   7.652   6.801   1.608 -0.4887 -0.1957  0.0056
  341ACOH    O111624   7.738   6.802   1.697 -0.4710  0.3786 -0.5076
  341ACOH    C111625   7.689   6.796   1.464  0.5607  0.2121 -0.0231
  341ACOH    H111626   7.642   6.709   1.417  0.1301  0.1623  0.4955
  341ACOH    H211627   7.797   6.792   1.452  0.4361 -0.4310 -1.0586
  341ACOH    H311628   7.658   6.887   1.413 -0.5113 -0.0781  0.0997
  342ACOH    H411629   1.987   9.166   1.351 -0.2248  0.8964 -0.8882
  342ACOH    O211630   2.008   9.098   1.284 -0.0895 -0.2678  0.3145
  342ACOH    C211631   1.992   9.152   1.160  0.2860 -0.4662 -0.6367
  342ACOH    O111632   1.943   9.262   1.134 -0.1569 -0.2868  0.1600
  342ACOH    C111633   2.046   9.067   1.053 -0.4697  0.5300  0.0996
  342ACOH    H111634   2.122   9.006   1.102 -1.9246 -0.4469  1.1870
  342ACOH    H211635   2.090   9.120   0.969  0.4243  0.9769  0.8415
  342ACOH    H311636   1.981   8.993   1.006  0.6678 -0.4955  0.1187
  343ACOH    H411637   7.438   9.041   0.493  4.2908 -1.0615 -0.7702
  343ACOH    O211638   7.433   9.075   0.402 -0.0412  0.2692 -0.1628
  343ACOH    C211639   7.307   9.112   0.380  0.1415  0.2771 -0.7608
  343ACOH    O111640   7.225   9.149   0.462 -0.0337 -0.1892  0.1616
  343ACOH    C111641   7.285   9.130   0.234  0.2519 -0.0477  0.0051
  343ACOH    H111642   7.373   9.101   0.176  0.5027  2.5487 -0.9899
  343ACOH    H211643   7.269   9.236   0.214 -1.0788  0.0082  1.3065
  343ACOH    H311644   7.201   9.070   0.198 -0.8001  0.6336  1.2921
  344ACOH    H411645   4.820   2.549   0.483  2.6090 -0.0600  1.2230
  344ACOH    O211646   4.833   2.453   0.486 -0.3832 -0.5403  0.1373
  344ACOH    C211647   4.722   2.400   0.437  0.9237  1.2251 -0.1430
  344ACOH    O111648   4.619   2.450   0.397 -0.6095  0.1172 -0.0443
  344ACOH    C111649   4.707   2.256   0.468 -0.6144  0.5290 -0.6708
  344ACOH    H111650   4.650   2.250   0.561  3.1606 -1.2582  1.6603
  344ACOH    H211651   4.811   2.229   0.486 -0.2095  1.9983 -0.7318
  344ACOH    H311652   4.646   2.214   0.389  0.3065 -1.0770 -0.5425
  345ACOH    H411653   5.576   0.304   1.414  1.6092 -1.1555 -0.0824
  345ACOH    O211654   5.637   0.379   1.421 -0.1363  0.2623  0.2423
  345ACOH    C211655   5.726   0.348   1.507 -0.1907 -0.3377  0.3185
  345ACOH    O111656   5.741   0.239   1.554  0.4314  0.6354  0.2230
  345ACOH    C111657   5.826   0.453   1.534  0.7162  0.5214  0.3510
  345ACOH    H111658   5.819   0.528   1.455  0.0122  0.0995  0.0056
  345ACOH    H211659   5.929   0.421   1.547  0.7255  0.9928  1.4824
  345ACOH    H311660   5.802   0.494   1.632  1.7455 -1.1041  1.2920
  346ACOH    H411661   2.907   5.668   0.235 -0.1066 -2.3543 -1.8846
  346ACOH    O211662   2.915   5.730   0.160 -0.1545  0.3598  0.2740
  346ACOH    C211663   2.930   5.854   0.209 -0.6221 -0.2375  0.1079
  346ACOH    O111664   2.995   5.886   0.314 -0.5139 -0.4975 -0.5551
  346ACOH    C111665   2.913   5.953   0.101  0.2025  0.1711 -0.2796
  346ACOH    H111666   2.918   6.053   0.145  2.5762  1.0066 -2.3612
  346ACOH    H211667   2.815   5.943   0.054 -0.3405  2.9731  0.1341
  346ACOH    H311668   2.986   5.940   0.022 -0.8838 -0.0548 -1.2488
  347ACOH    H411669   6.919   0.976   1.230  0.5286  0.9805  0.0364
  347ACOH    O211670   6.895   0.973   1.136 -0.4835  0.1669  0.3104
  347ACOH    C211671   6.767   0.975   1.127  0.0453 -0.1553  0.1959
  347ACOH    O111672   6.680   0.970   1.214 -0.1589 -0.2163  0.7360
  347ACOH    C111673   6.736   1.023   0.992 -0.2791 -0.3438  0.0016
  347ACOH    H111674   6.740   1.132   0.994  0.5278 -0.3641 -0.5352
  347ACOH    H211675   6.633   0.989   0.976 -0.2265 -1.3796  1.7162
  347ACOH    H311676   6.795   0.989   0.907 -2.0311  1.2869 -1.9217
  348ACOH    H411677   8.037   7.096   3.547 -0.8699  0.9636  0.5048
  348ACOH    O211678   7.986   7.018   3.573  0.2367 -0.0823 -0.4214
  348ACOH    C211679   7.905   7.058   3.674  0.1615 -1.3468  0.7372
  348ACOH    O111680   7.881   7.173   3.708  0.0836 -0.1515 -0.2634
  348ACOH    C111681   7.849   6.942   3.743  0.1737 -0.3047  0.3403
  348ACOH    H111682   7.749   6.957   3.784  0.5110  0.2345  0.9892
  348ACOH    H211683   7.917   6.927   3.827  1.2410  2.6206  0.0460
  348ACOH    H311684   7.861   6.854   3.680  1.3363 -0.2913  0.5388
  349ACOH    H411685   6.685   6.062   2.160 -0.7908  0.2373 -0.7840
  349ACOH    O211686   6.623   6.081   2.232 -0.1314  0.1319 -0.1805
  349ACOH    C211687   6.669   6.158   2.331 -0.1899 -0.1599  0.1018
  349ACOH    O111688   6.785   6.166   2.362 -0.3383 -0.6160 -0.1014
  349ACOH    C111689   6.563   6.186   2.433  0.7489  0.0447 -0.8424
  349ACOH    H111690   6.479   6.242   2.393  0.8225 -0.9431 -2.4270
  349ACOH    H211691   6.603   6.239   2.520 -1.8119 -0.1993  0.5295
  349ACOH    H311692   6.521   6.095   2.475  0.3096  0.6809  0.1178
  350ACOH    H411693   3.384   5.884   1.072 -0.0497  0.1543  0.7207
  350ACOH    O211694   3.437   5.872   0.991  0.1256  0.5003  0.7851
  350ACOH    C211695   3.506   5.985   0.971  0.1310  0.4249  0.0866
  350ACOH    O111696   3.483   6.093   1.025  0.5750  0.9573  0.2492
  350ACOH    C111697   3.572   5.952   0.840 -0.8302 -0.2327 -0.6702
  350ACOH    H111698   3.639   6.035   0.816  2.3708 -2.6750 -0.5013
  350ACOH    H211699   3.497   5.943   0.762 -0.1966  1.1144 -1.4549
  350ACOH    H311700   3.624   5.856   0.839 -0.8653 -0.2493 -0.9329
  351ACOH    H411701   5.114   3.773   1.079  0.3034  0.1325  0.4600
  351ACOH    O211702   5.100   3.867   1.060  0.1611  0.0509  0.1438
  351ACOH    C211703   5.052   3.877   0.936  0.2856  0.7285 -0.0658
  351ACOH    O111704   5.004   3.790   0.867  0.8000  0.1325  1.0305
  351ACOH    C111705   5.061   4.020   0.898 -0.3576  0.3500  0.6048
  351ACOH    H111706   5.116   4.065   0.981  2.7932 -1.6759 -0.3353
  351ACOH    H211707   4.960   4.060   0.883 -0.3171  0.1095 -0.3032
  351ACOH    H311708   5.118   4.022   0.806 -1.5330  1.4589 -0.1283
  352ACOH    H411709   4.710   3.883   3.566 -0.6942 -1.4869  0.2397
  352ACOH    O211710   4.619   3.903   3.595 -0.3044  0.2980  0.2903
  352ACOH    C211711   4.619   4.033   3.611  0.5918  0.4804  0.1224
  352ACOH    O111712   4.718   4.104   3.628  0.0211  0.2276 -0.0557
  352ACOH    C111713   4.483   4.083   3.641 -0.9170  0.0831 -0.1609
  352ACOH    H111714   4.467   4.059   3.746 -0.4986 -0.5782 -0.2483
  352ACOH    H211715   4.417   4.044   3.564 -1.7597 -1.5567  1.3435
  352ACOH    H311716   4.472   4.191   3.642 -2.3087 -0.0413 -0.5532
  353ACOH    H411717   2.013   2.342   3.365 -0.1135  1.3880  0.4113
  353ACOH    O211718   1.923   2.321   3.396 -0.0293 -0.0204 -0.2649
  353ACOH    C211719   1.880   2.226   3.311  0.3382  0.4198 -0.1924
  353ACOH    O111720   1.932   2.175   3.216 -0.3393 -1.0680  0.4163
  353ACOH    C111721   1.738   2.197   3.360  0.4457  1.0818 -0.0368
  353ACOH    H111722   1.744   2.126   3.443  0.6669  0.4121 -0.6254
  353ACOH    H211723   1.674   2.162   3.279 -0.3518  0.6184  0.7725
  353ACOH    H311724   1.693   2.284   3.408 -1.1438 -0.1434  0.7523
  354ACOH    H411725   4.519   5.645   0.786 -0.3302 -2.1360 -1.5390
  354ACOH    O211726   4.568   5.693   0.718 -0.2556  0.0511 -0.0085
  354ACOH    C211727   4.672   5.624   0.669  0.0011 -0.0420  0.7109
  354ACOH    O111728   4.689   5.504   0.687 -0.2811  0.4462  0.2776
  354ACOH    C111729   4.752   5.708   0.583 -0.1141 -0.4711  0.1201
  354ACOH    H111730   4.794   5.634   0.514 -0.5565  0.3893 -1.0913
  354ACOH    H211731   4.826   5.772   0.629 -0.0243 -1.0634  0.8194
  354ACOH    H311732   4.683   5.771   0.527 -1.6418 -0.8808  1.4941
  355ACOH    H411733   5.144   6.512   1.642  0.7495  1.3405  0.9741
  355ACOH    O211734   5.227   6.497   1.594 -0.1274  0.5899 -0.3328
  355ACOH    C211735   5.231   6.367   1.564 -1.0018  0.5926 -0.6914
  355ACOH    O111736   5.144   6.286   1.560  0.4043 -0.2134  0.0806
  355ACOH    C111737   5.363   6.333   1.513  0.4515 -0.1526  0.2344
  355ACOH    H111738   5.348   6.289   1.414 -1.2682  0.2582  0.2994
  355ACOH    H211739   5.403   6.251   1.573  1.2086  1.6168  2.2079
  355ACOH    H311740   5.435   6.414   1.513  0.6342 -0.3121  0.7988
  356ACOH    H411741   0.310   7.446   5.452  0.4923  1.2653 -0.5875
  356ACOH    O211742   0.353   7.421   5.536 -0.5478 -0.3495 -0.5065
  356ACOH    C211743   0.451   7.508   5.566 -0.1564  0.7237  0.5951
  356ACOH    O111744   0.490   7.604   5.500 -0.1712 -0.3229 -0.1081
  356ACOH    C111745   0.509   7.475   5.700  0.6072 -0.6064  0.2173
  356ACOH    H111746   0.604   7.527   5.713  1.0123 -0.9805 -1.1173
  356ACOH    H211747   0.524   7.368   5.714  1.8854 -0.2320  1.9509
  356ACOH    H311748   0.434   7.521   5.764  1.2404  1.5930 -0.5794
  357SOL     OW11749   3.250   2.949   1.534 -0.0678  0.5250 -0.6189
  357SOL    HW111750   3.290   2.889   1.466 -2.2281  0.4094 -1.8417
  357SOL    HW211751   3.317   3.018   1.562  1.0657  0.1517 -2.3624
  358SOL     OW11752   0.202   2.629   2.015  0.5394  0.3032  0.4084
  358SOL    HW111753   0.273   2.606   1.948  0.9027  0.4189  0.7532
  358SOL    HW211754   0.238   2.616   2.107 -0.4972 -1.4889  0.5704
  359SOL     OW11755   2.496   6.811   0.188  0.4158  0.0876 -0.3917
  359SOL    HW111756   2.436   6.888   0.208 -3.5234 -3.1295  1.0257
  359SOL    HW211757   2.525   6.768   0.274  1.3843 -0.8530 -1.1673
  360SOL     OW11758   9.101   6.328   1.321  0.3764 -0.1645  0.2105
  360SOL    HW111759   9.189   6.280   1.322  0.5337  0.0351 -1.9536
  360SOL    HW211760   9.114   6.422   1.292 -0.3783  0.2731  1.2605
  361SOL     OW11761   3.874   8.111   0.271 -0.5120 -0.5991  0.1993
  361SOL    HW111762   3.910   8.139   0.361 -0.6497 -1.2103  0.4469
  361SOL    HW211763   3.877   8.012   0.264 -1.2456 -0.5951 -0.1645
  362SOL     OW11764   8.839   0.772   0.708  0.0495  0.1150 -0.1203
  362SOL    HW111765   8.909   0.710   0.674 -0.7077 -0.1479 -1.2678
  362SOL    HW211766   8.775   0.722   0.767  0.8659  0.3694  0.9737
  363SOL     OW11767   8.914   9.401   0.276 -0.1836 -0.0312  0.4869
  363SOL    HW111768   8.890   9.304   0.267 -0.6900  0.2135 -0.8545
  363SOL    HW211769   8.944   9.419   0.370  0.0627 -1.5164  0.7039
  364SOL     OW11770   6.944   0.807   1.547  0.1867  0.4965  0.7077
  364SOL    HW111771   7.012   0.734   1.553  0.2049  0.3875 -0.6776
  364SOL    HW211772   6.853   0.768   1.560  0.0414 -0.1111 -1.8999
  365SOL     OW11773   6.841   1.349   3.127  0.1609 -0.0182 -0.1311
  365SOL    HW111774   6.891   1.314   3.206 -1.3435  2.0253  1.7822
  365SOL    HW211775   6.886   1.318   3.043  2.4907 -1.2332  1.4992
  366SOL     OW11776   8.973   8.194   3.511 -0.2621  0.7099  1.0084
  366SOL    HW111777   9.063   8.236   3.519 -0.5806  1.3947  0.9895
  366SOL    HW211778   8.983   8.100   3.478  0.5435  0.2754  2.4912
  367SOL     OW11779   5.744   0.598   3.280  0.5745 -0.3162 -0.3364
  367SOL    HW111780   5.744   0.681   3.225  1.2860 -0.3883 -0.4529
  367SOL    HW211781   5.655   0.587   3.325  1.0048  1.3860  0.9969
  368SOL     OW11782   3.693   8.716   5.221 -0.2966 -0.1061  0.4704
  368SOL    HW111783   3.757   8.740   5.149 -0.0884  2.4206  1.4344
  368SOL    HW211784   3.715   8.626   5.258  0.2594 -0.9364 -1.8468
  369SOL     OW11785   8.164   0.072   0.731  1.0053 -0.3345  0.3022
  369SOL    HW111786   8.087   0.023   0.691  1.6183 -0.3298 -0.9182
  369SOL    HW211787   8.136   0.113   0.818 -0.7969  0.8759 -0.7989
  370SOL     OW11788   7.922   8.018   1.846 -0.0050  0.0662 -0.6563
  370SOL    HW111789   7.836   7.968   1.838  0.7545 -1.4972  0.7306
  370SOL    HW211790   7.911   8.092   1.913  0.0124 -0.7959  0.3183
  371SOL     OW11791   6.242   7.266   1.676 -0.3416 -0.3963 -0.2421
  371SOL    HW111792   6.163   7.209   1.699  0.2798 -0.4783  1.7155
  371SOL    HW211793   6.321   7.208   1.659  0.1180 -0.1649  1.0702
  372SOL     OW11794   3.387   1.181   3.962  0.0500  0.2192 -0.0986
  372SOL    HW111795   3.350   1.093   3.932 -0.0613  0.3115 -0.2349
  372SOL    HW211796   3.421   1.231   3.882  0.6959  0.0301  0.0516
  373SOL     OW11797   4.555   3.785   1.573 -0.9974 -0.3664  0.2945
  373SOL    HW111798   4.619   3.710   1.558  0.6273  1.5476 -2.8560
  373SOL    HW211799   4.469   3.766   1.525 -0.2765  0.1590 -1.2206
  374SOL     OW11800   8.456   4.768   2.055  0.2766 -0.1637 -0.1433
  374SOL    HW111801   8.388   4.834   2.023  0.5501  0.2178  0.0506
  374SOL    HW211802   8.496   4.801   2.141  1.0161 -0.1748 -0.4810
  375SOL     OW11803   2.283   5.284   3.306 -0.2234  0.3236  0.2969
  375SOL    HW111804   2.323   5.252   3.220 -2.5211  1.2553 -1.1321
  375SOL    HW211805   2.279   5.383   3.307 -1.8744  0.2720  0.6936
  376SOL     OW11806   8.575   4.592   2.672  0.0993 -0.2486 -0.0631
  376SOL    HW111807   8.560   4.552   2.581  1.9649  0.5010 -0.7080
  376SOL    HW211808   8.622   4.526   2.730 -0.5820 -0.5148  0.1974
  377SOL     OW11809   8.398   3.323   3.127 -0.2236 -0.2017  0.5728
  377SOL    HW111810   8.427   3.417   3.108  2.3675 -1.5396 -2.6685
  377SOL    HW211811   8.299   3.315   3.117 -0.5000  2.2391  1.1760
  378SOL     OW11812   3.364   7.486   3.542  0.0179 -0.1556 -0.2833
  378SOL    HW111813   3.432   7.541   3.493 -1.4700  1.1076 -0.9802
  378SOL    HW211814   3.327   7.540   3.618 -1.9139  0.0448 -1.3489
  379SOL     OW11815   9.875   1.749   3.597 -0.1382  0.5643 -0.7529
  379SOL    HW111816   9.917   1.797   3.674 -0.0360  0.3593 -0.6815
  379SOL    HW211817   9.886   1.651   3.609 -1.2480  0.4811 -0.3818
  380SOL     OW11818   4.763   3.261   1.394 -0.0284 -0.5624 -0.0733
  380SOL    HW111819   4.800   3.332   1.334  0.2007  0.6941  1.5145
  380SOL    HW211820   4.683   3.220   1.351  0.5752 -0.2153 -1.5711
  381SOL     OW11821   4.409   9.064   0.341  0.0243 -0.5012  0.4087
  381SOL    HW111822   4.410   9.093   0.246  3.9309 -1.1553  0.1778
  381SOL    HW211823   4.377   8.969   0.347 -1.3988 -0.0613 -0.0933
  382SOL     OW11824   2.513   0.115   5.214 -0.2656 -0.8719 -0.7508
  382SOL    HW111825   2.550   0.034   5.259 -1.3391 -1.5295 -1.0552
  382SOL    HW211826   2.520   0.105   5.115 -0.6408 -0.7009 -0.7956
  383SOL     OW11827   7.711   2.445   0.861  0.4293  0.8251 -0.0915
  383SOL    HW111828   7.774   2.461   0.936  2.0334  0.9593 -1.4311
  383SOL    HW211829   7.627   2.403   0.895  2.5787 -2.5202  1.3055
  384SOL     OW11830   1.952   8.363   2.496 -0.1772  0.3560 -0.0761
  384SOL    HW111831   2.022   8.435   2.505  0.8977 -0.2343 -3.1523
  384SOL    HW211832   1.869   8.392   2.544  1.8306  1.4676  2.9131
  385SOL     OW11833   9.083   8.203   1.986 -0.5858 -0.2676  0.1025
  385SOL    HW111834   9.125   8.214   2.076  0.6762 -0.6746 -0.4251
  385SOL    HW211835   9.005   8.139   1.992  1.2701 -2.5734  0.3871
  386SOL     OW11836   5.577   8.138   2.022 -0.3108  0.2902  0.2053
  386SOL    HW111837   5.587   8.094   2.111 -2.1973  0.1066  0.3603
  386SOL    HW211838   5.543   8.072   1.956  0.0248  0.7017 -0.3824
  387SOL     OW11839   3.011   9.468   2.911  0.8726 -0.0322  0.1682
  387SOL    HW111840   2.990   9.552   2.861  1.5066  0.3761  0.5766
  387SOL    HW211841   2.952   9.461   2.991 -0.7946 -1.1592 -1.1369
  388SOL     OW11842   1.536   5.697   0.603 -0.1541  0.1992 -0.6784
  388SOL    HW111843   1.607   5.689   0.533 -0.2039  1.7884 -0.9406
  388SOL    HW211844   1.558   5.639   0.681  2.3959  2.0681  0.0324
  389SOL     OW11845   8.430   3.360   0.659  0.5521 -0.1786  0.6791
  389SOL    HW111846   8.409   3.457   0.645 -1.5377 -0.6497  0.4448
  389SOL    HW211847   8.346   3.307   0.658  1.6353 -1.9539  1.3187
  390SOL     OW11848   1.034   0.712   3.505 -0.1933 -0.2661 -0.0511
  390SOL    HW111849   0.943   0.719   3.545  0.3724  0.7374  1.0833
  390SOL    HW211850   1.042   0.625   3.456 -0.8351 -1.6574  2.2439
  391SOL     OW11851   7.975   6.534   3.618  0.0361  0.5058  0.4172
  391SOL    HW111852   7.968   6.437   3.638  0.0593  0.1667 -1.1821
  391SOL    HW211853   7.892   6.581   3.651 -0.6824 -0.3001 -0.2301
  392SOL     OW11854   5.165   0.887   0.518  0.0164  0.4054  0.4628
  392SOL    HW111855   5.110   0.946   0.578 -0.8093  0.6411 -0.5135
  392SOL    HW211856   5.254   0.930   0.502  0.0444  0.5915  1.0894
  393SOL     OW11857   0.554   2.065   5.185 -0.3754 -0.2139 -0.2972
  393SOL    HW111858   0.605   2.149   5.168  1.4410 -0.9731  1.1947
  393SOL    HW211859   0.591   1.991   5.130  0.1553 -0.7654  0.7785
  394SOL     OW11860   8.728   1.452   0.969 -0.2484  0.2500 -0.2746
  394SOL    HW111861   8.665   1.375   0.954  0.4229 -0.3685  0.0115
  394SOL    HW211862   8.704   1.527   0.908 -1.2003 -0.0180 -0.2337
  395SOL     OW11863   3.805   1.113   0.918  0.0874 -0.4934  0.2468
  395SOL    HW111864   3.900   1.132   0.940  0.1827 -1.8217  1.0628
  395SOL    HW211865   3.767   1.048   0.984 -1.6736  0.7480  0.5014
  396SOL     OW11866   2.097   6.789   3.315  0.0948 -0.7952  0.1555
  396SOL    HW111867   2.046   6.823   3.394 -1.6975 -0.4331 -1.1464
  396SOL    HW211868   2.195   6.796   3.335 -0.1171  4.7375  0.1953
  397SOL     OW11869   3.092   1.057   5.368  0.5939  0.0676 -0.3016
  397SOL    HW111870   3.149   1.002   5.428 -0.3896  0.2971  0.8568
  397SOL    HW211871   3.085   1.013   5.278  0.1105 -1.5018  0.4974
  398SOL     OW11872   9.043   7.589   1.943  0.7011  0.6312  0.0150
  398SOL    HW111873   9.052   7.492   1.917 -0.9260  0.2598  0.7594
  398SOL    HW211874   9.070   7.600   2.038  0.7183  0.8846 -0.0203
  399SOL     OW11875   1.028   9.503   2.331  0.2471  0.5448 -0.1900
  399SOL    HW111876   0.961   9.438   2.297  1.7087 -0.9704 -0.2303
  399SOL    HW211877   1.043   9.575   2.263 -0.3924  0.1825 -0.7122
  400SOL     OW11878   8.000   1.776   2.080  0.2666  0.4385 -0.0562
  400SOL    HW111879   8.066   1.847   2.105  0.1451  0.1094  1.2282
  400SOL    HW211880   7.950   1.805   1.999  0.2015  1.8428  0.4665
  401SOL     OW11881   3.052   9.396   0.713  0.4365 -0.3759  0.2866
  401SOL    HW111882   3.022   9.481   0.755 -0.5220 -0.6673  0.2062
  401SOL    HW211883   3.150   9.383   0.729  0.3201  0.0985  1.4020
  402SOL     OW11884   2.819   0.322   1.594  0.1998  0.8450  0.2308
  402SOL    HW111885   2.916   0.320   1.570  0.0567  0.6980 -0.3627
  402SOL    HW211886   2.772   0.387   1.535 -0.4040 -0.5404 -0.8437
  403SOL     OW11887   0.182   0.731   4.121  0.1592 -0.1248  0.7347
  403SOL    HW111888   0.260   0.669   4.128  0.8683  0.8033  1.2645
  403SOL    HW211889   0.115   0.710   4.192  0.4809 -0.1783  1.0232
  404SOL     OW11890   9.463   3.392   1.683  0.6099  0.2732 -0.2733
  404SOL    HW111891   9.395   3.365   1.751 -0.4780  0.5607 -1.2370
  404SOL    HW211892   9.551   3.409   1.729  0.0011  0.0758  0.9986
  405SOL     OW11893   3.754   9.022   4.281 -0.2924 -0.5596 -0.0001
  405SOL    HW111894   3.850   9.046   4.274  0.3299 -2.8869  0.3526
  405SOL    HW211895   3.744   8.926   4.307 -2.7146 -0.9328 -2.0494
  406SOL     OW11896   4.110   2.942   5.390 -0.0307  0.4403 -0.4772
  406SOL    HW111897   4.198   2.899   5.374 -0.5022 -0.9363  0.5580
  406SOL    HW211898   4.107   2.980   5.483 -0.0274  1.7285 -0.9927
  407SOL     OW11899   1.764   7.921   2.066 -0.7040 -0.0651 -0.2776
  407SOL    HW111900   1.848   7.874   2.095 -0.2308  1.2278  0.4921
  407SOL    HW211901   1.710   7.860   2.008  0.0801 -1.4195  0.3937
  408SOL     OW11902   8.206   9.816   2.029 -0.8592  0.2748  0.0008
  408SOL    HW111903   8.250   9.760   1.958 -3.1063 -0.0309 -1.1943
  408SOL    HW211904   8.109   9.793   2.033 -1.1813  1.8993  1.6654
  409SOL     OW11905   8.273   9.272   0.788  0.0294 -0.1554 -0.1618
  409SOL    HW111906   8.291   9.313   0.699 -0.2864  0.9982  0.3025
  409SOL    HW211907   8.203   9.324   0.836 -1.0464 -1.7716  0.0716
  410SOL     OW11908   1.902   6.352   4.723  0.3002  0.0239  0.0188
  410SOL    HW111909   1.882   6.271   4.778 -2.0161  0.1679 -0.5682
  410SOL    HW211910   1.912   6.431   4.783  0.4311 -0.3057  0.4330
  411SOL     OW11911   4.904   7.650   2.178 -0.4588  0.1654 -0.5100
  411SOL    HW111912   4.954   7.601   2.250 -0.3357  1.2053  0.1296
  411SOL    HW211913   4.810   7.666   2.208 -0.3327  0.8349 -0.4621
  412SOL     OW11914   5.525   4.159   0.025 -0.0917 -0.5331  0.4738
  412SOL    HW111915   5.500   4.150   0.122 -2.0360  0.4353  0.0997
  412SOL    HW211916   5.443   4.183  -0.028  1.0343 -0.6423 -1.3538
  413SOL     OW11917   1.048   7.714   1.725  0.4987  0.8245 -0.4942
  413SOL    HW111918   1.097   7.715   1.813  0.8637 -0.9687 -0.6597
  413SOL    HW211919   1.105   7.757   1.655  1.8220 -1.1345 -0.6548
  414SOL     OW11920   3.291   3.066   3.924  0.5650  0.0051 -0.7927
  414SOL    HW111921   3.260   3.006   3.851 -0.1161 -1.8674  0.9712
  414SOL    HW211922   3.263   3.160   3.905 -2.2015 -0.9078 -1.5120
  415SOL     OW11923   9.318   2.553   0.482  0.4622  0.0557  0.2888
  415SOL    HW111924   9.297   2.558   0.384  0.9222  1.1072  0.2440
  415SOL    HW211925   9.270   2.474   0.521 -1.3477  0.7854 -0.3851
  416SOL     OW11926   1.169   5.712   2.023  0.0692  0.4203 -0.4820
  416SOL    HW111927   1.128   5.681   2.109 -0.8226  0.9943 -0.7010
  416SOL    HW211928   1.098   5.749   1.963  0.8195  0.8729 -1.1027
  417SOL     OW11929   3.544   2.224   5.023  0.0359 -0.2974 -0.1443
  417SOL    HW111930   3.481   2.165   4.972 -0.0660  0.4224 -0.8673
  417SOL    HW211931   3.495   2.272   5.095  0.3848 -2.1216  1.3417
  418SOL     OW11932   8.329   0.501   2.857 -0.1446  0.6711  0.6044
  418SOL    HW111933   8.322   0.487   2.956 -0.2148 -2.3823  0.2360
  418SOL    HW211934   8.410   0.556   2.837 -0.4872  1.8698  2.3832
  419SOL     OW11935   1.205   3.339   1.551  0.2407  0.1889 -1.0145
  419SOL    HW111936   1.240   3.246   1.563  3.1705  1.3382 -0.1253
  419SOL    HW211937   1.231   3.373   1.461 -0.5964  0.2343 -1.2360
  420SOL     OW11938   9.855   4.089   2.231  0.0517 -0.1600  0.0349
  420SOL    HW111939   9.844   4.001   2.278 -0.2555 -0.0747  0.1243
  420SOL    HW211940   9.768   4.116   2.189  0.3536 -0.2846 -0.6740
  421SOL     OW11941   1.472   1.196   0.146  0.0921 -0.3886 -0.3551
  421SOL    HW111942   1.406   1.228   0.078  2.0906  1.0842 -1.6364
  421SOL    HW211943   1.549   1.151   0.100 -0.5422 -3.1807  1.1884
  422SOL     OW11944   3.519   7.430   5.512 -0.4656  0.2759 -0.5562
  422SOL    HW111945   3.572   7.347   5.532  0.2274  1.1734  1.5009
  422SOL    HW211946   3.545   7.465   5.422 -0.0059 -1.1549 -0.9987
  423SOL     OW11947   1.111   7.479   3.221  0.2161  0.7997 -0.1874
  423SOL    HW111948   1.204   7.469   3.257 -0.4949 -0.0240  1.4968
  423SOL    HW211949   1.062   7.548   3.275 -0.5303  0.3412 -0.2705
  424SOL     OW11950   1.449   0.356   4.177  0.5162 -0.0062 -0.6370
  424SOL    HW111951   1.483   0.414   4.251 -0.9586 -0.2603  0.2732
  424SOL    HW211952   1.412   0.414   4.104 -1.7229  0.2587  0.6386
  425SOL     OW11953   5.997   9.926   3.003  0.3175 -0.0745 -0.2476
  425SOL    HW111954   6.093   9.927   2.973  1.2119 -1.5892  2.3817
  425SOL    HW211955   5.979  10.007   3.059  1.5049 -2.1237  3.2747
  426SOL     OW11956   9.361   7.344   3.954 -0.1961 -0.6360 -0.1805
  426SOL    HW111957   9.332   7.413   3.888 -2.3828  0.6160  1.9774
  426SOL    HW211958   9.281   7.304   3.997  1.1526  0.0748  3.1566
  427SOL     OW11959   6.946   9.124   1.897 -0.5953  0.2849  0.1918
  427SOL    HW111960   7.031   9.174   1.915 -0.2904 -0.0274 -0.3510
  427SOL    HW211961   6.925   9.129   1.799 -0.0967 -1.3597 -0.0105
  428SOL     OW11962   1.521   9.783   1.328  0.1930  0.4333  0.2909
  428SOL    HW111963   1.433   9.830   1.322 -0.2843 -0.1324  2.4049
  428SOL    HW211964   1.534   9.724   1.249 -1.4131  0.3870  0.0611
  429SOL     OW11965   3.267   1.667   4.651  0.4923  0.5559  0.4845
  429SOL    HW111966   3.300   1.592   4.708  1.3664  0.2515 -0.4107
  429SOL    HW211967   3.304   1.658   4.558 -1.8346  0.3918 -0.4673
  430SOL     OW11968   9.077   6.465   2.466 -0.3515  0.1251  0.6983
  430SOL    HW111969   9.053   6.474   2.370  1.8464 -0.0725  0.0947
  430SOL    HW211970   9.120   6.376   2.482  2.1859  1.3696  1.1680
  431SOL     OW11971   3.443   7.465   2.459 -0.0977  0.0532 -0.2449
  431SOL    HW111972   3.540   7.474   2.436 -0.3710  0.7383 -1.1987
  431SOL    HW211973   3.427   7.496   2.553  0.6496 -0.3383  0.0120
  432SOL     OW11974   1.860   4.283   1.930  0.0405  0.0061 -0.4632
  432SOL    HW111975   1.805   4.343   1.871 -0.2298  1.0131  0.7943
  432SOL    HW211976   1.883   4.199   1.880  1.3402  1.6063 -2.6477
  433SOL     OW11977   1.637   0.290   5.223  0.3573  0.1365 -0.0652
  433SOL    HW111978   1.692   0.332   5.151  0.3148  0.3686  0.0379
  433SOL    HW211979   1.608   0.199   5.194  1.8997 -0.5178  0.4048
  434SOL     OW11980   7.091   2.027   3.387 -0.7220 -0.0431  0.4345
  434SOL    HW111981   7.067   1.941   3.340  0.1371 -0.3592  0.5706
  434SOL    HW211982   7.136   2.006   3.473  0.3875  0.5492 -0.0008
  435SOL     OW11983   3.341   6.267   2.226 -0.1392  0.0251 -0.1391
  435SOL    HW111984   3.415   6.321   2.266  1.8399 -2.5999 -0.1614
  435SOL    HW211985   3.283   6.231   2.299  0.7812 -0.9558  0.1234
  436SOL     OW11986   6.866   9.406   1.508  0.0534 -0.3812  0.1164
  436SOL    HW111987   6.953   9.425   1.462 -0.7088  1.8974 -0.4217
  436SOL    HW211988   6.803   9.361   1.444  0.8936 -2.3256  0.5960
  437SOL     OW11989   6.563   7.884   1.268 -0.1669 -0.0333  0.4277
  437SOL    HW111990   6.478   7.931   1.292  0.3886  0.7829  0.7883
  437SOL    HW211991   6.631   7.950   1.238  0.1604 -0.7468 -0.4137
  438SOL     OW11992   1.093   3.603   1.029 -0.4448  0.1262  0.2860
  438SOL    HW111993   1.033   3.534   1.069  0.2745 -0.7627 -0.1543
  438SOL    HW211994   1.046   3.648   0.953  0.3119 -2.3355 -1.7187
  439SOL     OW11995   2.490   5.577   0.816 -0.3616 -0.1608 -0.0619
  439SOL    HW111996   2.526   5.514   0.748  1.2492 -0.6971  1.2514
  439SOL    HW211997   2.547   5.659   0.821 -2.2040  1.2554 -1.4603
  440SOL     OW11998   4.703   9.375   1.291  0.3455  0.5282  0.4211
  440SOL    HW111999   4.739   9.405   1.203 -0.8533 -0.2865 -0.3532
  440SOL    HW212000   4.723   9.445   1.361  3.0845  0.2417 -0.0530
  441SOL     OW12001   3.665   5.103   1.118  0.4360  0.0072 -0.2042
  441SOL    HW112002   3.678   5.046   1.199  0.4413  0.5254  0.1634
  441SOL    HW212003   3.738   5.170   1.112 -1.7529  2.6619  1.6390
  442SOL     OW12004   0.622   5.511   2.028 -0.7075  0.0048  0.0838
  442SOL    HW112005   0.718   5.508   2.001 -0.3558 -0.9981  1.3498
  442SOL    HW212006   0.578   5.425   2.001 -0.8831 -0.1175  0.7559
  443SOL     OW12007   0.486   7.697   3.253 -0.9984  0.7673 -1.0324
  443SOL    HW112008   0.498   7.604   3.220 -3.2272  0.0843 -0.0482
  443SOL    HW212009   0.514   7.702   3.349 -0.2214  1.2944 -1.2806
  444SOL     OW12010   4.072   7.645   1.605  0.0864 -0.4172  0.3188
  444SOL    HW112011   4.047   7.724   1.549 -0.2859 -1.8686 -1.6137
  444SOL    HW212012   4.001   7.629   1.674 -0.7430 -0.1453 -0.4642
  445SOL     OW12013   9.938   1.414   3.835  0.7371  0.1246  0.2307
  445SOL    HW112014   9.886   1.412   3.750 -0.2201  1.3470  0.7783
  445SOL    HW212015   9.897   1.351   3.901  0.8058  0.0145  0.1679
  446SOL     OW12016   1.442   1.915   1.844  0.2166 -0.0842  0.0231
  446SOL    HW112017   1.442   1.815   1.836 -1.1647 -0.0302 -0.7240
  446SOL    HW212018   1.479   1.954   1.760  0.4216  0.0495  0.1747
  447SOL     OW12019   0.147   7.221   2.008  0.0108  0.2518  0.1263
  447SOL    HW112020   0.122   7.314   1.980 -0.0074 -0.0598 -0.9017
  447SOL    HW212021   0.246   7.211   2.004 -0.0118  0.1176 -0.1181
  448SOL     OW12022   7.151   9.806   4.047  0.3060 -0.1826 -1.2547
  448SOL    HW112023   7.091   9.856   3.983 -1.4506 -1.0778 -0.3548
  448SOL    HW212024   7.215   9.870   4.089 -0.4281  0.9301 -1.7809
  449SOL     OW12025   9.001   0.203   3.452 -0.5548 -0.2431 -0.7339
  449SOL    HW112026   8.971   0.285   3.403  2.4814  0.5579 -1.3224
  449SOL    HW212027   8.993   0.219   3.551 -0.8625  0.4152 -0.8624
  450SOL     OW12028   2.570   3.173   5.353 -0.5953  0.0753 -0.6171
  450SOL    HW112029   2.579   3.089   5.299 -0.2676  0.0444 -0.5172
  450SOL    HW212030   2.483   3.171   5.402 -0.1954 -0.6228  0.0875
  451SOL     OW12031   5.665   9.036   2.963 -0.2579  0.2352  0.1327
  451SOL    HW112032   5.756   8.995   2.965 -1.1642 -2.1019 -2.5001
  451SOL    HW212033   5.625   9.032   3.054  1.5538 -0.4205  0.9273
  452SOL     OW12034   0.521   8.175   5.627  0.0144  0.2955  0.2009
  452SOL    HW112035   0.423   8.156   5.623 -0.2020  1.1650  1.1533
  452SOL    HW212036   0.564   8.110   5.690 -0.2105  0.8792  0.9747
  453SOL     OW12037   1.231   3.027   0.217  0.1711  0.6388 -0.5506
  453SOL    HW112038   1.270   3.090   0.285 -0.8089  1.3540 -0.6324
  453SOL    HW212039   1.287   3.028   0.135  0.4646  1.0114 -0.3487
  454SOL     OW12040   9.052   0.370   2.812  0.3236 -0.2763 -0.5367
  454SOL    HW112041   9.016   0.279   2.831 -0.5279  0.2939  0.6350
  454SOL    HW212042   9.014   0.435   2.877  0.2093  1.0855 -1.9366
  455SOL     OW12043   1.464   4.917   1.358 -0.1258 -0.3628 -0.6889
  455SOL    HW112044   1.531   4.978   1.316  0.5196 -0.5390  0.0887
  455SOL    HW212045   1.470   4.826   1.316  0.9026 -0.6959  0.1480
  456SOL     OW12046   3.062   9.774   1.556 -0.4970 -0.2416 -0.1955
  456SOL    HW112047   2.966   9.754   1.576 -0.4818  0.7773  0.9957
  456SOL    HW212048   3.116   9.691   1.567 -1.1819 -0.7376 -0.4990
  457SOL     OW12049   4.710   4.753   0.960 -0.0353 -0.4321  0.2168
  457SOL    HW112050   4.761   4.814   0.899 -1.0302  0.3574  0.1813
  457SOL    HW212051   4.649   4.806   1.018  0.6165 -1.2150  1.6482
  458SOL     OW12052   8.264   4.095   2.093  0.3662  0.2371 -0.1351
  458SOL    HW112053   8.344   4.137   2.051  1.4685 -1.7206 -0.0551
  458SOL    HW212054   8.270   4.104   2.192 -0.2340  1.3187 -0.1847
  459SOL     OW12055   2.529   5.619   3.149  0.1142  0.8438  0.1393
  459SOL    HW112056   2.555   5.628   3.245 -0.7981  2.1659  0.2779
  459SOL    HW212057   2.580   5.544   3.107  3.1370  2.5294  0.7204
  460SOL     OW12058   7.127   8.618   3.493 -0.5792  0.1649  0.3258
  460SOL    HW112059   7.082   8.708   3.489  0.6464  0.8451  1.5437
  460SOL    HW212060   7.057   8.547   3.486 -1.6791  1.2075  0.3870
  461SOL     OW12061   7.478   7.218   3.702 -0.5285  0.4347  0.3199
  461SOL    HW112062   7.499   7.293   3.639 -0.2973 -0.9430 -1.2686
  461SOL    HW212063   7.379   7.210   3.713 -0.5508  1.0495  0.6025
  462SOL     OW12064   4.110   9.368   3.541 -0.1850  0.0882 -0.1993
  462SOL    HW112065   4.189   9.386   3.600  0.4634  0.0995 -1.0703
  462SOL    HW212066   4.076   9.454   3.504 -1.1523  0.1757  0.8614
  463SOL     OW12067   1.613   9.500   2.171 -0.6548 -0.1075  0.6948
  463SOL    HW112068   1.629   9.446   2.088 -0.4530 -0.1961  0.7900
  463SOL    HW212069   1.515   9.510   2.187 -0.6898 -0.4829  0.7011
  464SOL     OW12070   8.094   9.732   5.458 -0.8594 -0.6602  0.1818
  464SOL    HW112071   8.145   9.800   5.511 -0.0592  0.1229 -1.5307
  464SOL    HW212072   8.142   9.714   5.372 -1.5002 -2.7990  0.2438
  465SOL     OW12073   1.047   4.129   1.865  0.2269  0.0871  0.1084
  465SOL    HW112074   1.029   4.159   1.958 -1.1593  3.5347 -1.1868
  465SOL    HW212075   0.969   4.076   1.831  0.4657 -0.6366  0.6845
  466SOL     OW12076   4.456   9.384   1.150  0.0281  0.6140  0.0192
  466SOL    HW112077   4.538   9.395   1.205 -0.0715 -0.0620  0.3138
  466SOL    HW212078   4.377   9.423   1.198  0.2263  1.5585 -0.4095
  467SOL     OW12079   7.147   7.243   2.459 -1.5695  0.3535  0.2564
  467SOL    HW112080   7.088   7.172   2.496 -3.0263  0.9848 -0.8317
  467SOL    HW212081   7.130   7.329   2.508  1.2260 -0.3370  2.5744
  468SOL     OW12082   4.281   1.180   5.414  0.2842 -0.2002 -0.2677
  468SOL    HW112083   4.380   1.184   5.406  0.1597  0.5601 -1.6172
  468SOL    HW212084   4.239   1.233   5.340 -1.1445 -1.6269 -0.5105
  469SOL     OW12085   3.921   3.153   2.763 -0.6166 -0.2202 -0.1370
  469SOL    HW112086   3.908   3.205   2.848 -2.0412 -1.2564  0.3053
  469SOL    HW212087   3.875   3.200   2.688 -1.2281 -0.4252  0.1056
  470SOL     OW12088   4.048   2.247   4.334  0.6260 -0.1255 -0.2374
  470SOL    HW112089   4.098   2.315   4.280  1.5609  0.1113  0.9247
  470SOL    HW212090   3.953   2.245   4.303  0.7366  1.2449 -0.7275
  471SOL     OW12091   1.941   9.276   4.269  0.1469  0.5284  0.5223
  471SOL    HW112092   2.017   9.212   4.283 -0.7891 -0.7152 -0.0382
  471SOL    HW212093   1.974   9.369   4.283  2.5012  0.2384 -2.4119
  472SOL     OW12094   3.496   5.241   1.381  0.0909 -0.5875 -0.0280
  472SOL    HW112095   3.490   5.332   1.423  0.4084 -1.3517  1.7202
  472SOL    HW212096   3.525   5.251   1.286 -1.7668  1.2612 -0.4457
  473SOL     OW12097   4.576   9.163   2.580  0.0309 -0.5267  0.2580
  473SOL    HW112098   4.499   9.105   2.608 -1.3568  1.7571  1.3071
  473SOL    HW212099   4.573   9.177   2.481 -0.9686 -0.3938  0.3020
  474SOL     OW12100   5.884   7.022   3.175  0.2029  0.3930 -0.8331
  474SOL    HW112101   5.795   7.048   3.213  1.2750  0.2001  1.9707
  474SOL    HW212102   5.909   7.085   3.102 -1.6612  1.2174 -0.7883
  475SOL     OW12103   3.943   9.575   1.497  0.0542  0.0701 -0.6417
  475SOL    HW112104   4.027   9.613   1.459 -0.3381  2.3866  0.7170
  475SOL    HW212105   3.878   9.558   1.423  1.4066 -0.9662 -1.6056
  476SOL     OW12106   4.493   3.698   2.903  0.4811 -0.1493 -0.3523
  476SOL    HW112107   4.448   3.710   2.992  1.3721 -0.6074  0.1671
  476SOL    HW212108   4.424   3.697   2.831 -0.1687  1.1791  0.2448
  477SOL     OW12109   4.725   8.372   0.413 -0.1192  0.2821  0.2676
  477SOL    HW112110   4.713   8.341   0.507  1.4948  0.0374  0.4079
  477SOL    HW212111   4.699   8.299   0.350  2.4703 -0.9711  0.5817
  478SOL     OW12112   8.703   9.427   3.123 -0.3402  0.4516 -0.5362
  478SOL    HW112113   8.709   9.456   3.027  2.3219  1.7889 -0.0223
  478SOL    HW212114   8.756   9.343   3.135  0.0789  0.7762 -0.0797
  479SOL     OW12115   7.604   0.266   0.225 -0.6366 -0.1736  0.2580
  479SOL    HW112116   7.579   0.179   0.268  1.3531 -1.7869 -1.7778
  479SOL    HW212117   7.523   0.305   0.180 -1.7874 -0.3930  2.0513
  480SOL     OW12118   2.820   4.382   4.658  0.2235 -0.4461  0.0966
  480SOL    HW112119   2.863   4.405   4.746  1.2517 -1.5976 -0.0978
  480SOL    HW212120   2.763   4.301   4.670 -1.4918  0.7461  0.2242
  481SOL     OW12121   1.735   2.953   2.479  0.0120 -0.2425 -0.0442
  481SOL    HW112122   1.722   2.870   2.533  0.3119 -0.4897 -0.3537
  481SOL    HW212123   1.776   3.024   2.537  0.0452 -0.4059  0.1339
  482SOL     OW12124   5.062   0.211   1.951  0.2715  0.0804  0.1429
  482SOL    HW112125   5.025   0.276   2.017 -0.4117  0.7748 -0.9114
  482SOL    HW212126   5.133   0.156   1.995  1.6079  2.2382  0.7678
  483SOL     OW12127   8.210   9.918   5.617  1.3194  0.1924  0.2357
  483SOL    HW112128   8.212   9.941   5.714  1.8851  1.8029 -0.1304
  483SOL    HW212129   8.161   9.990   5.567  1.9442 -0.0783 -0.7891
  484SOL     OW12130   4.049   1.179   3.594  0.3527  0.6203 -0.1709
  484SOL    HW112131   4.015   1.193   3.501 -1.7158 -0.9187  0.3079
  484SOL    HW212132   4.044   1.081   3.616  1.7328  0.8477  1.2337
  485SOL     OW12133   7.397   0.915   2.017 -0.3627  0.2094  0.8446
  485SOL    HW112134   7.399   1.013   1.998 -0.9666  0.4428  1.9319
  485SOL    HW212135   7.443   0.897   2.104 -0.5107 -0.4320  0.7908
  486SOL     OW12136   0.603   7.311   3.826  0.1366  0.4123  0.4100
  486SOL    HW112137   0.642   7.278   3.740 -2.1276 -0.9875 -0.1326
  486SOL    HW212138   0.622   7.244   3.898  1.5496  1.3228  0.9253
  487SOL     OW12139   3.967   2.602   4.525  0.4837 -0.0272  0.4370
  487SOL    HW112140   3.955   2.509   4.490  0.0413  0.1141  0.2099
  487SOL    HW212141   3.917   2.613   4.611  1.2325 -0.2509  0.9055
  488SOL     OW12142   8.587   5.996   2.512  0.1490 -0.0239 -0.3758
  488SOL    HW112143   8.679   6.021   2.482  0.0611  0.7296 -0.0137
  488SOL    HW212144   8.549   6.069   2.569 -0.9736  0.0106 -1.1447
  489SOL     OW12145   1.271   1.607   0.107  0.4792  0.3785  0.3755
  489SOL    HW112146   1.179   1.641   0.128  0.0801 -0.2273 -0.3673
  489SOL    HW212147   1.301   1.643   0.019  0.1281 -1.0277 -0.3281
  490SOL     OW12148   2.413   6.697   3.982 -0.9066 -0.5124  0.2687
  490SOL    HW112149   2.477   6.624   4.006 -0.3621 -0.0121  0.3799
  490SOL    HW212150   2.440   6.739   3.895 -2.2059 -1.5542 -0.6545
  491SOL     OW12151   6.793   7.924   1.533  0.7295  0.1524 -0.1074
  491SOL    HW112152   6.807   7.848   1.597 -0.4101  0.4084  0.4628
  491SOL    HW212153   6.712   7.975   1.560  1.1958  1.2663 -0.7944
  492SOL     OW12154   1.997   1.987   0.149  0.3003  0.7146 -0.6260
  492SOL    HW112155   1.981   1.969   0.052  1.9379 -0.1145 -0.7582
  492SOL    HW212156   2.020   2.084   0.162  0.9682  0.6378 -1.1970
  493SOL     OW12157   5.867   1.432   3.728  0.4639  0.1174 -0.2142
  493SOL    HW112158   5.896   1.415   3.822  1.2424  0.1345 -0.4530
  493SOL    HW212159   5.934   1.394   3.664  0.1657  0.5000 -0.7646
  494SOL     OW12160   2.019   3.184   0.408 -0.1229 -0.1445 -0.3213
  494SOL    HW112161   1.930   3.156   0.372  0.4095  0.2848 -2.0229
  494SOL    HW212162   2.037   3.279   0.382  0.7621 -0.1784  0.1511
  495SOL     OW12163   1.279   6.900   3.545 -0.3670  0.1735 -0.0091
  495SOL    HW112164   1.267   6.967   3.618 -0.8753 -0.9256  0.9421
  495SOL    HW212165   1.208   6.830   3.552  0.1811 -0.4889 -0.9465
  496SOL     OW12166   1.438   8.870   0.527  0.5012  0.0554  0.3800
  496SOL    HW112167   1.387   8.824   0.454  2.4323 -1.8620  0.1858
  496SOL    HW212168   1.536   8.860   0.511  0.9555  1.6316  2.0058
  497SOL     OW12169   7.552   7.967   1.418 -0.8687  0.0693  0.4036
  497SOL    HW112170   7.472   7.999   1.468 -0.6338 -0.5480  1.1879
  497SOL    HW212171   7.611   7.913   1.479  0.3006  0.7660 -0.0794
  498SOL     OW12172   1.856   8.464   3.860 -0.7482  0.3323 -0.0584
  498SOL    HW112173   1.924   8.465   3.787 -0.8930 -0.0403 -0.2014
  498SOL    HW212174   1.800   8.382   3.852 -0.7274  0.2596  0.5101
  499SOL     OW12175   1.441   2.987   1.743 -0.5121  0.5126 -0.3777
  499SOL    HW112176   1.532   3.030   1.746 -0.9056  1.3102  0.4086
  499SOL    HW212177   1.418   2.953   1.833 -0.7609 -0.1909 -0.7089
  500SOL     OW12178   0.513   0.362   0.421  0.1716  0.2864 -0.0151
  500SOL    HW112179   0.463   0.405   0.347  2.6916  0.6980 -1.5446
  500SOL    HW212180   0.543   0.432   0.486 -0.8349  0.0896  0.6772
  501SOL     OW12181   1.649   8.745   1.844  0.5666  0.9810 -0.0580
  501SOL    HW112182   1.745   8.718   1.846  0.0811 -0.7782  0.4386
  501SOL    HW212183   1.624   8.786   1.932  0.7715  1.1531 -0.0775
  502SOL     OW12184   7.417   1.844   2.669  0.0589 -0.4598  0.2714
  502SOL    HW112185   7.477   1.906   2.719 -0.7075  1.2092 -0.8249
  502SOL    HW212186   7.343   1.812   2.729 -0.8269  1.4832  0.2409
  503SOL     OW12187   3.950   9.758   5.594  0.3496 -0.1757 -0.5404
  503SOL    HW112188   3.996   9.846   5.586  0.9173 -0.4604 -0.5104
  503SOL    HW212189   3.951   9.729   5.690 -0.6105  0.1891 -0.4183
  504SOL     OW12190   8.292   8.776   2.386  0.1924  0.4417 -0.2626
  504SOL    HW112191   8.246   8.840   2.448 -0.1747 -0.0166 -0.0636
  504SOL    HW212192   8.325   8.697   2.438 -2.0575 -1.0124 -0.9857
  505SOL     OW12193   2.083   1.471   1.485  0.8502  0.0611  0.0261
  505SOL    HW112194   2.151   1.503   1.419  0.0099 -0.1085 -0.9324
  505SOL    HW212195   2.127   1.407   1.549  0.9721 -2.3925 -2.4026
  506SOL     OW12196   2.973   8.365   0.685 -0.2967 -0.3850  0.0695
  506SOL    HW112197   2.884   8.390   0.647 -0.2019  1.1600  0.8153
  506SOL    HW212198   2.961   8.330   0.778 -0.0304  0.9423  0.6169
  507SOL     OW12199   2.655   7.134   2.866 -0.1223 -0.2555 -0.4043
  507SOL    HW112200   2.566   7.181   2.870  1.2550  2.3137  1.6533
  507SOL    HW212201   2.727   7.201   2.848  1.4725 -2.2802 -1.8354
  508SOL     OW12202   0.541   1.892   3.224  0.0720  0.7715 -0.3214
  508SOL    HW112203   0.495   1.956   3.285 -1.3157 -0.5433  0.0549
  508SOL    HW212204   0.568   1.939   3.140 -1.4012  1.7306 -0.2806
  509SOL     OW12205   2.921   4.099   1.355 -0.0441  0.3546  0.7315
  509SOL    HW112206   2.966   4.185   1.379 -0.2673  0.4508  0.8097
  509SOL    HW212207   2.865   4.112   1.273 -0.1394  0.3063  0.7874
  510SOL     OW12208   3.029   4.504   1.225  0.0117 -0.3087 -0.5098
  510SOL    HW112209   2.932   4.482   1.227  0.2083 -1.1399  0.4491
  510SOL    HW212210   3.068   4.476   1.138 -0.8950  1.3284 -1.4637
  511SOL     OW12211   9.004   6.720   2.427  0.1352  0.0103 -0.3661
  511SOL    HW112212   9.064   6.781   2.376 -1.6880 -0.1088 -2.6993
  511SOL    HW212213   9.053   6.635   2.448  1.0839  0.2920 -1.4106
  512SOL     OW12214   9.817   2.231   3.411  0.1388  0.0876  0.1590
  512SOL    HW112215   9.913   2.222   3.383  0.3508 -0.8645  1.1745
  512SOL    HW212216   9.780   2.316   3.373  1.4109  0.5129 -0.1732
  513SOL     OW12217   1.149   6.502   0.069 -0.2341  0.0680  0.2323
  513SOL    HW112218   1.164   6.596   0.038 -0.1734 -0.4336 -1.3054
  513SOL    HW212219   1.051   6.485   0.077 -0.2341  0.4739  1.2367
  514SOL     OW12220   4.069   2.137   4.653  0.4444 -0.5686 -0.1169
  514SOL    HW112221   4.128   2.155   4.575 -0.5278 -0.0112 -0.7267
  514SOL    HW212222   3.992   2.201   4.653 -0.0669 -1.1653  0.7729
  515SOL     OW12223   1.815   1.815   4.767 -0.0192 -0.1058  0.0879
  515SOL    HW112224   1.813   1.779   4.860 -0.1778 -0.9676 -0.2425
  515SOL    HW212225   1.734   1.784   4.717 -1.6936  3.1024  0.6565
  516SOL     OW12226   3.555   6.486   3.376  0.3182 -0.2188  0.8035
  516SOL    HW112227   3.529   6.400   3.332 -0.7107  0.6776 -0.3800
  516SOL    HW212228   3.621   6.467   3.449  2.2891 -1.7117 -1.2740
  517SOL     OW12229   2.006   6.852   5.614 -0.1988 -0.0399  0.0767
  517SOL    HW112230   2.082   6.843   5.549  0.4101 -0.4791  0.8415
  517SOL    HW212231   2.040   6.839   5.707 -0.8624  1.6654  0.5817
  518SOL     OW12232   1.719   8.647   2.809 -0.6932  0.0196  0.1685
  518SOL    HW112233   1.745   8.724   2.751  1.1922 -0.1228  0.7814
  518SOL    HW212234   1.748   8.561   2.766  0.0997 -0.1284  0.9734
  519SOL     OW12235   4.132   1.842   2.010  0.0827  0.0245  0.2279
  519SOL    HW112236   4.090   1.901   2.079  3.7391  1.6834  1.1700
  519SOL    HW212237   4.078   1.845   1.926 -2.0644  1.4340  1.6134
  520SOL     OW12238   9.965   7.491   2.924  0.1577 -0.1740  0.5386
  520SOL    HW112239   9.907   7.479   3.005 -0.5170  2.3148  0.4676
  520SOL    HW212240  10.054   7.526   2.952  0.3527 -0.4932  0.3150
  521SOL     OW12241   3.068   6.160   2.921 -0.0906  0.3032  0.5185
  521SOL    HW112242   3.010   6.148   3.001 -2.8255  0.4046 -1.3517
  521SOL    HW212243   3.072   6.075   2.870  1.3571  0.3264  0.5921
  522SOL     OW12244   9.471   1.232   1.988  0.6662  0.6592 -0.3183
  522SOL    HW112245   9.564   1.201   2.005 -0.2562 -3.3839 -2.2007
  522SOL    HW212246   9.457   1.244   1.889 -0.7504  1.5631 -0.0315
  523SOL     OW12247   0.621   8.871   4.705 -0.1880  0.1398 -0.1912
  523SOL    HW112248   0.532   8.916   4.699  1.2340  2.8657 -1.7099
  523SOL    HW212249   0.670   8.904   4.786 -0.4766 -1.2509  0.5659
  524SOL     OW12250   7.823   9.549   0.278 -0.1405  0.4939  0.3936
  524SOL    HW112251   7.727   9.528   0.260 -0.0255 -0.0773  0.4255
  524SOL    HW212252   7.872   9.559   0.192 -0.2713  0.9981  0.3756
  525SOL     OW12253   1.157   8.467   0.223  0.1655 -0.0160 -0.6092
  525SOL    HW112254   1.118   8.549   0.265 -0.4663 -0.0242 -1.1634
  525SOL    HW212255   1.252   8.455   0.253 -0.2319  0.0516  0.6800
  526SOL     OW12256   0.713   7.551   3.746  0.4522  0.5950 -0.0708
  526SOL    HW112257   0.666   7.463   3.755  0.4147  0.5337 -0.8422
  526SOL    HW212258   0.645   7.625   3.749  0.4915  0.6021  0.6573
  527SOL     OW12259   3.643   0.798   5.205 -0.6385  0.4261  0.1861
  527SOL    HW112260   3.685   0.756   5.124 -1.8195  0.3518 -0.3962
  527SOL    HW212261   3.677   0.751   5.287 -0.3338 -0.2868 -0.3347
  528SOL     OW12262   7.732   7.741   4.311  0.6239 -0.0899 -0.5417
  528SOL    HW112263   7.802   7.794   4.359 -0.2279  0.3980  0.1763
  528SOL    HW212264   7.674   7.803   4.258 -0.7386 -0.2312  0.7639
  529SOL     OW12265   3.678   1.957   2.926  0.1987 -0.0447  0.4045
  529SOL    HW112266   3.755   1.917   2.976  0.2382 -0.1851  0.2285
  529SOL    HW212267   3.654   2.045   2.967  0.2836 -0.1243  0.6222
  530SOL     OW12268   4.066   1.544   4.238  0.6748  0.4375  0.1415
  530SOL    HW112269   4.133   1.472   4.254  1.0297  0.6074 -0.5752
  530SOL    HW212270   4.106   1.632   4.264 -0.1991  0.2495  2.2404
  531SOL     OW12271   4.327   2.999   1.351 -0.0743 -0.9981  0.6896
  531SOL    HW112272   4.283   2.915   1.382 -0.9787 -0.6774  0.2785
  531SOL    HW212273   4.268   3.077   1.371 -0.5409 -0.7419 -1.5620
  532SOL     OW12274   1.252   1.902   4.709  0.4473 -0.2137  0.5982
  532SOL    HW112275   1.184   1.960   4.664 -0.2603  0.7723  2.8382
  532SOL    HW212276   1.343   1.923   4.672 -0.2166 -0.0951 -0.9934
  533SOL     OW12277   8.860   6.550   2.828  0.0506  0.1335 -0.3389
  533SOL    HW112278   8.949   6.514   2.854 -0.5649 -0.8927  0.3558
  533SOL    HW212279   8.849   6.642   2.865  0.9525  0.3919 -0.7084
  534SOL     OW12280   4.566   1.405   4.550 -0.3392 -0.6218  0.2287
  534SOL    HW112281   4.600   1.396   4.456 -2.1415  0.3790 -0.5531
  534SOL    HW212282   4.545   1.501   4.569 -0.2558 -0.8595  1.5632
  535SOL     OW12283   6.252   0.571   4.095 -0.1925 -0.5389 -0.3425
  535SOL    HW112284   6.324   0.616   4.148 -1.2694 -0.6552  1.2827
  535SOL    HW212285   6.247   0.475   4.121 -0.6069 -0.6409 -0.7908
  536SOL     OW12286   2.267   0.851   0.147 -0.4319 -0.3779 -0.3175
  536SOL    HW112287   2.181   0.894   0.175  0.5495  1.7163 -0.4541
  536SOL    HW212288   2.298   0.892   0.061  3.3286  2.6405  2.3089
  537SOL     OW12289   0.218   6.003   1.797 -0.5695 -0.0350  0.6611
  537SOL    HW112290   0.227   6.076   1.729  1.1521 -2.2131 -1.5436
  537SOL    HW212291   0.274   6.026   1.878 -1.3528  1.8249  0.7004
  538SOL     OW12292   1.914   6.014   0.912  0.0565 -0.0037  0.0622
  538SOL    HW112293   1.835   5.957   0.893 -1.2828  1.6736  0.4661
  538SOL    HW212294   1.940   6.063   0.828  1.9260 -2.0441 -0.5890
  539SOL     OW12295   9.668   1.292   4.726 -0.2349 -0.1135  0.0093
  539SOL    HW112296   9.617   1.215   4.688 -0.5359  0.4879 -0.8189
  539SOL    HW212297   9.606   1.366   4.748  0.1643  0.2395 -0.0390
  540SOL     OW12298   8.273   0.251   1.681  0.2667  0.4838  0.5386
  540SOL    HW112299   8.276   0.328   1.617  0.9325  0.5198  0.6142
  540SOL    HW212300   8.186   0.252   1.730  0.2683  1.1804  0.5314
  541SOL     OW12301   0.505   9.753   2.920  0.0604  0.3951 -0.3780
  541SOL    HW112302   0.536   9.803   3.001 -0.0399  2.4945 -1.6096
  541SOL    HW212303   0.559   9.781   2.841 -1.0087 -0.3519 -1.3939
  542SOL     OW12304   6.194   8.255   3.186 -0.3276 -0.0992 -0.0686
  542SOL    HW112305   6.246   8.242   3.102 -0.4310  0.4325 -0.2182
  542SOL    HW212306   6.250   8.228   3.264 -0.2980 -0.7682 -0.3226
  543SOL     OW12307   7.766   1.918   0.814 -0.4139  0.0595 -0.7280
  543SOL    HW112308   7.713   1.946   0.734  0.2175  2.3857 -0.3544
  543SOL    HW212309   7.708   1.920   0.895  0.3662  3.2886 -0.2018
  544SOL     OW12310   0.821   2.191   0.310 -0.3391 -0.3472  0.4392
  544SOL    HW112311   0.791   2.109   0.358  0.4021 -0.2574  1.0591
  544SOL    HW212312   0.846   2.167   0.216 -1.0106 -0.6593  0.3316
  545SOL     OW12313   8.630   2.341   3.947  0.0675 -0.7402  0.2055
  545SOL    HW112314   8.536   2.362   3.918  0.1792 -0.3259  0.1437
  545SOL    HW212315   8.684   2.313   3.868  0.3532  0.3230  0.0195
  546SOL     OW12316   4.004   9.794   1.735 -0.0802 -0.9871  0.3526
  546SOL    HW112317   3.924   9.854   1.739 -0.1782 -1.0054 -1.0470
  546SOL    HW212318   3.980   9.704   1.770 -0.6953 -1.0203 -0.1532
  547SOL     OW12319   8.493   8.414   3.643  0.2214 -0.2536  0.0086
  547SOL    HW112320   8.590   8.423   3.623  0.3497  0.3731  0.9351
  547SOL    HW212321   8.481   8.375   3.734 -0.3955 -0.1800 -0.0399
  548SOL     OW12322   2.957   2.017   3.577  0.3352 -0.1270 -0.1564
  548SOL    HW112323   2.992   2.102   3.616 -0.4540 -0.1740  0.6661
  548SOL    HW212324   3.033   1.965   3.538  1.4268 -0.8164  2.7299
  549SOL     OW12325   3.346   4.532   1.398  0.8399 -0.7641  0.1978
  549SOL    HW112326   3.401   4.590   1.458 -0.1216  0.8306 -0.4222
  549SOL    HW212327   3.298   4.463   1.452 -0.8790  1.3441  1.4316
  550SOL     OW12328   6.484   0.269   3.531 -0.2590  0.1776 -0.2657
  550SOL    HW112329   6.403   0.241   3.480 -0.7947 -0.8855  1.1336
  550SOL    HW212330   6.476   0.238   3.626  1.1057  1.3662  0.2553
  551SOL     OW12331   6.383   6.619   3.831  0.0596 -0.0158 -0.0736
  551SOL    HW112332   6.456   6.580   3.886 -0.1085 -0.2766 -0.0374
  551SOL    HW212333   6.422   6.664   3.750  0.4240  1.5812  0.9708
  552SOL     OW12334   3.562   4.145   1.044  0.4290 -0.2323  0.3888
  552SOL    HW112335   3.556   4.094   1.129 -0.4695  2.3521  1.9415
  552SOL    HW212336   3.657   4.172   1.027  0.7760 -1.6519 -0.0220
  553SOL     OW12337   0.180   6.262   2.571 -0.0027  0.3146 -0.0993
  553SOL    HW112338   0.122   6.312   2.636 -0.9873  0.2595 -0.9364
  553SOL    HW212339   0.212   6.325   2.500  0.2528  0.1549 -0.1267
  554SOL     OW12340   3.051   0.066   4.794  0.0184 -0.8149  0.6142
  554SOL    HW112341   3.122   0.014   4.843 -0.5383 -2.0414  0.1273
  554SOL    HW212342   3.021   0.142   4.852  0.1922 -1.5645  1.7187
  555SOL     OW12343   8.896   9.850   5.107  0.1180 -0.3723 -0.1833
  555SOL    HW112344   8.860   9.898   5.028 -2.4988 -2.8783 -0.5862
  555SOL    HW212345   8.836   9.865   5.186  1.3834  0.1269  0.7109
  556SOL     OW12346   2.105   6.898   0.244  0.8415  0.5283  0.5540
  556SOL    HW112347   2.161   6.882   0.326  1.3264  0.4566  0.2101
  556SOL    HW212348   2.060   6.987   0.252  1.7181  0.9950  0.4313
  557SOL     OW12349   6.363   7.463   2.106  0.0493 -0.4995 -0.1427
  557SOL    HW112350   6.385   7.372   2.070 -0.4480 -1.5007  2.0411
  557SOL    HW212351   6.441   7.498   2.157 -0.1208 -0.1203 -0.1420
  558SOL     OW12352   9.025   9.111   3.793 -0.0411 -0.0737  0.5766
  558SOL    HW112353   8.967   9.172   3.740 -0.6611 -0.5109  0.7392
  558SOL    HW212354   9.112   9.098   3.746 -0.2080  0.3172  0.1568
  559SOL     OW12355   7.312   7.865   1.829 -0.2658  0.0307 -0.6411
  559SOL    HW112356   7.395   7.810   1.840 -1.2416 -1.2256  0.5816
  559SOL    HW212357   7.328   7.934   1.759  1.7489 -0.3226 -0.5765
  560SOL     OW12358   1.541   2.417   2.284 -0.1452  0.4036 -0.4845
  560SOL    HW112359   1.463   2.365   2.320  0.5748 -0.7152 -0.5029
  560SOL    HW212360   1.626   2.382   2.325  0.4698  0.6809 -1.5079
  561SOL     OW12361   8.724   0.503   2.205  0.2190 -0.1910  0.1693
  561SOL    HW112362   8.760   0.581   2.257 -2.3117  1.1192  0.0484
  561SOL    HW212363   8.734   0.521   2.107 -0.6926  0.1644  0.1360
  562SOL     OW12364   6.832   1.833   2.179  0.0423 -0.3129 -0.1316
  562SOL    HW112365   6.907   1.847   2.243  0.2295 -1.8061 -0.0059
  562SOL    HW212366   6.747   1.870   2.218  0.6459  1.1540 -0.1740
  563SOL     OW12367   2.301   2.574   3.648 -0.4672  0.3264  0.1818
  563SOL    HW112368   2.232   2.524   3.700 -0.2000  0.3792  0.5824
  563SOL    HW212369   2.373   2.607   3.709  0.0070  0.1240 -0.2656
  564SOL     OW12370   2.616   7.848   1.773  0.4322  0.1399 -0.0251
  564SOL    HW112371   2.536   7.789   1.773  0.8566 -0.4505  0.8096
  564SOL    HW212372   2.698   7.793   1.788  0.8358  0.9281  0.7352
  565SOL     OW12373   0.273   2.219   3.734  0.3029  0.3108 -0.0982
  565SOL    HW112374   0.223   2.191   3.816  1.3569 -0.9831  0.1274
  565SOL    HW212375   0.208   2.247   3.663 -0.6295  0.9642  1.0115
  566SOL     OW12376   0.475   4.056   3.021  0.1914 -0.3725  0.3975
  566SOL    HW112377   0.487   4.000   2.939  0.0272  1.8311 -1.1677
  566SOL    HW212378   0.564   4.084   3.056  0.1975  1.1521 -0.7912
  567SOL     OW12379   1.692   1.654   3.806  0.1736 -0.2155  0.3469
  567SOL    HW112380   1.639   1.611   3.733  0.5979 -2.0887  1.1404
  567SOL    HW212381   1.687   1.598   3.889  0.0376  1.6759  1.6543
  568SOL     OW12382   7.921   9.951   0.686  0.3198 -0.0315 -0.1794
  568SOL    HW112383   7.848   9.904   0.736  0.2045  0.4540  0.1102
  568SOL    HW212384   7.960   9.889   0.618  0.3353 -0.6406  0.3739
  569SOL     OW12385   6.458   7.424   1.745  0.2081 -0.0028 -0.1967
  569SOL    HW112386   6.491   7.491   1.678  1.6112 -1.7586 -1.2946
  569SOL    HW212387   6.376   7.380   1.710 -0.4385  0.7763  0.3158
  570SOL     OW12388   9.320   3.793   1.956  0.2840  0.2432  0.1705
  570SOL    HW112389   9.298   3.696   1.952  0.5093  0.2029 -0.1364
  570SOL    HW212390   9.244   3.843   1.996  0.2580 -0.0873  0.5459
  571SOL     OW12391   9.703   2.418   4.045  0.0290  0.2996 -0.0325
  571SOL    HW112392   9.759   2.335   4.037 -1.0073 -0.4750  0.5678
  571SOL    HW212393   9.755   2.487   4.095  0.8005 -0.0800 -0.2885
  572SOL     OW12394   0.167   7.027   2.895  0.2535  0.3125  0.0490
  572SOL    HW112395   0.071   7.038   2.871  0.4659  0.6798 -0.6584
  572SOL    HW212396   0.183   6.936   2.932 -0.4109  0.3310  0.3719
  573SOL     OW12397   4.009   1.274   3.319 -0.5135  0.4080 -0.6580
  573SOL    HW112398   3.991   1.369   3.342 -0.5919  0.2265  0.0511
  573SOL    HW212399   3.966   1.251   3.232  1.1261  1.5497 -1.8016
  574SOL     OW12400   2.533   2.958   5.195  0.3638  0.6571  0.6779
  574SOL    HW112401   2.538   2.861   5.169  1.2021  0.5760  1.1352
  574SOL    HW212402   2.550   3.015   5.114 -0.3025  0.4255  0.3715
  575SOL     OW12403   4.104   1.149   1.910  0.1293  0.1995  0.4506
  575SOL    HW112404   4.088   1.088   1.988 -1.1923  1.4024  1.1376
  575SOL    HW212405   4.166   1.105   1.846  0.8222 -1.0325  1.9300
  576SOL     OW12406   8.239   1.331   1.050  0.2972  0.5622  0.1173
  576SOL    HW112407   8.223   1.422   1.010 -1.4598  0.8943  1.5113
  576SOL    HW212408   8.265   1.341   1.146 -0.6283 -0.4132  0.4791
  577SOL     OW12409   9.787   9.253   4.441  0.0736  0.5140 -0.1220
  577SOL    HW112410   9.699   9.206   4.434 -0.0441  0.7093  0.0383
  577SOL    HW212411   9.861   9.186   4.444 -0.0952  0.3398  0.1348
  578SOL     OW12412   7.850   0.222   0.102 -0.1037 -0.1117 -0.3255
  578SOL    HW112413   7.768   0.263   0.141  0.8105  2.4060 -0.9326
  578SOL    HW212414   7.908   0.187   0.175 -0.8784 -0.2803  0.2163
  579SOL     OW12415   6.364   6.903   3.138 -0.0699  0.2917 -0.1136
  579SOL    HW112416   6.282   6.852   3.163  0.3397 -0.1621  0.3149
  579SOL    HW212417   6.346   7.001   3.147 -0.1847  0.1587  1.1649
  580SOL     OW12418   3.254   5.896   3.492  0.1473  0.1360  0.3527
  580SOL    HW112419   3.265   5.967   3.561 -0.5676 -1.8060  2.5008
  580SOL    HW212420   3.162   5.900   3.454 -0.3479 -0.5118  1.4694
  581SOL     OW12421   4.804   3.814   0.449 -0.2297 -0.1775 -0.2296
  581SOL    HW112422   4.832   3.751   0.377 -1.4547 -2.8342  1.5196
  581SOL    HW212423   4.718   3.859   0.424  0.1720  0.1113 -1.0894
  582SOL     OW12424   0.226   8.930   4.052  0.2757  0.4289 -0.1180
  582SOL    HW112425   0.203   8.910   4.147 -1.9800  1.2791 -0.4438
  582SOL    HW212426   0.301   8.870   4.022  0.7572 -0.1039  2.0571
  583SOL     OW12427   1.993   1.132   1.561 -0.3118  0.0110  0.0827
  583SOL    HW112428   2.085   1.105   1.588 -0.1441  0.9102  0.4211
  583SOL    HW212429   1.995   1.166   1.467 -0.6579 -1.8609 -0.6077
  584SOL     OW12430   1.283   5.558   0.748  0.6400  0.5882 -0.2095
  584SOL    HW112431   1.297   5.639   0.804 -0.2381  1.3915 -1.1374
  584SOL    HW212432   1.355   5.552   0.679  1.7182 -0.3984  0.9678
  585SOL     OW12433   1.752   4.541   0.318  0.0067 -0.4594  0.1745
  585SOL    HW112434   1.716   4.510   0.230 -0.4196  1.3370 -0.3077
  585SOL    HW212435   1.681   4.535   0.388 -0.9383  1.9307 -0.5130
  586SOL     OW12436   3.618   5.632   2.468 -0.1364  0.2373 -0.0510
  586SOL    HW112437   3.558   5.559   2.501 -0.6787  0.1733 -1.1659
  586SOL    HW212438   3.665   5.602   2.385 -1.8055  1.8294 -1.6093
  587SOL     OW12439   9.372   0.110   2.742 -0.7424 -0.0062  0.2387
  587SOL    HW112440   9.313   0.050   2.689 -0.9882 -1.3308  1.9736
  587SOL    HW212441   9.355   0.096   2.840 -0.0304  2.1072  0.6884
  588SOL     OW12442   4.964   9.663   1.756 -0.6006  0.9232  0.1205
  588SOL    HW112443   5.050   9.668   1.806 -1.0098 -1.2321  1.0877
  588SOL    HW212444   4.893   9.711   1.808 -0.5055  0.6755  0.4833
  589SOL     OW12445   8.148   7.833   1.958  0.3154 -0.0806 -0.1547
  589SOL    HW112446   8.143   7.928   1.989  1.2417 -0.2377  0.5031
  589SOL    HW212447   8.133   7.829   1.860 -0.8636  0.6280 -0.0128
  590SOL     OW12448   3.089   0.258   4.008  0.0024  0.1898  0.4033
  590SOL    HW112449   3.081   0.169   4.054  0.4089 -0.5036 -0.8371
  590SOL    HW212450   3.117   0.244   3.913 -0.3721  1.6246  0.0657
  591SOL     OW12451   5.353   9.748   4.403 -0.1499  0.1485  0.0121
  591SOL    HW112452   5.383   9.843   4.392 -0.0067  0.1268  0.2013
  591SOL    HW212453   5.283   9.743   4.473  1.2649 -0.1528  1.4423
  592SOL     OW12454   3.980   3.216   0.373  0.1776 -0.1762  0.0107
  592SOL    HW112455   4.060   3.162   0.399  0.7349  1.9204  2.8370
  592SOL    HW212456   4.005   3.277   0.298  0.3527 -1.7280 -1.2130
  593SOL     OW12457   9.217   8.506   5.463 -0.7498  0.4296  0.4728
  593SOL    HW112458   9.276   8.586   5.457 -1.2144  0.8864  1.8927
  593SOL    HW212459   9.146   8.511   5.393 -0.7197  1.2045  0.4995
  594SOL     OW12460   8.582   0.632   5.325 -0.0093  0.1941  0.6341
  594SOL    HW112461   8.608   0.557   5.265 -1.0669  1.0637 -0.9390
  594SOL    HW212462   8.563   0.596   5.416 -0.5736 -1.4641 -0.1118
  595SOL     OW12463   4.274   3.735   1.506 -0.2280 -0.0714 -0.4135
  595SOL    HW112464   4.259   3.833   1.519  0.6014  0.0614 -0.4575
  595SOL    HW212465   4.282   3.690   1.595 -0.8949 -0.1522 -0.3871
  596SOL     OW12466   4.398   2.117   4.563  0.6413  0.4701 -0.3074
  596SOL    HW112467   4.451   2.197   4.532  0.4527  0.5395 -0.4555
  596SOL    HW212468   4.390   2.119   4.662  0.5258  0.7076 -0.3195
  597SOL     OW12469   5.510   0.712   1.856 -0.2719  0.2401 -0.4335
  597SOL    HW112470   5.532   0.801   1.817 -0.2361 -0.5782 -2.3247
  597SOL    HW212471   5.414   0.712   1.885 -0.3465  0.7934 -0.6653
  598SOL     OW12472   8.768   3.356   2.078  0.1345  0.3714  0.5338
  598SOL    HW112473   8.742   3.323   2.169  0.3998  0.6585  0.7140
  598SOL    HW212474   8.845   3.302   2.044 -1.1427 -0.9647 -0.3099
  599SOL     OW12475   7.459   6.736   1.886  0.5277  0.4629  0.4976
  599SOL    HW112476   7.369   6.750   1.928  1.2374 -0.2598  2.3196
  599SOL    HW212477   7.485   6.639   1.896  0.7485  0.2857 -1.5781
  600SOL     OW12478   1.456   6.593   0.170 -0.1184  0.1420 -0.4602
  600SOL    HW112479   1.360   6.612   0.150 -0.1346  0.4437 -0.0968
  600SOL    HW212480   1.471   6.494   0.175 -0.6460  0.1187  0.6529
  601SOL     OW12481   6.736   9.842   0.900  0.0477  0.0749 -0.6253
  601SOL    HW112482   6.822   9.885   0.927  0.7298 -0.6917 -1.5487
  601SOL    HW212483   6.670   9.851   0.974  0.7002  1.2861 -0.1824
  602SOL     OW12484   1.236   2.306   2.826 -0.4992  0.8123 -0.3696
  602SOL    HW112485   1.203   2.261   2.909  0.4327  0.3386 -0.2460
  602SOL    HW212486   1.330   2.338   2.840 -0.1363  0.2434 -1.4260
  603SOL     OW12487   5.451   0.990   1.396  0.7671 -0.0907  0.0127
  603SOL    HW112488   5.372   1.025   1.448  1.7009  0.8580  0.8187
  603SOL    HW212489   5.488   1.062   1.338  1.4863 -0.3199  0.1795
  604SOL     OW12490   1.303   1.778   3.727 -0.2864 -0.7113 -0.2721
  604SOL    HW112491   1.269   1.871   3.716  0.5618 -0.2629  0.8519
  604SOL    HW212492   1.337   1.765   3.820 -0.9237 -2.3219 -0.2475
  605SOL     OW12493   9.465   1.985   1.357  1.1719  0.1622  0.0526
  605SOL    HW112494   9.527   1.946   1.288  1.2221  0.2058  0.0729
  605SOL    HW212495   9.438   1.913   1.421  1.0887  0.1102 -0.0399
  606SOL     OW12496   9.558   8.021   4.619  0.2904 -0.1855 -0.7382
  606SOL    HW112497   9.609   8.107   4.613 -0.6675  0.3673 -1.2174
  606SOL    HW212498   9.595   7.955   4.554  0.0860  0.3853 -1.4443
  607SOL     OW12499   9.296   1.794   3.827  0.3164  0.2273 -0.4590
  607SOL    HW112500   9.287   1.853   3.907  0.4522  3.5417 -2.7734
  607SOL    HW212501   9.387   1.752   3.826  1.7451  3.2341 -0.8377
  608SOL     OW12502   7.542   7.548   3.880 -0.2352  0.5225  0.1953
  608SOL    HW112503   7.492   7.507   3.804  0.4624 -0.0212  0.0299
  608SOL    HW212504   7.499   7.520   3.966 -0.3049  0.1616  0.0462
  609SOL     OW12505   7.323   0.811   4.841  0.8679  0.4371  0.4074
  609SOL    HW112506   7.397   0.808   4.909  1.3033  0.3411 -0.0680
  609SOL    HW212507   7.356   0.857   4.759  0.0223  1.4810  0.6444
  610SOL     OW12508   3.916   6.770   2.773 -0.3329 -0.3491  0.0627
  610SOL    HW112509   3.963   6.848   2.731 -1.6664  1.0144  1.0428
  610SOL    HW212510   3.977   6.691   2.773  1.3886  0.9383 -0.1334
  611SOL     OW12511   9.104   3.564   2.166 -0.1074 -0.8537 -0.6500
  611SOL    HW112512   9.158   3.571   2.082  1.6173  1.3218  0.5897
  611SOL    HW212513   9.031   3.633   2.164 -0.7022 -1.4788 -0.7875
  612SOL     OW12514   8.795   4.196   2.484 -0.0502 -0.1657 -0.1267
  612SOL    HW112515   8.843   4.282   2.498 -0.3662 -0.0067 -0.0049
  612SOL    HW212516   8.755   4.166   2.571  0.8135 -0.8917  0.0226
  613SOL     OW12517   0.102   7.944   0.025  0.4636 -0.0585  0.1101
  613SOL    HW112518   0.099   7.993   0.112  0.0051  0.2610 -0.0831
  613SOL    HW212519   0.172   7.986  -0.034  0.3005  0.1620  0.0699
  614SOL     OW12520   8.491   2.508   0.316  0.2892 -0.1530 -0.1630
  614SOL    HW112521   8.472   2.494   0.413  0.4811  1.2154  0.0860
  614SOL    HW212522   8.459   2.430   0.264 -1.6213 -0.0324  0.7869
  615SOL     OW12523   5.302   0.310   3.670 -0.4137 -0.4516  0.2537
  615SOL    HW112524   5.263   0.401   3.678  1.8070  0.3945  2.3919
  615SOL    HW212525   5.402   0.316   3.671 -0.2256 -2.9345  1.0687
  616SOL     OW12526   9.347   6.928   2.998  0.0709  0.6836 -0.2242
  616SOL    HW112527   9.384   6.889   2.914 -2.0748  0.4234 -1.0793
  616SOL    HW212528   9.356   7.028   2.995 -0.5402  0.7153 -1.0181
  617SOL     OW12529   9.126   2.190   2.971 -0.0833 -0.0267  0.0027
  617SOL    HW112530   9.074   2.263   2.926 -2.4410 -0.5766  1.7612
  617SOL    HW212531   9.191   2.231   3.035  0.9575  0.6217 -1.4323
  618SOL     OW12532   4.193   5.472   0.791  0.1861 -0.4147  0.1806
  618SOL    HW112533   4.243   5.394   0.756  1.4053  1.0382 -1.4238
  618SOL    HW212534   4.097   5.466   0.762  0.8844  0.0730 -2.3699
  619SOL     OW12535   1.814   5.146   2.372 -0.1509  0.5851  0.1575
  619SOL    HW112536   1.893   5.089   2.394  0.0614 -0.4939 -3.1977
  619SOL    HW212537   1.840   5.242   2.374  1.5339  0.1956 -1.8847
  620SOL     OW12538   0.383   9.142   0.388  0.0031 -0.0722 -0.6050
  620SOL    HW112539   0.292   9.102   0.390  0.5417 -1.3374 -0.1825
  620SOL    HW212540   0.386   9.224   0.446  0.0694 -2.1669  2.4809
  621SOL     OW12541   8.337   0.667   0.604  0.3143  0.1887 -0.0697
  621SOL    HW112542   8.397   0.607   0.550 -0.7951 -0.4984 -0.5583
  621SOL    HW212543   8.253   0.618   0.626 -0.2537  1.2987  0.2379
  622SOL     OW12544   0.995   2.963   1.954  0.0002  0.0663  0.3407
  622SOL    HW112545   1.077   2.924   1.996 -0.4537 -3.3200 -1.7504
  622SOL    HW212546   0.914   2.915   1.988 -0.6623 -0.2628 -1.6732
  623SOL     OW12547   1.688   7.600   0.048  0.0547  0.0268 -0.3819
  623SOL    HW112548   1.765   7.541   0.073 -0.9942 -1.3571 -0.3609
  623SOL    HW212549   1.646   7.637   0.131  1.7834  2.2577 -0.4407
  624SOL     OW12550   0.309   5.732   2.582 -0.4529  0.2903 -0.0581
  624SOL    HW112551   0.279   5.639   2.607  1.7987 -0.3998  0.1630
  624SOL    HW212552   0.396   5.752   2.626 -0.2582  2.0184 -1.1890
  625SOL     OW12553   5.246   9.468   1.168  0.2571  0.1745 -0.5478
  625SOL    HW112554   5.297   9.425   1.093  1.0086  1.5814 -0.8661
  625SOL    HW212555   5.231   9.564   1.146  0.2779  0.5405  1.0153
  626SOL     OW12556   0.963   8.608   3.012  0.7333 -0.2390  0.2961
  626SOL    HW112557   1.014   8.528   3.043  1.0955 -1.3445 -2.9218
  626SOL    HW212558   1.021   8.689   3.018  1.3560 -0.7171  0.7930
  627SOL     OW12559   0.197   9.796   4.388 -0.2021  0.0547 -0.2867
  627SOL    HW112560   0.166   9.889   4.367 -1.1140 -0.3164 -0.6112
  627SOL    HW212561   0.194   9.781   4.487 -1.1718 -0.0044 -0.3159
  628SOL     OW12562   9.811   1.068   0.696 -0.1756  0.4426  0.0061
  628SOL    HW112563   9.841   1.022   0.612  0.8904  1.0781  0.0257
  628SOL    HW212564   9.843   1.163   0.695  1.4545 -0.0533  1.9655
  629SOL     OW12565   4.076   8.066   4.473 -0.5314  0.2565  0.7495
  629SOL    HW112566   4.154   8.026   4.522 -1.1175 -0.7915  0.8261
  629SOL    HW212567   4.110   8.119   4.395  0.1962 -1.5084 -0.1737
  630SOL     OW12568   1.369   4.050   1.144 -0.6454 -0.4182 -0.4795
  630SOL    HW112569   1.436   3.977   1.156  0.8646  1.3169  2.4379
  630SOL    HW212570   1.414   4.129   1.101 -1.2359  0.1632 -0.0395
  631SOL     OW12571   4.244   0.483   3.430 -0.2592  1.5544  0.0373
  631SOL    HW112572   4.184   0.456   3.355  0.5998  2.2343 -0.9065
  631SOL    HW212573   4.189   0.500   3.512 -1.2402  1.1405 -0.5241
  632SOL     OW12574   3.268   0.860   2.961  0.3595 -0.0761  0.1257
  632SOL    HW112575   3.335   0.792   2.932 -0.3604 -1.2121  1.0405
  632SOL    HW212576   3.299   0.903   3.046  1.1414  1.2375 -0.8232
  633SOL     OW12577   8.524   6.912   2.575 -0.0620 -0.0084 -0.1823
  633SOL    HW112578   8.465   6.917   2.495  0.1764  1.3817 -0.2795
  633SOL    HW212579   8.478   6.954   2.653  0.6889  0.8684 -0.1985
  634SOL     OW12580   9.375   6.778   1.885 -0.0811 -0.4395 -0.4008
  634SOL    HW112581   9.302   6.710   1.879 -0.2163 -0.3558  0.2451
  634SOL    HW212582   9.422   6.785   1.797 -1.5800  0.3139 -1.1662
  635SOL     OW12583   6.048   0.366   3.496  0.3093  0.4628 -0.0251
  635SOL    HW112584   5.964   0.349   3.446  0.9809  1.5215 -1.5554
  635SOL    HW212585   6.074   0.284   3.547 -2.0963  0.4081  1.1872
  636SOL     OW12586   1.822   5.196   0.452 -0.0383  0.5241 -0.3721
  636SOL    HW112587   1.902   5.188   0.392 -0.5387 -2.7753 -0.7161
  636SOL    HW212588   1.852   5.214   0.545  1.2361 -1.6110 -0.3217
  637SOL     OW12589   9.259   8.323   4.034 -0.2511  0.5809 -0.0566
  637SOL    HW112590   9.211   8.410   4.040  0.4957  1.0621 -0.8785
  637SOL    HW212591   9.269   8.284   4.126  0.3617  1.8843  0.4463
  638SOL     OW12592   7.438   6.152   2.364  0.4561  0.2844 -0.0030
  638SOL    HW112593   7.358   6.212   2.366 -0.0320 -0.3548 -0.3527
  638SOL    HW212594   7.506   6.190   2.301  1.0189  1.5689  1.3604
  639SOL     OW12595   8.513   8.895   1.747 -0.3824  0.0475 -0.0304
  639SOL    HW112596   8.467   8.955   1.681 -0.0142 -1.5536 -1.8115
  639SOL    HW212597   8.453   8.817   1.767  0.5491 -0.7961 -0.4856
  640SOL     OW12598   0.500   0.141   2.757 -0.3666 -0.0684 -0.0382
  640SOL    HW112599   0.472   0.086   2.836  0.3405  1.3188  1.1932
  640SOL    HW212600   0.482   0.237   2.775 -1.2300  0.1745 -2.0397
  641SOL     OW12601   9.697   1.478   4.422 -0.0657  0.7490 -0.1441
  641SOL    HW112602   9.668   1.478   4.326 -0.6275  0.3286  0.0237
  641SOL    HW212603   9.616   1.473   4.481  0.1335  3.3833  0.4043
  642SOL     OW12604   1.619   6.979   0.088 -0.3008  0.0653 -0.4554
  642SOL    HW112605   1.674   7.011   0.011  1.6009  0.3959  1.0158
  642SOL    HW212606   1.525   6.965   0.058  0.3722  0.3793 -2.7888
  643SOL     OW12607   8.434   2.860   2.015  0.1974  0.0347 -0.1717
  643SOL    HW112608   8.338   2.844   2.039 -0.1143  1.0393 -0.7356
  643SOL    HW212609   8.446   2.849   1.917  0.4919  0.7550 -0.2170
  644SOL     OW12610   6.592   0.815   3.918 -0.1331 -0.1978  0.0620
  644SOL    HW112611   6.601   0.892   3.854  0.5446 -0.0772  0.2957
  644SOL    HW212612   6.672   0.813   3.978 -0.6674 -0.4428  0.7603
  645SOL     OW12613   9.902   6.349   1.306 -0.0432  0.0083  0.2276
  645SOL    HW112614   9.934   6.267   1.353  3.2991  0.6174 -0.9064
  645SOL    HW212615   9.886   6.422   1.373 -0.8676 -0.8476  0.9832
  646SOL     OW12616   3.037   1.623   2.079 -0.4345 -0.5593 -0.2426
  646SOL    HW112617   2.982   1.663   2.153 -0.6646 -0.5926 -0.3963
  646SOL    HW212618   3.129   1.661   2.083 -0.9534  0.8015 -1.0421
  647SOL     OW12619   0.843   3.555   4.086 -0.1860  0.3102 -0.2067
  647SOL    HW112620   0.863   3.532   3.990  2.3117  0.5248  0.2150
  647SOL    HW212621   0.759   3.509   4.115  1.4208 -3.4641 -1.1791
  648SOL     OW12622   0.613   2.693   3.497 -0.3523 -0.6253 -0.2658
  648SOL    HW112623   0.649   2.786   3.490 -0.1645 -0.5311  1.5714
  648SOL    HW212624   0.516   2.693   3.476 -0.4072  0.0385 -0.0306
  649SOL     OW12625   4.793   3.921   1.657 -0.3932  0.2196  0.1050
  649SOL    HW112626   4.823   3.951   1.567  0.4455 -1.9239 -0.3642
  649SOL    HW212627   4.699   3.886   1.652  0.2297 -1.4374 -0.3041
  650SOL     OW12628   3.197   9.708   2.501  0.1928  0.2258 -0.4487
  650SOL    HW112629   3.108   9.690   2.544 -0.3495  0.1617 -1.5987
  650SOL    HW212630   3.269   9.663   2.554 -0.5106 -0.1508  0.1966
  651SOL     OW12631   0.374   2.282   1.654 -0.0931  0.2542  0.1866
  651SOL    HW112632   0.320   2.352   1.608 -0.0191  0.1075 -0.1268
  651SOL    HW212633   0.468   2.313   1.664  0.5666 -0.8274 -2.2865
  652SOL     OW12634   9.430   9.267   5.536  0.0857  0.1776  0.4780
  652SOL    HW112635   9.374   9.216   5.470  3.0059  0.2592 -2.2199
  652SOL    HW212636   9.371   9.310   5.603 -3.1514  0.6297 -2.4910
  653SOL     OW12637   8.613   0.575   2.895  0.0166  0.3203 -0.5304
  653SOL    HW112638   8.662   0.602   2.977  3.5181 -1.1683 -2.0332
  653SOL    HW212639   8.639   0.634   2.819 -2.7823  1.3445 -0.7509
  654SOL     OW12640   8.936   9.019   5.199 -0.3369 -0.8089  0.2734
  654SOL    HW112641   8.897   9.003   5.108 -2.2258  0.1330  0.9103
  654SOL    HW212642   8.989   9.104   5.198  0.9401 -1.5935 -0.3332
  655SOL     OW12643   2.904   0.189   0.101  0.0943 -0.0149 -0.0883
  655SOL    HW112644   2.832   0.258   0.099  1.8401  1.8696 -0.5656
  655SOL    HW212645   2.956   0.193   0.016  1.9455 -0.0005  1.0099
  656SOL     OW12646   3.246   2.122   5.274  0.0969 -0.1521 -0.1791
  656SOL    HW112647   3.279   2.036   5.312  0.3188 -0.8283 -1.8928
  656SOL    HW212648   3.146   2.125   5.282  0.1787 -0.0587  0.9104
  657SOL     OW12649   6.871   0.905   4.503 -0.1120  0.6978  0.1537
  657SOL    HW112650   6.827   0.992   4.528 -1.4797 -0.2121  0.9552
  657SOL    HW212651   6.957   0.895   4.553 -0.5745  1.0053  1.0102
  658SOL     OW12652   3.750   5.391   0.577 -0.4095  0.1015 -0.7457
  658SOL    HW112653   3.810   5.343   0.641 -1.7079 -1.7307 -0.8786
  658SOL    HW212654   3.768   5.490   0.582  1.3758 -0.2739  0.4695
  659SOL     OW12655   0.453   2.095   3.504  0.0321 -0.5544 -0.3014
  659SOL    HW112656   0.381   2.128   3.565 -0.6127 -3.2833  0.4675
  659SOL    HW212657   0.428   2.117   3.410  0.4058  2.5258  0.2743
  660SOL     OW12658   2.416   6.774   4.299 -0.0846  0.4319  0.3065
  660SOL    HW112659   2.507   6.761   4.258  0.1009  0.2998  0.7547
  660SOL    HW212660   2.355   6.815   4.232  0.0513 -0.3514 -0.3081
  661SOL     OW12661   1.312   7.907   2.181  0.1736 -0.4237 -0.1128
  661SOL    HW112662   1.219   7.897   2.147  0.6319 -2.2557 -0.9050
  661SOL    HW212663   1.315   7.979   2.250 -1.7576 -0.1542 -0.2798
  662SOL     OW12664   8.852   9.699   1.631 -0.2450 -0.7530 -0.7428
  662SOL    HW112665   8.787   9.730   1.562  0.7997  1.2449 -0.8698
  662SOL    HW212666   8.902   9.778   1.668  1.9119 -2.2084 -0.4509
  663SOL     OW12667   3.636   8.344   1.312 -0.0878  0.1417 -0.0555
  663SOL    HW112668   3.729   8.326   1.279  0.2565  0.5110  0.7009
  663SOL    HW212669   3.629   8.440   1.341 -0.4814 -0.0941  0.6278
  664SOL     OW12670   9.624   4.185   2.126  0.3015  0.5823  0.2162
  664SOL    HW112671   9.532   4.146   2.114 -0.0266  0.9012  1.5591
  664SOL    HW212672   9.616   4.282   2.150  0.8804  0.0149  2.8245
  665SOL     OW12673   8.950   1.466   2.460 -0.2054 -0.5693  0.2551
  665SOL    HW112674   8.971   1.430   2.369  0.6104  0.5310 -0.0033
  665SOL    HW212675   8.905   1.555   2.451  1.6431  0.4579  0.9390
  666SOL     OW12676   2.878   6.916   2.274 -0.1688 -0.1648  0.4958
  666SOL    HW112677   2.811   6.978   2.315 -1.2932 -1.7718  1.1580
  666SOL    HW212678   2.830   6.853   2.212  0.9114 -0.5663  0.0686
  667SOL     OW12679   4.562   7.610   1.716 -0.3274  0.4140  0.7423
  667SOL    HW112680   4.474   7.657   1.709 -0.7664 -0.3713  1.0073
  667SOL    HW212681   4.627   7.651   1.651 -1.7064 -0.8304 -1.4666
  668SOL     OW12682   1.363   4.182   3.503 -0.1219 -0.0009  0.6806
  668SOL    HW112683   1.394   4.235   3.424 -1.3888 -0.6818 -0.2906
  668SOL    HW212684   1.393   4.226   3.587  1.1106  0.8149 -0.1821
  669SOL     OW12685   1.441   4.336   3.690  0.3955  0.7206  0.5338
  669SOL    HW112686   1.364   4.398   3.703 -1.3495 -1.3082  0.2475
  669SOL    HW212687   1.522   4.388   3.661 -0.7874  2.9109  1.0627
  670SOL     OW12688   8.354   8.549   2.549 -0.4170 -0.4059  0.2531
  670SOL    HW112689   8.289   8.562   2.624  1.8026 -3.3186  2.8220
  670SOL    HW212690   8.365   8.452   2.531  0.5829  0.1793 -2.6064
  671SOL     OW12691   1.156   7.588   3.533  0.1900 -0.1252 -0.6645
  671SOL    HW112692   1.215   7.539   3.469  0.9466  0.3370 -0.3210
  671SOL    HW212693   1.116   7.667   3.488  0.1120 -0.2369 -0.7931
  672SOL     OW12694   1.510   2.310   3.846 -0.2021 -0.3154  0.0806
  672SOL    HW112695   1.597   2.322   3.894 -0.6440  0.1945  0.7803
  672SOL    HW212696   1.491   2.213   3.833 -0.2565 -0.4863  1.3135
  673SOL     OW12697   9.958   3.100   0.822  0.3885 -0.0110  0.5667
  673SOL    HW112698  10.043   3.154   0.817  0.5871 -0.2857  0.9405
  673SOL    HW212699   9.883   3.159   0.853 -0.4684  1.2731 -3.6416
  674SOL     OW12700   2.513   0.616   0.893  0.1167  0.0251 -0.0229
  674SOL    HW112701   2.413   0.616   0.897  0.1655 -1.5209  1.8031
  674SOL    HW212702   2.544   0.680   0.822 -2.1067  1.8113  0.5821
  675SOL     OW12703   3.506   1.415   3.014  0.4499  0.5969  0.3394
  675SOL    HW112704   3.477   1.417   3.110 -0.9593  1.1507 -0.0911
  675SOL    HW212705   3.597   1.455   3.006  1.0075 -0.3723  1.5925
  676SOL     OW12706   0.556   9.585   0.964  0.1847  0.1812 -0.1149
  676SOL    HW112707   0.581   9.580   1.061 -0.3660  3.1848  0.2300
  676SOL    HW212708   0.608   9.657   0.919 -1.1880  0.3379 -1.5116
  677SOL     OW12709   7.850   3.724   2.081  0.1989 -0.1508  0.8910
  677SOL    HW112710   7.888   3.665   2.152  0.9894 -2.2324 -1.1893
  677SOL    HW212711   7.873   3.819   2.100  0.6824 -0.6942  3.2013
  678SOL     OW12712   1.794   0.896   2.702 -0.4462  0.5270 -0.1855
  678SOL    HW112713   1.713   0.917   2.756 -0.6099 -0.0509 -0.1965
  678SOL    HW212714   1.809   0.797   2.702 -1.0163  0.4092 -1.9753
  679SOL     OW12715   3.464   1.537   1.637  0.1126 -0.1453  0.2415
  679SOL    HW112716   3.537   1.599   1.608  0.1643 -0.3120  0.0106
  679SOL    HW212717   3.395   1.532   1.565 -1.5812  2.2496  1.6367
  680SOL     OW12718   4.991   1.484   1.376  0.0074 -0.1670  0.0760
  680SOL    HW112719   4.956   1.575   1.355  2.6624  0.5959 -1.2039
  680SOL    HW212720   4.971   1.462   1.471  0.9334  2.5172  0.9300
  681SOL     OW12721   3.182   2.715   1.701 -0.0703  0.5364 -0.5825
  681SOL    HW112722   3.193   2.803   1.655 -0.9068  0.1382 -1.5462
  681SOL    HW212723   3.257   2.702   1.766  1.2444  1.0221 -1.9751
  682SOL     OW12724   2.508   4.275   1.037  0.3935 -0.3379 -0.3987
  682SOL    HW112725   2.503   4.254   0.939 -0.7209 -2.4136  0.0614
  682SOL    HW212726   2.493   4.191   1.090  2.5227  0.4641  1.5582
  683SOL     OW12727   2.734   7.756   3.309 -0.1593 -0.1773  0.1191
  683SOL    HW112728   2.796   7.804   3.372 -0.2972  0.5944 -0.3188
  683SOL    HW212729   2.762   7.661   3.299  1.7657  0.4950 -1.1207
  684SOL     OW12730   4.573   2.551   1.668 -0.2511  0.3788  0.0085
  684SOL    HW112731   4.556   2.497   1.751 -1.0582 -0.5387 -0.7422
  684SOL    HW212732   4.619   2.494   1.601  0.5303  1.1678 -0.1251
  685SOL     OW12733   8.008   9.163   1.223 -0.0992 -0.3336 -0.2219
  685SOL    HW112734   8.100   9.134   1.196 -0.3737 -0.7427 -0.7225
  685SOL    HW212735   8.010   9.259   1.252  0.7462 -0.7394  1.0942
  686SOL     OW12736   3.203   5.608   5.509  0.2387  0.6475 -0.0572
  686SOL    HW112737   3.287   5.653   5.540  1.2390  0.0400 -1.7790
  686SOL    HW212738   3.163   5.557   5.585  2.3092 -0.3423  0.4167
  687SOL     OW12739   1.619   2.556   1.460  0.4046 -0.3311 -0.2200
  687SOL    HW112740   1.613   2.502   1.544  1.2148 -0.6602 -0.3598
  687SOL    HW212741   1.610   2.653   1.482 -0.5732 -0.4938  0.0972
  688SOL     OW12742   9.427   3.083   2.962  0.5607  0.2162  0.4415
  688SOL    HW112743   9.458   3.016   3.030 -1.3822  0.7920  1.9454
  688SOL    HW212744   9.343   3.126   2.994 -0.5595  0.2859 -2.4977
  689SOL     OW12745   1.743   8.924   0.869 -0.2847  0.6228  0.0221
  689SOL    HW112746   1.683   8.848   0.844  0.4267 -0.3636  1.2109
  689SOL    HW212747   1.814   8.935   0.800  1.2173 -1.5789  1.1356
  690SOL     OW12748   1.015   6.477   3.445  0.3629  0.2729 -0.4416
  690SOL    HW112749   1.024   6.501   3.348  0.4130  2.3870  0.0626
  690SOL    HW212750   0.920   6.453   3.464  0.1411  0.8463 -0.8073
  691SOL     OW12751   2.638   4.177   4.670 -0.3905 -0.2963 -0.6244
  691SOL    HW112752   2.697   4.097   4.676  0.0329 -0.1407 -2.5968
  691SOL    HW212753   2.575   4.177   4.748  0.4487 -1.8593  0.0801
  692SOL     OW12754   4.223   5.921   1.268 -0.2924 -0.3903  0.5026
  692SOL    HW112755   4.242   5.873   1.182 -1.3755  1.6998 -0.9599
  692SOL    HW212756   4.307   5.926   1.323  0.1148 -2.8371  0.1498
  693SOL     OW12757   7.128   9.555   3.746  0.1553  0.5689  0.0029
  693SOL    HW112758   7.045   9.510   3.779  0.0832  0.0734 -0.8367
  693SOL    HW212759   7.169   9.500   3.673  0.4275  1.5309 -0.5799
  694SOL     OW12760   4.489   8.037   5.170 -0.3073  0.2813  0.0444
  694SOL    HW112761   4.571   8.090   5.148  0.2544 -0.9744 -0.9554
  694SOL    HW212762   4.410   8.075   5.121 -0.3017  1.3506  0.8337
  695SOL     OW12763   1.400   0.789   2.962 -0.6385  0.4195 -0.5599
  695SOL    HW112764   1.360   0.778   3.053 -0.2526  1.1667 -0.2921
  695SOL    HW212765   1.394   0.703   2.911  2.4222 -1.0943  1.4751
  696SOL     OW12766   0.249   8.275   4.721  0.0504 -0.4627  0.0831
  696SOL    HW112767   0.323   8.216   4.688 -0.5942 -1.0604 -0.3191
  696SOL    HW212768   0.196   8.226   4.789  0.7227  0.3869  1.2286
  697SOL     OW12769   8.397   2.630   3.000  0.4810  0.3497 -0.2497
  697SOL    HW112770   8.313   2.651   3.050  0.4015 -1.0875  0.2553
  697SOL    HW212771   8.379   2.558   2.934  1.6472 -1.0691  0.9465
  698SOL     OW12772   2.736   7.877   3.758 -0.1297 -0.0055 -0.1413
  698SOL    HW112773   2.694   7.897   3.847  0.1142 -0.4521  0.0751
  698SOL    HW212774   2.830   7.910   3.757 -0.7140  1.6672 -0.8907
  699SOL     OW12775   0.316   6.553   4.021  0.4609  0.1457  0.7421
  699SOL    HW112776   0.219   6.553   4.043  0.7299  0.5097  1.9650
  699SOL    HW212777   0.331   6.507   3.934 -0.9032  0.8480  0.1272
  700SOL     OW12778   4.257   1.189   0.833  0.0199 -0.6310  0.2743
  700SOL    HW112779   4.251   1.225   0.740 -1.3426 -0.6779  0.3363
  700SOL    HW212780   4.354   1.179   0.859  0.4768 -3.1011 -2.0878
  701SOL     OW12781   1.335   9.525   2.230 -0.8313  0.0186 -0.3159
  701SOL    HW112782   1.347   9.493   2.324  0.0027 -2.4345 -1.2149
  701SOL    HW212783   1.257   9.478   2.188 -0.1905 -0.1177 -1.3663
  702SOL     OW12784   0.867   8.499   4.675  0.7665 -0.1838 -0.2375
  702SOL    HW112785   0.884   8.590   4.712 -0.1608 -0.2134  0.2648
  702SOL    HW212786   0.912   8.431   4.732 -0.7527 -0.2374  0.9049
  703SOL     OW12787   4.941   8.299   4.460 -0.1633  0.0910  0.4770
  703SOL    HW112788   4.873   8.372   4.468 -1.8606 -1.4237  0.2919
  703SOL    HW212789   5.031   8.334   4.484 -0.7970  2.4735 -0.4722
  704SOL     OW12790   2.820   1.473   0.100  0.9289 -0.1516  0.3027
  704SOL    HW112791   2.819   1.518   0.011  1.8265 -1.2373 -0.2811
  704SOL    HW212792   2.842   1.539   0.171 -1.8970  1.1558 -0.0086
  705SOL     OW12793   1.083   0.934   5.552  0.0439  0.6916  0.0982
  705SOL    HW112794   1.021   0.862   5.520  0.8979 -0.0440  0.0734
  705SOL    HW212795   1.146   0.959   5.478 -0.5131  1.7561 -0.0214
  706SOL     OW12796   0.337   0.898   0.625  0.2675  0.5086  0.5018
  706SOL    HW112797   0.244   0.875   0.597  0.1470  0.7243  0.7185
  706SOL    HW212798   0.382   0.951   0.554  0.2959  0.2233  0.3082
  707SOL     OW12799   1.585   3.130   3.328 -0.1752 -0.2025 -0.0740
  707SOL    HW112800   1.532   3.105   3.409 -1.3101  1.1759 -0.3637
  707SOL    HW212801   1.623   3.222   3.340  1.1034 -0.6791 -0.3962
  708SOL     OW12802   2.479   5.472   3.501  0.2801  0.1266  0.1257
  708SOL    HW112803   2.565   5.443   3.458 -0.4052 -0.7130 -0.7095
  708SOL    HW212804   2.409   5.482   3.430  0.0874  2.3313  0.6039
  709SOL     OW12805   1.158   1.520   0.555 -0.2122  0.0301 -0.0888
  709SOL    HW112806   1.163   1.486   0.461  0.6662  0.0792 -0.0570
  709SOL    HW212807   1.201   1.454   0.617  2.4357  1.6608 -0.1447
  710SOL     OW12808   6.113   7.606   1.364  0.0578  0.2873 -0.3157
  710SOL    HW112809   6.194   7.662   1.384 -1.1087  1.8739  0.0028
  710SOL    HW212810   6.088   7.617   1.268 -1.0378  1.4821  0.0911
  711SOL     OW12811   1.440   1.893   3.049  0.4058  0.1368  0.7018
  711SOL    HW112812   1.350   1.937   3.051 -0.2605 -1.0146 -1.7475
  711SOL    HW212813   1.428   1.794   3.044  1.7811  0.0220 -0.6657
  712SOL     OW12814   6.868   8.935   2.087  0.5621  0.2733  0.1890
  712SOL    HW112815   6.895   8.981   2.003  1.6066  0.0466  0.3868
  712SOL    HW212816   6.949   8.895   2.130 -0.1107 -0.4668  0.7838
  713SOL     OW12817   3.791   1.950   5.227 -0.8488  0.4921  0.6622
  713SOL    HW112818   3.691   1.950   5.223 -0.8850  0.3141  1.3822
  713SOL    HW212819   3.823   1.857   5.245 -0.5221  0.4382 -0.2015
  714SOL     OW12820   3.866   8.554   3.194  0.1364  0.9936  0.0966
  714SOL    HW112821   3.889   8.634   3.139  0.7910 -0.2474 -1.4618
  714SOL    HW212822   3.948   8.519   3.238  0.3721 -0.5077 -1.5164
  715SOL     OW12823   7.168   0.169   0.751  0.2768  0.1873  0.1426
  715SOL    HW112824   7.179   0.154   0.849  1.2857  0.0991  0.0263
  715SOL    HW212825   7.244   0.127   0.702 -1.7128 -2.2559 -0.9289
  716SOL     OW12826   9.751   8.616   1.756 -0.3383  0.7580  0.2858
  716SOL    HW112827   9.844   8.581   1.761  0.5325  2.9715 -0.0628
  716SOL    HW212828   9.690   8.556   1.809  1.6469  0.5932  2.4466
  717SOL     OW12829   2.653   5.786   0.881  0.0363  0.0272  0.7722
  717SOL    HW112830   2.730   5.829   0.833 -1.9240 -0.1405 -2.6749
  717SOL    HW212831   2.582   5.854   0.898 -0.9051 -0.7464 -0.0514
  718SOL     OW12832   4.694   0.712   4.475  0.1536  0.0675 -0.1321
  718SOL    HW112833   4.781   0.666   4.489  0.4057  0.8170  0.7719
  718SOL    HW212834   4.622   0.662   4.522 -0.4731 -2.3297 -3.4217
  719SOL     OW12835   2.891   0.342   2.286 -0.0634  0.0763 -0.5401
  719SOL    HW112836   2.985   0.361   2.312 -0.2751 -0.1024  0.3638
  719SOL    HW212837   2.846   0.427   2.257  1.4306 -0.3690 -4.5261
  720SOL     OW12838   8.186   3.797   1.381  0.4681  0.0514 -0.0196
  720SOL    HW112839   8.141   3.797   1.471  0.3679 -0.3051 -0.0707
  720SOL    HW212840   8.147   3.725   1.324 -1.2428  1.8780 -1.2435
  721SOL     OW12841   2.955   7.416   1.510 -0.0139  0.6666 -0.6459
  721SOL    HW112842   2.954   7.334   1.454  1.5319  2.0948 -2.8328
  721SOL    HW212843   2.889   7.482   1.474 -1.8503  0.1244  1.5876
  722SOL     OW12844   0.029   1.697   3.197  0.1786 -0.3287 -0.7726
  722SOL    HW112845   0.047   1.778   3.141  1.6073 -0.4542 -0.5144
  722SOL    HW212846   0.042   1.720   3.294  2.8701 -1.4287 -0.8342
  723SOL     OW12847   0.409   9.372   1.749 -0.1953 -0.6419  0.0524
  723SOL    HW112848   0.311   9.357   1.763 -0.3349 -1.0978 -1.3114
  723SOL    HW212849   0.430   9.469   1.765 -0.8417 -0.5609  0.4491
  724SOL     OW12850   0.979   5.925   3.174  0.2949 -0.1485  0.1007
  724SOL    HW112851   1.057   5.891   3.122  0.0183 -0.3589 -0.1745
  724SOL    HW212852   1.007   6.005   3.227  1.3961 -1.7183  2.0084
  725SOL     OW12853   2.822   9.454   3.120 -0.5727  0.3268  0.7852
  725SOL    HW112854   2.726   9.476   3.105 -0.9736 -1.7371  0.1818
  725SOL    HW212855   2.864   9.524   3.178 -2.2519  1.6025  0.4763
  726SOL     OW12856   7.564   9.107   0.047  0.0109  0.2537 -0.3388
  726SOL    HW112857   7.574   9.184   0.110  0.1801 -2.7698  3.5489
  726SOL    HW212858   7.653   9.086   0.006  0.1670  1.4374 -0.6428
  727SOL     OW12859   9.840   8.050   3.990  0.1703 -0.0294 -1.0251
  727SOL    HW112860   9.755   8.080   3.946 -0.2083  1.8982  0.9662
  727SOL    HW212861   9.915   8.110   3.961 -0.0966  1.2971  1.0127
  728SOL     OW12862   3.008   9.802   3.836 -0.1636 -0.2100  0.5324
  728SOL    HW112863   3.104   9.814   3.863  0.1610 -1.1273 -0.1603
  728SOL    HW212864   2.954   9.878   3.871  1.5550  2.6125 -2.6044
  729SOL     OW12865   5.039   1.237   1.900  0.3359 -0.2012 -0.4365
  729SOL    HW112866   5.062   1.314   1.960  0.5814 -1.4563  1.0923
  729SOL    HW212867   5.109   1.230   1.829  1.0297  0.1816  0.1942
  730SOL     OW12868   4.860   3.464   1.149  0.0322 -0.0354 -0.2952
  730SOL    HW112869   4.769   3.506   1.149  0.1621  0.2596  1.6491
  730SOL    HW212870   4.856   3.376   1.103 -1.0268  0.4211 -1.0981
  731SOL     OW12871   3.568   2.126   3.681  0.0496 -0.2426 -0.0546
  731SOL    HW112872   3.610   2.063   3.616  1.3430  1.3072 -0.7719
  731SOL    HW212873   3.625   2.134   3.763  0.1953  0.4064 -0.2117
  732SOL     OW12874   0.558   0.974   4.223 -0.0386 -0.3255 -0.9645
  732SOL    HW112875   0.640   1.030   4.230 -0.1100 -0.2836 -0.4309
  732SOL    HW212876   0.517   0.963   4.314 -2.5851  2.6144 -1.6459
  733SOL     OW12877   2.778   2.819   0.538 -0.0925 -0.2146  0.1061
  733SOL    HW112878   2.740   2.909   0.560  0.4002  0.0664 -0.2008
  733SOL    HW212879   2.773   2.761   0.619 -1.8363 -0.4154 -0.1119
  734SOL     OW12880   3.110   0.297   5.203  0.1194 -0.2333  0.8059
  734SOL    HW112881   3.151   0.372   5.151 -1.8091  0.8011  0.7302
  734SOL    HW212882   3.174   0.267   5.273  0.9303  1.5132  0.8556
  735SOL     OW12883   2.289   2.876   2.114  0.2424  0.1123 -0.6182
  735SOL    HW112884   2.224   2.806   2.086  0.8257 -0.6780 -0.0038
  735SOL    HW212885   2.256   2.966   2.084 -0.5206 -0.4153 -1.3676
  736SOL     OW12886   7.924   3.875   1.217  0.4057  0.0782  0.1094
  736SOL    HW112887   7.943   3.840   1.125  1.3533  0.5603  0.1134
  736SOL    HW212888   7.977   3.959   1.231 -1.1974  1.0467  0.3930
  737SOL     OW12889   8.055   7.945   2.974  0.3870 -0.3047 -0.3618
  737SOL    HW112890   7.993   7.879   2.932 -2.2161  1.1271  1.0329
  737SOL    HW212891   8.038   7.948   3.073  0.9929  1.8418 -0.2955
  738SOL     OW12892   2.788   9.198   0.859  0.0067  0.6572 -0.2102
  738SOL    HW112893   2.885   9.193   0.838  0.2295  0.7619  0.7938
  738SOL    HW212894   2.742   9.117   0.822  0.5513  0.3792 -0.2742
  739SOL     OW12895   0.611   9.469   3.398  0.1625 -0.2165 -0.2073
  739SOL    HW112896   0.652   9.493   3.486 -1.3921 -3.0683  1.3521
  739SOL    HW212897   0.512   9.480   3.403  0.1726  1.1727 -2.1776
  740SOL     OW12898   5.283   4.345   0.671 -0.1062  0.3639  1.1756
  740SOL    HW112899   5.325   4.267   0.626 -0.2198  0.1551  1.4306
  740SOL    HW212900   5.345   4.380   0.742  0.1471  0.8018  0.7401
  741SOL     OW12901   1.074   3.021   4.494  0.2400 -0.1881  0.0059
  741SOL    HW112902   1.154   3.079   4.513  0.8565 -0.9068 -0.3584
  741SOL    HW212903   0.994   3.060   4.539  0.8428  0.4070  0.5947
  742SOL     OW12904   0.378   1.671   3.276  0.1337 -0.1612 -0.3771
  742SOL    HW112905   0.447   1.737   3.248  0.6446 -1.4189 -2.1737
  742SOL    HW212906   0.299   1.676   3.214 -0.8030  0.3250  0.8394
  743SOL     OW12907   8.765   0.652   1.665  0.3097  0.1795 -0.2145
  743SOL    HW112908   8.779   0.746   1.635 -2.0957  0.3235 -0.9653
  743SOL    HW212909   8.836   0.593   1.625  0.9536  1.4319 -0.9217
  744SOL     OW12910   9.851   0.163   4.157  0.2440  0.5356 -0.5613
  744SOL    HW112911   9.789   0.112   4.217 -0.4898 -0.5005 -2.1356
  744SOL    HW212912   9.878   0.104   4.080  1.2905  1.7590 -1.1510
  745SOL     OW12913   7.948   7.429   2.147 -0.4299  0.2546  0.2166
  745SOL    HW112914   8.040   7.392   2.132 -1.0592 -1.3434  0.2563
  745SOL    HW212915   7.922   7.487   2.070  0.8772  1.2867  0.5251
  746SOL     OW12916   2.151   4.209   3.752  0.4495  0.6152  0.1968
  746SOL    HW112917   2.143   4.289   3.691  1.8633  1.9350  1.6771
  746SOL    HW212918   2.125   4.236   3.845  0.7454 -0.7065  0.6645
  747SOL     OW12919   2.378   0.528   1.493 -0.6106 -0.4197  0.1460
  747SOL    HW112920   2.384   0.590   1.571 -1.3892 -0.0369 -0.0990
  747SOL    HW212921   2.303   0.464   1.507 -1.4068  0.3032 -0.7498
  748SOL     OW12922   0.418   1.664   0.352  0.2871 -0.2899  0.3686
  748SOL    HW112923   0.428   1.757   0.314 -1.4222  1.0647  3.0823
  748SOL    HW212924   0.453   1.663   0.445  3.9429 -3.4388 -0.8874
  749SOL     OW12925   9.708   8.552   0.346  0.0286 -0.6683  0.1298
  749SOL    HW112926   9.652   8.570   0.266 -1.2438 -0.7641  0.9843
  749SOL    HW212927   9.689   8.620   0.417  1.5495 -0.2443  0.1587
  750SOL     OW12928   0.777   7.307   4.358  0.1789  0.2766 -0.3641
  750SOL    HW112929   0.794   7.331   4.454 -0.0239 -1.2421  0.0610
  750SOL    HW212930   0.861   7.321   4.306  1.5186 -2.8092  0.8530
  751SOL     OW12931   1.263   8.229   1.332  0.3966  0.1352 -0.9299
  751SOL    HW112932   1.309   8.311   1.298 -2.8644  1.7295 -1.7038
  751SOL    HW212933   1.191   8.202   1.268 -0.3081 -1.7981  0.6129
  752SOL     OW12934   8.388   5.762   2.503 -0.3508 -0.9541  0.0532
  752SOL    HW112935   8.434   5.851   2.496  0.7276 -1.5474 -0.5087
  752SOL    HW212936   8.446   5.698   2.553 -0.9829 -1.4378  0.1720
  753SOL     OW12937   8.688   7.526   1.377 -0.0820  0.1017  0.5678
  753SOL    HW112938   8.625   7.604   1.381 -0.3040 -0.0872  0.8349
  753SOL    HW212939   8.781   7.559   1.360 -0.3874  0.3158 -0.7307
  754SOL     OW12940   0.120   6.827   3.419  0.0569  0.5287 -0.1769
  754SOL    HW112941   0.140   6.766   3.343 -0.9305 -0.0045 -0.0111
  754SOL    HW212942   0.206   6.851   3.465  0.5743  0.2439 -0.9843
  755SOL     OW12943   5.992   0.373   1.855  0.1292 -0.4615 -0.2046
  755SOL    HW112944   5.899   0.409   1.844  0.1367 -1.0025 -2.3875
  755SOL    HW212945   6.004   0.339   1.948 -2.4769 -1.9985 -0.3805
  756SOL     OW12946   1.627   7.722   3.304  0.2587 -0.9276 -0.1419
  756SOL    HW112947   1.528   7.738   3.305  0.5728  1.0944  0.5351
  756SOL    HW212948   1.647   7.642   3.247 -1.6613 -0.5889 -1.3430
  757SOL     OW12949   3.103   6.139   1.771 -0.1691  0.0275  0.1661
  757SOL    HW112950   3.104   6.071   1.844 -1.2105  0.5969  0.7158
  757SOL    HW212951   3.081   6.094   1.684 -0.7060 -0.3554  0.4974
  758SOL     OW12952   5.603   8.470   2.688 -0.4227 -0.4486  0.2972
  758SOL    HW112953   5.538   8.503   2.756  0.0564  0.2935  0.3990
  758SOL    HW212954   5.695   8.503   2.710 -0.4219  0.6384 -1.2476
  759SOL     OW12955   1.862   0.666   4.728 -0.4811 -0.5423  0.2624
  759SOL    HW112956   1.884   0.740   4.792 -0.7347 -0.8565  0.7207
  759SOL    HW212957   1.927   0.591   4.738  2.2014  1.2457 -2.9968
  760SOL     OW12958   3.355   7.827   5.521 -0.0895  0.0736  0.0442
  760SOL    HW112959   3.384   7.768   5.597 -1.2508 -3.0847 -1.8338
  760SOL    HW212960   3.422   7.822   5.447 -0.0266  1.4247  0.0027
  761SOL     OW12961   2.308   8.629   3.883 -0.0380  0.2006  0.3669
  761SOL    HW112962   2.228   8.688   3.891  0.0254  0.3830 -0.3479
  761SOL    HW212963   2.364   8.637   3.966 -0.0883  1.0635  0.3202
  762SOL     OW12964   0.907   8.287   4.489 -0.1446  0.0144  0.2950
  762SOL    HW112965   0.926   8.375   4.532 -0.5894 -0.1248  0.7753
  762SOL    HW212966   0.887   8.219   4.559 -0.9696 -0.1889 -0.1340
  763SOL     OW12967   8.102   9.085   0.313  0.1062  0.2715 -0.1213
  763SOL    HW112968   8.135   9.159   0.254  0.6652  0.4576  0.4234
  763SOL    HW212969   8.172   9.013   0.319 -0.1351  0.0409 -0.0563
  764SOL     OW12970   8.700   9.372   4.293  0.6041 -0.1071  0.2911
  764SOL    HW112971   8.726   9.329   4.206  1.2132  0.0016  0.4198
  764SOL    HW212972   8.782   9.403   4.341  0.0877  2.3296 -0.3748
  765SOL     OW12973   1.827   7.740   1.782  0.1218 -0.0628 -0.1190
  765SOL    HW112974   1.842   7.709   1.875  1.5272 -0.8383 -0.5991
  765SOL    HW212975   1.756   7.685   1.739 -1.5138  1.1858  0.9257
  766SOL     OW12976   1.591   5.288   3.556 -0.0290 -0.2868  0.1177
  766SOL    HW112977   1.541   5.301   3.471 -1.1417  0.8624  0.9361
  766SOL    HW212978   1.622   5.377   3.591 -0.0882 -0.6872  1.2146
  767SOL     OW12979   2.695   9.149   5.065 -0.4949  0.5493 -0.1451
  767SOL    HW112980   2.679   9.205   4.983 -0.1589 -1.1461 -1.3890
  767SOL    HW212981   2.782   9.101   5.056 -0.5845  0.1353  1.1000
  768SOL     OW12982   0.727   5.887   3.045 -0.1147  0.1293 -0.3999
  768SOL    HW112983   0.732   5.904   2.947 -0.3514 -0.9994 -0.6181
  768SOL    HW212984   0.818   5.872   3.082 -0.1677 -1.2354 -0.7910
  769SOL     OW12985   5.962   8.238   3.310  0.0134  0.2144 -0.0707
  769SOL    HW112986   5.979   8.140   3.314 -2.7663 -0.5763 -4.5899
  769SOL    HW212987   6.032   8.281   3.253  0.5790  0.7427  0.9956
  770SOL     OW12988   4.775   9.824   1.848 -0.1224  0.6685 -0.0745
  770SOL    HW112989   4.801   9.914   1.814 -0.5414  0.5969 -0.5845
  770SOL    HW212990   4.748   9.831   1.944  1.5425  0.7935  0.4130
  771SOL     OW12991   3.206   5.679   2.795 -0.3561 -0.4106  0.1450
  771SOL    HW112992   3.303   5.704   2.790 -0.5133  0.3026  0.6022
  771SOL    HW212993   3.176   5.647   2.705 -0.0386  0.6494 -0.3535
  772SOL     OW12994   2.788   3.799   4.852  0.4878  0.2380  0.3525
  772SOL    HW112995   2.842   3.854   4.790 -0.2244  0.2577 -0.2590
  772SOL    HW212996   2.746   3.858   4.922  1.8800  0.1226  1.3063
  773SOL     OW12997   5.181   7.976   2.426 -0.3497 -0.4165  0.2299
  773SOL    HW112998   5.086   7.946   2.413 -0.2734 -1.1614  1.2730
  773SOL    HW212999   5.183   8.048   2.496 -0.5264  2.0320 -2.2393
  774SOL     OW13000   3.885   8.793   0.288  0.1627 -0.5373  0.2175
  774SOL    HW113001   3.962   8.782   0.351 -0.3905 -0.8440  0.8495
  774SOL    HW213002   3.821   8.860   0.326 -0.4885 -1.1983  0.2978
  775SOL     OW13003   6.552   9.531   3.787  0.9062  0.4658  0.3082
  775SOL    HW113004   6.588   9.595   3.855 -0.9126  0.9232  0.8768
  775SOL    HW213005   6.498   9.581   3.720 -1.5398 -0.5939  1.4374
  776SOL     OW13006   8.555   8.051   3.442 -0.4450  0.0465 -0.4726
  776SOL    HW113007   8.461   8.086   3.440 -0.8375 -0.9210  1.0636
  776SOL    HW213008   8.554   7.952   3.455  0.8087  0.2086  1.0330
  777SOL     OW13009   8.952   3.118   2.130 -1.1502 -0.0788  0.1346
  777SOL    HW113010   8.909   3.082   2.213  2.2326 -2.6499  0.9035
  777SOL    HW213011   9.011   3.194   2.153 -1.6566  0.4338 -0.2322
  778SOL     OW13012   7.591   6.952   2.645 -0.1532 -0.5577  0.5822
  778SOL    HW113013   7.520   7.016   2.616  0.5635 -0.0954 -0.1750
  778SOL    HW213014   7.611   6.888   2.570  0.8028 -0.1642  0.4839
  779SOL     OW13015   8.679   0.068   1.947 -0.7619  0.0972  0.5231
  779SOL    HW113016   8.630  -0.002   1.894 -2.7419  1.9877 -0.2246
  779SOL    HW213017   8.639   0.073   2.039 -0.4011  0.0165  0.6834
  780SOL     OW13018   0.023   1.118   4.582  0.6520  0.6332 -0.0619
  780SOL    HW113019  -0.001   1.072   4.496  0.9896  1.0055 -0.3606
  780SOL    HW213020  -0.022   1.072   4.658  0.5580  0.1358 -0.4116
  781SOL     OW13021   7.983   2.085   1.160  0.0204 -0.0362  0.3327
  781SOL    HW113022   7.966   2.123   1.069  0.3473  0.4833  0.4849
  781SOL    HW213023   7.992   2.160   1.226  1.9337 -0.3223  0.4183
  782SOL     OW13024   3.474   8.968   3.464 -0.4413 -0.0856  0.2342
  782SOL    HW113025   3.393   8.973   3.522 -0.2331  0.9920  0.4408
  782SOL    HW213026   3.475   9.045   3.401 -0.4411 -1.0158 -0.9149
  783SOL     OW13027   9.104   1.780   5.257  0.4501 -0.0711 -0.0580
  783SOL    HW113028   9.009   1.753   5.271  0.7984 -0.1265  2.3927
  783SOL    HW213029   9.111   1.838   5.175 -1.5123 -0.8961 -0.8230
  784SOL     OW13030   4.852   8.772   2.291  0.0789  0.3342  0.1758
  784SOL    HW113031   4.910   8.757   2.371 -0.1955 -0.9213  0.1511
  784SOL    HW213032   4.832   8.684   2.247  0.3978  1.0150 -1.3946
  785SOL     OW13033   2.990   0.064   5.405  0.8736 -0.0605 -0.1601
  785SOL    HW113034   3.071   0.008   5.418  2.0769  1.3256 -1.5321
  785SOL    HW213035   2.980   0.087   5.308 -0.8845  0.1776  0.0657
  786SOL     OW13036   4.360   7.008   3.631  0.5011 -0.0859 -0.4725
  786SOL    HW113037   4.338   7.092   3.581  1.4057  0.6559  0.3571
  786SOL    HW213038   4.295   6.936   3.605 -0.8183  1.1096 -0.5410
  787SOL     OW13039   8.445   2.597   2.603 -0.2628  0.1331  0.1912
  787SOL    HW113040   8.516   2.652   2.648 -0.1937 -0.1754  0.4590
  787SOL    HW213041   8.450   2.610   2.504 -0.6132  1.0580  0.2908
  788SOL     OW13042   3.962   0.909   5.614 -0.2907 -0.4901 -0.1994
  788SOL    HW113043   3.870   0.927   5.578 -0.9257  1.1567  2.1114
  788SOL    HW213044   3.964   0.931   5.712  2.7959  0.2460 -0.3822
  789SOL     OW13045   3.505   2.131   1.372  0.4792  0.1491  0.0791
  789SOL    HW113046   3.412   2.164   1.387  0.3173  0.0384 -0.6400
  789SOL    HW213047   3.536   2.079   1.452  0.5621  1.6382  1.0194
  790SOL     OW13048   4.098   2.659   3.233 -0.8148 -0.3499 -0.1602
  790SOL    HW113049   4.097   2.716   3.315  1.0452  0.6742 -0.7979
  790SOL    HW213050   4.086   2.718   3.152 -2.5984 -1.3367 -0.6331
  791SOL     OW13051   7.142   0.311   1.688 -0.5056 -0.2887  0.3535
  791SOL    HW113052   7.225   0.330   1.739 -0.5543  1.1781 -0.1125
  791SOL    HW213053   7.107   0.221   1.715  1.1928 -0.9013  0.5754
  792SOL     OW13054   1.834   9.337   4.875 -0.1417  0.4245 -0.1196
  792SOL    HW113055   1.895   9.259   4.860 -0.0206  0.2205  1.3181
  792SOL    HW213056   1.885   9.411   4.919 -0.2594  1.3300 -1.4679
  793SOL     OW13057   4.588   8.098   3.269 -0.4037 -0.2497  0.0847
  793SOL    HW113058   4.630   8.021   3.220 -0.0930 -0.4314  0.6310
  793SOL    HW213059   4.602   8.086   3.367 -3.1936 -1.1826  0.3970
  794SOL     OW13060   3.670   0.658   1.147 -0.3388 -0.0690 -0.5159
  794SOL    HW113061   3.757   0.686   1.187 -1.2807  0.7380  1.0295
  794SOL    HW213062   3.608   0.630   1.220 -0.0265 -4.6205 -1.8593
  795SOL     OW13063   9.792   0.339   2.586 -0.8085  0.2524 -0.2471
  795SOL    HW113064   9.745   0.267   2.534 -0.5409 -0.4813  0.5043
  795SOL    HW213065   9.884   0.309   2.608 -1.3059  0.0473  1.6589
  796SOL     OW13066   0.739   0.903   0.754 -0.7013  0.2357  0.1165
  796SOL    HW113067   0.731   0.913   0.654 -0.2223  1.2319  0.1680
  796SOL    HW213068   0.822   0.851   0.775  1.2129  3.1551  0.0910
  797SOL     OW13069   4.551   9.829   2.904 -0.2381  0.3446  0.4302
  797SOL    HW113070   4.597   9.839   2.816  0.7120 -1.5541  0.6789
  797SOL    HW213071   4.575   9.741   2.945 -0.7869  1.1155  2.5285
  798SOL     OW13072   7.229   1.468   2.967 -0.2125 -0.2852  0.6873
  798SOL    HW113073   7.167   1.468   2.889  0.9542 -1.7086 -0.2732
  798SOL    HW213074   7.323   1.455   2.935  0.3379 -0.3408  2.2790
  799SOL     OW13075   4.856   2.115   2.188  0.1418  0.3136 -0.1093
  799SOL    HW113076   4.880   2.036   2.243 -1.3769 -0.5996 -0.7187
  799SOL    HW213077   4.931   2.136   2.125 -1.0007 -3.1495 -2.7591
  800SOL     OW13078   5.351   7.106   3.975 -0.4129 -0.0928 -0.6647
  800SOL    HW113079   5.436   7.118   4.028 -1.1662  0.0464  0.5309
  800SOL    HW213080   5.319   7.012   3.985 -1.6689  0.4881  0.8111
  801SOL     OW13081   9.378   2.122   2.565 -0.1835 -0.1562 -0.3437
  801SOL    HW113082   9.451   2.099   2.501  0.9788 -2.8914  1.8102
  801SOL    HW213083   9.292   2.080   2.534 -0.0865  0.2566 -1.1679
  802SOL     OW13084   8.376   8.854   4.199  0.7399 -0.1278  0.0655
  802SOL    HW113085   8.417   8.787   4.261  1.6255  0.2432 -0.1130
  802SOL    HW213086   8.300   8.812   4.150  0.1177 -0.4671  1.2978
  803SOL     OW13087   4.239   0.322   1.868 -0.2043 -0.4637  0.0618
  803SOL    HW113088   4.314   0.373   1.909  0.5307 -1.8065  0.3999
  803SOL    HW213089   4.274   0.262   1.796 -1.2335  0.4649 -1.2516
  804SOL     OW13090   2.879   4.115   2.954 -0.3173 -0.6083  0.3774
  804SOL    HW113091   2.870   4.182   2.880 -0.9092 -3.2301 -1.9893
  804SOL    HW213092   2.970   4.074   2.950  0.4009  0.7015  2.4455
  805SOL     OW13093   9.290   2.279   5.194  0.0452 -0.2179  0.5178
  805SOL    HW113094   9.343   2.292   5.279 -1.5518 -1.0007  1.6629
  805SOL    HW213095   9.341   2.316   5.117  1.9611 -0.3445  1.6931
  806SOL     OW13096   1.187   7.168   0.929  0.1407  0.2188 -0.3386
  806SOL    HW113097   1.186   7.187   0.831 -1.0212 -0.4721 -0.4741
  806SOL    HW213098   1.138   7.242   0.977  1.8970  1.2672 -0.1299
  807SOL     OW13099   4.391   0.821   4.058 -0.2930 -0.1670 -0.7918
  807SOL    HW113100   4.330   0.755   4.102  2.2689 -0.3521  2.6300
  807SOL    HW213101   4.483   0.812   4.096  1.1259  2.3834 -3.4678
  808SOL     OW13102   0.724   8.700   3.856 -0.1309 -0.3730  0.5400
  808SOL    HW113103   0.732   8.770   3.927  1.8406  0.1710 -0.1956
  808SOL    HW213104   0.768   8.732   3.772 -0.4065 -1.9377 -0.2141
  809SOL     OW13105   3.656   4.489   1.578 -0.5096 -0.1585 -0.3330
  809SOL    HW113106   3.641   4.482   1.480  0.2396 -0.5669 -0.4284
  809SOL    HW213107   3.704   4.574   1.599 -1.8678  0.5858 -0.1587
  810SOL     OW13108   4.623   9.134   5.250 -0.1819 -0.3298  0.1418
  810SOL    HW113109   4.560   9.065   5.285 -0.0839  0.4858  2.0030
  810SOL    HW213110   4.703   9.089   5.209 -2.0721 -1.3736 -2.5615
  811SOL     OW13111   9.187   0.527   0.788  0.0793 -0.4293 -0.0446
  811SOL    HW113112   9.148   0.448   0.836  0.7715 -1.3727 -1.0102
  811SOL    HW213113   9.129   0.550   0.709  1.3859 -1.7640 -1.4176
  812SOL     OW13114   7.901   0.368   0.514  0.2999  0.9283  0.8798
  812SOL    HW113115   7.826   0.326   0.565 -0.3651 -1.9469 -2.2480
  812SOL    HW213116   7.870   0.454   0.473 -1.1533  0.0286  0.0579
  813SOL     OW13117   0.165   0.442   2.480 -0.1048  0.4452 -0.8173
  813SOL    HW113118   0.124   0.414   2.568  0.1345  0.2571 -0.7660
  813SOL    HW213119   0.092   0.469   2.417 -0.4282 -1.3436 -1.2383
  814SOL     OW13120   8.941   0.258   3.714 -0.2826 -0.0222  0.4280
  814SOL    HW113121   8.950   0.311   3.799  0.3983 -0.4142  0.6054
  814SOL    HW213122   8.949   0.161   3.735 -3.6498 -0.3584  0.4156
  815SOL     OW13123   8.276   7.613   1.273  0.1597 -0.4271 -0.2156
  815SOL    HW113124   8.353   7.621   1.335 -1.6266 -1.2725  2.1931
  815SOL    HW213125   8.236   7.703   1.257  2.1533  0.1439 -2.2074
  816SOL     OW13126   6.373   7.701   1.401  0.2837 -0.2345 -0.0077
  816SOL    HW113127   6.436   7.774   1.379 -1.7800  1.1625 -1.4364
  816SOL    HW213128   6.423   7.615   1.411  2.5558  1.1042  0.3910
  817SOL     OW13129   9.932   1.487   3.562 -0.2716 -0.0352  0.3218
  817SOL    HW113130  10.025   1.453   3.569  0.5397  2.0891  0.1599
  817SOL    HW213131   9.879   1.427   3.502  1.0974 -1.0174  0.0732
  818SOL     OW13132   3.736   5.005   2.542  0.3449  0.6236 -0.1996
  818SOL    HW113133   3.703   5.008   2.448  0.8794 -1.3114 -0.4770
  818SOL    HW213134   3.707   4.919   2.584  1.6547  0.6722  0.8112
  819SOL     OW13135   9.043   0.144   2.511  0.2221 -0.0576 -0.1253
  819SOL    HW113136   8.950   0.179   2.524  0.3148  0.0428  0.2516
  819SOL    HW213137   9.107   0.197   2.566  0.3114 -1.0960  0.8012
  820SOL     OW13138   8.893   1.240   2.697  0.0822 -0.0290 -0.1307
  820SOL    HW113139   8.960   1.309   2.725  1.3051 -1.1615 -0.2394
  820SOL    HW213140   8.918   1.205   2.607 -2.1310  1.4142 -1.3436
  821SOL     OW13141   5.512   9.173   2.567  0.1204  0.2408 -0.2755
  821SOL    HW113142   5.420   9.211   2.560  0.0679  0.6424  2.1716
  821SOL    HW213143   5.525   9.104   2.496 -1.7189  0.8800 -1.2617
  822SOL     OW13144   4.516   1.175   1.632 -0.1135  0.2229 -0.2854
  822SOL    HW113145   4.524   1.272   1.657 -0.7319 -0.0161  0.8680
  822SOL    HW213146   4.471   1.167   1.543  0.0098  0.9985 -0.4219
  823SOL     OW13147   7.741   3.064   1.371  0.3671 -0.5547  0.0178
  823SOL    HW113148   7.790   3.061   1.458  1.4114 -2.7620 -0.6067
  823SOL    HW213149   7.715   3.158   1.351 -0.1589 -0.0546  2.8458
  824SOL     OW13150   0.562   1.531   4.534 -0.3461 -0.3784 -0.3057
  824SOL    HW113151   0.603   1.579   4.457 -0.4538 -0.9768 -0.7377
  824SOL    HW213152   0.620   1.454   4.560 -0.6702 -0.6027 -0.2446
  825SOL     OW13153   9.804   8.807   5.090 -0.1841 -0.8993  0.3999
  825SOL    HW113154   9.783   8.895   5.133  0.8073 -0.8234  0.7362
  825SOL    HW213155   9.832   8.742   5.161  2.4148 -0.4991 -0.2430
  826SOL     OW13156   2.945   4.036   3.562  0.3918 -0.0375 -0.7777
  826SOL    HW113157   2.922   4.117   3.508  1.4096  0.4949 -0.4284
  826SOL    HW213158   3.019   4.058   3.625  0.7537 -1.2645 -0.7576
  827SOL     OW13159   0.110   1.841   4.237 -0.0354 -0.2667 -0.0308
  827SOL    HW113160   0.038   1.773   4.249 -1.3585  0.6880 -2.1711
  827SOL    HW213161   0.166   1.846   4.320 -1.5456 -2.0530  1.1297
  828SOL     OW13162   8.064   2.239   0.912 -0.5637  0.4354  0.5266
  828SOL    HW113163   7.980   2.294   0.921 -0.9584 -0.1812  0.6550
  828SOL    HW213164   8.137   2.296   0.875 -0.8126  1.1998  1.1967
  829SOL     OW13165   8.366   9.772   4.024 -0.3455  0.0892  0.0079
  829SOL    HW113166   8.301   9.697   4.038  0.2909 -0.2177  1.3579
  829SOL    HW213167   8.438   9.742   3.961 -1.5748  0.4790 -1.6039
  830SOL     OW13168   2.104   3.573   4.044  0.1900  0.7190 -0.2372
  830SOL    HW113169   2.036   3.630   3.998 -0.1965  0.3765 -0.0840
  830SOL    HW213170   2.122   3.611   4.135  0.9163  1.3662 -0.6409
  831SOL     OW13171   7.130   0.942   0.989 -0.1004  0.2018 -0.5923
  831SOL    HW113172   7.041   0.963   1.031  0.1210  0.5228 -0.2699
  831SOL    HW213173   7.195   1.015   1.013  0.0034  0.4318 -1.5794
  832SOL     OW13174   8.621   6.381   2.848  0.2103  0.0043 -0.3661
  832SOL    HW113175   8.705   6.435   2.842  0.7875 -0.9073 -0.4651
  832SOL    HW213176   8.552   6.432   2.900  1.0506  0.4557  0.3135
  833SOL     OW13177   2.572   1.178   2.143  0.1652  0.2900  0.8758
  833SOL    HW113178   2.503   1.204   2.211 -1.7399 -0.5740 -0.6540
  833SOL    HW213179   2.663   1.204   2.175 -1.0833  3.6893  1.8987
  834SOL     OW13180   0.169   3.677   3.038  0.1708 -0.6760 -0.1309
  834SOL    HW113181   0.123   3.760   3.005  1.1978 -0.1400 -0.2456
  834SOL    HW213182   0.218   3.634   2.963 -1.6124 -2.2601 -0.4152
  835SOL     OW13183   8.955   6.184   1.520 -0.0631 -0.4076  0.4674
  835SOL    HW113184   8.968   6.250   1.446  1.0350  1.8898  2.6566
  835SOL    HW213185   8.881   6.214   1.580 -0.1205 -1.6305  1.0339
  836SOL     OW13186   1.397   7.893   0.621  0.1387  0.2092  0.3330
  836SOL    HW113187   1.331   7.907   0.546  1.7801  0.6064 -1.0723
  836SOL    HW213188   1.370   7.813   0.674  0.4564 -1.8165 -2.4231
  837SOL     OW13189   1.214   6.761   5.591 -1.0472  0.3293  0.0266
  837SOL    HW113190   1.286   6.827   5.614 -0.3871  0.1208 -1.3744
  837SOL    HW213191   1.228   6.728   5.497 -0.9561 -2.3566  0.9498
  838SOL     OW13192   4.443   9.383   5.600 -0.1737 -0.7277 -0.0131
  838SOL    HW113193   4.500   9.314   5.644  2.3131  1.5930  0.5853
  838SOL    HW213194   4.502   9.453   5.559 -2.5746  2.0054  0.9907
  839SOL     OW13195   1.514   7.875   4.783 -0.5761  0.8072 -0.2174
  839SOL    HW113196   1.548   7.819   4.858  1.9359  3.8121  1.0289
  839SOL    HW213197   1.542   7.835   4.696  0.3964 -0.3418  0.6089
  840SOL     OW13198   0.124   2.265   2.270 -0.0453 -0.2339 -0.5535
  840SOL    HW113199   0.124   2.305   2.179  1.2060 -0.5702 -0.7148
  840SOL    HW213200   0.137   2.166   2.264  0.5015 -0.2077 -0.0088
  841SOL     OW13201   9.232   0.040   5.116 -0.5588 -0.2425  0.6957
  841SOL    HW113202   9.160  -0.003   5.170 -0.8636  1.8726  2.0008
  841SOL    HW213203   9.221   0.139   5.117  0.2670 -0.0828 -2.1082
  842SOL     OW13204   1.028   7.864   2.133  0.2754 -0.6124 -0.5747
  842SOL    HW113205   0.964   7.937   2.110  0.9176  0.1744  0.1184
  842SOL    HW213206   0.979   7.777   2.138 -1.4046  0.4413  3.2723
  843SOL     OW13207   2.720   0.511   3.346 -0.3215  0.0150 -0.7130
  843SOL    HW113208   2.629   0.490   3.383 -0.5518  1.0713 -0.6711
  843SOL    HW213209   2.740   0.608   3.360  1.0804 -0.3466 -0.1500
  844SOL     OW13210   0.432   8.222   2.905 -0.0014 -0.4720 -0.8881
  844SOL    HW113211   0.345   8.186   2.939 -0.5373  1.1194 -0.4936
  844SOL    HW213212   0.449   8.311   2.947 -0.4649  1.3763 -4.4248
  845SOL     OW13213   3.661   8.393   0.837 -0.3047 -0.1537  0.4897
  845SOL    HW113214   3.656   8.451   0.918  1.0120 -1.2492  1.3632
  845SOL    HW213215   3.595   8.318   0.844  0.1780 -0.5523  0.7966
  846SOL     OW13216   9.898   2.432   1.076 -0.3499  0.0694 -0.0518
  846SOL    HW113217   9.891   2.346   1.025 -0.8955 -0.9261  1.6706
  846SOL    HW213218   9.807   2.470   1.089 -0.4642 -0.9245  2.2376
  847SOL     OW13219   8.728   3.699   2.453  0.4180 -0.0055  0.3291
  847SOL    HW113220   8.663   3.687   2.379  0.9118 -0.0269 -0.1031
  847SOL    HW213221   8.683   3.745   2.530 -0.7184 -2.0729  0.9263
  848SOL     OW13222   8.239   2.963   2.701  0.8086 -0.1526  0.0925
  848SOL    HW113223   8.218   2.873   2.661 -0.8537  0.7384 -1.1219
  848SOL    HW213224   8.213   2.962   2.797 -2.2166 -0.0412 -0.6591
  849SOL     OW13225   5.275   9.435   2.259  0.1596  0.2646 -0.4569
  849SOL    HW113226   5.213   9.362   2.230 -0.1756  1.3090 -2.4634
  849SOL    HW213227   5.360   9.428   2.208  0.0118  1.4300 -0.8798
  850SOL     OW13228   6.514   8.213   3.433 -0.4388  0.2243  0.0776
  850SOL    HW113229   6.431   8.158   3.424 -0.0957 -0.1863 -0.6016
  850SOL    HW213230   6.526   8.270   3.352  1.8901 -2.4199 -1.5462
  851SOL     OW13231   4.919   2.995   2.439  0.2742 -0.6145 -0.4444
  851SOL    HW113232   4.884   2.918   2.387  1.4138  0.0747 -2.2830
  851SOL    HW213233   4.935   3.072   2.377  1.0253  0.4378  1.0362
  852SOL     OW13234   0.246   2.916   2.310  0.0615 -0.4164  0.3894
  852SOL    HW113235   0.185   2.837   2.301  0.2614 -0.7556  1.8834
  852SOL    HW213236   0.340   2.884   2.324  0.4251  0.1015 -0.7875
  853SOL     OW13237   9.437   8.357   2.716  0.2022  0.3031  0.8478
  853SOL    HW113238   9.508   8.286   2.707  0.1808  0.1717  1.6784
  853SOL    HW213239   9.391   8.369   2.628 -0.0740 -1.0100  0.8036
  854SOL     OW13240   9.065   8.009   1.561 -0.1241 -0.2578  0.0115
  854SOL    HW113241   9.102   8.017   1.654 -0.7159  0.4229  0.1941
  854SOL    HW213242   8.973   7.970   1.565 -0.7293  1.1161 -0.1494
  855SOL     OW13243   2.854   4.308   2.760 -0.1325  0.3488 -0.2119
  855SOL    HW113244   2.762   4.346   2.758 -1.0437 -1.7634  1.2486
  855SOL    HW213245   2.915   4.372   2.807 -1.1771  1.0433  0.2109
  856SOL     OW13246   1.404   1.374   0.482  0.2649  0.1498  0.3810
  856SOL    HW113247   1.337   1.328   0.540 -0.9907 -1.2465 -2.0910
  856SOL    HW213248   1.493   1.328   0.491 -0.3402 -1.1562 -0.0495
  857SOL     OW13249   2.752   4.811   4.297 -0.3893 -0.4130 -0.1630
  857SOL    HW113250   2.775   4.899   4.337  2.2437 -1.0167 -0.2821
  857SOL    HW213251   2.737   4.821   4.199  0.0856 -0.1283 -0.2064
  858SOL     OW13252   9.452   7.561   4.119  0.0624  0.5764 -0.0736
  858SOL    HW113253   9.408   7.496   4.058 -1.6653  0.8236  0.8931
  858SOL    HW213254   9.458   7.522   4.211  0.5988  1.0975  0.1197
  859SOL     OW13255   3.535   4.988   1.786  0.4630 -0.0307 -0.6329
  859SOL    HW113256   3.527   5.088   1.789 -2.1820 -0.2324 -0.3627
  859SOL    HW213257   3.593   4.957   1.862  0.3760  1.2026 -0.0566
  860SOL     OW13258   0.560   8.808   3.621  0.0931 -0.0175  0.0441
  860SOL    HW113259   0.653   8.776   3.641 -0.0989 -0.5340  0.1212
  860SOL    HW213260   0.501   8.729   3.604 -0.3002  0.3165 -0.1443
  861SOL     OW13261   9.800   8.011   2.987 -0.8865  0.6853  0.6084
  861SOL    HW113262   9.713   8.049   3.017 -0.9337  3.6826 -2.9936
  861SOL    HW213263   9.874   8.074   3.010 -0.0443 -0.3488  0.7979
  862SOL     OW13264   3.387   0.974   0.371 -0.0877  0.1786  0.6181
  862SOL    HW113265   3.423   0.883   0.391  0.7556  0.1272 -1.0636
  862SOL    HW213266   3.400   1.034   0.450  1.1048 -0.6294  1.0363
  863SOL     OW13267   2.594   6.508   0.987  0.2390 -0.2493  0.4422
  863SOL    HW113268   2.667   6.456   0.942 -0.3598  0.0592 -0.8870
  863SOL    HW213269   2.508   6.456   0.981  0.3194 -0.5724  1.9283
  864SOL     OW13270   3.961   0.264   2.000  0.3217 -0.2981  0.0454
  864SOL    HW113271   3.906   0.345   2.020  2.1260  0.8745  0.4222
  864SOL    HW213272   4.042   0.291   1.947  1.7801 -1.5797  1.5491
  865SOL     OW13273   2.993   2.707   5.550 -0.6517  0.2147 -0.0047
  865SOL    HW113274   3.017   2.761   5.631 -0.5999 -1.1577  0.8912
  865SOL    HW213275   3.056   2.630   5.541 -1.5728 -0.4789 -0.5402
  866SOL     OW13276   9.433   1.267   3.631 -0.4907 -0.3258 -0.2576
  866SOL    HW113277   9.475   1.218   3.555 -0.6771  0.3783 -0.8238
  866SOL    HW213278   9.496   1.270   3.708  1.0631  1.9060 -1.5550
  867SOL     OW13279   2.871   0.538   0.044 -0.6608  0.2977  0.3207
  867SOL    HW113280   2.843   0.633   0.051  1.9171  1.0658  0.8354
  867SOL    HW213281   2.909   0.521  -0.047 -1.3187 -0.3149  0.1532
  868SOL     OW13282   3.407   0.201   2.570  0.6452  0.5869  0.0749
  868SOL    HW113283   3.486   0.169   2.518  0.8606  0.2265  0.6194
  868SOL    HW213284   3.341   0.126   2.580  0.2168  0.9001 -0.4172
  869SOL     OW13285   0.736   1.308   5.042 -0.0319 -0.2244  0.4141
  869SOL    HW113286   0.658   1.271   4.992 -0.7029  0.5717  0.8713
  869SOL    HW213287   0.816   1.310   4.981 -1.3031  2.4636 -1.2154
  870SOL     OW13288   9.797   8.624   5.323 -0.0606  0.0679 -0.6154
  870SOL    HW113289   9.850   8.584   5.397  0.9858 -1.6432 -2.2292
  870SOL    HW213290   9.737   8.696   5.359 -0.9178 -1.9468  2.1481
  871SOL     OW13291   0.035   0.260   2.689  0.0628 -0.6226  0.4955
  871SOL    HW113292   0.077   0.323   2.754  0.7338  2.3299 -2.7210
  871SOL    HW213293   0.104   0.193   2.659  0.8167  0.4701 -0.2094
  872SOL     OW13294   1.542   8.255   0.180  0.2052 -0.2706 -0.5218
  872SOL    HW113295   1.467   8.213   0.129  0.7362 -0.6335 -1.0157
  872SOL    HW213296   1.553   8.209   0.268 -1.1236  0.7664  0.1979
  873SOL     OW13297   1.927   3.933   4.548  0.1886 -0.0442  0.3190
  873SOL    HW113298   1.914   3.929   4.647 -1.8267  0.7522  0.1038
  873SOL    HW213299   2.004   3.875   4.522  0.0491 -1.1191  2.2345
  874SOL     OW13300   8.091   7.759   4.349 -0.2128  0.3283 -0.5655
  874SOL    HW113301   8.071   7.667   4.384 -2.2317  0.3310 -1.6637
  874SOL    HW213302   8.152   7.751   4.269 -0.1208 -0.0233 -0.4629
  875SOL     OW13303   4.134   8.663   0.727  0.0005  0.4920 -0.3107
  875SOL    HW113304   4.062   8.620   0.780  0.7304 -1.5110 -0.8948
  875SOL    HW213305   4.181   8.731   0.783 -0.3733 -0.3571  1.0592
  876SOL     OW13306   1.916   6.719   3.639 -0.4294  0.3533 -0.2573
  876SOL    HW113307   1.874   6.674   3.718 -0.1354  0.5899  0.0337
  876SOL    HW213308   2.015   6.706   3.642 -0.3152  1.2535 -0.0243
  877SOL     OW13309   1.467   1.886   2.486 -0.3218 -0.2724 -0.0320
  877SOL    HW113310   1.534   1.831   2.436 -0.0486 -0.4312  0.5066
  877SOL    HW213311   1.376   1.869   2.449 -0.2978 -1.4210  0.4189
  878SOL     OW13312   1.831   2.738   1.250  0.3888  0.3851  0.0980
  878SOL    HW113313   1.781   2.652   1.244  2.2347 -0.7466  0.3469
  878SOL    HW213314   1.783   2.801   1.311  0.1505 -1.2888  1.6843
  879SOL     OW13315   1.813   7.931   2.716 -0.4595 -0.3465 -0.2444
  879SOL    HW113316   1.896   7.986   2.702  0.2349 -1.3647 -0.1974
  879SOL    HW213317   1.826   7.871   2.794 -1.7794  0.4735  0.6303
  880SOL     OW13318   0.852   8.000   0.048  0.7525 -0.5350  0.0755
  880SOL    HW113319   0.915   7.923   0.034  0.2169 -0.5828 -2.3070
  880SOL    HW213320   0.899   8.085   0.025  0.8708 -0.2891  1.2249
  881SOL     OW13321   4.301   4.027   5.258  0.4722  0.1551 -0.4943
  881SOL    HW113322   4.277   3.979   5.174  0.3667  0.6178 -0.7293
  881SOL    HW213323   4.324   4.122   5.237  1.3440  0.0344 -0.1188
  882SOL     OW13324   2.971   1.523   2.976 -0.5170 -0.2850 -0.3987
  882SOL    HW113325   3.040   1.594   2.961 -0.7628 -0.0879 -0.6011
  882SOL    HW213326   2.882   1.558   2.949 -0.7829 -0.3523  0.3710
  883SOL     OW13327   9.448   8.631   3.820  0.1230  0.6344 -0.4754
  883SOL    HW113328   9.456   8.689   3.902 -1.5612  1.1759 -0.6849
  883SOL    HW213329   9.511   8.664   3.750  1.0527  0.6151  0.3427
  884SOL     OW13330   1.885   8.555   0.882  0.1239  0.1070 -0.1418
  884SOL    HW113331   1.841   8.476   0.840 -0.4746  0.6737 -0.5982
  884SOL    HW213332   1.820   8.631   0.886  1.3119  1.2413 -1.6119
  885SOL     OW13333   9.159   1.210   0.335 -0.3047  0.7830  0.1002
  885SOL    HW113334   9.240   1.156   0.310  0.4388  1.9489 -0.0501
  885SOL    HW213335   9.170   1.304   0.303 -0.1682  1.8471  3.0979
  886SOL     OW13336   4.894   0.688   0.421  0.2682 -0.4212  0.2769
  886SOL    HW113337   4.861   0.762   0.363 -1.2076 -0.3329  1.1912
  886SOL    HW213338   4.994   0.686   0.420  0.4348  3.3444  2.3849
  887SOL     OW13339   1.268   1.221   4.237 -0.1489 -0.0637 -0.0766
  887SOL    HW113340   1.249   1.167   4.319  0.6875 -2.1139 -1.1850
  887SOL    HW213341   1.355   1.268   4.246  0.8740 -1.8293 -0.5256
  888SOL     OW13342   2.873   0.714   1.568 -0.4435 -0.2790 -0.2183
  888SOL    HW113343   2.963   0.679   1.594 -0.7642  0.0645  1.4245
  888SOL    HW213344   2.804   0.670   1.625 -1.2865 -0.2094 -1.1720
  889SOL     OW13345   9.006   9.202   1.143 -0.6958  0.1024 -0.0240
  889SOL    HW113346   9.082   9.142   1.167 -1.1229  0.0703  1.2724
  889SOL    HW213347   8.985   9.262   1.220 -0.6053  1.5723 -1.1195
  890SOL     OW13348   0.241   2.264   0.412  0.3982  0.0849  0.3661
  890SOL    HW113349   0.299   2.345   0.416 -0.3566  0.6334  0.5219
  890SOL    HW213350   0.223   2.231   0.505 -1.6522  1.4794  0.4979
  891SOL     OW13351   8.060   4.368   1.703 -0.1834  0.3044 -0.7046
  891SOL    HW113352   8.068   4.439   1.773 -0.3245  0.0038 -0.3820
  891SOL    HW213353   8.018   4.407   1.621 -1.7482  0.2238  0.0326
  892SOL     OW13354   9.981   0.015   0.312 -0.2309 -0.0189 -0.7417
  892SOL    HW113355   9.910   0.051   0.373  0.1307  0.9394 -0.8703
  892SOL    HW213356   9.978   0.064   0.225 -0.1526 -0.7597 -1.1670
  893SOL     OW13357   8.107   2.972   1.830  0.9433 -0.4519 -0.1372
  893SOL    HW113358   8.169   3.050   1.839  1.4451 -0.8838  0.1467
  893SOL    HW213359   8.014   3.005   1.819  0.8911  0.1707  1.9624
  894SOL     OW13360   7.610   8.155   4.102  0.2229  0.1483  0.0539
  894SOL    HW113361   7.593   8.065   4.141  1.1656 -0.8802 -1.8671
  894SOL    HW213362   7.707   8.165   4.080  0.0992  1.5604  0.0564
  895SOL     OW13363   7.954   1.749   4.247 -0.4640  0.0157  0.4382
  895SOL    HW113364   7.884   1.696   4.198 -0.1419 -0.3469  0.3695
  895SOL    HW213365   7.919   1.774   4.338 -1.2153  1.0288 -0.1132
  896SOL     OW13366   0.253   0.420   3.841 -0.4107  0.4363  0.0798
  896SOL    HW113367   0.159   0.389   3.858 -0.8654  0.1991 -2.6244
  896SOL    HW213368   0.250   0.508   3.794  0.7372  0.3288 -0.1997
  897SOL     OW13369   9.998   8.288   4.280  0.1891 -0.4440 -0.7623
  897SOL    HW113370  10.064   8.327   4.343 -0.0549 -0.2342 -0.6414
  897SOL    HW213371  10.037   8.206   4.238 -0.3717 -1.6758  1.0800
  898SOL     OW13372   6.886   0.315   3.516  0.2259 -0.0871  0.4312
  898SOL    HW113373   6.847   0.232   3.478 -0.3256  0.6136 -0.5630
  898SOL    HW213374   6.838   0.338   3.601 -0.1625 -0.3532  0.2868
  899SOL     OW13375   3.107   3.287   0.962 -0.8560 -0.6961 -0.6042
  899SOL    HW113376   3.105   3.387   0.955  1.1692 -0.6901 -1.2475
  899SOL    HW213377   3.063   3.259   1.048 -1.2614  0.7577 -0.3221
  900SOL     OW13378   1.045   8.372   0.672  0.6069 -0.2959  0.7964
  900SOL    HW113379   1.000   8.349   0.585  0.9617 -1.9824  1.0573
  900SOL    HW213380   1.123   8.312   0.686  1.7541  1.2977  1.3421
  901SOL     OW13381   2.504   2.269   1.762 -0.2404 -0.9739  0.4477
  901SOL    HW113382   2.600   2.289   1.780 -0.7423  2.1255 -0.1474
  901SOL    HW213383   2.483   2.287   1.666 -1.0733 -3.1862  0.1789
  902SOL     OW13384   1.437   2.993   0.010  0.4444  0.2532  0.3157
  902SOL    HW113385   1.477   2.985  -0.081  1.3622  2.0888  0.5373
  902SOL    HW213386   1.492   2.941   0.075  0.4801 -0.0633  0.0349
  903SOL     OW13387   8.257   0.226   3.976  0.2261  0.0892  0.7986
  903SOL    HW113388   8.224   0.287   4.048 -0.2085  0.6238  0.1516
  903SOL    HW213389   8.221   0.256   3.887  0.8478 -0.4947  0.3420
  904SOL     OW13390   9.004   0.191   1.393 -0.2163  0.0693 -0.0295
  904SOL    HW113391   8.933   0.235   1.337 -0.8408 -0.0610  0.6395
  904SOL    HW213392   8.960   0.128   1.457  0.5327 -0.1811  0.2362
  905SOL     OW13393   2.990   2.548   3.841  0.7058  0.1092  0.2134
  905SOL    HW113394   2.978   2.546   3.940  0.5019  0.8997  0.2112
  905SOL    HW213395   2.968   2.458   3.803 -0.9335  0.2789  0.6945
  906SOL     OW13396   9.289   4.262   1.697  0.2591 -0.0515 -0.0605
  906SOL    HW113397   9.201   4.292   1.660  1.0719  0.3944 -1.6437
  906SOL    HW213398   9.278   4.171   1.738 -1.1502  0.4122  0.6383
  907SOL     OW13399   8.250   6.857   3.412  0.0268 -0.4362 -0.2519
  907SOL    HW113400   8.182   6.903   3.355 -0.8108 -0.7868  0.4532
  907SOL    HW213401   8.339   6.902   3.402 -0.5177  0.5891 -0.4762
  908SOL     OW13402   7.481   0.875   3.227 -0.3068  0.1784 -0.4571
  908SOL    HW113403   7.412   0.882   3.299  0.1977  0.4548  0.0017
  908SOL    HW213404   7.537   0.793   3.242  0.5170  0.8434  0.0967
  909SOL     OW13405   2.848   1.487   2.575  0.1235  0.5555 -0.5978
  909SOL    HW113406   2.892   1.545   2.643  0.9179 -1.7271  0.9157
  909SOL    HW213407   2.903   1.405   2.559 -2.1807 -1.0537 -0.7059
  910SOL     OW13408   7.167   8.452   1.235  0.2900  0.5015  0.5598
  910SOL    HW113409   7.183   8.463   1.333 -0.3229  0.1616  0.7011
  910SOL    HW213410   7.230   8.384   1.198 -0.3152 -0.2938  0.9682
  911SOL     OW13411   7.734   8.218   3.568  0.4721 -0.1337  0.2813
  911SOL    HW113412   7.636   8.213   3.550  0.8602 -0.1774 -1.8471
  911SOL    HW213413   7.762   8.139   3.623 -0.5331 -0.5203  0.2446
  912SOL     OW13414   7.206   7.160   3.742  0.8157 -0.2427 -0.1277
  912SOL    HW113415   7.198   7.125   3.836  4.1804 -2.2435 -0.5306
  912SOL    HW213416   7.190   7.086   3.677 -1.7700  1.1879 -1.2287
  913SOL     OW13417   4.318   1.097   4.112 -0.0492 -0.2827  0.0175
  913SOL    HW113418   4.393   1.105   4.178 -0.3077  0.4797  0.2293
  913SOL    HW213419   4.317   1.005   4.074  1.4200 -0.1092 -0.4838
  914SOL     OW13420   0.560   6.476   1.596  0.0841  0.5394 -0.5735
  914SOL    HW113421   0.618   6.538   1.648  0.2711 -0.6788  0.7099
  914SOL    HW213422   0.467   6.481   1.630  0.0189  0.3973 -0.7293
  915SOL     OW13423   6.009   8.166   3.857 -0.2842 -0.1444  0.4452
  915SOL    HW113424   5.912   8.191   3.861 -0.0519  1.2097 -1.6409
  915SOL    HW213425   6.059   8.217   3.926 -0.8277  0.2396  0.5613
  916SOL     OW13426   4.676   1.426   0.200 -0.5103 -0.3493  0.3634
  916SOL    HW113427   4.651   1.341   0.153 -0.7113 -0.7266  1.1431
  916SOL    HW213428   4.594   1.469   0.237 -0.6225  1.0934 -1.5177
  917SOL     OW13429   2.787   3.221   1.388 -0.4476  0.3983 -0.6770
  917SOL    HW113430   2.771   3.300   1.447 -2.3450  0.2938 -1.0397
  917SOL    HW213431   2.781   3.137   1.443 -1.4989  0.3418 -0.8705
  918SOL     OW13432   6.169   9.365   3.023  0.1461 -0.1727 -0.1744
  918SOL    HW113433   6.209   9.364   2.931  1.0695  0.2499  0.2214
  918SOL    HW213434   6.144   9.458   3.048  0.4830 -0.1949  0.2557
  919SOL     OW13435   3.865   7.290   4.685 -0.5620  0.1419 -1.0654
  919SOL    HW113436   3.916   7.207   4.708 -0.3886  0.3891 -0.5579
  919SOL    HW213437   3.847   7.291   4.586 -0.2227 -0.3025 -1.1350
  920SOL     OW13438   1.185   2.216   3.285  0.3021  0.0036  0.4678
  920SOL    HW113439   1.251   2.146   3.311  0.1046 -0.6998 -0.9076
  920SOL    HW213440   1.172   2.279   3.362  0.9820 -1.0656  1.4782
  921SOL     OW13441   1.297   0.372   4.557 -0.1237 -0.6610  0.6384
  921SOL    HW113442   1.233   0.430   4.608  0.0495 -1.2268  1.5107
  921SOL    HW213443   1.248   0.291   4.524  0.2448 -1.3673  1.7752
  922SOL     OW13444   8.681   1.186   3.565  0.0415 -0.1738  0.9677
  922SOL    HW113445   8.727   1.114   3.617  0.5469 -1.1615 -0.8053
  922SOL    HW213446   8.583   1.182   3.582  0.2629 -0.0348  2.3680
  923SOL     OW13447   4.435   0.242   4.127 -0.0865 -0.2850  0.2600
  923SOL    HW113448   4.513   0.302   4.108  0.6078 -1.5653 -1.0034
  923SOL    HW213449   4.386   0.223   4.042 -1.1612 -0.3389  0.8860
  924SOL     OW13450   2.991   9.027   5.056 -0.3018 -0.4188 -0.3328
  924SOL    HW113451   2.998   8.959   5.129 -0.9435  0.4315  0.5221
  924SOL    HW213452   3.061   9.008   4.987  0.3609 -1.1765  0.5262
  925SOL     OW13453   9.857   2.552   3.546 -0.1572  0.0501  0.1550
  925SOL    HW113454   9.789   2.554   3.472 -1.4623 -1.0538  1.2888
  925SOL    HW213455   9.811   2.567   3.634  1.4487  1.8968  0.7084
  926SOL     OW13456   9.685   0.508   0.654  0.2907  0.2146  0.3411
  926SOL    HW113457   9.594   0.537   0.626  0.4705  1.1006  0.6437
  926SOL    HW213458   9.720   0.571   0.724  1.8864  0.9841 -1.1018
  927SOL     OW13459   4.462   0.535   1.463 -0.3696  0.0695 -0.1943
  927SOL    HW113460   4.510   0.448   1.474 -0.4356  0.2804  2.1090
  927SOL    HW213461   4.394   0.544   1.536  0.6780  2.7176  0.5002
  928SOL     OW13462   3.867   2.582   2.932 -0.6982 -0.4091  0.3201
  928SOL    HW113463   3.846   2.666   2.881 -1.1035  0.7508  2.3200
  928SOL    HW213464   3.845   2.596   3.028  3.7667 -1.1716  1.5714
  929SOL     OW13465   4.007   8.094   2.765  0.0901  0.2225 -0.8775
  929SOL    HW113466   3.976   8.168   2.824  2.1229  1.0195 -0.7687
  929SOL    HW213467   4.069   8.034   2.816 -1.1228 -1.2913 -1.1171
  930SOL     OW13468   9.452   1.682   3.054 -0.1658  0.0104  0.0850
  930SOL    HW113469   9.382   1.637   3.000  0.1684 -0.5961  0.1606
  930SOL    HW213470   9.431   1.672   3.152 -0.7581  1.0825  0.0828
  931SOL     OW13471   9.665   9.362   1.769 -0.3032  0.0772  0.1639
  931SOL    HW113472   9.588   9.300   1.785  0.1211 -0.2769  0.8973
  931SOL    HW213473   9.717   9.331   1.689  0.9207 -1.5655  1.5527
  932SOL     OW13474   1.721   5.962   2.460  0.1960 -0.3592 -0.0553
  932SOL    HW113475   1.671   5.982   2.376  0.3086 -1.1523 -0.3131
  932SOL    HW213476   1.658   5.922   2.527  0.4978 -1.4692 -0.4211
  933SOL     OW13477   2.589   6.443   4.015  0.1109  0.2032  0.2132
  933SOL    HW113478   2.568   6.368   3.953 -1.2166  0.4709  0.3304
  933SOL    HW213479   2.688   6.457   4.018  0.4744 -2.2456  1.0065
  934SOL     OW13480   8.832   1.953   5.104 -0.2691 -0.1932  0.0634
  934SOL    HW113481   8.795   1.971   5.013  0.8270  0.1315 -0.3255
  934SOL    HW213482   8.881   2.033   5.137 -1.0110 -0.1581  1.1246
  935SOL     OW13483   2.946   3.397   4.099  0.4398 -0.4070  0.2311
  935SOL    HW113484   2.904   3.377   4.188  1.2141 -2.6673  0.1109
  935SOL    HW213485   2.944   3.496   4.083  0.1305  0.0120  2.6674
  936SOL     OW13486   7.146   8.178   3.608 -0.1036 -0.4209 -0.0088
  936SOL    HW113487   7.075   8.225   3.557  0.5735 -0.0254 -0.6011
  936SOL    HW213488   7.137   8.198   3.706 -0.2669  0.3474 -0.1814
  937SOL     OW13489   9.974   4.633   1.448 -0.4236 -0.5257  0.0168
  937SOL    HW113490   9.895   4.681   1.486 -1.3348 -0.5181 -1.8267
  937SOL    HW213491   9.953   4.536   1.440 -0.4090 -0.4708 -0.8079
  938SOL     OW13492   4.294   7.158   1.304  0.1500  0.1480  0.2555
  938SOL    HW113493   4.367   7.097   1.273 -2.4358 -1.1458 -3.5813
  938SOL    HW213494   4.314   7.251   1.273 -0.7869 -0.5634 -2.5752
  939SOL     OW13495   3.907   4.407   0.330  0.6036  0.1401  0.5139
  939SOL    HW113496   3.976   4.450   0.388  2.1386  1.1040 -1.9807
  939SOL    HW213497   3.819   4.453   0.344  1.1735  1.0030  1.3351
  940SOL     OW13498   2.161   3.199   5.308  0.1310  0.5408  0.3576
  940SOL    HW113499   2.095   3.131   5.276  1.1668 -0.8926  1.1881
  940SOL    HW213500   2.116   3.288   5.317 -1.4665 -0.2228  0.0809
  941SOL     OW13501   0.715   0.172   4.105  0.0116  1.1890 -0.3850
  941SOL    HW113502   0.721   0.269   4.081 -0.0881  1.3481  0.2368
  941SOL    HW213503   0.737   0.160   4.201 -1.7798  0.8078 -0.0077
  942SOL     OW13504   4.779   7.725   2.576 -0.3032 -0.4189 -0.9815
  942SOL    HW113505   4.736   7.786   2.643 -0.1032 -1.4772  0.1393
  942SOL    HW213506   4.816   7.779   2.501  0.4847  0.9143  0.3274
  943SOL     OW13507   1.062   8.186   1.138  0.0157 -0.1213 -0.1106
  943SOL    HW113508   0.997   8.211   1.210 -1.0914 -0.3981 -0.9977
  943SOL    HW213509   1.015   8.131   1.069  0.6488  1.5456 -1.9022
  944SOL     OW13510   8.868   1.829   3.723  0.2096 -0.3629  0.1182
  944SOL    HW113511   8.889   1.901   3.789  0.0492 -1.8211  1.7947
  944SOL    HW213512   8.953   1.800   3.679  0.2214  1.1243 -0.8952
  945SOL     OW13513   9.494   3.048   3.688 -0.3966 -0.0629 -1.0101
  945SOL    HW113514   9.452   3.126   3.735 -1.5421 -0.1761 -1.8184
  945SOL    HW213515   9.506   3.070   3.591  0.9041 -0.2480 -0.9001
  946SOL     OW13516   3.603   2.004   0.034  0.2630  0.0168 -0.1984
  946SOL    HW113517   3.505   1.993   0.049  0.1468 -0.5100 -1.2716
  946SOL    HW213518   3.619   2.085  -0.024  0.6169  1.3393  1.7075
  947SOL     OW13519   3.305   0.816   3.774 -0.2167  0.0134 -0.1606
  947SOL    HW113520   3.227   0.773   3.821 -0.7108  1.1565  0.0841
  947SOL    HW213521   3.280   0.909   3.747  0.7695  0.0720 -0.8825
  948SOL     OW13522   5.098   8.489   2.840 -0.2099 -0.1071 -0.4096
  948SOL    HW113523   5.001   8.474   2.860 -0.8774  2.1710 -1.6997
  948SOL    HW213524   5.127   8.575   2.883  0.2357  1.1092 -3.0933
  949SOL     OW13525   2.569   1.805   0.441  0.1520 -0.2028  0.5422
  949SOL    HW113526   2.545   1.708   0.439 -0.4049 -0.0545 -0.1047
  949SOL    HW213527   2.598   1.830   0.533  1.5616 -1.2859  0.4134
  950SOL     OW13528   2.079   9.882   1.600 -0.4060 -0.2852 -0.4343
  950SOL    HW113529   2.059   9.965   1.652 -0.9537 -0.4847 -0.3196
  950SOL    HW213530   2.015   9.810   1.626  0.0178 -0.7216 -0.5879
  951SOL     OW13531   3.593   8.019   0.229  0.5432  0.5501  0.4093
  951SOL    HW113532   3.645   7.948   0.183 -0.1468 -1.0923  2.0848
  951SOL    HW213533   3.654   8.094   0.255  1.4187  0.2332 -0.6807
  952SOL     OW13534   1.577   8.235   1.312  0.2712 -0.2080  0.3581
  952SOL    HW113535   1.649   8.282   1.364  0.5958 -0.2285 -0.0680
  952SOL    HW213536   1.489   8.251   1.356  0.3714  0.8308  0.2157
  953SOL     OW13537   1.992   2.114   2.746 -0.4340 -0.3216 -0.2231
  953SOL    HW113538   1.926   2.081   2.813 -0.2397  0.2915  0.2751
  953SOL    HW213539   1.947   2.177   2.682 -0.9760 -2.0722 -1.6218
  954SOL     OW13540   0.280   1.699   1.286  0.4110  0.0129  0.0759
  954SOL    HW113541   0.182   1.718   1.284  0.6210  1.1095 -2.1169
  954SOL    HW213542   0.330   1.784   1.305  0.9876 -0.0992 -0.8696
  955SOL     OW13543   2.425   3.925   2.146  0.0197 -0.3060  0.5274
  955SOL    HW113544   2.387   3.952   2.235 -0.4762 -1.5489  0.7057
  955SOL    HW213545   2.372   3.848   2.110  0.1069  0.3100 -0.9304
  956SOL     OW13546   4.525   5.268   0.798 -0.2899 -0.0566 -0.4281
  956SOL    HW113547   4.455   5.256   0.727 -0.4612  0.5465 -0.3624
  956SOL    HW213548   4.587   5.342   0.772 -0.2806  0.0866 -0.0049
  957SOL     OW13549   8.219   9.664   5.227 -0.2380  0.0815  0.2637
  957SOL    HW113550   8.232   9.568   5.201 -2.1891 -0.1341  0.0065
  957SOL    HW213551   8.195   9.717   5.145  0.4030  0.7114  0.4809
  958SOL     OW13552   4.655   8.350   3.288  0.4385 -0.0911 -0.1124
  958SOL    HW113553   4.615   8.398   3.209  0.9362  0.2813 -0.1427
  958SOL    HW213554   4.631   8.253   3.283 -1.1136  0.2580  0.2919
  959SOL     OW13555   2.564   4.339   2.053  0.0493 -0.2597 -0.1533
  959SOL    HW113556   2.613   4.292   1.980  0.1174 -0.4760  0.0297
  959SOL    HW213557   2.609   4.321   2.141  1.3051  1.8033 -0.3256
  960SOL     OW13558   0.253   6.768   1.534 -0.8095 -0.4721 -0.0478
  960SOL    HW113559   0.340   6.775   1.583 -0.9720  0.4111  0.1194
  960SOL    HW213560   0.180   6.746   1.598 -0.8561 -0.3357 -0.0548
  961SOL     OW13561   6.821   9.015   1.287  0.1655  0.4290 -0.4759
  961SOL    HW113562   6.887   9.031   1.213  0.6649  0.0148 -0.1198
  961SOL    HW213563   6.867   8.974   1.365 -0.7711 -1.1002 -0.7137
  962SOL     OW13564   4.727   3.166   1.945  0.3656 -0.3098 -0.2517
  962SOL    HW113565   4.709   3.191   1.850  0.0357 -1.9275 -0.6241
  962SOL    HW213566   4.696   3.240   2.005  1.0119  0.9330 -1.4096
  963SOL     OW13567   0.481   9.831   4.342  0.0668  0.2548 -0.2433
  963SOL    HW113568   0.383   9.813   4.352  0.1542 -0.4657 -0.6682
  963SOL    HW213569   0.518   9.862   4.430 -0.7052  1.3529 -0.2888
  964SOL     OW13570   1.970   7.254   5.573  0.0822 -0.3026 -0.6446
  964SOL    HW113571   1.916   7.269   5.490 -1.1867  0.6016  0.3297
  964SOL    HW213572   2.018   7.167   5.566 -2.6515 -1.8365 -0.9275
  965SOL     OW13573   7.596   2.204   2.457 -1.0414  0.2813  0.2006
  965SOL    HW113574   7.638   2.211   2.548 -0.1820  2.4319 -0.3369
  965SOL    HW213575   7.620   2.116   2.417  0.8288  0.4078  0.9790
  966SOL     OW13576   1.405   9.606   4.966 -0.6740 -0.0384  0.3215
  966SOL    HW113577   1.467   9.528   4.973 -0.0684  0.5718  2.0585
  966SOL    HW213578   1.420   9.654   4.880  0.5692 -0.4742  0.2858
  967SOL     OW13579   9.506   8.355   3.911 -0.2029 -0.4685 -0.5849
  967SOL    HW113580   9.424   8.331   3.963 -1.3087 -0.8307 -2.4477
  967SOL    HW213581   9.494   8.446   3.869  2.3793  1.7465  3.1974
  968SOL     OW13582   5.040   0.960   1.938 -0.6257 -0.7874  0.2303
  968SOL    HW113583   4.967   0.943   2.005 -0.1008 -0.7768  0.8125
  968SOL    HW213584   5.042   1.057   1.914  0.7813 -0.3356  2.0888
  969SOL     OW13585   3.130   1.253   4.003 -0.2869  0.1849 -0.6621
  969SOL    HW113586   3.092   1.337   4.042 -1.0802 -1.2689  1.7888
  969SOL    HW213587   3.226   1.269   3.978 -0.5004  1.8973 -0.4852
  970SOL     OW13588   1.912   1.220   3.147  0.3920  0.0163  0.2942
  970SOL    HW113589   1.976   1.197   3.219 -0.5395 -0.2021  1.0686
  970SOL    HW213590   1.865   1.306   3.171  0.5470  0.2867 -0.3613
  971SOL     OW13591   2.931   0.173   4.580  0.7996 -0.6117 -0.0293
  971SOL    HW113592   2.943   0.272   4.575  0.1479 -0.4167  1.9179
  971SOL    HW213593   2.987   0.137   4.654 -0.9923 -1.3453  0.9953
  972SOL     OW13594   7.440   1.675   1.072  0.2281 -0.2526 -0.3699
  972SOL    HW113595   7.524   1.645   1.027 -0.1971 -0.9743 -0.6950
  972SOL    HW213596   7.400   1.599   1.124 -0.6726 -0.1729 -0.9203
  973SOL     OW13597   1.862   3.017   3.226 -0.6380 -0.1919  0.1785
  973SOL    HW113598   1.903   2.935   3.187 -1.8640 -0.6982 -0.0918
  973SOL    HW213599   1.913   3.045   3.307 -0.2480 -1.2739  0.3151
  974SOL     OW13600   9.668   9.221   2.425  0.7671 -0.2517  0.2076
  974SOL    HW113601   9.604   9.145   2.431 -0.0435  0.2825 -1.5686
  974SOL    HW213602   9.659   9.267   2.337  1.3281  1.8286  1.1849
  975SOL     OW13603   8.403   5.459   2.235 -0.0801  0.2549 -0.1632
  975SOL    HW113604   8.477   5.408   2.190 -0.9336 -0.1331 -1.1580
  975SOL    HW213605   8.438   5.505   2.316  0.6662 -2.2026  0.9732
  976SOL     OW13606   6.647   0.896   2.089  0.1232  0.5468 -0.1754
  976SOL    HW113607   6.721   0.838   2.122  1.3059  1.8635 -0.4572
  976SOL    HW213608   6.561   0.846   2.093  1.4754 -2.1778 -2.9357
  977SOL     OW13609   3.625   7.127   3.885  0.1534  0.9899  0.3584
  977SOL    HW113610   3.573   7.051   3.925  0.3275  1.2861  1.1529
  977SOL    HW213611   3.565   7.206   3.874  0.2692  1.1190  0.6544
  978SOL     OW13612   5.537   8.825   3.422 -0.8903 -0.4017 -0.8777
  978SOL    HW113613   5.581   8.736   3.437 -0.6788 -0.1182  0.1909
  978SOL    HW213614   5.451   8.829   3.472  0.0640  0.7343  0.6863
  979SOL     OW13615   5.192   1.041   2.633  0.1795  0.3834  0.1225
  979SOL    HW113616   5.274   1.088   2.663  0.7210 -0.9341  0.7502
  979SOL    HW213617   5.159   1.082   2.548  2.7651 -0.5072 -1.3615
  980SOL     OW13618   0.455   1.181   4.058  0.2912 -0.0438  0.5146
  980SOL    HW113619   0.518   1.242   4.106  1.3341 -1.1108  0.5455
  980SOL    HW213620   0.469   1.087   4.091  0.8698 -0.7587 -1.6947
  981SOL     OW13621   9.223   9.846   3.230  0.4807 -0.6293 -0.0310
  981SOL    HW113622   9.215   9.757   3.277  2.3118 -1.3785 -1.1029
  981SOL    HW213623   9.250   9.831   3.135 -0.3283  1.0400 -0.5433
  982SOL     OW13624   6.393   0.180   3.759 -0.7216  0.1733  0.4193
  982SOL    HW113625   6.449   0.154   3.838 -0.3893  1.0068  0.4682
  982SOL    HW213626   6.314   0.233   3.790 -1.8915 -1.5428  0.4062
  983SOL     OW13627   3.798   5.608   0.774  0.3898 -0.0353  0.2867
  983SOL    HW113628   3.766   5.518   0.804  2.4078 -0.8400  0.0629
  983SOL    HW213629   3.827   5.662   0.853 -1.8500  0.8577  0.5353
  984SOL     OW13630   1.449   1.670   2.702  0.1362  0.3279  0.1458
  984SOL    HW113631   1.513   1.595   2.688  0.2826  0.5884 -0.6157
  984SOL    HW213632   1.500   1.753   2.724 -0.0119  0.2640  0.7438
  985SOL     OW13633   5.100   7.049   3.656  0.1688 -0.2924 -0.5241
  985SOL    HW113634   5.049   7.102   3.588  0.1890  0.3648 -0.0356
  985SOL    HW213635   5.194   7.083   3.661 -0.0093  0.0945  0.2906
  986SOL     OW13636   3.168   0.967   3.464 -0.3566 -0.2590  0.0034
  986SOL    HW113637   3.221   1.010   3.391  0.0600 -0.8393 -0.0378
  986SOL    HW213638   3.072   0.994   3.455  0.1742  2.0230  0.9888
  987SOL     OW13639   9.766   1.386   5.598 -0.6643  0.4753  0.5823
  987SOL    HW113640   9.809   1.367   5.687  1.6263  0.9501 -0.3787
  987SOL    HW213641   9.678   1.340   5.593  0.6480 -2.2940  1.8223
  988SOL     OW13642   2.784   3.707   1.672  0.4441 -0.8910  0.3016
  988SOL    HW113643   2.806   3.790   1.621  1.2473 -0.7067  0.9406
  988SOL    HW213644   2.690   3.714   1.705  0.3180 -0.4826 -0.1192
  989SOL     OW13645   6.598   8.717   2.999 -0.1458  0.2302 -0.1561
  989SOL    HW113646   6.558   8.676   2.916 -2.4348 -0.1662  1.1231
  989SOL    HW213647   6.613   8.814   2.984 -0.9918  0.2563 -0.8856
  990SOL     OW13648   9.109   2.457   1.469  1.2041 -0.3858  0.4378
  990SOL    HW113649   9.175   2.412   1.408  1.1092  0.0110  0.0412
  990SOL    HW213650   9.072   2.538   1.423 -0.1685 -1.0618  0.3326
  991SOL     OW13651   9.452   2.235   5.436  0.1008  0.0109  0.2325
  991SOL    HW113652   9.492   2.144   5.448 -0.5397 -0.1047  1.6463
  991SOL    HW213653   9.371   2.243   5.495  1.2944  2.1870  1.6230
  992SOL     OW13654   7.502   9.166   3.789 -0.4332  0.8187  0.1241
  992SOL    HW113655   7.567   9.197   3.720  1.6791  0.6522  1.9659
  992SOL    HW213656   7.476   9.071   3.770  0.1868  0.7506 -0.3896
  993SOL     OW13657   1.970   7.304   1.711  0.3039 -0.2436 -0.7429
  993SOL    HW113658   2.019   7.293   1.625  1.7254  0.8031 -0.0831
  993SOL    HW213659   2.036   7.316   1.786 -0.9513  0.4942  0.2542
  994SOL     OW13660   9.298   0.711   1.143 -0.6652  0.3972 -0.3461
  994SOL    HW113661   9.274   0.620   1.176 -1.1502  1.4431  2.3226
  994SOL    HW213662   9.217   0.756   1.105 -0.5685 -0.0023 -1.0442
  995SOL     OW13663   8.274   8.142   1.231  0.3034  0.4155  0.0936
  995SOL    HW113664   8.312   8.210   1.293 -1.7878 -1.5582  3.7142
  995SOL    HW213665   8.207   8.186   1.171 -1.0558  1.5960  2.4141
  996SOL     OW13666   4.212   7.098   3.306  0.2437 -0.3431  0.5275
  996SOL    HW113667   4.231   7.005   3.277  1.1796 -0.3479  1.1467
  996SOL    HW213668   4.178   7.151   3.228  0.8066 -0.8932 -0.0976
  997SOL     OW13669   7.002   9.523   3.990  0.8240  0.1946  0.2078
  997SOL    HW113670   6.939   9.524   4.068  1.2939 -1.9403  0.6672
  997SOL    HW213671   7.064   9.601   3.997 -0.2268  0.9738  1.0524
  998SOL     OW13672   1.777   5.491   2.167  0.2820  0.7910  0.3761
  998SOL    HW113673   1.819   5.442   2.244  3.1209  1.0573 -0.9250
  998SOL    HW213674   1.764   5.587   2.192  1.6259  0.9811  0.3934
  999SOL     OW13675   2.761   3.251   0.837  0.2297 -0.0696  0.3708
  999SOL    HW113676   2.756   3.265   0.935  1.2498  1.5582  0.2009
  999SOL    HW213677   2.778   3.339   0.791 -0.7966 -0.7053 -1.2987
 1000SOL     OW13678   7.483   7.575   2.661 -0.1775  0.0438  0.7915
 1000SOL    HW113679   7.534   7.560   2.576  2.6507  1.1763  2.2383
 1000SOL    HW213680   7.430   7.493   2.683 -1.4288 -0.0666 -2.3286
 1001SOL     OW13681   3.128   7.350   3.403 -0.0521 -0.2267 -0.1323
 1001SOL    HW113682   3.132   7.317   3.497  2.2943 -1.4463 -0.6305
 1001SOL    HW213683   3.209   7.405   3.383 -0.8722  0.6046 -1.2502
 1002SOL     OW13684   1.151   4.591   2.624 -0.3310 -0.0153 -0.1399
 1002SOL    HW113685   1.207   4.577   2.543  1.4650 -1.3742  1.2998
 1002SOL    HW213686   1.181   4.673   2.672  0.8689 -1.0986  0.9781
 1003SOL     OW13687   5.142   7.466   3.416  0.1715 -0.5414 -0.2185
 1003SOL    HW113688   5.200   7.409   3.358  2.5488  1.7431 -0.2133
 1003SOL    HW213689   5.165   7.450   3.512  0.2324 -0.1917 -0.1757
 1004SOL     OW13690   0.542   7.988   3.398  0.0592  0.0037 -0.2248
 1004SOL    HW113691   0.581   8.002   3.307  0.5512  0.2700  0.0234
 1004SOL    HW213692   0.535   7.890   3.416 -1.5983 -0.0835 -1.2048
 1005SOL     OW13693   4.589   6.623   2.704  0.9408  0.0833 -0.2692
 1005SOL    HW113694   4.614   6.718   2.682 -0.2805  0.5354  0.2484
 1005SOL    HW213695   4.603   6.607   2.802  0.0016  0.0859 -0.1374
 1006SOL     OW13696   1.634   4.953   0.083  0.4409 -0.0527  0.4767
 1006SOL    HW113697   1.644   4.953   0.183 -0.8089 -0.1995  0.6055
 1006SOL    HW213698   1.586   5.036   0.055 -2.3412 -1.6567  0.3324
 1007SOL     OW13699   9.514   1.158   1.303 -0.6068  0.0828 -0.5311
 1007SOL    HW113700   9.609   1.184   1.284  0.3950 -0.2318  3.5961
 1007SOL    HW213701   9.495   1.068   1.263  2.0394 -1.5604  1.7599
 1008SOL     OW13702   5.490   9.430   4.572  0.0610  0.3353 -0.0615
 1008SOL    HW113703   5.531   9.514   4.537  0.7201 -0.0868 -0.3154
 1008SOL    HW213704   5.547   9.352   4.546 -0.1843 -0.1236  0.7512
 1009SOL     OW13705   5.132   1.159   2.370 -0.3847  0.1141  0.2934
 1009SOL    HW113706   5.040   1.162   2.330 -0.5264 -0.2743  0.5865
 1009SOL    HW213707   5.198   1.191   2.303 -0.5802 -0.8347 -0.3593
 1010SOL     OW13708   6.171   7.456   3.594 -0.1199  0.3600 -0.4099
 1010SOL    HW113709   6.203   7.396   3.668 -1.3388 -1.3159 -1.2082
 1010SOL    HW213710   6.184   7.410   3.506 -0.6932  1.4353 -1.0631
 1011SOL     OW13711   2.909   7.751   4.962  0.6943 -0.1193 -0.7662
 1011SOL    HW113712   2.951   7.699   5.036  2.6179  1.6132 -0.5946
 1011SOL    HW213713   2.810   7.752   4.974  0.9533 -0.1438  1.6128
 1012SOL     OW13714   8.772   6.822   2.655 -0.2794 -0.3024  0.8864
 1012SOL    HW113715   8.681   6.844   2.622  0.0037  0.4504  0.5881
 1012SOL    HW213716   8.807   6.741   2.607  0.6551  1.5324 -1.6712
 1013SOL     OW13717   7.298   9.267   2.178  0.1351  0.0449 -0.2674
 1013SOL    HW113718   7.395   9.243   2.169  0.2018 -0.0321  0.6106
 1013SOL    HW213719   7.290   9.352   2.230 -0.3120 -0.3976  0.3881
 1014SOL     OW13720   4.157   1.725   4.640  0.1754  0.0835 -0.4201
 1014SOL    HW113721   4.081   1.765   4.691 -0.0486  0.6930 -1.2221
 1014SOL    HW213722   4.203   1.656   4.697  0.2079  1.0541  0.7483
 1015SOL     OW13723   4.369   4.662   1.710  0.1796  0.0736 -0.0507
 1015SOL    HW113724   4.399   4.713   1.791 -1.6159  3.3180 -1.3431
 1015SOL    HW213725   4.271   4.645   1.716  0.1105 -0.0124 -1.3342
 1016SOL     OW13726   9.414   1.863   4.476  0.6204  0.3099 -0.6610
 1016SOL    HW113727   9.511   1.872   4.500  0.5422 -2.2181  0.7460
 1016SOL    HW213728   9.365   1.822   4.552 -1.4704  1.0102 -1.6117
 1017SOL     OW13729   7.856   7.867   3.892 -0.1114  0.0582  0.3870
 1017SOL    HW113730   7.756   7.859   3.897 -0.3298  1.5918 -1.1840
 1017SOL    HW213731   7.888   7.830   3.806  0.4899  1.1019  0.1494
 1018SOL     OW13732   7.203   2.289   2.179  0.6104  0.3549  0.3474
 1018SOL    HW113733   7.186   2.362   2.245  1.4281  0.4718  0.4355
 1018SOL    HW213734   7.161   2.312   2.092 -1.0856 -0.1223  1.0165
 1019SOL     OW13735   6.741   9.806   2.441 -0.1474 -0.1110 -0.7227
 1019SOL    HW113736   6.713   9.756   2.523  0.3056 -1.7974 -1.5702
 1019SOL    HW213737   6.718   9.752   2.360  0.5845  0.9618 -1.6561
 1020SOL     OW13738   0.735   9.254   0.823  0.6426  0.0150 -0.3263
 1020SOL    HW113739   0.662   9.211   0.877  2.0167 -0.9875  0.7643
 1020SOL    HW213740   0.812   9.276   0.882  1.6065  0.2223 -1.6278
 1021SOL     OW13741   6.664   1.066   4.104  0.6640  0.2031 -0.0517
 1021SOL    HW113742   6.721   0.988   4.081  1.7663  0.5006  1.6047
 1021SOL    HW213743   6.567   1.040   4.097  0.9840 -0.5764 -1.9004
 1022SOL     OW13744   1.100   4.058   1.078  0.2917  0.1569  0.1298
 1022SOL    HW113745   1.054   4.030   1.162  1.4198  0.2070  0.7765
 1022SOL    HW213746   1.199   4.051   1.091  0.4698  0.3468 -1.1333
 1023SOL     OW13747   0.621   4.843   1.863  0.1213 -0.1118 -0.4315
 1023SOL    HW113748   0.569   4.774   1.914 -1.7550  1.0313 -0.7426
 1023SOL    HW213749   0.614   4.825   1.765 -0.7408  0.7440 -0.5381
 1024SOL     OW13750   7.914   9.266   0.074 -0.9749 -0.3934  0.0499
 1024SOL    HW113751   7.942   9.335   0.008 -0.4125 -1.6347 -1.0250
 1024SOL    HW213752   7.867   9.311   0.150 -0.4076  1.1963 -0.4986
 1025SOL     OW13753   7.754   4.012   1.522  0.1049 -0.0668 -0.1362
 1025SOL    HW113754   7.758   3.983   1.618 -0.0997  0.6583  0.1008
 1025SOL    HW213755   7.842   4.052   1.496 -0.2869  1.0505  0.1924
 1026SOL     OW13756   5.711   7.915   3.260 -0.0482 -0.3651 -0.0044
 1026SOL    HW113757   5.689   8.010   3.236 -0.5214 -0.4298  0.1633
 1026SOL    HW213758   5.679   7.854   3.187 -0.4994 -0.4668  0.2734
 1027SOL     OW13759   2.998   3.793   0.451 -0.1239  0.0747 -0.6317
 1027SOL    HW113760   2.907   3.762   0.476 -1.0201  1.4814 -2.0840
 1027SOL    HW213761   3.057   3.792   0.532 -1.2708 -1.3529  0.1974
 1028SOL     OW13762   4.847   8.218   3.872  0.2865 -0.2151 -0.2967
 1028SOL    HW113763   4.804   8.128   3.861 -0.0675 -0.1337  0.4200
 1028SOL    HW213764   4.930   8.222   3.817 -0.4902 -0.4581 -1.5033
 1029SOL     OW13765   0.985   6.838   0.118 -0.2282 -0.0135  0.2096
 1029SOL    HW113766   1.058   6.830   0.051  0.7047 -1.2221  1.3375
 1029SOL    HW213767   0.904   6.789   0.086  0.9133 -2.4260  0.8904
 1030SOL     OW13768   0.836   8.036   4.308  0.1581 -0.3493 -1.0912
 1030SOL    HW113769   0.758   8.075   4.260 -1.3386 -1.1513  0.6032
 1030SOL    HW213770   0.851   8.086   4.393 -1.7014 -3.2252  1.0412
 1031SOL     OW13771   1.999   9.484   0.778 -0.7579  0.2084 -0.0321
 1031SOL    HW113772   2.047   9.429   0.709 -0.1162  0.1398  0.4707
 1031SOL    HW213773   1.921   9.530   0.735  0.1902  0.9230 -1.0254
 1032SOL     OW13774   3.878   7.552   1.778 -0.0097  0.1743  0.3865
 1032SOL    HW113775   3.918   7.529   1.867  1.9009  0.8607 -0.2656
 1032SOL    HW213776   3.851   7.468   1.731  2.3050 -0.4710  0.1286
 1033SOL     OW13777   0.801   7.154   2.220  0.4081  0.1764  0.1039
 1033SOL    HW113778   0.792   7.120   2.313  0.1998 -2.0368 -0.7062
 1033SOL    HW213779   0.898   7.158   2.195  0.4542  0.5991  0.3476
 1034SOL     OW13780   3.672   2.788   4.132 -0.5890  0.1585 -0.0075
 1034SOL    HW113781   3.630   2.844   4.061 -0.9834 -1.0700 -0.7552
 1034SOL    HW213782   3.772   2.791   4.121 -0.7048 -1.9367 -2.1417
 1035SOL     OW13783   2.264   7.295   4.212 -0.0589 -0.2233 -0.5284
 1035SOL    HW113784   2.227   7.354   4.141 -0.2762 -0.6873 -0.8078
 1035SOL    HW213785   2.211   7.305   4.296 -0.3075 -0.2762 -0.6808
 1036SOL     OW13786   1.084   9.181   2.564 -0.1623 -0.6586 -0.7976
 1036SOL    HW113787   1.076   9.146   2.470  0.7860 -0.6171 -0.9017
 1036SOL    HW213788   1.181   9.185   2.589 -0.4912 -2.4368  0.8421
 1037SOL     OW13789   3.336   3.263   2.241 -0.0455 -0.3062  0.0264
 1037SOL    HW113790   3.305   3.212   2.321  2.2035 -0.2534  0.9642
 1037SOL    HW213791   3.267   3.332   2.217 -1.6970 -1.7248  0.6061
 1038SOL     OW13792   4.567   1.520   2.378 -0.5034 -0.5223 -0.0213
 1038SOL    HW113793   4.546   1.496   2.472 -2.9435 -0.1967 -0.4496
 1038SOL    HW213794   4.537   1.446   2.317  3.0503 -1.7401 -0.4223
 1039SOL     OW13795   0.688   9.862   3.178 -0.0367  0.0136  0.4279
 1039SOL    HW113796   0.712   9.765   3.185  0.2686 -0.0242 -0.9109
 1039SOL    HW213797   0.591   9.873   3.201  0.1929 -0.4480  1.6574
 1040SOL     OW13798   1.365   8.126   3.204  0.3883  0.0947  0.2287
 1040SOL    HW113799   1.464   8.120   3.217  0.3093 -0.4231  0.5577
 1040SOL    HW213800   1.340   8.222   3.190  1.3349 -0.0826 -3.0115
 1041SOL     OW13801   4.835   0.642   2.234  0.3567  0.4418  0.3309
 1041SOL    HW113802   4.902   0.671   2.303  0.0202  0.5938  0.5903
 1041SOL    HW213803   4.744   0.670   2.262  0.2772  0.9257 -0.4106
 1042SOL     OW13804   2.378   6.316   4.628  0.0465 -1.1284  0.1093
 1042SOL    HW113805   2.464   6.352   4.591 -0.5255 -1.9378 -2.1207
 1042SOL    HW213806   2.391   6.222   4.657  0.2050 -0.8697  0.8770
 1043SOL     OW13807   9.346   7.042   3.657  0.4606  0.4434 -0.2179
 1043SOL    HW113808   9.322   6.959   3.707  0.3270  1.1139  0.8639
 1043SOL    HW213809   9.368   7.114   3.723 -0.2906  1.5118 -1.1310
 1044SOL     OW13810   3.848   7.204   1.265  0.0825 -0.6685 -0.3326
 1044SOL    HW113811   3.767   7.185   1.320 -0.2595  0.0146 -0.5889
 1044SOL    HW213812   3.890   7.289   1.296 -0.4306  0.0128 -1.4847
 1045SOL     OW13813   0.287   2.518   2.651  0.1537 -0.6316  0.5748
 1045SOL    HW113814   0.313   2.614   2.659  1.9342 -1.1543  1.1335
 1045SOL    HW213815   0.207   2.511   2.590 -1.7844  1.4481  2.7885
 1046SOL     OW13816   7.440   1.717   1.385  0.3569  0.2871 -0.1444
 1046SOL    HW113817   7.464   1.746   1.292  1.5829  0.2851  0.1576
 1046SOL    HW213818   7.365   1.773   1.420 -0.7891 -0.3772 -1.5090
 1047SOL     OW13819   4.888   6.937   3.407  0.1452 -0.1480 -0.1630
 1047SOL    HW113820   4.834   6.941   3.491  0.4709  0.8012  0.0089
 1047SOL    HW213821   4.930   7.027   3.390  1.0859 -0.6771 -0.6703
 1048SOL     OW13822   1.719   2.286   4.596  0.1975  0.0555 -0.1866
 1048SOL    HW113823   1.622   2.262   4.598  0.4334 -0.9547 -0.4831
 1048SOL    HW213824   1.773   2.207   4.567  1.1279  0.5628  0.1121
 1049SOL     OW13825   2.488   0.926   3.568 -0.5381  0.4456 -0.4226
 1049SOL    HW113826   2.485   0.889   3.661  1.2284  0.7859 -0.2076
 1049SOL    HW213827   2.425   0.875   3.510  0.7074 -1.9083  0.2169
 1050SOL     OW13828   3.168   8.809   2.607  0.3280 -0.6594  0.2626
 1050SOL    HW113829   3.075   8.821   2.574  0.4735  0.0759  0.1168
 1050SOL    HW213830   3.181   8.713   2.635 -0.2937 -0.8949 -0.2366
 1051SOL     OW13831   5.482   8.749   3.087 -0.0027 -0.3014  0.3354
 1051SOL    HW113832   5.506   8.686   3.161 -1.0331  0.7771  1.6184
 1051SOL    HW213833   5.509   8.842   3.114  0.6810 -0.0547 -1.1516
 1052SOL     OW13834   2.135   3.444   1.956  0.6586 -0.3776  0.2171
 1052SOL    HW113835   2.181   3.528   1.986 -0.1385 -0.3301  1.3303
 1052SOL    HW213836   2.069   3.416   2.025  0.2009 -1.3732 -0.6161
 1053SOL     OW13837   1.023   0.627   3.811 -0.0705 -0.1488  0.1225
 1053SOL    HW113838   0.926   0.616   3.835 -0.1765 -1.2567 -0.7625
 1053SOL    HW213839   1.062   0.537   3.791  1.0328  0.3423  0.0676
 1054SOL     OW13840   0.689   6.955   3.505  0.0349 -0.0802 -0.5482
 1054SOL    HW113841   0.750   6.922   3.432  1.3237  3.3173 -1.1213
 1054SOL    HW213842   0.596   6.963   3.469  0.4089  0.3225 -1.4470
 1055SOL     OW13843   4.346   1.078   2.562 -0.2674  0.5768  0.1275
 1055SOL    HW113844   4.322   0.989   2.600 -0.2832  0.8356  0.7401
 1055SOL    HW213845   4.395   1.066   2.476 -1.2671  0.0102 -0.3627
 1056SOL     OW13846   7.644   2.895   3.111  0.3620  0.4951  0.2168
 1056SOL    HW113847   7.650   2.930   3.204  0.5718 -0.9602  0.7719
 1056SOL    HW213848   7.554   2.914   3.073  0.2619  1.0516  0.7337
 1057SOL     OW13849   9.205   6.868   1.293  0.1327 -0.4397 -0.2590
 1057SOL    HW113850   9.296   6.828   1.301  0.4300  0.1008 -0.8496
 1057SOL    HW213851   9.213   6.961   1.257 -0.4535  0.7020  2.4942
 1058SOL     OW13852   2.935   3.881   1.079  0.2755  0.2804  0.2121
 1058SOL    HW113853   2.934   3.979   1.099  1.3080  0.1176  1.1361
 1058SOL    HW213854   2.842   3.849   1.063 -0.0671  1.4047 -0.0461
 1059SOL     OW13855   7.040   0.682   2.624 -0.0598  0.1580 -0.0433
 1059SOL    HW113856   7.139   0.673   2.625 -0.1802 -1.3452 -0.0155
 1059SOL    HW213857   7.006   0.685   2.718 -0.1770 -1.1865 -0.0315
 1060SOL     OW13858   2.995   8.004   0.620 -0.3069 -0.4140 -0.2287
 1060SOL    HW113859   3.052   8.041   0.546 -0.5849 -0.7343 -0.6045
 1060SOL    HW213860   2.943   7.926   0.586  0.0342 -0.9514  0.4792
 1061SOL     OW13861   4.935   8.218   1.416 -0.2918  0.1620  0.2687
 1061SOL    HW113862   4.845   8.241   1.377 -0.3247  3.1701  2.0243
 1061SOL    HW213863   4.993   8.299   1.418  3.3491 -2.1880 -2.8806
 1062SOL     OW13864   1.501   0.349   2.965 -0.3987  0.1716  0.0317
 1062SOL    HW113865   1.482   0.427   3.024 -2.1980 -0.7007  0.6445
 1062SOL    HW213866   1.505   0.266   3.020 -0.5632 -0.4440 -0.8771
 1063SOL     OW13867   8.640   9.916   3.136  0.2872 -0.4445  0.8596
 1063SOL    HW113868   8.667   9.962   3.051 -1.3379  2.7801  2.0213
 1063SOL    HW213869   8.699   9.836   3.150  3.4928  1.4532 -1.0364
 1064SOL     OW13870   9.888   9.030   1.639 -0.4538  0.0803 -0.3349
 1064SOL    HW113871   9.898   8.981   1.725  0.4743  1.1728  0.1964
 1064SOL    HW213872   9.945   8.987   1.569  0.7769  0.6969  0.2689
 1065SOL     OW13873   0.473   7.031   0.114 -0.1952  0.3722  0.3574
 1065SOL    HW113874   0.534   7.062   0.187 -1.8150 -0.0202  1.9228
 1065SOL    HW213875   0.421   6.952   0.146 -2.0659  1.1548 -0.6360
 1066SOL     OW13876   4.056   8.649   2.515  0.4832  0.3976 -0.1520
 1066SOL    HW113877   3.978   8.607   2.469  0.5014  0.5204 -0.2932
 1066SOL    HW213878   4.140   8.625   2.467  0.6478 -0.6469  0.6350
 1067SOL     OW13879   3.397   8.567   1.038 -0.3311  0.5744 -0.3786
 1067SOL    HW113880   3.359   8.606   1.121 -0.7933  0.9820 -0.7783
 1067SOL    HW213881   3.358   8.476   1.023 -2.1801  1.5311 -1.5024
 1068SOL     OW13882   2.807   0.129   0.822  0.2830 -0.2486 -0.0177
 1068SOL    HW113883   2.807   0.219   0.866  0.1844 -0.2281 -0.0590
 1068SOL    HW213884   2.839   0.139   0.727  2.4277 -0.5864  0.6358
 1069SOL     OW13885   0.359   9.860   5.418 -0.1420  0.0005  0.4040
 1069SOL    HW113886   0.331   9.804   5.496 -1.5397 -0.8561 -0.6831
 1069SOL    HW213887   0.278   9.886   5.366  0.8588 -0.2619 -1.3127
 1070SOL     OW13888   0.688   1.722   3.403 -0.3010  0.2938 -0.7074
 1070SOL    HW113889   0.637   1.636   3.403  0.5130 -0.1936 -0.3435
 1070SOL    HW213890   0.650   1.783   3.334  0.4728 -1.1639 -2.4660
 1071SOL     OW13891   4.633   1.047   0.384 -0.3148  0.0944 -0.7274
 1071SOL    HW113892   4.548   0.995   0.389  0.9358 -2.0692 -1.6811
 1071SOL    HW213893   4.679   1.029   0.298  0.4067  2.4160 -0.8731
 1072SOL     OW13894   2.932   1.083   3.414 -0.0906 -0.0585 -0.1293
 1072SOL    HW113895   2.938   1.183   3.419  0.6444 -0.1209  0.2781
 1072SOL    HW213896   2.883   1.057   3.331  2.4281  0.5556 -1.8450
 1073SOL     OW13897   2.387   9.949   1.649 -0.3364  0.5138 -0.0869
 1073SOL    HW113898   2.290   9.950   1.675  0.4484 -0.6581  3.1416
 1073SOL    HW213899   2.434  10.025   1.694  0.3595  0.6904 -1.1157
 1074SOL     OW13900   2.255   0.655   5.355  0.3420 -0.0061 -0.0810
 1074SOL    HW113901   2.341   0.674   5.402  0.3919  1.4761 -0.7397
 1074SOL    HW213902   2.183   0.637   5.422  1.3270 -2.1003  0.4614
 1075SOL     OW13903   5.108   1.832   2.092  0.1783 -0.0794 -0.2132
 1075SOL    HW113904   5.042   1.807   2.021 -2.2555 -0.5000  2.1033
 1075SOL    HW213905   5.105   1.931   2.106 -0.5649 -0.1935  0.4517
 1076SOL     OW13906   5.027   9.776   4.470 -0.1297  0.1260 -0.2402
 1076SOL    HW113907   5.027   9.876   4.471  1.8631  0.1500 -1.3773
 1076SOL    HW213908   5.016   9.743   4.376 -0.0793 -0.7298  0.0482
 1077SOL     OW13909   9.683   1.132   4.334 -0.0451 -0.0815  0.3081
 1077SOL    HW113910   9.715   1.223   4.309  1.3321 -0.5370  0.3263
 1077SOL    HW213911   9.653   1.131   4.429 -2.8352  1.0378 -0.5099
 1078SOL     OW13912   7.456   9.995   0.060  0.3778  0.1584  0.7072
 1078SOL    HW113913   7.435  10.016   0.156 -0.3685  0.0776  0.5619
 1078SOL    HW213914   7.387   9.933   0.024 -0.4947  1.7966 -0.4904
 1079SOL     OW13915   0.781   1.478   1.989 -0.2780  0.0549 -0.7416
 1079SOL    HW113916   0.765   1.573   2.018  0.4389 -0.2910  0.8398
 1079SOL    HW213917   0.717   1.418   2.036 -0.5558 -0.2671 -1.5433
 1080SOL     OW13918   6.818   2.069   3.009  0.2616 -0.0356  0.5867
 1080SOL    HW113919   6.884   1.995   2.999  0.9530  0.5852  0.5113
 1080SOL    HW213920   6.746   2.041   3.073 -0.3951 -1.3919 -0.7256
 1081SOL     OW13921   0.234   7.268   1.730 -0.4631  0.1044  0.4807
 1081SOL    HW113922   0.234   7.168   1.736 -3.3024  0.0716  0.8768
 1081SOL    HW213923   0.259   7.297   1.638  1.3721 -0.9253  0.6393
 1082SOL     OW13924   2.277   6.037   3.790 -0.6345 -0.0344 -0.3006
 1082SOL    HW113925   2.235   6.058   3.702 -2.2456 -2.4473 -0.1691
 1082SOL    HW213926   2.205   6.014   3.856  0.7558 -1.9993  0.5793
 1083SOL     OW13927   2.925   3.195   2.256 -0.3026  0.2774 -0.3471
 1083SOL    HW113928   2.930   3.137   2.338  2.4098  2.7723  1.3674
 1083SOL    HW213929   2.996   3.167   2.191 -2.2790 -1.5253 -1.7931
 1084SOL     OW13930   2.886   2.194   5.259  0.7595  0.3959 -0.2328
 1084SOL    HW113931   2.943   2.214   5.179 -1.3593 -1.2717 -2.2436
 1084SOL    HW213932   2.911   2.104   5.296  1.0983  0.7505  0.4089
 1085SOL     OW13933   3.742   2.695   1.499 -0.1826  0.1590 -0.1940
 1085SOL    HW113934   3.666   2.636   1.472 -0.1873  0.3583 -0.6156
 1085SOL    HW213935   3.710   2.790   1.507  0.2849  0.4437 -1.5517
 1086SOL     OW13936   0.407   7.767   2.961 -0.3922  0.7045 -0.5240
 1086SOL    HW113937   0.448   7.770   3.052 -0.5401  0.9801 -0.4659
 1086SOL    HW213938   0.325   7.824   2.959 -0.8039  0.1062 -0.6259
 1087SOL     OW13939   1.556   7.271   0.689  0.2323 -0.1044  0.0191
 1087SOL    HW113940   1.483   7.284   0.756  2.4241  1.1159  2.3004
 1087SOL    HW213941   1.645   7.278   0.736  1.8135 -2.3668 -2.5064
 1088SOL     OW13942   0.664   0.754   4.958 -0.1378 -0.6220 -0.5312
 1088SOL    HW113943   0.698   0.667   4.925 -0.8532 -0.9032 -0.5271
 1088SOL    HW213944   0.638   0.812   4.881 -0.7327 -0.8419 -0.4907
 1089SOL     OW13945   2.364   9.883   1.108  0.1243 -0.4300 -0.9242
 1089SOL    HW113946   2.396   9.831   1.029 -0.2713  1.1550 -2.1429
 1089SOL    HW213947   2.374   9.981   1.090  2.3275 -0.0576  1.9372
 1090SOL     OW13948   7.533   1.882   3.895  0.1849  0.0128  0.2144
 1090SOL    HW113949   7.466   1.955   3.884  1.0037  0.7301 -0.0213
 1090SOL    HW213950   7.488   1.794   3.879 -0.3425  0.5853 -1.7021
 1091SOL     OW13951   0.758   7.891   2.706  0.1198 -0.2214 -0.3305
 1091SOL    HW113952   0.733   7.934   2.792  0.2117  1.0186 -0.9021
 1091SOL    HW213953   0.676   7.878   2.650  0.2054  0.0406 -0.5201
 1092SOL     OW13954   4.910   8.448   3.140 -0.2467  0.2321 -0.2222
 1092SOL    HW113955   4.970   8.367   3.138  0.1507  0.4964  0.8240
 1092SOL    HW213956   4.838   8.434   3.207 -0.7002  0.3889 -0.6755
 1093SOL     OW13957   1.462   7.462   3.071 -0.1860  0.3045 -0.0710
 1093SOL    HW113958   1.419   7.446   2.982 -0.9965 -1.0902  0.5532
 1093SOL    HW213959   1.543   7.404   3.080  0.7220  1.5096 -0.4743
 1094SOL     OW13960   5.266   1.636   2.183  0.1640  0.4219 -0.1764
 1094SOL    HW113961   5.228   1.594   2.265  0.6235  0.6223  0.1400
 1094SOL    HW213962   5.204   1.707   2.150 -1.6329 -1.8844 -1.9017
 1095SOL     OW13963   9.544   7.226   3.416 -0.1457 -0.7170 -0.5196
 1095SOL    HW113964   9.477   7.232   3.490  1.9112  1.2098  1.2753
 1095SOL    HW213965   9.525   7.297   3.348  0.1682 -0.0186  0.1070
 1096SOL     OW13966   4.797   3.271   1.695 -0.0372 -0.7009  0.0780
 1096SOL    HW113967   4.789   3.257   1.596  0.0598  2.1336 -0.3967
 1096SOL    HW213968   4.894   3.276   1.720 -0.0551  0.6033 -0.0505
 1097SOL     OW13969   4.152   0.906   2.706  0.2201  0.2651  0.1646
 1097SOL    HW113970   4.226   0.840   2.715  1.5649  1.7911  0.5925
 1097SOL    HW213971   4.150   0.966   2.786 -2.4926 -0.7168  0.9064
 1098SOL     OW13972   0.947   5.032   2.316  0.1101 -0.4457  0.1004
 1098SOL    HW113973   0.901   5.038   2.227 -1.2690 -1.1019  0.7588
 1098SOL    HW213974   1.033   4.982   2.306  0.2999  0.0696 -0.9802
 1099SOL     OW13975   2.427   0.466   3.485  0.5649 -0.2936 -0.2019
 1099SOL    HW113976   2.457   0.372   3.470 -1.0684 -0.7239 -0.9106
 1099SOL    HW213977   2.434   0.489   3.582 -0.5929 -1.7144  0.2395
 1100SOL     OW13978   1.612   1.405   2.010 -0.0113  0.1512 -0.5325
 1100SOL    HW113979   1.630   1.317   2.055 -0.8410 -0.6651 -1.7599
 1100SOL    HW213980   1.532   1.396   1.950  0.3172  1.5632 -1.2015
 1101SOL     OW13981   8.541   5.333   1.694 -0.7518 -0.1177 -0.4493
 1101SOL    HW113982   8.498   5.249   1.726  0.3156 -0.4659  0.0943
 1101SOL    HW213983   8.478   5.383   1.635 -0.8854 -2.0021 -1.9607
 1102SOL     OW13984   6.623   9.701   2.093 -0.2292 -0.4990  0.0274
 1102SOL    HW113985   6.640   9.797   2.072 -1.1462 -0.5040 -0.7726
 1102SOL    HW213986   6.706   9.659   2.129  1.0416 -0.1679 -2.4459
 1103SOL     OW13987   4.607   9.360   3.537 -0.0782 -0.0835  0.8864
 1103SOL    HW113988   4.617   9.422   3.615 -1.9285  1.5100 -0.1318
 1103SOL    HW213989   4.524   9.381   3.487  0.0267 -2.4348 -0.3618
 1104SOL     OW13990   2.954   9.588   0.086  0.1980 -0.1264  0.0232
 1104SOL    HW113991   2.874   9.621   0.137 -0.5711 -1.1097 -0.5377
 1104SOL    HW213992   2.953   9.625  -0.006 -0.2883 -1.1300 -0.3829
 1105SOL     OW13993   6.364   7.634   2.389  0.3040 -0.3377  0.1362
 1105SOL    HW113994   6.275   7.667   2.357 -1.1121 -0.2991  3.8315
 1105SOL    HW213995   6.426   7.712   2.399 -0.8049  0.3015  2.1490
 1106SOL     OW13996   4.616   7.060   2.482 -0.0830 -0.2072 -0.2421
 1106SOL    HW113997   4.674   7.064   2.564  0.0084  1.0872 -0.3555
 1106SOL    HW213998   4.626   7.145   2.431 -1.3105 -0.4025 -0.8094
 1107SOL     OW13999   9.068   0.003   2.870  0.1618 -0.0858  0.1931
 1107SOL    HW114000   9.156   0.024   2.912  0.1648 -1.4324  0.8817
 1107SOL    HW214001   9.083  -0.052   2.788 -0.0678 -0.8288  0.6456
 1108SOL     OW14002   9.540   2.368   0.660 -0.3185 -0.8591 -0.3121
 1108SOL    HW114003   9.613   2.431   0.686  0.4013 -1.6697 -0.3577
 1108SOL    HW214004   9.557   2.332   0.569 -1.1590 -0.5037 -0.6203
 1109SOL     OW14005   0.637   8.969   0.961 -0.1405 -0.0108 -0.0286
 1109SOL    HW114006   0.714   8.917   0.926  1.6865  1.5782  1.4557
 1109SOL    HW214007   0.559   8.961   0.899  0.7171 -2.8549 -0.8024
 1110SOL     OW14008   3.695   7.491   2.360  0.3707 -0.6724  0.2565
 1110SOL    HW114009   3.750   7.504   2.277 -2.0357  0.7671 -1.1732
 1110SOL    HW214010   3.683   7.579   2.406  0.5462 -1.2464  1.4220
 1111SOL     OW14011   9.418   6.689   0.715 -0.2507 -0.3422 -0.1819
 1111SOL    HW114012   9.362   6.628   0.659 -0.9819 -0.0389  0.2154
 1111SOL    HW214013   9.490   6.637   0.760  1.3225 -0.3642 -2.6245
 1112SOL     OW14014   1.171   2.860   2.121 -0.1304 -0.7910 -0.3833
 1112SOL    HW114015   1.259   2.854   2.074  0.4857  1.4381  0.4333
 1112SOL    HW214016   1.186   2.863   2.220 -1.2221 -1.9242 -0.1738
 1113SOL     OW14017   1.598   7.279   3.421 -0.1684  0.0965  0.1149
 1113SOL    HW114018   1.674   7.318   3.473  0.1643 -1.6971  1.0190
 1113SOL    HW214019   1.589   7.182   3.443 -1.4864 -0.1647 -1.4698
 1114SOL     OW14020   5.154   9.630   1.955  0.0414 -0.3067 -0.3794
 1114SOL    HW114021   5.132   9.533   1.967 -2.7412  0.0194 -2.2591
 1114SOL    HW214022   5.199   9.664   2.037 -2.7255 -2.1770  2.0196
 1115SOL     OW14023   2.449   0.702   1.296  0.4308 -0.1563 -1.0923
 1115SOL    HW114024   2.437   0.623   1.356 -1.7998  0.6300 -0.4564
 1115SOL    HW214025   2.523   0.684   1.231  0.1762 -2.6119 -0.7360
 1116SOL     OW14026   8.043   8.397   4.063 -0.4944 -0.0161 -1.0195
 1116SOL    HW114027   8.073   8.488   4.093 -0.7166 -1.1018  2.6887
 1116SOL    HW214028   7.944   8.391   4.071 -0.1778 -1.7785  2.5205
 1117SOL     OW14029   0.939   9.247   4.132  0.4282 -0.1757  0.3229
 1117SOL    HW114030   0.970   9.339   4.106  2.5590 -0.7465  0.7704
 1117SOL    HW214031   0.877   9.212   4.061  0.9309  0.9287 -0.6790
 1118SOL     OW14032   9.254   7.477   1.666 -0.1082  0.0971 -0.4136
 1118SOL    HW114033   9.321   7.548   1.683 -1.2734  1.2879 -0.6875
 1118SOL    HW214034   9.243   7.420   1.747  1.2947 -0.1715 -0.4064
 1119SOL     OW14035   1.717   7.490   5.027  0.1145 -0.1315 -0.4466
 1119SOL    HW114036   1.775   7.440   4.961  2.2294 -2.8710  3.2679
 1119SOL    HW214037   1.628   7.445   5.034 -0.1370  0.1990 -1.4283
 1120SOL     OW14038   3.303   9.384   3.442 -0.3268 -0.0906  0.6806
 1120SOL    HW114039   3.324   9.477   3.473  2.6602 -0.1835 -0.8430
 1120SOL    HW214040   3.258   9.389   3.353  0.0683 -0.0775  0.4769
 1121SOL     OW14041   2.501   0.617   4.978  0.5643  0.4598 -0.0824
 1121SOL    HW114042   2.474   0.655   5.067 -0.1004  0.1720 -0.1554
 1121SOL    HW214043   2.519   0.692   4.914 -2.6300  0.7068 -0.7874
 1122SOL     OW14044   2.798   8.523   3.520  0.2531  0.0612  0.5094
 1122SOL    HW114045   2.719   8.462   3.523 -0.5636  1.1214  0.7440
 1122SOL    HW214046   2.821   8.553   3.613 -0.3767  1.4175  0.2358
 1123SOL     OW14047   0.592   0.978   1.147  0.3140 -0.4095  0.4652
 1123SOL    HW114048   0.669   1.034   1.117 -1.4319  0.5999 -2.2786
 1123SOL    HW214049   0.591   0.893   1.095 -0.6240 -0.2696  0.2540
 1124SOL     OW14050   3.721   7.437   3.809 -0.0471  0.4233  0.2662
 1124SOL    HW114051   3.635   7.394   3.834 -0.2100  1.2390  1.1403
 1124SOL    HW214052   3.779   7.445   3.890  0.0496  1.6843  0.0812
 1125SOL     OW14053   8.552   0.023   2.181 -0.0947  0.2698 -0.1245
 1125SOL    HW114054   8.602  -0.032   2.247  0.5701 -0.2238 -1.0215
 1125SOL    HW214055   8.455  -0.001   2.184 -0.3201  1.3308  1.7219
 1126SOL     OW14056   6.916   0.142   3.173 -0.7687  0.1874  0.1143
 1126SOL    HW114057   6.822   0.176   3.179 -1.4699 -1.3309 -1.6452
 1126SOL    HW214058   6.916   0.043   3.181  0.8331  0.2571  1.2395
 1127SOL     OW14059   8.720   9.509   2.875 -0.3038 -0.1392  0.4015
 1127SOL    HW114060   8.776   9.592   2.869 -0.7011  0.1417  0.6116
 1127SOL    HW214061   8.674   9.494   2.787  0.7287 -0.8180 -0.0403
 1128SOL     OW14062   1.667   1.097   0.846  0.6195 -0.4664  0.4196
 1128SOL    HW114063   1.723   1.021   0.879 -0.8098 -1.4056  0.7556
 1128SOL    HW214064   1.711   1.183   0.868  2.8632 -1.1837 -0.9991
 1129SOL     OW14065   8.923   9.459   0.976  0.7802 -0.3193  0.0674
 1129SOL    HW114066   8.896   9.364   0.988  0.3425 -0.2708 -0.5021
 1129SOL    HW214067   8.841   9.517   0.975  0.8571 -0.1922 -1.9495
 1130SOL     OW14068   4.273   1.826   0.918  0.1333  0.7497 -0.3028
 1130SOL    HW114069   4.328   1.894   0.967  0.4345 -0.8312  1.6416
 1130SOL    HW214070   4.247   1.753   0.982 -1.0761 -0.4199 -2.0952
 1131SOL     OW14071   2.842   6.622   0.779  0.4014  0.2449 -0.5444
 1131SOL    HW114072   2.747   6.623   0.748 -0.4294 -1.8861  1.7507
 1131SOL    HW214073   2.901   6.592   0.704 -0.7827  1.1260 -1.8493
 1132SOL     OW14074   1.260   0.946   3.261 -0.1962 -0.0244  0.2057
 1132SOL    HW114075   1.317   1.021   3.228  0.1577  0.2115  1.3333
 1132SOL    HW214076   1.171   0.948   3.214  0.9039 -0.7499 -1.9881
 1133SOL     OW14077   3.378   4.893   2.126  0.2184  0.3007 -0.1994
 1133SOL    HW114078   3.305   4.876   2.192 -1.4480  3.0140 -1.2281
 1133SOL    HW214079   3.342   4.887   2.034  1.4294  1.1332 -0.7446
 1134SOL     OW14080   1.837   7.150   4.018  0.0737 -0.5080 -0.2891
 1134SOL    HW114081   1.756   7.134   4.075 -0.4386 -1.3375 -1.2450
 1134SOL    HW214082   1.809   7.164   3.923  1.0089 -0.1537 -0.5211
 1135SOL     OW14083   7.529   1.133   3.127  0.4053 -0.3799 -0.4534
 1135SOL    HW114084   7.624   1.141   3.097  0.1697 -1.1506 -1.4296
 1135SOL    HW214085   7.518   1.051   3.183 -0.2860 -1.9404 -2.8027
 1136SOL     OW14086   7.366   9.080   5.375 -0.9942  0.2881  0.1600
 1136SOL    HW114087   7.275   9.045   5.350 -0.7143  1.1206 -2.1139
 1136SOL    HW214088   7.368   9.099   5.473 -3.0501 -0.4008  0.3648
 1137SOL     OW14089   2.884   9.328   3.924 -0.0094 -0.5478  0.0544
 1137SOL    HW114090   2.899   9.247   3.866  0.2069 -0.6466  0.2486
 1137SOL    HW214091   2.794   9.320   3.968 -0.2240 -0.4185 -0.3520
 1138SOL     OW14092   8.233   0.916   1.172 -0.9570  0.1609 -0.1691
 1138SOL    HW114093   8.224   0.948   1.078  0.6277 -1.4829 -0.9128
 1138SOL    HW214094   8.227   0.816   1.175 -0.4583  0.1517  1.3871
 1139SOL     OW14095   1.262   6.767   3.292  0.5810  0.4943 -0.0501
 1139SOL    HW114096   1.274   6.826   3.213 -0.6339  0.5805 -0.1881
 1139SOL    HW214097   1.226   6.821   3.369  1.1495  0.2888  0.3622
 1140SOL     OW14098   9.551   1.407   0.505  0.7597 -0.2425 -0.0949
 1140SOL    HW114099   9.546   1.395   0.406 -1.1127 -1.4382  0.1028
 1140SOL    HW214100   9.534   1.319   0.550  0.4205  0.5161  1.2873
 1141SOL     OW14101   0.018   0.171   2.086  0.0994  0.0502 -0.4786
 1141SOL    HW114102  -0.013   0.182   1.991  0.0480 -0.8023 -0.5700
 1141SOL    HW214103  -0.054   0.201   2.148  0.4406  1.3608 -0.7161
 1142SOL     OW14104   5.467   0.592   0.534 -0.0923 -1.2201  0.5225
 1142SOL    HW114105   5.401   0.608   0.607  0.3174  0.8441  0.4824
 1142SOL    HW214106   5.560   0.604   0.570  0.1065  0.0370 -0.3556
 1143SOL     OW14107   3.592   2.262   2.414  0.0311  0.8398 -0.1074
 1143SOL    HW114108   3.636   2.180   2.377  2.0001  1.4965  0.7245
 1143SOL    HW214109   3.634   2.287   2.501 -0.0741  3.1404 -0.6753
 1144SOL     OW14110   2.263   8.449   1.625  0.5496 -0.2121 -0.0521
 1144SOL    HW114111   2.310   8.536   1.606 -0.4361  0.1961 -0.6643
 1144SOL    HW214112   2.331   8.380   1.652  1.4253  0.5506 -0.2653
 1145SOL     OW14113   9.182   2.108   4.076 -0.4031 -0.0352 -0.0155
 1145SOL    HW114114   9.134   2.190   4.108  1.2560  0.2902  1.6602
 1145SOL    HW214115   9.239   2.072   4.149 -0.8768 -2.5384 -0.8412
 1146SOL     OW14116   0.585   9.988   5.324 -0.1496  0.1097 -0.7001
 1146SOL    HW114117   0.559  10.081   5.350  0.7974  0.0733  0.3849
 1146SOL    HW214118   0.511   9.925   5.348 -0.6151  0.5161 -1.0485
 1147SOL     OW14119   0.339   0.488   3.282 -0.3382  0.2198  0.6495
 1147SOL    HW114120   0.276   0.550   3.236  0.3792  1.2511  1.0095
 1147SOL    HW214121   0.363   0.413   3.221 -1.8121 -0.1201  0.4756
 1148SOL     OW14122   4.102   5.373   1.935 -0.2616 -0.2589  0.2738
 1148SOL    HW114123   4.201   5.387   1.944 -0.2941  1.1333 -1.3083
 1148SOL    HW214124   4.055   5.456   1.966 -0.9722 -1.1357  1.5788
 1149SOL     OW14125   3.404   1.709   2.325  0.2545 -0.1889  0.1878
 1149SOL    HW114126   3.435   1.623   2.366  1.9479  0.5500  0.5019
 1149SOL    HW214127   3.332   1.749   2.382 -0.4208 -1.2969  0.1369
 1150SOL     OW14128   2.427   8.536   2.301  0.3657  0.5922  0.5767
 1150SOL    HW114129   2.440   8.498   2.209 -1.5142  1.4082 -0.0585
 1150SOL    HW214130   2.396   8.464   2.363 -0.3446  0.4537  0.0722
 1151SOL     OW14131   9.267   8.580   0.127  0.1803 -0.0167  0.3231
 1151SOL    HW114132   9.220   8.651   0.180  0.6282 -0.8713  1.9138
 1151SOL    HW214133   9.206   8.547   0.055 -1.7296 -1.1757  2.4107
 1152SOL     OW14134   2.897   1.102   0.567  0.0661 -0.3931  0.3282
 1152SOL    HW114135   2.854   1.012   0.559 -1.5355  0.4124 -0.3252
 1152SOL    HW214136   2.911   1.140   0.475  1.9538 -0.5157  0.5342
 1153SOL     OW14137   4.469   7.342   1.730 -0.0280  0.5028  0.7639
 1153SOL    HW114138   4.500   7.429   1.691 -1.4130  0.6529 -0.0764
 1153SOL    HW214139   4.405   7.360   1.804 -0.4390  0.2083  0.4845
 1154SOL     OW14140   3.300   0.931   4.237  0.0274 -0.1217  0.2487
 1154SOL    HW114141   3.397   0.954   4.225  0.0467 -1.1774 -1.8738
 1154SOL    HW214142   3.245   0.997   4.185 -0.4476  0.8044  1.8890
 1155SOL     OW14143   1.906   4.049   2.777  0.3542  0.5072 -0.5217
 1155SOL    HW114144   1.902   4.108   2.859  0.9717  0.5477 -0.5182
 1155SOL    HW214145   1.909   3.953   2.806  0.0420  0.4980 -0.5120
 1156SOL     OW14146   3.937   7.202   3.473  0.6757  0.7835 -0.1628
 1156SOL    HW114147   3.890   7.225   3.388  0.3968  1.6196  0.2136
 1156SOL    HW214148   3.994   7.121   3.458 -1.3329 -0.6142 -0.4729
 1157SOL     OW14149   6.198   1.043   4.261 -0.2818  0.6137 -0.2341
 1157SOL    HW114150   6.226   1.138   4.275  0.5631  0.0278  2.2718
 1157SOL    HW214151   6.103   1.041   4.232 -0.3389  2.2349 -0.2137
 1158SOL     OW14152   2.093   1.361   4.831  0.8516  0.4197  0.1820
 1158SOL    HW114153   2.142   1.441   4.797 -0.0014  0.6096 -0.6127
 1158SOL    HW214154   2.128   1.279   4.786 -1.1027  0.7997 -2.0761
 1159SOL     OW14155   8.831   3.670   2.035  0.0378 -0.3362  0.0476
 1159SOL    HW114156   8.782   3.752   2.065  0.9445 -0.1862  1.1705
 1159SOL    HW214157   8.770   3.592   2.040 -0.4854  0.0711  0.1319
 1160SOL     OW14158   9.537   8.764   4.053 -0.1442 -0.1443  0.1267
 1160SOL    HW114159   9.623   8.813   4.041 -0.0399 -0.2520  0.4134
 1160SOL    HW214160   9.532   8.728   4.146 -0.9720  0.7569  0.4332
 1161SOL     OW14161   6.312   9.967   4.450 -0.1677  0.9723  0.3490
 1161SOL    HW114162   6.311   9.882   4.502 -1.6805 -0.2423 -1.6095
 1161SOL    HW214163   6.366  10.035   4.499  0.9447 -1.0530  2.0207
 1162SOL     OW14164   1.983   5.636   2.320  0.3527  0.1382 -0.1337
 1162SOL    HW114165   1.932   5.679   2.246 -0.9177 -0.1399  0.5592
 1162SOL    HW214166   1.979   5.695   2.402  1.3671  0.2354 -0.1457
 1163SOL     OW14167   9.204   1.898   3.104  0.8144  0.5076  0.0656
 1163SOL    HW114168   9.282   1.955   3.079  0.4964  1.1576  0.5210
 1163SOL    HW214169   9.215   1.806   3.066  0.7684  1.2080 -1.6653
 1164SOL     OW14170   2.974   6.112   3.697 -0.6528 -0.6620 -0.1639
 1164SOL    HW114171   3.044   6.134   3.764 -1.2829 -1.8184  0.9028
 1164SOL    HW214172   2.922   6.031   3.728 -0.7336 -1.4198 -2.1967
 1165SOL     OW14173   9.480   8.104   1.039 -0.1866  0.1949 -0.1591
 1165SOL    HW114174   9.574   8.128   1.016  0.0212 -1.7699 -1.5431
 1165SOL    HW214175   9.477   8.011   1.074 -1.7820 -0.2889 -1.5232
 1166SOL     OW14176   3.642   0.685   4.749  0.0246 -0.4905  0.4409
 1166SOL    HW114177   3.663   0.739   4.668 -0.7689 -1.2883 -0.3227
 1166SOL    HW214178   3.600   0.598   4.720 -1.8917 -0.0342  1.7693
 1167SOL     OW14179   3.510   5.337   2.987  0.8597 -0.5035 -0.4723
 1167SOL    HW114180   3.560   5.298   2.910 -0.3288 -1.9960 -0.5230
 1167SOL    HW214181   3.416   5.357   2.959  1.1190  1.3018 -0.1003
 1168SOL     OW14182   2.514   7.735   2.315  0.7472 -0.1093 -0.1745
 1168SOL    HW114183   2.414   7.742   2.316  0.8208  1.2658  2.3993
 1168SOL    HW214184   2.554   7.826   2.325  2.3270 -0.4630 -2.7578
 1169SOL     OW14185   5.004   0.655   0.674  0.1365  0.4151 -0.2552
 1169SOL    HW114186   4.925   0.641   0.733  0.2163 -2.6754 -0.8166
 1169SOL    HW214187   4.974   0.697   0.588 -0.8994 -0.5846 -0.3980
 1170SOL     OW14188   4.409   1.997   3.815  0.7432 -0.1505 -0.1759
 1170SOL    HW114189   4.431   1.933   3.742  0.2302  1.0946 -1.4510
 1170SOL    HW214190   4.492   2.045   3.843  0.5789  0.9797 -1.5337
 1171SOL     OW14191   9.382   2.379   4.948  0.9465  0.1343 -0.0148
 1171SOL    HW114192   9.435   2.360   4.865 -0.1358  1.4421 -1.0337
 1171SOL    HW214193   9.425   2.452   5.000  0.5878  0.6373 -0.4224
 1172SOL     OW14194   1.619   6.049   1.603  0.0320 -0.3548  0.2035
 1172SOL    HW114195   1.657   6.141   1.593  1.2128 -0.6236  1.9465
 1172SOL    HW214196   1.664   5.988   1.537 -0.6383  0.2584 -0.8454
 1173SOL     OW14197   8.586   3.292   2.654  0.8942  0.2917 -0.1320
 1173SOL    HW114198   8.648   3.225   2.614  2.3180  0.1600  2.1997
 1173SOL    HW214199   8.531   3.248   2.725 -0.0654  0.9992 -0.4223
 1174SOL     OW14200   6.505   1.326   2.885 -0.5085  0.3381  0.2464
 1174SOL    HW114201   6.560   1.249   2.919  0.8179  1.3138  0.3297
 1174SOL    HW214202   6.550   1.366   2.805 -1.1948  1.0340  0.2075
 1175SOL     OW14203   8.413   1.250   2.516 -0.4857 -0.0253 -0.0872
 1175SOL    HW114204   8.421   1.315   2.591  0.2214  0.7097 -0.7943
 1175SOL    HW214205   8.502   1.209   2.497 -1.2734 -2.6697  1.6304
 1176SOL     OW14206   9.769   5.572   2.991 -0.1120 -0.5827 -0.0834
 1176SOL    HW114207   9.721   5.506   2.933 -2.0808 -1.5891  2.5848
 1176SOL    HW214208   9.867   5.559   2.981 -0.4249 -1.2323 -2.6058
 1177SOL     OW14209   3.053   6.780   0.885 -0.1582  0.0328  0.1189
 1177SOL    HW114210   2.978   6.717   0.905 -0.3767 -0.3500 -1.8070
 1177SOL    HW214211   3.125   6.732   0.834 -0.7500  1.5191 -2.2084
 1178SOL     OW14212   2.299   6.634   1.618  0.1623 -0.1563 -0.4786
 1178SOL    HW114213   2.302   6.649   1.717 -1.3128  0.7597 -0.5473
 1178SOL    HW214214   2.374   6.574   1.591 -0.1517 -1.4391  1.3802
 1179SOL     OW14215   2.572   9.875   3.826 -0.3166 -0.2455 -0.5847
 1179SOL    HW114216   2.532   9.856   3.736 -0.3900  2.0094 -1.0603
 1179SOL    HW214217   2.518   9.945   3.873  1.4517  0.8206 -0.0713
 1180SOL     OW14218   2.628   5.100   1.553 -0.2137 -0.4850 -0.0267
 1180SOL    HW114219   2.699   5.097   1.623  0.0379  1.8577 -0.1412
 1180SOL    HW214220   2.654   5.040   1.477  0.5160 -1.4273  0.9458
 1181SOL     OW14221   1.970   7.929   0.353  0.7717  0.6247  0.4074
 1181SOL    HW114222   2.015   7.846   0.387 -0.0937 -0.3501 -0.8020
 1181SOL    HW214223   2.039   7.991   0.315  1.3197  0.0811  0.5132
 1182SOL     OW14224   0.877   2.295   1.586 -0.1168 -0.3199  0.1976
 1182SOL    HW114225   0.943   2.346   1.641 -0.2833 -0.8824  0.9258
 1182SOL    HW214226   0.858   2.207   1.629 -0.9258 -0.3940 -0.2890
 1183SOL     OW14227   9.332   9.930   1.157 -0.2567  0.0523 -0.8916
 1183SOL    HW114228   9.364   9.995   1.226 -0.4471 -1.0183  0.2187
 1183SOL    HW214229   9.408   9.903   1.097  0.9573 -2.3947  1.6568
 1184SOL     OW14230   0.008   6.982   4.306  0.1793 -0.7489 -0.5886
 1184SOL    HW114231  -0.065   7.014   4.245 -0.2831 -3.0584 -1.2900
 1184SOL    HW214232  -0.032   6.930   4.381  0.8911  0.6761  0.7977
 1185SOL     OW14233   2.165   6.793   1.408 -0.5819 -0.1765 -0.1260
 1185SOL    HW114234   2.225   6.776   1.487 -1.0733  0.1696  0.3225
 1185SOL    HW214235   2.111   6.712   1.390 -1.3541  0.1531  0.6616
 1186SOL     OW14236   2.065   6.934   3.056 -0.1043  0.1222  0.1484
 1186SOL    HW114237   2.068   6.866   3.129  2.3238 -1.1321 -1.0677
 1186SOL    HW214238   1.978   6.927   3.007 -1.5894  0.7130  2.5986
 1187SOL     OW14239   9.509   4.761   2.784  0.1630 -0.0476 -0.2208
 1187SOL    HW114240   9.563   4.684   2.750  1.7925 -0.4858  3.1829
 1187SOL    HW214241   9.560   4.846   2.769  1.0319 -0.2751  1.3381
 1188SOL     OW14242   9.981   4.881   1.301 -0.0473  0.1579 -0.0193
 1188SOL    HW114243  10.003   4.791   1.337 -0.4838  0.0659  0.0262
 1188SOL    HW214244   9.936   4.872   1.213  0.4596  0.3588 -0.2983
 1189SOL     OW14245   0.522   0.013   5.626  0.0376 -0.2911  0.1025
 1189SOL    HW114246   0.439  -0.015   5.675 -0.1948 -0.0582 -0.1649
 1189SOL    HW214247   0.520  -0.025   5.534  0.3477 -0.4961  0.1804
 1190SOL     OW14248   4.039   2.398   3.195  0.1535 -0.0041  0.0902
 1190SOL    HW114249   4.043   2.489   3.235  2.8703  0.4194 -1.0864
 1190SOL    HW214250   4.051   2.404   3.096 -2.8527 -1.3885 -0.4281
 1191SOL     OW14251   1.081   0.134   0.640  0.8777 -0.4111  0.1119
 1191SOL    HW114252   1.157   0.171   0.588  0.5593 -1.5427 -1.1695
 1191SOL    HW214253   1.071   0.036   0.621 -1.3165 -0.1380 -0.2726
 1192SOL     OW14254   3.408   6.762   0.995  0.5002  0.2828  0.0771
 1192SOL    HW114255   3.483   6.821   1.025  1.8308 -0.5220 -1.5491
 1192SOL    HW214256   3.443   6.670   0.979 -1.3394 -0.6940  1.5598
 1193SOL     OW14257   1.467   3.800   1.164 -1.0168 -0.4702 -0.1600
 1193SOL    HW114258   1.523   3.770   1.241 -0.4565 -1.0399 -0.7811
 1193SOL    HW214259   1.453   3.724   1.101 -1.2170  0.0620 -0.7686
 1194SOL     OW14260   0.482   8.692   1.423  0.3029 -0.3612  0.3170
 1194SOL    HW114261   0.476   8.768   1.488  0.3178  0.9519 -1.1911
 1194SOL    HW214262   0.531   8.722   1.341  1.1321 -2.2762  0.0737
 1195SOL     OW14263   1.416   0.117   1.547 -0.4153 -0.5757  0.1462
 1195SOL    HW114264   1.484   0.140   1.616 -1.6837  0.7820  0.9992
 1195SOL    HW214265   1.384   0.023   1.561  1.8476 -1.5134 -0.7844
 1196SOL     OW14266   2.711   4.696   2.916  0.1337  0.3308 -0.3561
 1196SOL    HW114267   2.681   4.619   2.860 -0.7351  1.1933 -1.0937
 1196SOL    HW214268   2.803   4.678   2.951 -0.2225 -1.2168 -0.1791
 1197SOL     OW14269   1.319   2.556   3.305  0.6874 -0.6191  0.3024
 1197SOL    HW114270   1.367   2.515   3.383  0.6155  0.3775  0.8902
 1197SOL    HW214271   1.386   2.595   3.242  0.7165 -0.5394  0.3806
 1198SOL     OW14272   6.323   9.548   1.770 -0.3173  0.0618 -0.0312
 1198SOL    HW114273   6.358   9.623   1.825 -1.1184  0.4733 -0.0727
 1198SOL    HW214274   6.241   9.578   1.721 -1.0488 -1.0257  0.4904
 1199SOL     OW14275   3.694   8.665   4.572 -0.3161  0.3341  0.4028
 1199SOL    HW114276   3.656   8.573   4.559  0.3597 -0.1131  1.4882
 1199SOL    HW214277   3.620   8.731   4.583 -0.7789 -0.3744  1.5448
 1200SOL     OW14278   4.791   3.583   1.419 -0.1520  0.0668 -0.1672
 1200SOL    HW114279   4.711   3.536   1.383 -0.2044  2.1131 -2.9271
 1200SOL    HW214280   4.864   3.582   1.351  1.3265  0.3544  1.3606
 1201SOL     OW14281   0.276   1.716   2.518 -0.1240 -0.0863 -0.4189
 1201SOL    HW114282   0.202   1.676   2.464  0.7400 -1.1209 -0.8631
 1201SOL    HW214283   0.238   1.781   2.583 -1.3066  0.2555 -1.4232
 1202SOL     OW14284   2.745   1.276   1.264 -0.5019 -0.4105 -0.4214
 1202SOL    HW114285   2.792   1.340   1.202  2.1860 -2.7122 -0.8710
 1202SOL    HW214286   2.726   1.322   1.350  0.8997  1.1834 -0.9222
 1203SOL     OW14287   2.597   2.139   2.462 -0.1825  0.4918  0.5862
 1203SOL    HW114288   2.502   2.118   2.482  0.1362 -0.5170  1.1079
 1203SOL    HW214289   2.602   2.212   2.394 -1.3202  0.8201  0.8454
 1204SOL     OW14290   8.456   8.948   4.582 -0.0208 -0.0108  0.6027
 1204SOL    HW114291   8.369   8.938   4.535  0.0181 -0.6914  0.6737
 1204SOL    HW214292   8.444   9.007   4.662 -0.7898 -1.4738  1.5872
 1205SOL     OW14293   2.034   4.174   2.142  0.2354 -0.4949 -0.2570
 1205SOL    HW114294   1.960   4.202   2.080  0.3293 -2.0650 -1.0879
 1205SOL    HW214295   2.099   4.249   2.151 -1.0470  0.6259 -0.1397
 1206SOL     OW14296   1.431   9.765   2.289 -0.1290 -0.1286 -0.9622
 1206SOL    HW114297   1.494   9.735   2.361 -0.2493 -0.5884 -1.0469
 1206SOL    HW214298   1.393   9.684   2.243 -2.3796  0.0999  0.4542
 1207SOL     OW14299   5.286   2.073   2.543  0.1095  0.2107 -0.6359
 1207SOL    HW114300   5.220   2.016   2.495 -1.9195 -1.1548  3.4550
 1207SOL    HW214301   5.369   2.020   2.561  0.0394  0.0477 -0.7946
 1208SOL     OW14302   5.198   8.245   2.833 -0.5629 -0.0130  0.0814
 1208SOL    HW114303   5.174   8.198   2.918 -1.8738 -0.0716 -0.3171
 1208SOL    HW214304   5.140   8.326   2.822 -1.5949 -0.9659 -1.6322
 1209SOL     OW14305   6.260   9.748   1.186 -0.7620  0.8420  0.4106
 1209SOL    HW114306   6.297   9.688   1.257 -2.7158 -0.5040  0.3125
 1209SOL    HW214307   6.317   9.741   1.104  0.2761  0.7947  1.1131
 1210SOL     OW14308   3.993   9.135   4.058  0.1818 -0.0707 -0.1196
 1210SOL    HW114309   3.914   9.164   4.004  0.8958 -0.5975 -1.4877
 1210SOL    HW214310   4.049   9.214   4.081  1.1608 -0.1079 -2.2650
 1211SOL     OW14311   3.620   7.251   2.580 -0.0519  0.2512  0.6104
 1211SOL    HW114312   3.707   7.299   2.573 -0.0080  0.1013  0.0671
 1211SOL    HW214313   3.579   7.243   2.489  0.2278 -1.2423  0.5946
 1212SOL     OW14314   3.267   0.402   0.483 -0.8517  0.5747  0.4147
 1212SOL    HW114315   3.203   0.328   0.503  0.4145  0.0008  2.5377
 1212SOL    HW214316   3.246   0.481   0.541 -0.2993  0.7478  0.3820
 1213SOL     OW14317   2.093   7.498   5.584  0.4570  0.1774 -0.3291
 1213SOL    HW114318   2.186   7.490   5.620  0.7688  0.0238 -1.1646
 1213SOL    HW214319   2.050   7.407   5.583  0.0831  0.3388  0.6202
 1214SOL     OW14320   7.753   3.078   3.392  0.5356  0.0228 -0.3107
 1214SOL    HW114321   7.708   3.141   3.329 -1.0923 -0.6203  0.1593
 1214SOL    HW214322   7.712   2.987   3.382  1.0095 -0.3345  0.9036
 1215SOL     OW14323   6.500   0.051   1.323 -0.4297 -0.1367  0.2084
 1215SOL    HW114324   6.534  -0.032   1.280 -0.0059  0.0153  0.2501
 1215SOL    HW214325   6.482   0.120   1.253 -0.1036 -0.0218  0.2353
 1216SOL     OW14326   8.691   9.112   4.776 -0.1184  0.6028 -0.7555
 1216SOL    HW114327   8.766   9.048   4.795 -0.0519  0.5255 -1.2898
 1216SOL    HW214328   8.679   9.121   4.678 -0.0868  1.4626 -0.6828
 1217SOL     OW14329   0.006   7.202   3.820 -0.3218  0.6802  0.0835
 1217SOL    HW114330  -0.050   7.270   3.869  0.0713  0.8792  0.2630
 1217SOL    HW214331   0.020   7.233   3.726  0.5920  1.2888  0.4111
 1218SOL     OW14332   0.060   5.249   2.084  0.3367  0.0362  0.0719
 1218SOL    HW114333   0.013   5.176   2.034  1.2503 -0.0057 -0.7520
 1218SOL    HW214334   0.098   5.213   2.169  1.1855 -0.5790 -0.5508
 1219SOL     OW14335   7.768   1.593   3.666  0.2770  0.4197  0.2516
 1219SOL    HW114336   7.804   1.684   3.686 -1.2363  0.7223  1.6840
 1219SOL    HW214337   7.668   1.595   3.669  0.1890 -0.9636 -1.1886
 1220SOL     OW14338   3.092   3.034   0.274 -0.1787 -0.0747  0.4887
 1220SOL    HW114339   3.041   3.105   0.321  0.0467 -0.4294  1.2662
 1220SOL    HW214340   3.135   2.973   0.340 -4.1032 -3.7004 -0.0676
 1221SOL     OW14341   9.632   9.298   3.861  0.1872  0.3724 -0.3912
 1221SOL    HW114342   9.698   9.317   3.788  1.3826 -0.7325  0.3984
 1221SOL    HW214343   9.676   9.310   3.950 -0.4281 -1.2664  0.1431
 1222SOL     OW14344   0.041   8.799   2.212 -0.9604  0.2301  0.1828
 1222SOL    HW114345   0.115   8.843   2.162 -2.0818  2.0204  0.0572
 1222SOL    HW214346   0.078   8.751   2.292  0.5722 -0.7944 -1.1112
 1223SOL     OW14347   1.839   4.229   0.288  0.2202 -0.0504 -0.0924
 1223SOL    HW114348   1.921   4.277   0.319  0.1694  0.6329 -0.9986
 1223SOL    HW214349   1.860   4.179   0.204 -1.3853  3.7519 -2.9106
 1224SOL     OW14350   4.075   1.010   2.145  0.2524  0.8223 -0.6330
 1224SOL    HW114351   4.018   0.952   2.201  0.5368  2.5004  1.4712
 1224SOL    HW214352   4.169   1.009   2.180  0.5701  1.4429 -1.4315
 1225SOL     OW14353   2.784   3.490   2.918  0.5713  0.2534 -0.0487
 1225SOL    HW114354   2.719   3.552   2.873  1.1433  0.2141 -0.9420
 1225SOL    HW214355   2.750   3.467   3.009 -0.0166  1.2909  0.0082
 1226SOL     OW14356   1.348   9.188   2.638  0.6769  0.2920 -0.1613
 1226SOL    HW114357   1.405   9.114   2.603 -1.2080 -2.0386  1.5453
 1226SOL    HW214358   1.398   9.237   2.710  0.6342 -1.6528  1.2318
 1227SOL     OW14359   1.152   9.635   2.947 -0.2529  0.1612 -0.0083
 1227SOL    HW114360   1.134   9.560   2.884  0.7087  0.6279 -0.8710
 1227SOL    HW214361   1.209   9.703   2.901 -0.2833  0.9361  1.0866
 1228SOL     OW14362   0.992   1.435   5.422  0.1785 -0.3649  0.4726
 1228SOL    HW114363   1.015   1.348   5.466 -0.8741 -1.0612 -0.3137
 1228SOL    HW214364   0.905   1.426   5.374  0.1099  1.1018  0.2875
 1229SOL     OW14365   3.211   0.563   0.714 -0.1761 -1.2603 -0.0281
 1229SOL    HW114366   3.263   0.581   0.797 -0.2901  0.4838 -0.3204
 1229SOL    HW214367   3.162   0.645   0.686 -1.6291 -2.3479 -0.7956
 1230SOL     OW14368   4.428   0.076   4.346 -0.5970 -0.3100 -0.3885
 1230SOL    HW114369   4.338   0.036   4.363 -0.8712 -1.4034 -3.8860
 1230SOL    HW214370   4.422   0.141   4.270  1.8658 -1.9071 -2.0450
 1231SOL     OW14371   0.094   0.846   1.245  0.2407 -0.2279  0.1309
 1231SOL    HW114372  -0.003   0.830   1.261  0.4970 -1.4110  0.5701
 1231SOL    HW214373   0.116   0.941   1.267 -0.8888  0.1509 -0.3559
 1232SOL     OW14374   8.681   1.340   4.582 -0.0617 -0.2827 -0.1006
 1232SOL    HW114375   8.650   1.386   4.665  2.5364 -0.6856  1.1392
 1232SOL    HW214376   8.714   1.408   4.516  0.7318 -0.1431  0.4342
 1233SOL     OW14377   1.620   3.652   1.347  0.8182 -0.4638  0.7754
 1233SOL    HW114378   1.551   3.616   1.410 -1.4582  2.2908 -0.0529
 1233SOL    HW214379   1.672   3.724   1.392 -0.2648  0.9396 -0.1615
 1234SOL     OW14380   2.290   8.314   2.726  0.0514 -0.3244  0.0128
 1234SOL    HW114381   2.389   8.325   2.727  0.2246 -1.3927 -2.0222
 1234SOL    HW214382   2.247   8.401   2.749  1.4491  0.6459 -0.9452
 1235SOL     OW14383   7.325   0.110   5.335  0.0979  0.4227  0.3392
 1235SOL    HW114384   7.237   0.063   5.344  1.3190 -1.9948  0.1305
 1235SOL    HW214385   7.324   0.194   5.389 -2.3523  0.4771  0.2670
 1236SOL     OW14386   9.071   2.591   2.852  0.1413 -0.1298  0.4668
 1236SOL    HW114387   9.031   2.515   2.800 -0.2756 -1.5083  2.7397
 1236SOL    HW214388   9.007   2.621   2.922  0.9412  1.2935  0.6000
 1237SOL     OW14389   0.960   6.220   2.583  0.0981 -0.4088 -0.1230
 1237SOL    HW114390   1.009   6.306   2.598 -1.4153  0.3439  0.7165
 1237SOL    HW214391   0.890   6.233   2.512  1.2886 -1.5429 -1.5207
 1238SOL     OW14392   7.300   7.189   1.849  0.0942  0.3056 -0.5906
 1238SOL    HW114393   7.379   7.130   1.828  0.6408  0.4975  0.8596
 1238SOL    HW214394   7.236   7.139   1.907  1.1426  1.5025  1.6652
 1239SOL     OW14395   3.891   0.414   2.739  0.4940 -0.4115 -0.0448
 1239SOL    HW114396   3.905   0.318   2.763 -0.0216 -0.7001 -0.8754
 1239SOL    HW214397   3.980   0.461   2.739  0.8869 -1.1239 -0.6005
 1240SOL     OW14398   8.839   8.624   0.954 -0.0400  0.4134  0.0569
 1240SOL    HW114399   8.773   8.596   1.024 -0.4085  1.2788  0.0662
 1240SOL    HW214400   8.904   8.550   0.938 -0.8522 -0.3484  0.2395
 1241SOL     OW14401   9.969   7.959   4.684  0.1259 -0.3985  0.5510
 1241SOL    HW114402   9.910   7.878   4.691 -0.3789 -0.0020  0.9865
 1241SOL    HW214403   9.962   8.012   4.769  0.3297  0.1828  0.2040
 1242SOL     OW14404   3.055   3.169   0.680 -0.1981 -0.0048  0.2704
 1242SOL    HW114405   3.145   3.186   0.721 -0.6823  1.2810  0.8148
 1242SOL    HW214406   2.987   3.156   0.752 -0.6661  0.1634 -0.1385
 1243SOL     OW14407   2.665   3.915   0.815  0.0075 -0.1918 -0.2418
 1243SOL    HW114408   2.756   3.955   0.804  0.5188 -0.8683  1.3509
 1243SOL    HW214409   2.669   3.817   0.799 -0.0262 -0.5409  1.7384
 1244SOL     OW14410   4.256   3.818   3.792 -0.1896  0.0059 -0.0199
 1244SOL    HW114411   4.246   3.811   3.693 -0.3084  2.8387 -0.2409
 1244SOL    HW214412   4.353   3.809   3.816 -0.3316 -2.2922 -0.2202
 1245SOL     OW14413   2.868   2.513   5.397  0.1915 -0.0119 -0.3382
 1245SOL    HW114414   2.911   2.573   5.464 -0.6228  0.2041 -0.0043
 1245SOL    HW214415   2.799   2.457   5.442 -0.4428  0.2120 -1.0150
 1246SOL     OW14416   2.471   7.327   1.731 -0.0682 -0.3730  0.1143
 1246SOL    HW114417   2.471   7.229   1.749  0.3288 -0.6164 -1.1347
 1246SOL    HW214418   2.399   7.371   1.786 -1.3075 -1.5872 -0.4963
 1247SOL     OW14419   9.830   7.664   1.600 -0.3402  0.3945 -0.5148
 1247SOL    HW114420   9.776   7.748   1.608 -2.2064 -0.7198 -1.0853
 1247SOL    HW214421   9.889   7.670   1.519 -0.0310  1.3716 -0.2344
 1248SOL     OW14422   3.260   9.997   0.331 -0.1627 -0.0101 -0.2509
 1248SOL    HW114423   3.350  10.019   0.292  0.5695 -2.0138  0.2404
 1248SOL    HW214424   3.209   9.940   0.268  0.0540 -1.2495  0.6836
 1249SOL     OW14425   2.029   6.905   4.812  0.2387 -0.4918  0.6024
 1249SOL    HW114426   2.122   6.891   4.777  0.1734  1.6659 -0.5054
 1249SOL    HW214427   1.963   6.867   4.747  0.2980 -1.3420  1.0263
 1250SOL     OW14428   8.331   2.838   1.652  0.5764 -0.5117 -0.2577
 1250SOL    HW114429   8.256   2.824   1.717  1.1051 -0.4933  0.3579
 1250SOL    HW214430   8.417   2.849   1.702  0.6932  1.5635 -0.8474
 1251SOL     OW14431   9.705   8.770   1.355  0.3724 -0.0820 -0.2739
 1251SOL    HW114432   9.686   8.763   1.257  0.3667  0.0099 -0.2791
 1251SOL    HW214433   9.705   8.866   1.382  2.1405 -0.0025 -0.5263
 1252SOL     OW14434   4.646   2.698   2.509 -0.6691 -0.1164  0.1179
 1252SOL    HW114435   4.731   2.694   2.562 -1.1310  0.3696  0.9021
 1252SOL    HW214436   4.615   2.605   2.489 -1.2699 -0.3206  1.9678
 1253SOL     OW14437   0.745   9.390   1.605  0.0560  0.9668  0.2388
 1253SOL    HW114438   0.704   9.403   1.695  1.8275  1.9640  0.9282
 1253SOL    HW214439   0.674   9.365   1.539 -1.2473  0.1916  1.9116
 1254SOL     OW14440   2.362   2.956   2.393  0.1513 -0.4289  0.0225
 1254SOL    HW114441   2.401   2.888   2.457 -0.6397 -0.8738  0.0363
 1254SOL    HW214442   2.363   2.919   2.301 -0.4352 -0.5313  0.0538
 1255SOL     OW14443   0.671   1.460   1.287  0.6554  0.4587  0.0314
 1255SOL    HW114444   0.582   1.456   1.241  0.6025 -1.9866  0.3066
 1255SOL    HW214445   0.659   1.495   1.380 -0.0306  0.1247  0.0743
 1256SOL     OW14446   7.865   0.892   1.205  0.1084 -0.3349  0.5873
 1256SOL    HW114447   7.943   0.955   1.197 -0.3832  0.3484  1.0502
 1256SOL    HW214448   7.811   0.918   1.285 -0.0701 -1.3928  0.8088
 1257SOL     OW14449   0.470   2.721   1.264 -0.8256  0.1334  0.4907
 1257SOL    HW114450   0.373   2.703   1.248 -0.1352 -1.6546 -1.9576
 1257SOL    HW214451   0.523   2.640   1.241  1.6350  2.4096 -2.2581
 1258SOL     OW14452   8.295   9.307   2.642  0.0355  0.0425 -0.3892
 1258SOL    HW114453   8.263   9.401   2.644  1.1765  0.4296  0.4050
 1258SOL    HW214454   8.284   9.266   2.733 -0.0298 -0.4438 -0.6138
 1259SOL     OW14455   0.920   1.520   2.290 -0.0380 -0.5136 -0.1699
 1259SOL    HW114456   0.822   1.528   2.272 -0.0376  1.2335  0.4609
 1259SOL    HW214457   0.948   1.591   2.355  1.8498 -0.2318 -1.2394
 1260SOL     OW14458   3.682   9.203   4.768 -0.3401  0.7171 -0.2451
 1260SOL    HW114459   3.712   9.213   4.674 -1.0797  1.1825 -0.4300
 1260SOL    HW214460   3.736   9.131   4.813 -0.4208  0.0664 -1.1967
 1261SOL     OW14461   4.387   9.253   2.867 -0.0359 -1.0191  0.9679
 1261SOL    HW114462   4.296   9.256   2.909 -0.8038  0.8010 -0.7621
 1261SOL    HW214463   4.404   9.162   2.831 -1.2499 -1.3246  1.1514
 1262SOL     OW14464   2.460   1.786   5.049  0.0070  0.1808 -0.1708
 1262SOL    HW114465   2.418   1.829   4.969  0.5864 -1.2458 -1.2672
 1262SOL    HW214466   2.439   1.688   5.049  0.1776  0.1325  1.3243
 1263SOL     OW14467   8.610   4.548   2.089  0.0803 -0.5299 -0.2667
 1263SOL    HW114468   8.656   4.523   2.004  1.1223 -1.2871  0.5048
 1263SOL    HW214469   8.575   4.642   2.081  0.3651 -0.5079 -1.4351
 1264SOL     OW14470   9.385   1.000   4.039 -0.1333 -0.2544 -0.8252
 1264SOL    HW114471   9.328   1.076   4.071  0.0734 -0.3385 -0.2448
 1264SOL    HW214472   9.349   0.965   3.952 -0.5706  0.1283 -0.8009
 1265SOL     OW14473   3.085   2.810   3.763 -0.7494  0.6345  0.0549
 1265SOL    HW114474   3.163   2.757   3.728 -0.2191 -0.5286  2.7980
 1265SOL    HW214475   3.016   2.747   3.800 -1.6388  1.7604  0.3470
 1266SOL     OW14476   8.584   9.724   5.002  0.3122 -0.5420 -0.2312
 1266SOL    HW114477   8.662   9.694   4.947  0.5326  1.1194 -0.8553
 1266SOL    HW214478   8.606   9.812   5.046 -0.8379 -0.5619  0.3995
 1267SOL     OW14479   2.838   1.695   5.312 -0.0910 -0.4824 -0.1564
 1267SOL    HW114480   2.796   1.724   5.226  2.0494  0.6675 -0.8545
 1267SOL    HW214481   2.907   1.625   5.293  1.2351  0.6327  0.4570
 1268SOL     OW14482   1.566   0.588   5.363  0.0344 -0.0375 -0.5052
 1268SOL    HW114483   1.560   0.490   5.341  2.8248 -0.2519 -0.4645
 1268SOL    HW214484   1.476   0.630   5.352 -0.6464 -2.0462 -3.2911
 1269SOL     OW14485   1.778   4.714   1.448 -0.0906  0.2518 -0.3806
 1269SOL    HW114486   1.802   4.692   1.354  0.4391  0.7170 -0.3559
 1269SOL    HW214487   1.789   4.812   1.464  1.5343 -0.0670  0.6486
 1270SOL     OW14488   3.361   8.340   1.625  0.1556  0.2811 -0.4365
 1270SOL    HW114489   3.457   8.326   1.602  0.3396 -0.0322  0.5236
 1270SOL    HW214490   3.329   8.267   1.685  0.3097  2.2492  2.1548
 1271SOL     OW14491   1.493   3.808   2.928 -0.7664 -0.0905 -0.1031
 1271SOL    HW114492   1.430   3.837   2.855  0.1432  0.2942 -0.7423
 1271SOL    HW214493   1.458   3.839   3.016 -1.3023  0.4222 -0.4939
 1272SOL     OW14494   3.076   6.406   1.761 -0.3394 -0.0797  0.3457
 1272SOL    HW114495   3.103   6.424   1.855 -0.6817  0.6439  0.3087
 1272SOL    HW214496   3.049   6.310   1.752  1.0859 -0.5104  0.6458
 1273SOL     OW14497   7.333   9.379   0.571  0.5516 -0.1685 -0.1065
 1273SOL    HW114498   7.384   9.318   0.631  1.7374 -0.8638 -1.7650
 1273SOL    HW214499   7.272   9.325   0.513 -0.0286  0.4222 -0.0527
 1274SOL     OW14500   9.029   4.086   2.407 -0.4797 -0.2057  0.1543
 1274SOL    HW114501   9.076   4.135   2.335  1.3620 -0.0613  1.4367
 1274SOL    HW214502   8.939   4.127   2.422  0.0334  1.1737 -0.5002
 1275SOL     OW14503   6.397   9.141   2.342 -0.3467  0.0368  0.4004
 1275SOL    HW114504   6.481   9.091   2.320  0.7708  0.5589  3.2703
 1275SOL    HW214505   6.320   9.096   2.297  1.2504 -1.3985 -1.0062
 1276SOL     OW14506   2.563   3.071   3.350  0.1119  0.1808 -0.1433
 1276SOL    HW114507   2.570   3.030   3.442 -1.0124 -0.3820 -0.3048
 1276SOL    HW214508   2.554   2.999   3.282  1.9088  0.5644 -0.7983
 1277SOL     OW14509   7.208   0.464   3.083 -0.3445 -0.2472  0.2677
 1277SOL    HW114510   7.261   0.497   3.004 -1.0421  0.0196 -0.0967
 1277SOL    HW214511   7.218   0.528   3.159 -1.4040  0.6399 -0.3207
 1278SOL     OW14512   1.713   3.162   0.440 -0.1773  0.0836  0.0145
 1278SOL    HW114513   1.714   3.111   0.526  0.5864 -0.8070 -0.5289
 1278SOL    HW214514   1.622   3.203   0.428 -0.3478  0.0781  1.1572
 1279SOL     OW14515   0.909   8.821   1.966 -0.7133 -0.2356  0.0145
 1279SOL    HW114516   0.872   8.731   1.988 -2.0257  0.5942  1.2967
 1279SOL    HW214517   0.923   8.873   2.050 -1.7061  1.4123 -0.7995
 1280SOL     OW14518   1.077   1.209   5.549 -0.7857 -0.1688 -0.3582
 1280SOL    HW114519   1.086   1.110   5.552  0.6890 -0.0561 -0.8626
 1280SOL    HW214520   1.166   1.252   5.567 -1.6531  1.0833  1.0902
 1281SOL     OW14521   2.192   7.647   4.386  0.1338  0.2708  0.2776
 1281SOL    HW114522   2.280   7.601   4.396 -0.1034  0.3730  3.0918
 1281SOL    HW214523   2.120   7.579   4.369  0.1926 -0.1557  1.7236
 1282SOL     OW14524   3.671   2.604   3.759  0.4114  0.1770  0.0599
 1282SOL    HW114525   3.590   2.557   3.723  1.0179 -0.0589 -1.0299
 1282SOL    HW214526   3.644   2.667   3.831 -0.6294 -0.5834  0.3471
 1283SOL     OW14527   3.732   6.569   1.627  0.0526  0.4684 -0.6696
 1283SOL    HW114528   3.800   6.515   1.677  0.7088  1.2659 -0.6865
 1283SOL    HW214529   3.713   6.524   1.539 -1.5138 -1.2274  0.5013
 1284SOL     OW14530   2.267   1.552   0.677 -0.0040  0.6889  0.1273
 1284SOL    HW114531   2.261   1.516   0.771 -0.1541  2.3035  0.7554
 1284SOL    HW214532   2.255   1.477   0.612 -1.2765 -0.2373  1.3907
 1285SOL     OW14533   9.902   3.689   2.189  0.3137  0.3065 -0.4159
 1285SOL    HW114534   9.914   3.755   2.114  0.3550  2.5051  1.4782
 1285SOL    HW214535   9.837   3.725   2.255  0.1855 -1.6730  0.5632
 1286SOL     OW14536   6.859   1.138   4.285  0.2789  0.7337 -0.5071
 1286SOL    HW114537   6.789   1.107   4.220 -1.1646  0.2940  1.1927
 1286SOL    HW214538   6.848   1.236   4.301 -0.4581  0.5345  0.3014
 1287SOL     OW14539   9.969   0.913   3.350 -0.3484 -0.1826 -0.3412
 1287SOL    HW114540  10.028   0.994   3.354  0.1682 -0.3581 -3.2987
 1287SOL    HW214541   9.876   0.937   3.378  0.1480  1.0467  0.2888
 1288SOL     OW14542   8.626   1.135   4.329 -0.2657  0.2304 -0.3797
 1288SOL    HW114543   8.586   1.194   4.399 -0.1661  0.0899 -0.2025
 1288SOL    HW214544   8.650   1.047   4.370 -1.0105 -0.1706 -0.7870
 1289SOL     OW14545   9.861   7.724   4.755  0.7530  0.3239 -0.2469
 1289SOL    HW114546   9.846   7.678   4.668  0.5966  0.4235 -0.2727
 1289SOL    HW214547   9.848   7.660   4.830  1.8535 -0.0176 -0.3280
 1290SOL     OW14548   0.826   8.469   5.537  0.3656  0.1781 -0.3027
 1290SOL    HW114549   0.861   8.557   5.505 -1.7347  0.4917 -1.8132
 1290SOL    HW214550   0.737   8.451   5.495  1.1507 -3.0725 -0.7067
 1291SOL     OW14551   4.459   2.781   0.399 -0.6571 -0.4221  0.0360
 1291SOL    HW114552   4.460   2.853   0.330 -0.6631  0.0789  0.5490
 1291SOL    HW214553   4.437   2.694   0.356 -0.6406 -0.1193 -0.5941
 1292SOL     OW14554   8.387   2.195   0.537 -0.3231  1.1170 -0.1167
 1292SOL    HW114555   8.385   2.197   0.437  0.4985 -0.2019 -0.1600
 1292SOL    HW214556   8.309   2.143   0.571 -1.2714  2.5660 -0.0234
 1293SOL     OW14557   0.411   8.965   0.813 -0.6004 -0.1291 -0.1280
 1293SOL    HW114558   0.389   9.057   0.782 -1.0746 -0.0934  0.3049
 1293SOL    HW214559   0.403   8.901   0.737 -2.0115 -0.0818 -0.0294
 1294SOL     OW14560   0.252   1.824   2.258 -0.2386  0.8948  0.4282
 1294SOL    HW114561   0.197   1.748   2.291  1.2694 -1.3371 -1.9915
 1294SOL    HW214562   0.329   1.839   2.320 -1.1181  1.1704  1.4702
 1295SOL     OW14563   5.025   4.367   0.605 -0.4473  0.3824  0.1579
 1295SOL    HW114564   5.111   4.343   0.650 -0.2348 -1.3817 -1.1283
 1295SOL    HW214565   4.949   4.322   0.651 -0.4279  0.0533 -0.1319
 1296SOL     OW14566   8.608   2.608   2.222  0.0368  0.5727 -0.2254
 1296SOL    HW114567   8.623   2.519   2.267  2.6441  0.8288 -0.5359
 1296SOL    HW214568   8.588   2.593   2.126  1.1978  0.3286 -0.4406
 1297SOL     OW14569   3.755   5.456   1.449  0.0699  0.5105  0.3180
 1297SOL    HW114570   3.755   5.389   1.523 -2.3889  2.5841  2.2649
 1297SOL    HW214571   3.806   5.537   1.477  1.6864  0.1456 -1.4390
 1298SOL     OW14572   9.607   0.041   4.275 -0.4032 -0.0986 -0.3392
 1298SOL    HW114573   9.564   0.126   4.305  0.0254 -0.0893  0.2544
 1298SOL    HW214574   9.546  -0.008   4.213 -1.8912 -0.8220  1.6643
 1299SOL     OW14575   2.472   4.278   3.773 -0.2333 -0.1486 -0.1896
 1299SOL    HW114576   2.380   4.243   3.757 -0.2912 -0.7901  1.4692
 1299SOL    HW214577   2.529   4.260   3.692 -1.4207 -0.1909 -1.0286
 1300SOL     OW14578   2.269   8.547   1.938  0.3120 -0.2218 -0.9634
 1300SOL    HW114579   2.367   8.563   1.937  0.3615  0.6934  4.9508
 1300SOL    HW214580   2.252   8.449   1.953  0.4708  0.2768  2.8716
 1301SOL     OW14581   3.696   4.076   3.737 -0.5533  0.0179  0.1267
 1301SOL    HW114582   3.685   4.011   3.811 -0.3105 -0.6629 -0.4280
 1301SOL    HW214583   3.702   4.169   3.774 -0.5274 -0.3091  0.9402
 1302SOL     OW14584   8.190   2.705   2.651  0.5380  0.0775 -0.3178
 1302SOL    HW114585   8.279   2.661   2.656  0.6204  0.3492  0.9407
 1302SOL    HW214586   8.154   2.717   2.744 -0.0169  1.5332 -0.7077
 1303SOL     OW14587   0.294   0.231   0.605  0.1182 -0.0983  0.7598
 1303SOL    HW114588   0.207   0.257   0.564 -0.0099 -1.3305  0.2251
 1303SOL    HW214589   0.369   0.263   0.548  0.0447  1.5572  1.5687
 1304SOL     OW14590   2.210   9.168   5.440 -0.5453  0.6252  0.7040
 1304SOL    HW114591   2.197   9.233   5.365 -0.5475 -0.0712  0.0985
 1304SOL    HW214592   2.307   9.164   5.465 -0.5829  1.0560  0.9181
 1305SOL     OW14593   4.761   6.914   2.296 -0.1943  0.5406 -0.1398
 1305SOL    HW114594   4.750   6.943   2.201  0.5928  1.9299  0.1759
 1305SOL    HW214595   4.682   6.945   2.349 -1.1157 -1.0899 -0.5157
 1306SOL     OW14596   9.385   3.118   2.686  0.0215 -0.0722 -0.2139
 1306SOL    HW114597   9.468   3.095   2.635  1.6686  2.9018  1.0056
 1306SOL    HW214598   9.398   3.096   2.782 -0.3089  1.1621  0.1135
 1307SOL     OW14599   2.549   9.740   1.257 -0.2743  0.2543  0.0696
 1307SOL    HW114600   2.471   9.764   1.200 -0.3125 -0.0418 -0.0038
 1307SOL    HW214601   2.564   9.641   1.253  1.5676  0.5899 -1.7694
 1308SOL     OW14602   0.398   0.706   0.128  0.5063  0.3316 -0.4560
 1308SOL    HW114603   0.307   0.747   0.126 -0.4605 -1.7742 -0.8688
 1308SOL    HW214604   0.451   0.746   0.203 -1.1841  0.7043  0.5648
 1309SOL     OW14605   6.227   8.136   3.453  0.3900 -0.0774  0.1027
 1309SOL    HW114606   6.186   8.214   3.501  0.0953  0.3631 -0.8493
 1309SOL    HW214607   6.182   8.052   3.482 -0.7168  0.3305 -0.4123
 1310SOL     OW14608   7.021   8.713   3.195  0.1849 -0.2407  0.2176
 1310SOL    HW114609   6.969   8.666   3.123  0.4114  0.4803 -0.4168
 1310SOL    HW214610   7.112   8.672   3.202 -0.3727 -1.3744  1.1976
 1311SOL     OW14611   8.508   6.937   3.341  0.0176 -0.5556 -0.1929
 1311SOL    HW114612   8.545   6.982   3.260 -0.6119 -0.2990 -0.3370
 1311SOL    HW214613   8.531   6.840   3.339  1.6612 -0.1876  0.2777
 1312SOL     OW14614   2.619   3.705   2.276  0.2183  0.1451 -0.1331
 1312SOL    HW114615   2.673   3.662   2.348 -3.2155 -0.3939  2.2651
 1312SOL    HW214616   2.625   3.804   2.284  0.9143  0.0897  0.0610
 1313SOL     OW14617   0.034   4.681   2.493  0.1298  0.3345  0.2042
 1313SOL    HW114618   0.121   4.726   2.512  0.8317  0.3071 -2.7379
 1313SOL    HW214619   0.049   4.604   2.432 -1.8757 -0.0588  0.1745
 1314SOL     OW14620   2.596   3.037   0.696 -0.8751  0.0117 -0.4653
 1314SOL    HW114621   2.656   3.109   0.729 -2.2378  1.2918 -0.7542
 1314SOL    HW214622   2.554   3.065   0.609  1.8152 -2.8327 -2.7981
 1315SOL     OW14623   6.588   7.403   3.629 -0.0965 -0.4735 -0.3293
 1315SOL    HW114624   6.623   7.312   3.648  0.4260 -0.3464 -0.6522
 1315SOL    HW214625   6.621   7.433   3.539  1.3124  0.7805  0.5818
 1316SOL     OW14626   3.458   9.700   3.966 -0.0032  0.2878 -0.3066
 1316SOL    HW114627   3.434   9.627   3.902 -1.8772  0.7550 -0.1671
 1316SOL    HW214628   3.383   9.766   3.972 -0.1906 -0.0968  2.8705
 1317SOL     OW14629   1.638   1.505   1.525 -0.2091 -0.4675  0.1992
 1317SOL    HW114630   1.721   1.472   1.570 -0.3171 -0.8781  0.1021
 1317SOL    HW214631   1.565   1.439   1.540 -0.4094 -0.3006 -0.0592
 1318SOL     OW14632   0.520   2.722   2.219 -0.0299  0.2631  0.1842
 1318SOL    HW114633   0.439   2.676   2.253  1.2055 -3.6690 -1.8133
 1318SOL    HW214634   0.495   2.785   2.145 -1.4080  0.3406  0.7152
 1319SOL     OW14635   7.561   7.590   3.239  0.1003 -0.0792  0.4181
 1319SOL    HW114636   7.640   7.636   3.280 -0.6233  0.0769  1.6574
 1319SOL    HW214637   7.590   7.541   3.157  1.8570 -1.5726  1.8972
 1320SOL     OW14638   4.636   2.708   1.318  0.4405  0.1179 -0.3999
 1320SOL    HW114639   4.583   2.787   1.347 -0.3140 -0.8683  0.9638
 1320SOL    HW214640   4.720   2.702   1.373  0.0375 -0.5541  0.1508
 1321SOL     OW14641   7.447   1.222   1.661 -0.0341 -0.0859  0.1912
 1321SOL    HW114642   7.543   1.216   1.631  0.4169  1.8691  1.2012
 1321SOL    HW214643   7.403   1.300   1.618 -0.3338  0.7582  1.9920
 1322SOL     OW14644   0.053   8.192   3.852  0.5262  0.2977  0.5813
 1322SOL    HW114645   0.085   8.282   3.883 -0.5813  1.0583 -0.4327
 1322SOL    HW214646   0.075   8.180   3.756 -1.3872  0.4753  0.0917
 1323SOL     OW14647   0.559   1.688   2.337  0.2629  0.3645  0.5616
 1323SOL    HW114648   0.575   1.640   2.424 -2.2904  1.0821  1.4535
 1323SOL    HW214649   0.517   1.777   2.355  0.8060  1.0247 -1.3602
 1324SOL     OW14650   9.545   2.450   0.265  0.3330 -1.0189 -0.0760
 1324SOL    HW114651   9.546   2.412   0.173  0.8318 -0.4238 -0.3165
 1324SOL    HW214652   9.577   2.381   0.330  0.8029 -1.1540 -0.4553
 1325SOL     OW14653   6.934   3.706   0.870 -0.3732 -0.6375 -0.0564
 1325SOL    HW114654   6.980   3.734   0.954 -1.0304  2.9238 -0.7908
 1325SOL    HW214655   6.985   3.741   0.791 -2.0400 -0.2606 -0.9950
 1326SOL     OW14656   7.147   9.703   5.161  0.0868  0.0999 -0.4379
 1326SOL    HW114657   7.144   9.636   5.086  1.4933  0.5657 -0.9385
 1326SOL    HW214658   7.203   9.781   5.133  1.7077 -0.2988  1.5540
 1327SOL     OW14659   9.306   1.380   2.664 -0.4771  0.0150 -0.5644
 1327SOL    HW114660   9.371   1.393   2.738 -0.3915  1.5554 -0.8940
 1327SOL    HW214661   9.324   1.292   2.619  1.9103  0.7841 -1.1818
 1328SOL     OW14662   5.001   7.622   3.035  0.3880 -0.1688  0.1750
 1328SOL    HW114663   5.090   7.578   3.021  0.5127 -0.1031  0.7612
 1328SOL    HW214664   4.948   7.569   3.102  0.6653  0.7508  1.1204
 1329SOL     OW14665   2.276   9.916   4.410  0.1367  0.7908 -0.3401
 1329SOL    HW114666   2.343   9.842   4.402 -0.7289 -0.1937  1.3626
 1329SOL    HW214667   2.207   9.906   4.339 -2.0824 -2.2622  2.1165
 1330SOL     OW14668   8.293   3.758   2.393 -0.6806 -0.7685  0.1589
 1330SOL    HW114669   8.203   3.720   2.414 -0.1472 -2.7763 -1.0339
 1330SOL    HW214670   8.335   3.705   2.319  0.5363  1.5570 -0.8727
 1331SOL     OW14671   7.392   9.495   3.141 -0.6524  0.1060 -0.7400
 1331SOL    HW114672   7.328   9.561   3.182  0.4720  0.4176  0.5489
 1331SOL    HW214673   7.342   9.431   3.083 -2.0194  0.8823 -0.4284
 1332SOL     OW14674   9.366   1.079   4.961  0.5480 -0.3707 -0.4471
 1332SOL    HW114675   9.296   1.023   5.005 -0.2621 -0.8986 -2.3456
 1332SOL    HW214676   9.454   1.033   4.966  0.2306 -0.9802 -0.4170
 1333SOL     OW14677   5.210   4.853   0.297 -0.2238 -0.5064 -0.3820
 1333SOL    HW114678   5.279   4.858   0.225 -0.9602 -0.0795 -1.0710
 1333SOL    HW214679   5.220   4.931   0.359  1.8770 -2.0993  1.3383
 1334SOL     OW14680   7.569   1.839   3.595 -0.4872  0.2119  0.2753
 1334SOL    HW114681   7.541   1.854   3.690 -0.6625  0.3073  0.2076
 1334SOL    HW214682   7.606   1.925   3.558  0.2030  0.0044  0.4702
 1335SOL     OW14683   9.242   5.390   2.247  0.0374  0.6535 -0.3346
 1335SOL    HW114684   9.162   5.373   2.189 -0.5155  0.1053  0.5689
 1335SOL    HW214685   9.216   5.449   2.323 -0.3038 -2.0128  1.7080
 1336SOL     OW14686   8.574   4.215   2.729 -0.1273 -0.6947 -0.5631
 1336SOL    HW114687   8.506   4.237   2.659 -0.1974 -0.1065 -0.3153
 1336SOL    HW214688   8.616   4.299   2.762 -0.9910 -0.8723  1.0017
 1337SOL     OW14689   2.783   6.524   2.875  0.4462 -0.4710  0.0134
 1337SOL    HW114690   2.705   6.547   2.933  0.1894  1.1840 -0.9490
 1337SOL    HW214691   2.766   6.557   2.782  1.1096 -2.5625 -0.8691
 1338SOL     OW14692   4.482   8.071   1.885 -0.0501 -0.8012  0.1419
 1338SOL    HW114693   4.543   8.149   1.872  0.0719 -1.0333 -0.7161
 1338SOL    HW214694   4.388   8.100   1.867 -0.0025 -0.8541 -0.1951
 1339SOL     OW14695   1.324   7.868   1.645 -0.5700 -0.5668  0.6738
 1339SOL    HW114696   1.387   7.889   1.720 -0.7749  0.7387  0.4902
 1339SOL    HW214697   1.352   7.918   1.563 -1.4386 -0.5281  0.3981
 1340SOL     OW14698   4.023   0.027   3.117 -0.3376 -0.1888 -0.6559
 1340SOL    HW114699   3.938   0.069   3.149 -0.7821 -1.5544 -0.0281
 1340SOL    HW214700   4.099   0.089   3.138 -1.1972  1.2361 -1.6140
 1341SOL     OW14701   0.470   1.613   5.228 -0.2973 -0.0377 -0.0502
 1341SOL    HW114702   0.466   1.561   5.143  0.1599  0.9505 -0.6898
 1341SOL    HW214703   0.551   1.672   5.227  0.3340 -0.8480  1.5548
 1342SOL     OW14704   9.074   0.535   3.211  0.4979  0.1898 -0.2973
 1342SOL    HW114705   9.158   0.523   3.265  0.7856 -0.3294 -0.8595
 1342SOL    HW214706   9.075   0.625   3.168  0.7401  0.2105 -0.2508
 1343SOL     OW14707   7.739   0.443   4.420 -0.1568 -0.0703 -0.4006
 1343SOL    HW114708   7.735   0.373   4.349 -1.0389  1.3946 -1.8398
 1343SOL    HW214709   7.743   0.400   4.510  1.5421 -1.9687 -1.3462
 1344SOL     OW14710   1.671   5.959   1.868 -0.8171 -0.7798 -0.5170
 1344SOL    HW114711   1.663   6.019   1.788  1.2435  0.8499  0.4357
 1344SOL    HW214712   1.737   5.999   1.933 -2.2995 -2.1581  1.9085
 1345SOL     OW14713   3.201   9.241   0.173 -0.3335 -0.2569  0.3047
 1345SOL    HW114714   3.193   9.142   0.158 -0.3519 -0.3664  1.0170
 1345SOL    HW214715   3.194   9.260   0.271 -2.0989  0.6226  0.0318
 1346SOL     OW14716   3.341   2.722   3.199 -0.1793 -0.6873 -0.2477
 1346SOL    HW114717   3.290   2.801   3.168 -0.2411 -1.3132 -1.7739
 1346SOL    HW214718   3.436   2.729   3.168  0.6456  0.3682  2.3956
 1347SOL     OW14719   2.428   8.870   5.569 -0.4026  0.2122  0.0417
 1347SOL    HW114720   2.417   8.955   5.518 -2.3871 -0.4030 -0.5703
 1347SOL    HW214721   2.488   8.808   5.518  0.0536  0.7531 -0.0861
 1348SOL     OW14722   4.684   4.527   2.145  0.3337  0.9119  0.1840
 1348SOL    HW114723   4.615   4.513   2.216 -1.1879  0.8543 -1.2864
 1348SOL    HW214724   4.712   4.438   2.108  0.2426  1.0105 -0.1232
 1349SOL     OW14725   9.571   2.432   2.888  0.3188  0.0879 -0.4504
 1349SOL    HW114726   9.516   2.389   2.817  1.0789  0.0448 -1.0149
 1349SOL    HW214727   9.557   2.531   2.886  0.5846  0.1174 -0.8671
 1350SOL     OW14728   8.845   7.842   1.522 -0.2950  0.7637 -0.0830
 1350SOL    HW114729   8.770   7.814   1.582  0.6259  1.3851  1.3805
 1350SOL    HW214730   8.906   7.764   1.507  0.4835  1.0800  1.3255
 1351SOL     OW14731   4.682   0.983   1.714  0.1296  0.0035 -0.6087
 1351SOL    HW114732   4.742   1.033   1.777  1.8445 -3.2006  0.3840
 1351SOL    HW214733   4.609   1.044   1.683  2.4661  3.2708  0.0802
 1352SOL     OW14734   0.323   2.630   4.839 -0.5370 -0.1551 -0.5576
 1352SOL    HW114735   0.307   2.726   4.817 -0.3085 -0.4327 -1.9504
 1352SOL    HW214736   0.403   2.597   4.790 -1.3875 -1.4243 -1.1259
 1353SOL     OW14737   8.776   9.278   4.034  0.5295  0.1101 -0.3135
 1353SOL    HW114738   8.699   9.250   3.977 -1.0079  1.9324  0.8126
 1353SOL    HW214739   8.789   9.377   4.026 -0.7768  0.6921  3.6928
 1354SOL     OW14740   7.778   9.101   2.011  0.4309  0.0240  0.3231
 1354SOL    HW114741   7.733   9.025   1.964 -1.4730  1.6816 -0.6040
 1354SOL    HW214742   7.874   9.078   2.027 -0.4760 -3.2508  1.5690
 1355SOL     OW14743   8.057   9.668   4.094  0.2541 -0.4363 -0.3035
 1355SOL    HW114744   8.126   9.597   4.101  1.7849  1.0471  0.1451
 1355SOL    HW214745   8.101   9.758   4.102 -1.6955  0.5442 -0.2550
 1356SOL     OW14746   6.223   6.748   3.542  0.5796  0.1720  0.1039
 1356SOL    HW114747   6.199   6.652   3.532  1.3532  0.0215 -0.4170
 1356SOL    HW214748   6.196   6.798   3.460 -2.1764  0.9180  1.4337
 1357SOL     OW14749   6.014   0.012   1.465  0.2939 -0.3705  0.1407
 1357SOL    HW114750   5.990   0.062   1.381  0.8622  0.4676  0.4723
 1357SOL    HW214751   6.011   0.075   1.543  0.3123 -1.0220  0.6671
 1358SOL     OW14752   2.369   7.268   5.156 -0.1386  0.1758  0.1435
 1358SOL    HW114753   2.447   7.211   5.131 -0.6264 -0.5046  0.1896
 1358SOL    HW214754   2.319   7.295   5.074 -0.4986 -0.3017  0.2043
 1359SOL     OW14755   5.899   9.878   0.912  0.8726 -0.0688  0.3095
 1359SOL    HW114756   5.817   9.845   0.959  0.0640  1.0387 -0.3197
 1359SOL    HW214757   5.979   9.826   0.945 -0.1608 -1.6301  0.4129
 1360SOL     OW14758   1.599   7.047   4.404  0.4163  0.0947  0.4478
 1360SOL    HW114759   1.556   7.096   4.480 -1.1574  1.4204 -1.2617
 1360SOL    HW214760   1.634   7.113   4.338  1.0931 -1.0604 -0.3555
 1361SOL     OW14761   0.255   2.779   4.163 -0.3322 -0.4697 -0.3386
 1361SOL    HW114762   0.307   2.813   4.085  0.8167 -1.2874  0.0482
 1361SOL    HW214763   0.317   2.766   4.241 -1.1262 -1.4173  0.1457
 1362SOL     OW14764   4.639   5.891   1.739  0.0280 -0.1965 -0.2863
 1362SOL    HW114765   4.641   5.987   1.769  0.1206  0.6131 -2.7066
 1362SOL    HW214766   4.669   5.887   1.643 -1.0308 -2.5233 -0.5360
 1363SOL     OW14767   7.492   1.525   3.646 -0.4674  0.2812 -0.3097
 1363SOL    HW114768   7.459   1.575   3.726  0.5645 -0.7568  0.7829
 1363SOL    HW214769   7.434   1.445   3.630  1.0320 -1.1405  1.1776
 1364SOL     OW14770   1.780   7.332   2.364 -0.3945 -0.2623 -0.1750
 1364SOL    HW114771   1.819   7.388   2.437  2.3720 -0.2868 -1.5558
 1364SOL    HW214772   1.704   7.381   2.320  0.3939  1.3459  0.2362
 1365SOL     OW14773   2.265   6.266   0.303  0.2036  0.1378 -0.3146
 1365SOL    HW114774   2.191   6.202   0.322 -1.1871  0.6757 -3.5513
 1365SOL    HW214775   2.237   6.359   0.326  0.8676  0.0554  0.8967
 1366SOL     OW14776   8.769   9.314   2.012 -0.0269  0.4478 -0.0731
 1366SOL    HW114777   8.691   9.254   2.028  0.4552  0.1499  1.2424
 1366SOL    HW214778   8.799   9.306   1.917  0.2691 -1.6791  0.1870
 1367SOL     OW14779   5.723   0.466   1.161  0.0258  0.0801 -0.3857
 1367SOL    HW114780   5.704   0.464   1.259 -0.2896  1.2680 -0.4098
 1367SOL    HW214781   5.642   0.501   1.113 -0.0162 -1.0104 -1.1261
 1368SOL     OW14782   2.291   0.823   2.474  0.3003  0.2057  0.2820
 1368SOL    HW114783   2.205   0.832   2.524 -0.8449 -0.1050 -1.5586
 1368SOL    HW214784   2.327   0.731   2.487  0.3042  0.3067  0.9903
 1369SOL     OW14785   2.334   9.373   2.415  0.2603  0.1964  0.6505
 1369SOL    HW114786   2.357   9.448   2.353 -0.7487 -0.5121 -0.5996
 1369SOL    HW214787   2.317   9.290   2.362  1.8180 -1.0513  2.0494
 1370SOL     OW14788   3.102   4.567   5.018 -0.2066 -0.6337  0.0406
 1370SOL    HW114789   3.178   4.570   4.953 -0.8263  0.1866 -0.6493
 1370SOL    HW214790   3.136   4.592   5.109 -0.0121  1.5730 -0.6216
 1371SOL     OW14791   3.833   0.482   2.097  0.0760  0.6387 -0.6249
 1371SOL    HW114792   3.739   0.465   2.126 -0.7814  2.6441 -2.0939
 1371SOL    HW214793   3.867   0.566   2.142  1.2125 -0.1309 -0.0131
 1372SOL     OW14794   8.342   8.748   3.611 -0.4802  0.2998 -0.0532
 1372SOL    HW114795   8.285   8.674   3.645 -3.2244  3.1409  1.7599
 1372SOL    HW214796   8.323   8.763   3.514  1.2228 -2.2710 -0.8548
 1373SOL     OW14797   4.189   0.752   0.601 -0.0025 -0.0304  0.5764
 1373SOL    HW114798   4.278   0.778   0.637 -0.5237  0.1755  1.7415
 1373SOL    HW214799   4.119   0.763   0.672 -1.1357  0.8526 -0.6371
 1374SOL     OW14800   1.047   1.639   4.374  0.8869 -0.7184 -0.5010
 1374SOL    HW114801   1.067   1.674   4.283 -0.7791  1.4160 -0.0793
 1374SOL    HW214802   0.984   1.701   4.421 -0.7057 -3.3528  0.9668
 1375SOL     OW14803   1.875   4.765   2.798  0.2762 -0.7547 -0.1042
 1375SOL    HW114804   1.901   4.751   2.703 -1.5787 -0.1513 -0.7193
 1375SOL    HW214805   1.840   4.679   2.836  0.1767 -0.7734 -0.2398
 1376SOL     OW14806   7.576   2.270   1.039 -0.3914  0.8238  0.2947
 1376SOL    HW114807   7.548   2.174   1.038 -2.5070  1.4223  0.4629
 1376SOL    HW214808   7.634   2.287   1.119 -0.7425 -0.1006  0.7553
 1377SOL     OW14809   5.036   7.517   2.387  0.0283  0.4324 -0.4644
 1377SOL    HW114810   5.105   7.569   2.437 -2.4039  1.4127  1.9220
 1377SOL    HW214811   5.077   7.430   2.356  2.8580  1.8173 -0.8001
 1378SOL     OW14812   2.216   2.380   5.169 -0.0638 -0.0972 -0.5409
 1378SOL    HW114813   2.272   2.433   5.232 -0.4641  0.0582 -0.3118
 1378SOL    HW214814   2.267   2.300   5.137 -0.2424 -0.7773  0.8323
 1379SOL     OW14815   8.512   1.765   1.647  0.8162  0.4286 -0.5716
 1379SOL    HW114816   8.471   1.753   1.557  0.7655 -1.1052 -0.3538
 1379SOL    HW214817   8.439   1.780   1.714  0.5690 -2.3321 -0.1794
 1380SOL     OW14818   8.742   1.650   1.952  0.2503  0.0633  0.4142
 1380SOL    HW114819   8.744   1.618   1.858  1.0435  0.8289  0.1687
 1380SOL    HW214820   8.824   1.703   1.972  0.3562 -0.5437  1.7008
 1381SOL     OW14821   1.605   1.506   0.821 -0.5953  0.3244 -0.2253
 1381SOL    HW114822   1.511   1.519   0.790 -0.8977 -0.1263  0.4922
 1381SOL    HW214823   1.667   1.515   0.743 -1.2534  0.3532 -0.7495
 1382SOL     OW14824   9.231   0.134   0.142 -0.5165 -0.2769 -0.1005
 1382SOL    HW114825   9.282   0.057   0.103  0.5865  0.3023  0.1738
 1382SOL    HW214826   9.161   0.164   0.078  0.1273 -0.4556 -0.8945
 1383SOL     OW14827   5.811   7.621   3.184  0.1134  0.1782 -0.7397
 1383SOL    HW114828   5.715   7.637   3.204  0.2576  1.7873 -1.3158
 1383SOL    HW214829   5.855   7.579   3.263 -0.7972  0.4962 -0.0581
 1384SOL     OW14830   9.806   9.502   0.667 -0.6748  0.4186  0.0344
 1384SOL    HW114831   9.792   9.600   0.660 -4.2962  0.0695  1.5023
 1384SOL    HW214832   9.773   9.457   0.584 -0.1146  0.3183 -0.1390
 1385SOL     OW14833   8.987   0.698   2.546 -0.1181  0.6410  0.5012
 1385SOL    HW114834   8.945   0.727   2.460  0.5870  0.7969  0.2051
 1385SOL    HW214835   8.968   0.601   2.562 -0.8228  0.7810  0.5090
 1386SOL     OW14836   0.657   9.898   4.095 -0.2917 -0.2052 -0.3698
 1386SOL    HW114837   0.619   9.886   4.186  1.3312  1.3928  0.5683
 1386SOL    HW214838   0.679   9.995   4.081 -0.7312 -0.4012 -2.5415
 1387SOL     OW14839   2.545   6.642   0.746  0.2430  0.3977 -0.0457
 1387SOL    HW114840   2.542   6.629   0.846 -0.6855 -0.0911 -0.1364
 1387SOL    HW214841   2.533   6.739   0.726  1.0872  0.5942  0.3407
 1388SOL     OW14842   1.268   9.523   0.573  0.2955  0.1043  0.1773
 1388SOL    HW114843   1.348   9.514   0.515 -0.6217 -0.3635 -1.0445
 1388SOL    HW214844   1.275   9.607   0.627  2.1162 -0.5077  0.9126
 1389SOL     OW14845   4.815   0.729   4.892  0.3191  0.3151 -0.2489
 1389SOL    HW114846   4.755   0.809   4.884 -1.8795 -1.3908 -1.4489
 1389SOL    HW214847   4.910   0.758   4.879 -0.4035  2.7329 -0.5580
 1390SOL     OW14848   2.077   7.003   1.748  0.4390  0.2624 -0.6441
 1390SOL    HW114849   1.994   7.057   1.739  0.9268  0.9458 -1.1105
 1390SOL    HW214850   2.156   7.064   1.754  1.0748 -0.4114 -1.9511
 1391SOL     OW14851   0.183   8.429   5.171  0.2013 -0.7605  0.3780
 1391SOL    HW114852   0.216   8.434   5.077 -2.7785 -2.5678 -0.8370
 1391SOL    HW214853   0.163   8.521   5.204 -1.9990 -0.3384 -1.9936
 1392SOL     OW14854   6.132   7.206   2.388 -0.0229 -0.5577  0.1269
 1392SOL    HW114855   6.134   7.136   2.317 -0.9360 -1.5884  1.1052
 1392SOL    HW214856   6.224   7.244   2.400 -0.2656  1.3710 -3.2937
 1393SOL     OW14857   2.699   1.191   0.125 -0.5768 -0.5963  0.1657
 1393SOL    HW114858   2.745   1.279   0.109 -1.6088 -0.4129 -2.0551
 1393SOL    HW214859   2.601   1.207   0.133 -0.6224 -1.3980  1.2404
 1394SOL     OW14860   1.965   4.457   2.885  0.3717 -0.1889 -0.1111
 1394SOL    HW114861   1.987   4.517   2.808  0.8415 -0.6209 -0.3086
 1394SOL    HW214862   1.888   4.399   2.860 -0.2948  0.5475  0.1925
 1395SOL     OW14863   8.109   9.059   2.848  0.0462  0.5785 -0.0467
 1395SOL    HW114864   8.045   9.003   2.902  0.4235  0.2055  0.0128
 1395SOL    HW214865   8.201   9.049   2.885  0.5012 -0.5961 -1.4757
 1396SOL     OW14866   1.878   9.889   0.792 -0.3900 -0.3040  0.0186
 1396SOL    HW114867   1.934   9.832   0.852 -0.7389  1.1452  1.7785
 1396SOL    HW214868   1.935   9.929   0.721  0.6181  0.3525  1.1919
 1397SOL     OW14869   4.234   2.981   3.374  0.0981 -0.2242  0.5069
 1397SOL    HW114870   4.323   2.940   3.354  0.1249  0.0484  0.0645
 1397SOL    HW214871   4.183   2.922   3.436 -0.2679 -1.4067 -0.9131
 1398SOL     OW14872   1.623   3.160   1.469  0.7150  0.1051 -0.0603
 1398SOL    HW114873   1.717   3.156   1.436  0.1343 -0.7143 -1.6929
 1398SOL    HW214874   1.561   3.174   1.391 -0.3235  3.6033  1.2755
 1399SOL     OW14875   5.023   1.616   2.977 -1.0500  0.2877 -0.2790
 1399SOL    HW114876   5.026   1.556   3.058 -1.2594 -1.1996 -1.3553
 1399SOL    HW214877   4.941   1.673   2.981 -1.9750 -1.0194 -0.2921
 1400SOL     OW14878   6.922   9.917   3.896 -0.3555 -0.0513 -0.0985
 1400SOL    HW114879   6.906   9.929   3.798 -1.2662 -1.0364 -0.0759
 1400SOL    HW214880   6.842   9.875   3.938  0.7419 -1.3189  0.7558
 1401SOL     OW14881   9.239   0.726   2.643  0.0253  0.2779  0.0640
 1401SOL    HW114882   9.313   0.669   2.607  0.0132 -0.1848  0.7665
 1401SOL    HW214883   9.155   0.707   2.593 -0.2352 -1.1102  1.0070
 1402SOL     OW14884   0.502   1.578   2.599  0.1121 -0.0072  0.5084
 1402SOL    HW114885   0.428   1.640   2.572 -0.3267 -1.1648 -1.0917
 1402SOL    HW214886   0.465   1.486   2.612  1.1827 -0.5065  0.1193
 1403SOL     OW14887   3.612   8.891   1.737  0.2946 -0.6691 -0.5188
 1403SOL    HW114888   3.705   8.872   1.706 -0.3617 -3.3074 -1.0305
 1403SOL    HW214889   3.578   8.813   1.791 -2.1631 -0.4583 -1.6557
 1404SOL     OW14890   4.930   0.387   4.674  0.4675  0.5905 -0.4567
 1404SOL    HW114891   4.964   0.477   4.646 -0.0931  1.7141  2.2476
 1404SOL    HW214892   4.856   0.400   4.741  0.1348 -1.9039 -0.3195
 1405SOL     OW14893   0.532   3.006   5.521  0.2781  0.1074  0.0602
 1405SOL    HW114894   0.601   3.019   5.450 -0.6389 -2.2524 -1.3478
 1405SOL    HW214895   0.576   2.981   5.607  1.3210  1.5317 -0.0537
 1406SOL     OW14896   7.579   2.070   2.143  0.2375  0.5114 -0.3657
 1406SOL    HW114897   7.524   2.148   2.111 -0.9026 -0.6710 -1.3382
 1406SOL    HW214898   7.532   2.025   2.218  0.3691  0.0962 -0.5311
 1407SOL     OW14899   8.318   7.951   2.880  0.2724 -0.0771  0.9260
 1407SOL    HW114900   8.301   7.899   2.797  0.6357  0.6342  0.3931
 1407SOL    HW214901   8.231   7.971   2.926 -0.1673  1.5798 -0.5633
 1408SOL     OW14902   4.385   0.066   2.741 -0.0999 -0.0360  0.5990
 1408SOL    HW114903   4.415   0.029   2.653  0.2604  0.4779  0.4999
 1408SOL    HW214904   4.355  -0.009   2.800  0.5206 -0.4766  0.3650
 1409SOL     OW14905   6.433   8.764   3.926  0.4136  0.3294 -0.5475
 1409SOL    HW114906   6.342   8.795   3.898  0.0857 -0.7647 -0.6950
 1409SOL    HW214907   6.499   8.784   3.853  0.1425  0.3778 -0.7788
 1410SOL     OW14908   9.072   4.331   2.216 -0.0327  0.7252  0.3804
 1410SOL    HW114909   9.022   4.403   2.264  0.3532  1.2004  0.0687
 1410SOL    HW214910   9.167   4.331   2.246  0.3391  1.3774 -0.7769
 1411SOL     OW14911   8.277   0.378   1.949  0.5178 -0.6524 -0.1207
 1411SOL    HW114912   8.322   0.289   1.957 -0.3901 -1.2125 -1.0913
 1411SOL    HW214913   8.194   0.378   2.003  1.6935  0.4126  1.7380
 1412SOL     OW14914   9.253   3.692   2.377  0.9150 -0.2819  0.1704
 1412SOL    HW114915   9.172   3.646   2.340  0.5373  1.3987 -1.1348
 1412SOL    HW214916   9.226   3.762   2.442  1.3557 -0.0189  0.0746
 1413SOL     OW14917   7.941   7.543   4.176  0.3247 -0.4700 -0.0765
 1413SOL    HW114918   7.905   7.453   4.151  0.4780 -0.6271  0.2658
 1413SOL    HW214919   7.869   7.597   4.218  0.8346 -1.2811  1.8872
 1414SOL     OW14920   1.694   8.836   0.427  0.0721  0.3181 -0.3906
 1414SOL    HW114921   1.779   8.787   0.440  0.2979  0.4520 -1.3071
 1414SOL    HW214922   1.685   8.862   0.331 -0.4103  1.3782 -0.0708
 1415SOL     OW14923   1.053   3.175   0.903  0.3737  0.3503 -0.6105
 1415SOL    HW114924   1.124   3.115   0.866  0.6311 -0.0800  0.5601
 1415SOL    HW214925   0.979   3.119   0.941  1.0566  0.7309  1.3526
 1416SOL     OW14926   0.188   2.866   1.881  0.2080  0.0086 -0.0045
 1416SOL    HW114927   0.178   2.787   1.941  0.7991  0.5850  0.8644
 1416SOL    HW214928   0.278   2.908   1.896 -0.0972  0.8433 -0.4648
 1417SOL     OW14929   8.389   3.574   3.063 -0.0100  0.3262  0.0190
 1417SOL    HW114930   8.331   3.632   3.007 -0.9692  0.7001  1.3782
 1417SOL    HW214931   8.481   3.613   3.069  0.4145 -0.2912 -2.1716
 1418SOL     OW14932   0.941   8.898   3.241 -0.2139  0.1025  0.2150
 1418SOL    HW114933   0.998   8.928   3.318 -0.5047  2.1880 -0.3782
 1418SOL    HW214934   0.845   8.903   3.267 -0.4156  2.7569 -0.9400
 1419SOL     OW14935   1.422   0.799   4.027 -0.3527 -0.1839  0.0012
 1419SOL    HW114936   1.369   0.882   4.011 -0.0158 -0.0330 -0.3405
 1419SOL    HW214937   1.502   0.820   4.083  0.1490 -0.1286 -0.7216
 1420SOL     OW14938   2.674   6.792   5.356  0.3046 -0.0455  0.2242
 1420SOL    HW114939   2.674   6.749   5.446  2.2315  0.3495  0.4222
 1420SOL    HW214940   2.717   6.883   5.361  1.2571 -0.3859 -1.2417
 1421SOL     OW14941   0.110   0.121   0.046 -0.3313  0.2212 -0.2016
 1421SOL    HW114942   0.118   0.221   0.048  0.2631  0.2115 -1.4977
 1421SOL    HW214943   0.189   0.080   0.091 -0.7134  0.3350  0.5785
 1422SOL     OW14944   4.120   5.646   1.654  0.0552 -0.2384  0.1785
 1422SOL    HW114945   4.144   5.557   1.692  1.1009 -0.1482 -0.2736
 1422SOL    HW214946   4.150   5.719   1.716  0.7848 -0.1361 -0.2858
 1423SOL     OW14947   0.143   8.552   3.233  0.5842 -0.2474 -0.0363
 1423SOL    HW114948   0.099   8.640   3.211 -0.6668 -0.3604  1.9412
 1423SOL    HW214949   0.201   8.563   3.314  1.2733 -1.0166 -0.4106
 1424SOL     OW14950   2.487   8.087   5.287  0.1728  0.5503  0.1544
 1424SOL    HW114951   2.496   8.187   5.297 -0.8559  0.7113 -0.4787
 1424SOL    HW214952   2.393   8.064   5.263  0.4560 -0.5657  0.0765
 1425SOL     OW14953   1.899   2.537   4.590 -0.0411 -0.0364  0.1278
 1425SOL    HW114954   1.832   2.464   4.581  0.5834 -0.5223 -0.5694
 1425SOL    HW214955   1.985   2.509   4.548 -0.0301  1.3958 -0.8479
 1426SOL     OW14956   8.994   5.943   1.646 -0.0741 -0.3279 -0.0584
 1426SOL    HW114957   8.995   6.021   1.583 -0.6335 -0.0751  0.2379
 1426SOL    HW214958   9.087   5.924   1.678  0.0970  0.0615 -0.3287
 1427SOL     OW14959   2.204   3.381   1.620  0.2701  0.1099  0.1232
 1427SOL    HW114960   2.271   3.361   1.691 -0.3325 -2.2263  0.0500
 1427SOL    HW214961   2.250   3.387   1.531  0.7399  1.1303  0.4281
 1428SOL     OW14962   6.715   9.957   1.626  0.3097  0.8372 -0.0713
 1428SOL    HW114963   6.667   9.969   1.713 -1.8438  1.2105 -1.2766
 1428SOL    HW214964   6.739  10.047   1.589  0.7059  0.7050 -0.1278
 1429SOL     OW14965   9.836   2.937   2.620  0.2775 -0.3098 -0.3181
 1429SOL    HW114966   9.820   2.934   2.521  0.6266 -1.8127 -0.3504
 1429SOL    HW214967   9.794   2.856   2.662  0.2155  0.2752  0.7545
 1430SOL     OW14968   4.711   3.235   5.441 -0.0490 -0.5943  0.5298
 1430SOL    HW114969   4.674   3.210   5.531  0.1860  0.0352  0.8036
 1430SOL    HW214970   4.686   3.330   5.421 -0.9787 -1.0500 -0.5199
 1431SOL     OW14971   1.931   8.691   2.583 -0.1140 -0.1177  0.0316
 1431SOL    HW114972   1.971   8.764   2.638  0.9287  0.5317 -1.5418
 1431SOL    HW214973   2.004   8.642   2.535 -1.1754  1.1143 -2.9400
 1432SOL     OW14974   2.378   9.155   0.404  0.6707 -0.3157  0.0320
 1432SOL    HW114975   2.282   9.127   0.413 -0.0096  2.2446  1.3006
 1432SOL    HW214976   2.421   9.158   0.495  1.4777  0.1010 -0.3555
 1433SOL     OW14977   3.914   7.736   3.200  0.3333  0.4288  0.2977
 1433SOL    HW114978   3.870   7.825   3.197  1.9498  1.2230 -0.8092
 1433SOL    HW214979   3.985   7.737   3.271  0.4848  0.0896  0.1512
 1434SOL     OW14980   3.208   3.917   0.731  0.0756  0.3108 -0.3502
 1434SOL    HW114981   3.202   3.818   0.739  0.0618  0.4249  1.1988
 1434SOL    HW214982   3.260   3.942   0.649  0.0753 -0.9685 -0.7361
 1435SOL     OW14983   3.518   1.322   3.761 -0.2818 -0.0071 -0.1367
 1435SOL    HW114984   3.599   1.264   3.755 -1.3534 -1.4779 -0.6286
 1435SOL    HW214985   3.540   1.404   3.814  1.6375 -0.1674 -0.6291
 1436SOL     OW14986   4.582   3.515   1.250 -0.1007  0.4956 -0.0073
 1436SOL    HW114987   4.548   3.429   1.212  0.5774 -0.1176  0.7713
 1436SOL    HW214988   4.544   3.591   1.197 -0.9610 -0.2595 -0.4974
 1437SOL     OW14989   0.166   1.619   2.854  0.0383  0.3083  0.0710
 1437SOL    HW114990   0.142   1.546   2.919  0.2430 -0.0411 -0.2416
 1437SOL    HW214991   0.140   1.590   2.762  1.9870 -0.2196 -0.3263
 1438SOL     OW14992   4.120   2.818   3.001  0.0964 -0.3102 -0.4300
 1438SOL    HW114993   4.098   2.821   2.904  0.7997  1.9576 -0.5397
 1438SOL    HW214994   4.219   2.804   3.013  0.1150  0.1560 -0.0416
 1439SOL     OW14995   0.844   7.219   2.534  0.0682 -0.0439 -0.3939
 1439SOL    HW114996   0.845   7.305   2.483  0.6569  1.4208  1.9908
 1439SOL    HW214997   0.828   7.238   2.631  0.9108 -2.5694  0.2871
 1440SOL     OW14998   4.152   7.922   0.427 -0.3533  0.2083  0.7743
 1440SOL    HW114999   4.145   7.841   0.368 -0.1436  0.5842  0.2257
 1440SOL    HW215000   4.089   7.913   0.504  0.2031 -0.8067  1.1139
 1441SOL     OW15001   5.080   0.417   0.776 -0.1693 -0.2086 -0.2076
 1441SOL    HW115002   5.159   0.383   0.725 -1.0633 -0.5834 -1.3500
 1441SOL    HW215003   5.073   0.516   0.766  1.3062  0.1003  1.5313
 1442SOL     OW15004   8.119   9.464   0.899 -0.6343 -0.5651  0.1908
 1442SOL    HW115005   8.124   9.563   0.885  1.2749 -0.5944  0.5712
 1442SOL    HW215006   8.117   9.444   0.997  0.7475 -0.9569  0.1519
 1443SOL     OW15007   8.513   0.925   1.589 -0.1387  0.3178 -0.2132
 1443SOL    HW115008   8.438   0.979   1.552 -0.3790  0.5243  0.5860
 1443SOL    HW215009   8.481   0.871   1.667  1.2523  2.7193  2.0657
 1444SOL     OW15010   4.676   1.967   1.968  0.2683  0.3299  0.5940
 1444SOL    HW115011   4.688   2.010   2.057 -0.6002  0.2136  0.7725
 1444SOL    HW215012   4.578   1.956   1.949  0.4594 -1.7392  0.6556
 1445SOL     OW15013   8.971   6.773   3.260  0.1565 -0.1479  0.6102
 1445SOL    HW115014   9.016   6.780   3.171  0.1529 -2.7222  0.3810
 1445SOL    HW215015   8.881   6.731   3.249 -0.2360  0.3760  1.7125
 1446SOL     OW15016   5.463   1.454   2.077  0.6648  0.2729 -0.0756
 1446SOL    HW115017   5.388   1.518   2.095  0.5676  0.7011 -1.9509
 1446SOL    HW215018   5.550   1.495   2.106  0.3621  0.4288  0.6091
 1447SOL     OW15019   3.538   1.162   2.853 -0.3638  0.3889  0.5970
 1447SOL    HW115020   3.444   1.148   2.823  0.0218  1.8149 -1.3395
 1447SOL    HW215021   3.539   1.228   2.929 -0.8538  0.9900  0.0857
 1448SOL     OW15022   8.272   6.566   2.794  0.2041 -0.2312 -0.0441
 1448SOL    HW115023   8.314   6.511   2.722  1.4942  0.5340  0.1083
 1448SOL    HW215024   8.327   6.560   2.877 -0.5912 -0.1028  0.4941
 1449SOL     OW15025   1.708   3.504   2.540  0.6506  0.2660  0.2675
 1449SOL    HW115026   1.614   3.534   2.554 -0.5797 -1.7248 -3.1397
 1449SOL    HW215027   1.761   3.578   2.499 -0.8894 -0.2699 -2.8192
 1450SOL     OW15028   3.108   3.427   2.617  0.1682  0.5507  0.5257
 1450SOL    HW115029   3.097   3.519   2.655 -0.6383 -0.1036  1.9214
 1450SOL    HW215030   3.185   3.382   2.662  0.1041  0.2831  0.3633
 1451SOL     OW15031   0.232   9.792   5.010  0.3242 -0.2754 -0.3127
 1451SOL    HW115032   0.188   9.848   5.080  0.0960  0.4093 -0.9880
 1451SOL    HW215033   0.169   9.778   4.934  0.9581 -0.0422 -0.8877
 1452SOL     OW15034   7.993   8.623   3.609  1.1550  0.1351 -0.0875
 1452SOL    HW115035   7.999   8.718   3.638 -0.9315 -0.2547  1.7686
 1452SOL    HW215036   8.075   8.574   3.638  1.2611  0.8762  0.8862
 1453SOL     OW15037   1.317   8.123   2.909 -0.3962 -0.2603  0.3408
 1453SOL    HW115038   1.359   8.213   2.914 -1.8343  0.3581  1.8046
 1453SOL    HW215039   1.308   8.085   3.001 -1.0294 -1.3079 -0.1410
 1454SOL     OW15040   4.498   0.090   5.242  0.3988  0.1529 -0.5035
 1454SOL    HW115041   4.501   0.084   5.342  2.8477  0.2431 -0.5591
 1454SOL    HW215042   4.546   0.013   5.202 -1.1483 -0.2456 -1.6551
 1455SOL     OW15043   7.462   2.203   3.239  0.5605 -0.2621  0.3623
 1455SOL    HW115044   7.527   2.249   3.178  0.7120 -0.6968  0.1927
 1455SOL    HW215045   7.384   2.263   3.257 -0.9009 -1.1722 -2.5699
 1456SOL     OW15046   8.944   4.132   2.059 -0.4256  0.3699 -0.1809
 1456SOL    HW115047   9.012   4.199   2.089  0.9509 -0.9655 -0.2398
 1456SOL    HW215048   8.880   4.114   2.133  1.3372 -0.8963  1.0621
 1457SOL     OW15049   0.252   7.665   2.285  0.5601 -0.7564  0.2921
 1457SOL    HW115050   0.290   7.687   2.375 -0.7535 -0.7447  0.8513
 1457SOL    HW215051   0.244   7.565   2.276 -2.7290 -0.6701  1.6546
 1458SOL     OW15052   4.507   0.861   5.484  0.6230  0.4518  0.3648
 1458SOL    HW115053   4.555   0.786   5.439  3.1385  1.9457  0.4512
 1458SOL    HW215054   4.411   0.860   5.458  0.9231 -1.9406 -0.7420
 1459SOL     OW15055   1.630   1.725   0.449 -0.3873 -0.2231 -0.1318
 1459SOL    HW115056   1.617   1.824   0.447 -0.3448 -0.2300 -0.8424
 1459SOL    HW215057   1.592   1.685   0.365  0.3911 -0.7103 -0.2593
 1460SOL     OW15058   4.580   6.302   1.526  0.2336 -0.1300 -0.8815
 1460SOL    HW115059   4.666   6.334   1.488 -0.2885  0.8562 -1.2612
 1460SOL    HW215060   4.512   6.375   1.520 -0.5940 -0.8573 -0.4751
 1461SOL     OW15061   9.076   0.056   1.117  0.2183  0.2826 -0.3775
 1461SOL    HW115062   9.171   0.025   1.115 -0.5807 -2.3310  1.1816
 1461SOL    HW215063   9.062   0.115   1.196  0.5174  0.7072 -0.6320
 1462SOL     OW15064   0.847   3.176   2.507 -0.4755 -0.2549  0.2086
 1462SOL    HW115065   0.865   3.102   2.442  1.1654 -0.0403  0.4019
 1462SOL    HW215066   0.802   3.252   2.459  1.4418  0.2266 -0.8952
 1463SOL     OW15067   3.216   2.055   2.425  0.4935  0.0233 -0.4477
 1463SOL    HW115068   3.212   1.957   2.446  1.0498  0.1114  0.0381
 1463SOL    HW215069   3.184   2.069   2.331  1.7404 -0.7755 -0.9942
 1464SOL     OW15070   9.963   3.496   1.211  0.1137 -0.3136 -0.2346
 1464SOL    HW115071   9.889   3.491   1.278  0.4393  1.8302  0.3283
 1464SOL    HW215072  10.051   3.485   1.257  0.2941  0.2581 -0.4347
 1465SOL     OW15073   8.909   7.574   1.622  0.4723 -0.1898 -0.1506
 1465SOL    HW115074   9.009   7.577   1.616  0.5372 -2.4576 -0.4844
 1465SOL    HW215075   8.882   7.509   1.693 -0.7758  0.4559 -0.0236
 1466SOL     OW15076   6.605   9.874   3.127  0.3794  0.2664  0.1260
 1466SOL    HW115077   6.693   9.873   3.174  0.0590  1.5955  0.7521
 1466SOL    HW215078   6.613   9.821   3.042  1.8964  0.7453 -0.0439
 1467SOL     OW15079   7.634   9.217   4.163 -0.5152  0.4708  1.0587
 1467SOL    HW115080   7.666   9.260   4.247 -0.0431  1.1781  0.5219
 1467SOL    HW215081   7.543   9.179   4.178 -0.0728 -0.1943  2.1441
 1468SOL     OW15082   7.542   8.287   3.039  0.0329 -0.2974  0.4643
 1468SOL    HW115083   7.443   8.278   3.037  0.0282 -0.0602 -0.6522
 1468SOL    HW215084   7.569   8.348   3.114 -0.5677 -1.3778  1.5755
 1469SOL     OW15085   1.175   2.310   4.947 -0.3610 -0.4435 -0.0185
 1469SOL    HW115086   1.095   2.287   4.892 -0.6767  0.7942 -0.0842
 1469SOL    HW215087   1.162   2.277   5.041 -1.2005  0.2758  0.1164
 1470SOL     OW15088   7.698   7.341   3.512  0.5021 -0.5329 -0.7928
 1470SOL    HW115089   7.752   7.335   3.596 -0.3449  1.1067 -0.1243
 1470SOL    HW215090   7.759   7.347   3.433  1.2932 -1.0826 -0.2324
 1471SOL     OW15091   7.345   9.874   5.053  0.1294 -0.8476 -0.5172
 1471SOL    HW115092   7.408   9.817   5.001  0.8455 -0.1561 -0.4183
 1471SOL    HW215093   7.388   9.962   5.073 -0.7681 -0.4683 -0.2159
 1472SOL     OW15094   9.238   9.019   1.168 -0.3783  0.2623 -0.1605
 1472SOL    HW115095   9.325   9.067   1.176 -0.3269  0.3148 -0.9243
 1472SOL    HW215096   9.254   8.924   1.142 -0.6032  0.8315 -2.5621
 1473SOL     OW15097   3.332   2.624   0.178 -0.0302  0.0608 -0.5451
 1473SOL    HW115098   3.374   2.587   0.096 -0.2063 -0.6115 -0.3334
 1473SOL    HW215099   3.284   2.709   0.156 -0.0438 -0.0974 -1.1229
 1474SOL     OW15100   0.812   3.029   0.796 -0.0087 -0.3631 -0.7932
 1474SOL    HW115101   0.720   3.013   0.831  0.7542 -1.3462  0.8133
 1474SOL    HW215102   0.812   3.111   0.738 -1.7336  0.0844 -0.1838
 1475SOL     OW15103   3.356   3.981   4.773 -0.7893 -0.8594  0.0490
 1475SOL    HW115104   3.354   4.041   4.852  2.3472 -0.6856  0.0931
 1475SOL    HW215105   3.402   4.028   4.697 -1.6950 -1.8444 -1.1286
 1476SOL     OW15106   3.555   9.834   2.725  0.2927 -0.2439  0.3654
 1476SOL    HW115107   3.516   9.894   2.796 -0.2184 -0.1710  0.0213
 1476SOL    HW215108   3.548   9.879   2.636  0.6641 -0.4668  0.2226
 1477SOL     OW15109   1.636   0.701   4.491 -0.5060  0.2199 -0.0907
 1477SOL    HW115110   1.668   0.792   4.514 -1.5639  0.4621  0.4492
 1477SOL    HW215111   1.669   0.676   4.400  0.1352  0.9677 -0.0658
 1478SOL     OW15112   0.709   6.551   2.118 -0.3158 -0.2470 -0.4959
 1478SOL    HW115113   0.757   6.556   2.030 -0.1092  1.2146 -0.3066
 1478SOL    HW215114   0.774   6.567   2.192 -1.0118  1.3384 -0.2191
 1479SOL     OW15115   1.237   9.603   5.284  0.0932  0.4073  0.0609
 1479SOL    HW115116   1.265   9.524   5.339 -0.8413  1.2417  1.7789
 1479SOL    HW215117   1.215   9.573   5.191 -0.6030 -1.4133  0.7881
 1480SOL     OW15118   9.413   4.297   3.328 -0.1311 -0.4530  0.1494
 1480SOL    HW115119   9.406   4.201   3.356  0.6594 -0.1212  1.5130
 1480SOL    HW215120   9.335   4.320   3.271 -0.3723 -1.8905 -0.1350
 1481SOL     OW15121   4.995   0.911   3.461 -0.0505  0.2559 -0.5729
 1481SOL    HW115122   5.013   0.986   3.525  0.9035  0.2054 -0.7757
 1481SOL    HW215123   5.081   0.864   3.441 -0.5515 -0.5016 -0.9291
 1482SOL     OW15124   0.941   3.357   0.317 -0.2932 -0.4464  0.4004
 1482SOL    HW115125   0.897   3.332   0.231  0.0256  0.1971  0.0521
 1482SOL    HW215126   0.936   3.279   0.380  0.1248 -1.1844 -0.4575
 1483SOL     OW15127   2.636   5.449   1.394  0.0192 -0.1655 -0.0478
 1483SOL    HW115128   2.609   5.438   1.490  1.2535 -1.6246  0.1475
 1483SOL    HW215129   2.559   5.429   1.335 -0.1285 -1.4543  0.5806
 1484SOL     OW15130   2.646   6.962   1.008 -0.6452 -0.4204  0.2469
 1484SOL    HW115131   2.727   6.961   0.950 -0.0966 -0.7087  1.0162
 1484SOL    HW215132   2.575   7.019   0.965  0.6388  1.3888  0.4933
 1485SOL     OW15133   4.824   7.186   3.112 -0.1629 -0.1406  0.6002
 1485SOL    HW115134   4.787   7.218   3.024  0.5825  0.1986  0.4053
 1485SOL    HW215135   4.765   7.115   3.149 -1.3497  0.8382  0.5942
 1486SOL     OW15136   2.466   0.344   2.908  0.4792 -0.0911  0.0786
 1486SOL    HW115137   2.555   0.363   2.948  0.7599 -0.4970 -0.3479
 1486SOL    HW215138   2.420   0.273   2.961  1.2949 -1.3881 -0.9303
 1487SOL     OW15139   3.871   0.952   0.243 -0.3960 -0.2666 -0.2710
 1487SOL    HW115140   3.895   0.877   0.305  0.5702  0.8322  0.7113
 1487SOL    HW215141   3.772   0.958   0.234 -0.4965 -1.2625  0.1389
 1488SOL     OW15142   3.094   1.199   5.606  0.5481 -0.7796 -0.0814
 1488SOL    HW115143   3.074   1.158   5.517  0.0157 -0.3060 -0.1865
 1488SOL    HW215144   3.105   1.127   5.674 -2.0444 -1.0746  0.0890
 1489SOL     OW15145   0.721   6.050   1.586  0.3149 -0.5899  0.4405
 1489SOL    HW115146   0.791   6.008   1.643  1.4994  0.2215 -0.3873
 1489SOL    HW215147   0.728   6.014   1.493 -1.4720 -1.7560  0.7283
 1490SOL     OW15148   6.701   8.773   2.269 -0.3909 -0.0115  0.3324
 1490SOL    HW115149   6.767   8.836   2.228  0.5332  1.0410  3.2531
 1490SOL    HW215150   6.613   8.781   2.223  0.9691  0.0249 -2.3210
 1491SOL     OW15151   4.504   1.240   0.513  0.1134  0.6009 -0.0532
 1491SOL    HW115152   4.551   1.315   0.559  1.4240  0.4303 -1.0936
 1491SOL    HW215153   4.572   1.178   0.472 -1.0311  0.8616 -2.3941
 1492SOL     OW15154   6.890   9.160   1.634 -0.8853 -0.6210 -0.4611
 1492SOL    HW115155   6.915   9.096   1.561 -0.4127 -0.0708 -0.7803
 1492SOL    HW215156   6.877   9.251   1.595 -2.4955 -0.7101 -0.1618
 1493SOL     OW15157   8.060   8.697   1.805 -0.2710  0.4065  1.2322
 1493SOL    HW115158   7.996   8.621   1.798  1.4033 -0.9761  0.6173
 1493SOL    HW215159   8.010   8.780   1.832 -2.4046 -0.4914  0.2084
 1494SOL     OW15160   3.157   4.153   5.534 -0.9701 -0.4776  0.0344
 1494SOL    HW115161   3.072   4.103   5.551 -0.8319 -0.9206 -0.5523
 1494SOL    HW215162   3.138   4.233   5.477 -0.9613 -0.7263 -0.3241
 1495SOL     OW15163   1.756   6.251   2.497 -0.2356  0.0376  0.2321
 1495SOL    HW115164   1.750   6.264   2.595 -0.7617  2.6047 -0.1252
 1495SOL    HW215165   1.752   6.153   2.477 -1.7231 -0.4472  2.6521
 1496SOL     OW15166   0.110   3.941   2.409 -0.2203 -0.0787  0.3212
 1496SOL    HW115167   0.134   3.845   2.417  0.0838  0.0470  0.9222
 1496SOL    HW215168   0.024   3.959   2.457  1.0117  0.4431  2.3919
 1497SOL     OW15169   3.631   7.074   1.398  0.0218 -0.2391 -0.5244
 1497SOL    HW115170   3.586   7.126   1.470  0.2379 -2.6251  1.3980
 1497SOL    HW215171   3.688   7.003   1.438  3.3589  0.9003 -2.9796
 1498SOL     OW15172   4.195   1.715   0.665 -0.3102 -0.4466 -0.0807
 1498SOL    HW115173   4.147   1.628   0.676  1.1898 -1.2679  0.0802
 1498SOL    HW215174   4.203   1.759   0.754  0.8606 -1.1914  0.1891
 1499SOL     OW15175   9.189   5.120   2.544  0.4354 -0.0637 -0.1486
 1499SOL    HW115176   9.253   5.148   2.473 -0.5225  0.5228 -0.7993
 1499SOL    HW215177   9.146   5.033   2.518  0.9329 -0.4408  0.2724
 1500SOL     OW15178   3.303   0.674   4.125  0.0410  0.1710 -0.0830
 1500SOL    HW115179   3.221   0.677   4.069 -1.8795 -0.9821  2.5591
 1500SOL    HW215180   3.306   0.754   4.185  1.4432  0.7689 -0.9153
 1501SOL     OW15181   0.917   4.173   2.805 -0.3816  0.1371  0.1400
 1501SOL    HW115182   0.855   4.122   2.746  1.4035  0.0336 -1.6846
 1501SOL    HW215183   0.892   4.157   2.901 -1.9236 -1.4632 -0.4997
 1502SOL     OW15184   2.122   8.849   5.326 -0.2148 -0.6795  0.2637
 1502SOL    HW115185   2.203   8.860   5.268  0.2375  1.0536  1.1876
 1502SOL    HW215186   2.050   8.911   5.295 -0.9537 -1.7145 -0.1208
 1503SOL     OW15187   1.515   7.089   2.588 -0.8899 -0.0940 -0.5049
 1503SOL    HW115188   1.457   7.012   2.565  1.1119 -1.2871 -1.7267
 1503SOL    HW215189   1.514   7.103   2.687 -1.9684 -1.1047 -0.3667
 1504SOL     OW15190   1.346   1.197   2.768 -0.2452  0.3222  0.2237
 1504SOL    HW115191   1.366   1.281   2.818  0.2365  0.5881 -0.4072
 1504SOL    HW215192   1.364   1.211   2.671 -1.7024 -0.0189 -0.1112
 1505SOL     OW15193   3.737   2.043   0.797 -0.5757 -0.4074  0.2146
 1505SOL    HW115194   3.690   2.130   0.809  1.2806  0.4577  1.3406
 1505SOL    HW215195   3.833   2.053   0.821  0.0948 -2.2902 -1.5008
 1506SOL     OW15196   0.100   9.992   2.549 -0.5101  1.2287  0.8558
 1506SOL    HW115197   0.181  10.027   2.503 -1.1815  0.2497 -1.1347
 1506SOL    HW215198   0.127   9.937   2.628  0.6838  2.3754  1.2621
 1507SOL     OW15199   4.601   5.961   1.098  0.2350 -0.8223 -0.0687
 1507SOL    HW115200   4.580   6.035   1.161 -0.4980  0.3284 -1.6435
 1507SOL    HW215201   4.634   5.998   1.012  1.7175 -2.3939 -0.2075
 1508SOL     OW15202   9.428   0.423   2.159  0.5164  0.2250  0.1456
 1508SOL    HW115203   9.398   0.328   2.166  0.7782  0.1463  0.1951
 1508SOL    HW215204   9.356   0.483   2.194 -0.0282  0.1040 -0.7559
 1509SOL     OW15205   4.174   5.236   1.644 -0.1599 -0.1313 -0.4458
 1509SOL    HW115206   4.080   5.228   1.677 -0.2404 -1.7470 -1.0511
 1509SOL    HW215207   4.173   5.281   1.555 -0.2704  0.7204 -0.0204
 1510SOL     OW15208   1.074   0.912   5.152  0.1698 -0.4602 -0.4446
 1510SOL    HW115209   1.050   1.006   5.126 -0.2709 -0.4876 -0.1387
 1510SOL    HW215210   0.991   0.860   5.167  0.4101 -1.1063 -1.3280
 1511SOL     OW15211   9.932   8.211   3.133 -0.3988  0.7465  0.3937
 1511SOL    HW115212   9.849   8.250   3.174 -1.5891 -1.7106  0.4397
 1511SOL    HW215213  10.001   8.199   3.204 -2.3223 -3.1434  1.7490
 1512SOL     OW15214   9.943   1.964   4.499 -0.1150  0.3897 -0.0448
 1512SOL    HW115215   9.937   2.026   4.578  0.9920  1.3181 -0.6776
 1512SOL    HW215216  10.035   1.925   4.494  0.3250  1.6209 -1.8286
 1513SOL     OW15217   4.569   8.317   3.732  0.6675  0.3470 -0.4255
 1513SOL    HW115218   4.564   8.415   3.713  0.3484  0.5571  0.6968
 1513SOL    HW215219   4.665   8.289   3.739  0.7501  0.8687  0.6420
 1514SOL     OW15220   8.706   2.495   1.532  0.3497  0.3957  0.4215
 1514SOL    HW115221   8.776   2.469   1.598 -0.3716 -1.4953  0.4615
 1514SOL    HW215222   8.616   2.493   1.576  0.3902  4.7049  0.9150
 1515SOL     OW15223   1.876   0.297   3.699  0.5797  0.4393 -0.3823
 1515SOL    HW115224   1.841   0.365   3.764  2.4212  0.5463  0.5189
 1515SOL    HW215225   1.951   0.336   3.646  1.4664 -0.7875 -0.0568
 1516SOL     OW15226   7.966   6.956   2.596 -0.2897 -0.2316 -0.1809
 1516SOL    HW115227   7.911   6.993   2.520 -1.3594  2.0744  1.6513
 1516SOL    HW215228   7.984   6.859   2.580 -3.2234 -0.5604 -1.7912
 1517SOL     OW15229   0.410   4.299   2.879 -0.0043 -0.3134 -0.4309
 1517SOL    HW115230   0.439   4.235   2.950  0.1837  0.4954  0.2233
 1517SOL    HW215231   0.484   4.362   2.858 -1.3426  1.9821  1.5011
 1518SOL     OW15232   1.987   3.707   1.433 -0.3739 -0.0568 -0.4654
 1518SOL    HW115233   1.981   3.693   1.334  0.4833  2.4321 -0.8831
 1518SOL    HW215234   1.896   3.726   1.470 -0.4374  0.6988 -1.0208
 1519SOL     OW15235   8.727   8.916   3.934 -0.2092  0.0462  0.4591
 1519SOL    HW115236   8.739   8.864   3.849 -0.8603 -0.2045  0.5132
 1519SOL    HW215237   8.664   8.993   3.917  3.0779  2.6555 -0.3768
 1520SOL     OW15238   9.872   2.746   0.038  0.0212  0.1686 -0.1574
 1520SOL    HW115239   9.837   2.725   0.130  0.4510 -0.2642 -0.0910
 1520SOL    HW215240   9.829   2.830   0.005 -0.9442 -0.2600 -0.0047
 1521SOL     OW15241   0.185   0.978   4.299  0.5025  0.2492 -0.0050
 1521SOL    HW115242   0.089   0.963   4.323  1.2417 -1.1903  2.2082
 1521SOL    HW215243   0.207   0.923   4.218 -0.2197 -0.3937  0.2202
 1522SOL     OW15244   2.890   6.711   4.821  0.6930 -0.4592  0.0246
 1522SOL    HW115245   2.798   6.723   4.783 -0.5715 -2.3590  2.3762
 1522SOL    HW215246   2.925   6.800   4.850 -2.0493 -0.1705  2.7483
 1523SOL     OW15247   2.603   2.463   3.835 -0.6185  0.1782  0.0351
 1523SOL    HW115248   2.580   2.559   3.817  1.3395  0.5815 -0.4538
 1523SOL    HW215249   2.632   2.453   3.930 -3.0707 -0.4078  0.7701
 1524SOL     OW15250   0.302   6.992   1.290 -0.2215 -0.2020 -0.0014
 1524SOL    HW115251   0.243   7.071   1.302  0.3940  0.5744 -1.9707
 1524SOL    HW215252   0.246   6.909   1.290 -0.9771  0.2906  0.9883
 1525SOL     OW15253   0.023   9.825   0.670  0.4151 -0.3884 -0.6257
 1525SOL    HW115254  -0.031   9.830   0.585 -1.5741  1.2564  0.6963
 1525SOL    HW215255   0.097   9.891   0.665 -0.5800  0.7545 -0.4981
 1526SOL     OW15256   0.606   9.895   0.225 -0.2038 -0.0784  0.0342
 1526SOL    HW115257   0.691   9.940   0.250 -0.5962 -0.4789  2.1693
 1526SOL    HW215258   0.574   9.931   0.137  0.6491  2.1376  0.5982
 1527SOL     OW15259   2.463   0.018   2.995  0.1558  0.1313 -0.1061
 1527SOL    HW115260   2.559   0.030   2.970  0.1533 -1.4939 -0.9137
 1527SOL    HW215261   2.406   0.021   2.913 -0.5018  1.0595  0.3672
 1528SOL     OW15262   6.634   8.744   3.709  0.1921  0.3447 -0.3171
 1528SOL    HW115263   6.576   8.664   3.699 -2.5812  2.4958 -2.0742
 1528SOL    HW215264   6.682   8.761   3.623  1.0163  0.4074  0.1477
 1529SOL     OW15265   4.147   9.726   1.367  0.2174 -0.1726  0.0590
 1529SOL    HW115266   4.195   9.795   1.421 -1.0997  0.6816  0.1678
 1529SOL    HW215267   4.075   9.770   1.313  1.2757 -1.0664 -2.1406
 1530SOL     OW15268   2.115   7.948   3.451  0.0042  0.1987 -0.2357
 1530SOL    HW115269   2.094   8.045   3.458  0.1107  0.2346 -0.4266
 1530SOL    HW215270   2.030   7.895   3.460  0.0176  0.2859  0.4197
 1531SOL     OW15271   8.618   2.289   0.129  0.0283 -0.7374 -0.0840
 1531SOL    HW115272   8.689   2.292   0.200 -0.0323  2.4025 -0.0916
 1531SOL    HW215273   8.651   2.237   0.051  0.7749 -2.7386  1.5199
 1532SOL     OW15274   2.943   9.201   3.166  0.2734 -0.4678 -0.1005
 1532SOL    HW115275   2.882   9.280   3.175  1.8169  0.7472 -0.1422
 1532SOL    HW215276   2.981   9.177   3.255  1.3719  0.1303 -0.3904
 1533SOL     OW15277   9.147   8.727   1.570 -0.0965  0.7255 -0.4513
 1533SOL    HW115278   9.063   8.769   1.602 -0.7140 -0.0153 -1.0599
 1533SOL    HW215279   9.194   8.682   1.646 -1.3548 -0.7052 -0.4850
 1534SOL     OW15280   3.653   7.063   4.451  0.0382  1.4240  0.3632
 1534SOL    HW115281   3.652   7.015   4.363 -1.3710  0.4391  0.9079
 1534SOL    HW215282   3.684   7.157   4.436  0.0773  1.1905 -1.1471
 1535SOL     OW15283   9.554   9.090   5.278 -0.3094  0.0535 -0.0754
 1535SOL    HW115284   9.569   9.189   5.270  0.2528 -0.2002 -2.5487
 1535SOL    HW215285   9.571   9.061   5.373  1.0562  2.0577  0.3260
 1536SOL     OW15286   4.836   0.142   1.562  0.1765 -0.1789 -0.6393
 1536SOL    HW115287   4.802   0.117   1.653 -0.7483 -0.0726 -0.9435
 1536SOL    HW215288   4.934   0.160   1.567  0.2025 -0.5173  0.2670
 1537SOL     OW15289   4.414   2.670   2.178  0.3605  0.0744 -0.1089
 1537SOL    HW115290   4.383   2.617   2.258 -0.8959 -1.4811 -1.5790
 1537SOL    HW215291   4.335   2.713   2.134  0.9980  0.6438 -0.7090
 1538SOL     OW15292   1.523   0.865   5.525  0.6300 -0.1969  0.1534
 1538SOL    HW115293   1.516   0.770   5.496  0.8985 -0.1902  0.0601
 1538SOL    HW215294   1.437   0.895   5.565 -0.1879  0.1824 -1.8322
 1539SOL     OW15295   2.872   4.306   2.109 -0.0202 -0.1280 -0.0666
 1539SOL    HW115296   2.956   4.335   2.063 -0.0683 -0.1914 -0.1942
 1539SOL    HW215297   2.847   4.374   2.179 -0.0554  0.0676 -0.2684
 1540SOL     OW15298   1.078   8.701   0.335 -0.5094 -0.1058 -0.0222
 1540SOL    HW115299   0.981   8.724   0.328 -1.0068 -2.7323 -2.5851
 1540SOL    HW215300   1.133   8.775   0.295 -1.4757  0.8475  0.3750
 1541SOL     OW15301   7.449   6.366   3.710 -0.0355  0.4715  0.1677
 1541SOL    HW115302   7.395   6.434   3.661  0.6369 -0.9786 -2.7011
 1541SOL    HW215303   7.389   6.296   3.748 -0.3100 -0.4843 -1.9726
 1542SOL     OW15304   9.124   8.723   4.653 -0.1150 -0.2177 -0.1296
 1542SOL    HW115305   9.029   8.698   4.674 -0.1178 -0.9228 -0.9466
 1542SOL    HW215306   9.163   8.773   4.730 -1.0126 -0.3039  0.3921
 1543SOL     OW15307   1.341   1.968   1.117  0.2260  0.4380 -0.2071
 1543SOL    HW115308   1.345   1.984   1.216  0.8218 -0.2667 -0.1111
 1543SOL    HW215309   1.418   1.910   1.090 -1.6097 -1.9349 -0.5836
 1544SOL     OW15310   9.887   7.735   0.791 -0.4446  0.0379  0.0364
 1544SOL    HW115311   9.888   7.826   0.832  0.1910 -0.4224  1.0612
 1544SOL    HW215312   9.957   7.729   0.720 -0.6418  0.4168 -0.1920
 1545SOL     OW15313   4.390   1.199   4.492  0.0892 -0.0916  0.4373
 1545SOL    HW115314   4.436   1.284   4.520  1.7445 -1.0235  0.6224
 1545SOL    HW215315   4.292   1.215   4.484  0.2220  1.5025  1.7756
 1546SOL     OW15316   2.083   0.495   4.859 -0.7056 -0.3730 -0.2794
 1546SOL    HW115317   2.030   0.412   4.841 -0.1125 -0.7880 -0.1327
 1546SOL    HW215318   2.159   0.473   4.920 -3.5094  1.2414  4.0769
 1547SOL     OW15319   0.646   2.079   2.923  0.1280 -0.2796 -0.0964
 1547SOL    HW115320   0.737   2.063   2.962  0.5435  1.0998 -0.4777
 1547SOL    HW215321   0.653   2.088   2.824 -0.5560 -1.0798 -0.2250
 1548SOL     OW15322   8.486   9.896   4.522 -0.3432 -0.2890  1.2138
 1548SOL    HW115323   8.445   9.913   4.611 -0.9195 -2.0512  1.3038
 1548SOL    HW215324   8.456   9.807   4.488 -0.4328  0.5164 -0.9088
 1549SOL     OW15325   2.133   7.210   2.091 -0.4717  0.5949 -0.2116
 1549SOL    HW115326   2.183   7.162   2.163 -1.7737 -0.0058  0.3173
 1549SOL    HW215327   2.038   7.177   2.089 -0.5316  0.8306 -1.9988
 1550SOL     OW15328   3.246   8.583   3.772 -0.1031 -0.2296  0.5768
 1550SOL    HW115329   3.300   8.503   3.797  0.6243 -0.1020 -0.5348
 1550SOL    HW215330   3.225   8.580   3.674 -0.0996  0.9094  0.5321
 1551SOL     OW15331   8.398   1.623   2.549  0.1025 -0.3999 -0.1187
 1551SOL    HW115332   8.404   1.721   2.527 -1.3150 -0.2267  0.2109
 1551SOL    HW215333   8.304   1.592   2.537  0.6388 -1.8519 -0.6964
 1552SOL     OW15334   5.320   6.649   2.175 -0.2220 -0.0225  0.2512
 1552SOL    HW115335   5.261   6.725   2.147 -1.1880 -1.0560 -0.5312
 1552SOL    HW215336   5.272   6.593   2.243 -0.1659 -0.8927 -0.4241
 1553SOL     OW15337   1.218   8.578   5.112  0.8552 -0.1691  0.2228
 1553SOL    HW115338   1.248   8.653   5.172 -0.6809 -0.7945  1.8108
 1553SOL    HW215339   1.294   8.548   5.056  1.9413  1.4480  0.7862
 1554SOL     OW15340   8.631   7.089   2.238 -0.4626  0.6317  0.3371
 1554SOL    HW115341   8.650   7.170   2.182  1.2793 -0.8247 -1.2558
 1554SOL    HW215342   8.703   7.079   2.306 -0.9978  0.7432  0.9204
 1555SOL     OW15343   1.070   9.957   3.725 -0.3203 -0.0155  0.3184
 1555SOL    HW115344   1.015   9.997   3.798  1.5760  1.9664  0.7264
 1555SOL    HW215345   1.094   9.863   3.749  2.0217  1.2456  3.3275
 1556SOL     OW15346   7.939   6.289   3.741  0.1424 -0.0928 -0.9427
 1556SOL    HW115347   7.865   6.271   3.676 -0.0046 -1.9915 -0.2830
 1556SOL    HW215348   7.901   6.309   3.831  0.3979 -0.2544 -0.7965
 1557SOL     OW15349   0.122   1.583   4.516  0.1311  0.0379 -0.5660
 1557SOL    HW115350   0.116   1.523   4.596  0.3476  1.5167  0.5841
 1557SOL    HW215351   0.209   1.567   4.469 -0.4460 -1.5725 -1.1339
 1558SOL     OW15352   3.838   3.888   3.030  0.0510  0.1332  0.1614
 1558SOL    HW115353   3.756   3.834   3.011  0.7301 -0.5301 -0.9076
 1558SOL    HW215354   3.822   3.983   3.001  0.0636 -0.2437 -1.1134
 1559SOL     OW15355   2.271   1.940   3.308 -0.2607 -0.1307 -0.0256
 1559SOL    HW115356   2.210   1.910   3.382  0.3525  0.2515  0.6447
 1559SOL    HW215357   2.362   1.901   3.322 -0.4260 -0.9382 -1.1890
 1560SOL     OW15358   9.564   8.432   1.832 -1.1733  0.2766 -0.2900
 1560SOL    HW115359   9.480   8.383   1.808 -0.7369  0.0323 -1.3763
 1560SOL    HW215360   9.607   8.388   1.911 -1.0092 -0.8367 -0.9913
 1561SOL     OW15361   3.336   7.421   1.844 -0.1492 -0.8189 -0.3586
 1561SOL    HW115362   3.386   7.361   1.906  0.2170  0.3261  0.4853
 1561SOL    HW215363   3.253   7.375   1.812 -0.0479 -1.6431  0.5330
 1562SOL     OW15364   5.982   1.492   2.825  0.1756  0.3892 -0.4513
 1562SOL    HW115365   6.082   1.485   2.831  0.0240 -2.3180 -0.5082
 1562SOL    HW215366   5.941   1.470   2.914 -0.4081  0.4479 -0.7025
 1563SOL     OW15367   3.961   9.680   3.822 -0.1249 -0.5628 -0.6413
 1563SOL    HW115368   3.923   9.672   3.730  0.7243 -0.7606 -0.9742
 1563SOL    HW215369   3.982   9.589   3.858 -1.1739 -0.5379  0.0525
 1564SOL     OW15370   0.099   7.827   0.571  0.1572 -0.0475  0.0209
 1564SOL    HW115371   0.010   7.864   0.597  0.3107  0.6839 -0.4580
 1564SOL    HW215372   0.113   7.840   0.473  0.7798 -0.1719  0.0908
 1565SOL     OW15373   5.963   9.690   4.450  0.3166  0.0311  0.0305
 1565SOL    HW115374   6.047   9.737   4.423  0.4965 -0.2746  0.0488
 1565SOL    HW215375   5.886   9.727   4.398  0.2498  1.2139  0.9598
 1566SOL     OW15376   3.791   4.933   1.551  0.3856  0.2800 -0.2183
 1566SOL    HW115377   3.738   4.951   1.633  1.8757  1.0529  0.5853
 1566SOL    HW215378   3.883   4.970   1.561  0.5512  0.5245 -2.2927
 1567SOL     OW15379   9.698   6.920   1.555  0.3652 -0.0590  0.0946
 1567SOL    HW115380   9.699   7.003   1.499  2.3327  0.8537  1.4322
 1567SOL    HW215381   9.752   6.849   1.509 -1.0637 -0.5095 -0.9044
 1568SOL     OW15382   4.817   4.179   1.789 -0.0039 -0.1206 -0.7805
 1568SOL    HW115383   4.799   4.104   1.725  2.0317  0.5799 -2.2191
 1568SOL    HW215384   4.864   4.144   1.870 -2.7836 -1.0467  0.4854
 1569SOL     OW15385   5.089   1.451   3.184 -0.0659 -0.2479  0.7166
 1569SOL    HW115386   5.138   1.483   3.265  1.1575  1.8237 -0.7729
 1569SOL    HW215387   5.155   1.410   3.120 -0.3699  1.8375 -0.9632
 1570SOL     OW15388   3.387   4.328   0.033  0.1046  0.1615 -0.5845
 1570SOL    HW115389   3.345   4.419   0.034  0.6282  0.4050  1.1671
 1570SOL    HW215390   3.317   4.259   0.018 -0.1037  0.9390 -3.3448
 1571SOL     OW15391   9.459   1.998   1.866  0.5541  0.1495  0.2812
 1571SOL    HW115392   9.375   1.973   1.819  0.3933  2.3457 -0.6722
 1571SOL    HW215393   9.525   2.034   1.800  2.5825 -2.3010  0.8887
 1572SOL     OW15394   8.470   9.002   3.522  0.4493  0.4406 -0.1123
 1572SOL    HW115395   8.403   8.928   3.511  2.7674 -1.6826 -0.4512
 1572SOL    HW215396   8.548   8.969   3.575  2.1815  2.2116 -1.4467
 1573SOL     OW15397   7.427   9.257   0.959 -0.3400  0.0446 -0.1727
 1573SOL    HW115398   7.520   9.233   0.931 -0.7072 -1.8713  0.1591
 1573SOL    HW215399   7.389   9.182   1.014 -2.1744  0.6913 -0.5344
 1574SOL     OW15400   6.304   8.309   2.314 -0.1290 -0.0926  0.2743
 1574SOL    HW115401   6.395   8.269   2.312 -0.4404 -0.9182  1.7951
 1574SOL    HW215402   6.236   8.239   2.294 -0.6000 -0.0836  1.8228
 1575SOL     OW15403   3.497   0.203   1.224 -0.0736 -0.1374  0.1949
 1575SOL    HW115404   3.504   0.119   1.278 -0.1611  0.7511  1.6149
 1575SOL    HW215405   3.408   0.206   1.179  0.7364 -1.8107 -1.6096
 1576SOL     OW15406   1.278   8.278   1.003 -0.6613  0.2219 -0.4602
 1576SOL    HW115407   1.300   8.350   1.068  0.8917 -2.2896  1.8931
 1576SOL    HW215408   1.200   8.224   1.036  0.6287 -1.5550 -0.2083
 1577SOL     OW15409   2.843   0.746   3.420 -0.5572  0.3827  0.5886
 1577SOL    HW115410   2.776   0.815   3.394  0.5538  1.1055 -0.4070
 1577SOL    HW215411   2.855   0.747   3.519 -0.7498  1.4243  0.6042
 1578SOL     OW15412   8.364   0.126   1.905 -0.6114 -0.3394 -0.3575
 1578SOL    HW115413   8.325   0.198   1.847  1.7627  0.6949 -0.7652
 1578SOL    HW215414   8.362   0.039   1.857  0.9816  0.4379 -1.8788
 1579SOL     OW15415   0.163   2.202   1.322 -0.8133  0.3044 -0.1354
 1579SOL    HW115416   0.247   2.189   1.268  0.0417  1.9223  0.7759
 1579SOL    HW215417   0.172   2.153   1.409  0.0545  2.1128  0.8324
 1580SOL     OW15418   9.651   7.304   3.876 -0.1181  0.2759 -0.6044
 1580SOL    HW115419   9.556   7.333   3.891 -0.2577  0.0538 -1.0591
 1580SOL    HW215420   9.656   7.204   3.882  0.1138  0.2996 -0.4284
 1581SOL     OW15421   7.092   9.959   4.947 -0.0777 -0.2451 -0.1489
 1581SOL    HW115422   7.058   9.865   4.942  0.6856 -0.6021  1.1059
 1581SOL    HW215423   7.190   9.958   4.967  0.2151  0.8127 -1.4942
 1582SOL     OW15424   1.297   0.316   2.762  1.1999  0.3736 -0.1813
 1582SOL    HW115425   1.346   0.327   2.849 -0.6428 -3.2487  1.4469
 1582SOL    HW215426   1.320   0.227   2.722 -0.1925  0.7854 -1.9582
 1583SOL     OW15427   7.604   8.484   3.220  0.6180 -0.5483 -0.3683
 1583SOL    HW115428   7.675   8.525   3.277  0.4277 -1.3025  0.4135
 1583SOL    HW215429   7.524   8.462   3.277 -0.4496  0.7655 -1.3215
 1584SOL     OW15430   5.006   0.086   1.160  0.4470  0.0105 -0.1194
 1584SOL    HW115431   5.027   0.181   1.181 -1.4921  0.3092  0.5997
 1584SOL    HW215432   5.069   0.052   1.091  2.8024  1.0265  1.4693
 1585SOL     OW15433   7.408   1.171   1.941 -0.4957 -0.1233 -0.4169
 1585SOL    HW115434   7.340   1.241   1.964 -1.0008 -0.7124 -0.0987
 1585SOL    HW215435   7.402   1.151   1.843 -0.5125  0.1014 -0.4644
 1586SOL     OW15436   2.670   1.892   4.133 -0.2088  0.0155  0.4937
 1586SOL    HW115437   2.605   1.947   4.185  0.7602  1.1349  0.5389
 1586SOL    HW215438   2.696   1.941   4.050  1.0953 -0.1190  0.8130
 1587SOL     OW15439   0.228   2.075   1.571  0.0343 -0.5910 -0.3710
 1587SOL    HW115440   0.301   2.137   1.597  2.1048 -2.8309 -0.7021
 1587SOL    HW215441   0.199   2.022   1.651 -0.7064 -0.2614 -0.4133
 1588SOL     OW15442   8.679   5.630   1.659 -0.0956 -0.0850  0.3699
 1588SOL    HW115443   8.729   5.547   1.631 -1.0349 -1.3909  2.4077
 1588SOL    HW215444   8.587   5.627   1.622 -0.1699 -0.0037  0.5507
 1589SOL     OW15445   9.270   3.276   1.839  0.5223 -0.1292  0.2360
 1589SOL    HW115446   9.189   3.234   1.798 -0.1347  0.9083  0.4643
 1589SOL    HW215447   9.280   3.243   1.933  1.7423 -2.1167 -0.5540
 1590SOL     OW15448   0.460   0.940   2.079 -0.6811  0.5834  0.1314
 1590SOL    HW115449   0.434   0.849   2.111  1.4835 -0.5487 -1.1862
 1590SOL    HW215450   0.432   1.009   2.146 -1.3115 -1.1670  1.6945
 1591SOL     OW15451   1.136   0.178   1.142  0.3239  0.4988  0.0047
 1591SOL    HW115452   1.236   0.166   1.146  0.2423  0.0944  1.2846
 1591SOL    HW215453   1.112   0.234   1.063  1.4422 -0.6963 -1.2204
 1592SOL     OW15454   7.911   0.365   5.499 -0.2552  0.3855  0.4736
 1592SOL    HW115455   7.942   0.324   5.585  0.8930  0.1338 -0.0443
 1592SOL    HW215456   7.877   0.293   5.439 -0.4764  0.4885  0.4746
 1593SOL     OW15457   3.136   0.068   3.442 -0.4433 -0.5736 -0.2625
 1593SOL    HW115458   3.039   0.062   3.467 -0.1144 -0.7927  0.9787
 1593SOL    HW215459   3.149   0.144   3.378 -1.1138  0.7541  1.1529
 1594SOL     OW15460   0.811   0.979   0.266  0.3005 -0.2002 -0.3023
 1594SOL    HW115461   0.850   1.068   0.242 -0.5911  0.1324 -0.5276
 1594SOL    HW215462   0.810   0.920   0.185 -0.4967  0.1023 -0.5157
 1595SOL     OW15463   0.780   8.514   1.586  0.1520  0.4598  0.5028
 1595SOL    HW115464   0.794   8.568   1.502  1.4423  3.1463  2.3509
 1595SOL    HW215465   0.858   8.453   1.599 -0.6061 -0.8248 -0.8351
 1596SOL     OW15466   3.879   0.815   3.278  0.1650 -0.0289 -0.4783
 1596SOL    HW115467   3.933   0.850   3.201  0.6972  1.8525  0.7238
 1596SOL    HW215468   3.889   0.715   3.283  1.5242  0.0259 -1.7665
 1597SOL     OW15469   8.423   0.940   3.889  0.3152  0.3439  0.2739
 1597SOL    HW115470   8.410   0.877   3.965  0.2064  1.0229  0.8300
 1597SOL    HW215471   8.438   1.032   3.925 -0.1516  0.7439 -0.5374
 1598SOL     OW15472   1.550   3.121   1.213 -0.1590 -0.5585 -0.4118
 1598SOL    HW115473   1.461   3.081   1.194 -1.3290  1.2838  0.9385
 1598SOL    HW215474   1.558   3.209   1.166  0.8926 -0.6230 -0.3775
 1599SOL     OW15475   6.265   0.823   3.933  0.1684  0.6948 -0.2527
 1599SOL    HW115476   6.195   0.890   3.908 -0.5530 -0.0634 -0.3179
 1599SOL    HW215477   6.220   0.741   3.969  1.0361  0.2509 -0.1726
 1600SOL     OW15478   2.982   1.636   1.786 -0.4931 -0.5155  0.0260
 1600SOL    HW115479   2.990   1.621   1.885 -0.1970  2.2148  0.4630
 1600SOL    HW215480   3.039   1.714   1.760 -4.3033  1.8732 -1.4931
 1601SOL     OW15481   6.881   1.091   2.519  0.4453 -0.1273  0.0387
 1601SOL    HW115482   6.961   1.048   2.476  0.7213  0.6735 -0.2453
 1601SOL    HW215483   6.882   1.189   2.502  0.0577  0.0669  1.0817
 1602SOL     OW15484   3.584   9.954   3.354  0.2679 -0.2808 -0.0569
 1602SOL    HW115485   3.658   9.965   3.420  1.1225 -0.9066 -0.8884
 1602SOL    HW215486   3.509   9.903   3.396  1.1368 -1.3804  0.1995
 1603SOL     OW15487   1.492   6.774   3.737  0.0818  0.7220  0.3634
 1603SOL    HW115488   1.509   6.683   3.773  0.3470  0.9578  0.8487
 1603SOL    HW215489   1.460   6.768   3.643  0.8408  0.1677  0.1378
 1604SOL     OW15490   7.453   6.851   2.233  0.7994 -0.0649 -0.0736
 1604SOL    HW115491   7.432   6.837   2.136  3.4280  2.2627 -1.0694
 1604SOL    HW215492   7.544   6.816   2.253  1.3334  1.7656  0.9058
 1605SOL     OW15493   1.699   7.668   4.131 -0.7170  0.0973  0.1488
 1605SOL    HW115494   1.782   7.663   4.187  1.0554 -0.8263 -2.4730
 1605SOL    HW215495   1.629   7.609   4.172  0.8529 -1.3157  0.8776
 1606SOL     OW15496   1.866   3.781   5.277 -0.2750  0.6117  0.7850
 1606SOL    HW115497   1.922   3.705   5.246 -0.1066 -0.3393  3.2537
 1606SOL    HW215498   1.776   3.776   5.233 -0.3745 -1.2165  1.1342
 1607SOL     OW15499   5.895   9.391   4.501  0.4138 -0.7184 -0.6095
 1607SOL    HW115500   5.911   9.489   4.493  0.7834 -0.5347  2.0311
 1607SOL    HW215501   5.975   9.342   4.466  1.0211 -0.0255 -0.2175
 1608SOL     OW15502   1.408   2.924   4.410 -0.0073  0.2998  0.0856
 1608SOL    HW115503   1.371   2.941   4.318  0.5705  0.3998 -0.1282
 1608SOL    HW215504   1.421   2.825   4.423  0.9151  0.3584 -0.3359
 1609SOL     OW15505   8.107   0.921   2.497  0.2274  0.1343  0.2975
 1609SOL    HW115506   8.158   0.837   2.478  0.3186  0.3665 -0.5411
 1609SOL    HW215507   8.015   0.898   2.527  0.1413 -0.2668 -0.2554
 1610SOL     OW15508   0.642   7.632   4.271  0.3872 -0.8796 -0.6377
 1610SOL    HW115509   0.678   7.630   4.178  0.9104  0.9153 -0.4958
 1610SOL    HW215510   0.608   7.541   4.296 -1.5498 -0.9563 -3.2652
 1611SOL     OW15511   8.852   9.721   5.605 -0.3975  0.0978  0.1310
 1611SOL    HW115512   8.865   9.735   5.507 -1.0959  0.0109  0.0241
 1611SOL    HW215513   8.775   9.776   5.637 -1.9281 -1.9727  0.0793
 1612SOL     OW15514   3.209   3.326   3.034  0.1356 -0.3027  0.0584
 1612SOL    HW115515   3.230   3.298   2.940  0.8791 -3.1871  1.0042
 1612SOL    HW215516   3.294   3.353   3.080  0.3122 -2.0975  0.8439
 1613SOL     OW15517   6.303   0.306   2.244  0.1972 -0.1780  0.3293
 1613SOL    HW115518   6.317   0.235   2.313  2.6886  2.2737  2.4449
 1613SOL    HW215519   6.362   0.288   2.165 -2.1103 -2.5677 -0.9529
 1614SOL     OW15520   1.845   6.908   2.880 -0.1860  0.0541  0.2108
 1614SOL    HW115521   1.799   6.951   2.802 -2.1386  1.0203  1.8555
 1614SOL    HW215522   1.815   6.813   2.888  1.6826 -0.7252 -1.4820
 1615SOL     OW15523   1.909   5.406   1.520  0.0899  0.4722  0.2428
 1615SOL    HW115524   1.879   5.348   1.444 -0.8180 -1.2870  1.8803
 1615SOL    HW215525   1.899   5.355   1.606  2.3985  1.9158  1.4086
 1616SOL     OW15526   0.530   7.238   2.379 -0.1499  0.3060  1.1139
 1616SOL    HW115527   0.435   7.235   2.349  0.5969 -0.8211 -1.2111
 1616SOL    HW215528   0.552   7.330   2.412 -1.9610  0.6268  1.4601
 1617SOL     OW15529   3.600   0.220   0.272 -0.7493 -0.8309 -0.1499
 1617SOL    HW115530   3.686   0.257   0.238 -0.7675  1.2576  1.9306
 1617SOL    HW215531   3.587   0.127   0.237  1.7231 -0.7093 -1.4831
 1618SOL     OW15532   1.470   8.445   3.453  0.7183  0.5017  0.5621
 1618SOL    HW115533   1.547   8.494   3.413  0.3557  1.3352  0.8764
 1618SOL    HW215534   1.503   8.386   3.526  1.1222  0.4857  0.3674
 1619SOL     OW15535   2.849   5.677   2.272 -0.0688 -0.3636 -0.6383
 1619SOL    HW115536   2.819   5.745   2.206 -0.4046  0.9066  0.8024
 1619SOL    HW215537   2.849   5.716   2.364  0.5775 -2.0388  0.1113
 1620SOL     OW15538   1.640   2.974   0.209  0.7862  0.4978 -0.0178
 1620SOL    HW115539   1.678   2.990   0.300  1.1252 -0.1181 -0.0509
 1620SOL    HW215540   1.642   2.876   0.189 -0.7446  0.4603 -0.0508
 1621SOL     OW15541   8.330   8.691   1.771 -0.0331  0.2090 -0.2570
 1621SOL    HW115542   8.375   8.608   1.804  0.1491  0.1160 -0.7385
 1621SOL    HW215543   8.231   8.678   1.772 -0.0632  0.4669  0.9578
 1622SOL     OW15544   0.106   3.360   3.478  0.4347  0.2160  0.1854
 1622SOL    HW115545   0.060   3.273   3.497 -1.6937  1.3696  0.4914
 1622SOL    HW215546   0.205   3.347   3.485  0.1729 -2.2100  0.0749
 1623SOL     OW15547   6.467   0.165   1.064  0.2529  0.1472 -0.4773
 1623SOL    HW115548   6.509   0.164   0.974 -1.7033 -0.3326 -1.4096
 1623SOL    HW215549   6.368   0.149   1.056  0.2901 -1.5910  1.8720
 1624SOL     OW15550   7.979   9.092   4.632 -0.4079  0.2530 -0.5736
 1624SOL    HW115551   8.037   9.027   4.681  1.8781  1.8444 -1.0757
 1624SOL    HW215552   7.964   9.059   4.538 -1.4734 -0.8468 -0.0182
 1625SOL     OW15553   4.231   2.466   4.850 -0.1450 -0.4582 -0.0128
 1625SOL    HW115554   4.231   2.388   4.912 -1.4673  0.0771  0.6804
 1625SOL    HW215555   4.146   2.467   4.797  0.9804 -0.9265 -1.8628
 1626SOL     OW15556   6.809   9.248   3.901 -0.3158  0.8892 -0.0557
 1626SOL    HW115557   6.732   9.274   3.961 -2.0775  1.2633 -2.4111
 1626SOL    HW215558   6.796   9.153   3.871  0.7758  0.5758  0.4422
 1627SOL     OW15559   3.923   2.437   0.808 -0.0618  0.3583  0.5041
 1627SOL    HW115560   3.981   2.406   0.733 -1.9464 -0.7218 -0.5421
 1627SOL    HW215561   3.962   2.407   0.895  0.2105 -1.5593 -0.2620
 1628SOL     OW15562   7.558   8.479   3.678 -0.7163  0.6952 -0.0989
 1628SOL    HW115563   7.512   8.406   3.627  0.0674  0.4513 -0.4570
 1628SOL    HW215564   7.523   8.568   3.646  0.0408  0.5563 -1.3396
 1629SOL     OW15565   5.637   0.171   3.859 -0.3455  0.2317  0.2800
 1629SOL    HW115566   5.676   0.105   3.795 -2.4179 -1.8839  1.0973
 1629SOL    HW215567   5.576   0.233   3.809 -1.2279 -0.8204  0.0056
 1630SOL     OW15568   0.834   5.186   2.778  0.0260  0.2536  0.2406
 1630SOL    HW115569   0.798   5.102   2.818 -0.3787  0.8967  1.2323
 1630SOL    HW215570   0.934   5.181   2.774  0.0027 -0.2705  0.3088
 1631SOL     OW15571   2.084   8.659   1.032 -0.5864 -0.2437  0.7006
 1631SOL    HW115572   2.020   8.596   0.987 -1.1348 -0.6670  2.0545
 1631SOL    HW215573   2.033   8.726   1.086 -0.0780  2.0380 -1.4913
 1632SOL     OW15574   1.651   5.030   0.768 -0.0201  0.2847  0.3161
 1632SOL    HW115575   1.658   4.963   0.695  1.1190  2.6957 -1.8810
 1632SOL    HW215576   1.736   5.030   0.822  1.3384  2.1231 -1.7122
 1633SOL     OW15577   1.116   7.760   3.998 -0.0137 -0.2146 -0.1886
 1633SOL    HW115578   1.082   7.832   4.057  1.2842  0.6678 -0.4734
 1633SOL    HW215579   1.058   7.752   3.917 -0.0308  0.6930 -0.2699
 1634SOL     OW15580   1.724   7.211   0.247 -0.1476 -0.2267 -0.3838
 1634SOL    HW115581   1.738   7.166   0.335 -1.4166  0.0249 -0.0427
 1634SOL    HW215582   1.683   7.147   0.183 -1.6903  0.3494  0.0167
 1635SOL     OW15583   1.545   3.530   4.262  0.3581 -0.0277  0.4392
 1635SOL    HW115584   1.630   3.477   4.260  0.3380 -0.0269 -1.9986
 1635SOL    HW215585   1.556   3.608   4.323  1.5697 -0.8881  1.3650
 1636SOL     OW15586   1.466   2.715   0.530 -0.1422  0.1262 -0.0855
 1636SOL    HW115587   1.492   2.679   0.619 -1.4752  0.6562  0.5340
 1636SOL    HW215588   1.474   2.643   0.461 -0.4829 -0.7002  0.7252
 1637SOL     OW15589   5.217   8.596   1.643 -0.2488 -0.0499 -0.5344
 1637SOL    HW115590   5.280   8.646   1.584  1.4514  0.5617  1.7358
 1637SOL    HW215591   5.133   8.577   1.593  0.3388  2.2257 -2.4888
 1638SOL     OW15592   7.667   3.261   2.631 -0.4975 -0.1508  0.1805
 1638SOL    HW115593   7.692   3.356   2.646 -1.3661 -0.2205  2.1863
 1638SOL    HW215594   7.749   3.204   2.628 -0.0711  0.4396  0.6408
 1639SOL     OW15595   9.233   0.987   1.547 -0.2079  0.3694 -0.1774
 1639SOL    HW115596   9.189   0.944   1.626  1.5568  0.5559  0.9161
 1639SOL    HW215597   9.165   1.039   1.496 -1.8767 -1.7159 -0.1576
 1640SOL     OW15598   2.791   8.397   2.599  0.6772 -0.3466 -0.1833
 1640SOL    HW115599   2.853   8.420   2.674 -0.5044  2.9365 -0.1168
 1640SOL    HW215600   2.839   8.405   2.512  0.8097  0.4796 -0.0363
 1641SOL     OW15601   1.135   0.033   4.431  0.1835 -0.1566  0.0627
 1641SOL    HW115602   1.104   0.009   4.523  0.3044 -1.5615 -0.2585
 1641SOL    HW215603   1.230   0.004   4.420  0.7717  1.6618  0.1055
 1642SOL     OW15604   9.230   0.566   2.303 -0.3247  0.1320  0.2386
 1642SOL    HW115605   9.147   0.583   2.251 -0.2667  1.3837  0.5371
 1642SOL    HW215606   9.208   0.522   2.390 -0.6074 -0.1745  0.0088
 1643SOL     OW15607   8.555   9.373   0.288  0.2667 -0.0375  0.1724
 1643SOL    HW115608   8.521   9.310   0.358 -2.8602  0.3485 -0.9007
 1643SOL    HW215609   8.525   9.466   0.309  1.0616  0.3990 -0.5839
 1644SOL     OW15610   3.305   0.679   5.390 -0.2336 -0.1449  0.0444
 1644SOL    HW115611   3.237   0.745   5.359 -0.4202  0.2313  1.2646
 1644SOL    HW215612   3.378   0.726   5.439  0.6518 -0.6119 -0.7999
 1645SOL     OW15613   0.877   0.425   4.087  0.7182  0.2218 -0.6166
 1645SOL    HW115614   0.836   0.482   4.016 -0.2816  0.6802  0.3086
 1645SOL    HW215615   0.964   0.388   4.055 -0.0769 -0.1697 -2.3438
 1646SOL     OW15616   2.480   6.766   3.704 -0.6680 -0.3399 -0.2181
 1646SOL    HW115617   2.520   6.769   3.613 -0.1557 -0.2663  0.0060
 1646SOL    HW215618   2.486   6.857   3.746  0.1825 -0.6480  0.3478
 1647SOL     OW15619   0.720   6.648   2.971 -0.2511 -0.4662 -0.3118
 1647SOL    HW115620   0.748   6.578   2.906 -0.3878  0.7836 -1.7436
 1647SOL    HW215621   0.633   6.623   3.013  0.5456 -1.9754  0.4877
 1648SOL     OW15622   1.502   3.990   1.913 -0.2118  0.2655  0.0502
 1648SOL    HW115623   1.439   3.988   1.835 -0.5922 -2.1029  0.3867
 1648SOL    HW215624   1.596   3.995   1.879 -0.4934  2.2177 -0.4875
 1649SOL     OW15625   9.498   7.370   3.204  0.2229 -0.0302 -0.3384
 1649SOL    HW115626   9.429   7.336   3.140 -1.1020 -0.7212  1.4288
 1649SOL    HW215627   9.511   7.468   3.189 -0.4247 -0.0939 -1.3485
 1650SOL     OW15628   8.629   1.889   0.505  0.1391  0.0963 -0.7841
 1650SOL    HW115629   8.683   1.941   0.438  0.3106  1.3723  0.3173
 1650SOL    HW215630   8.618   1.943   0.588 -0.1713 -1.4318  0.1888
 1651SOL     OW15631   0.552   9.604   4.669  0.1056  0.3036  0.3100
 1651SOL    HW115632   0.552   9.699   4.638  1.4377 -0.2316 -1.3544
 1651SOL    HW215633   0.515   9.545   4.597  1.7809 -0.7612  0.3122
 1652SOL     OW15634   3.358   4.993   0.279  0.0877 -0.2269  0.3899
 1652SOL    HW115635   3.402   5.048   0.208  1.4930 -1.9059 -0.0802
 1652SOL    HW215636   3.422   4.978   0.355 -0.5485 -0.5311  0.8708
 1653SOL     OW15637   3.594   1.271   1.703 -0.0192  0.2090 -0.4747
 1653SOL    HW115638   3.565   1.357   1.661  1.1988  0.5549 -0.6356
 1653SOL    HW215639   3.694   1.270   1.712 -0.0551 -0.9949 -0.0530
 1654SOL     OW15640   3.113   4.458   2.818 -0.4483  0.4046 -0.1837
 1654SOL    HW115641   3.089   4.531   2.754 -0.1447  1.5194  0.9480
 1654SOL    HW215642   3.208   4.430   2.803 -0.7837 -0.2528 -1.0894
 1655SOL     OW15643   3.574   0.976   4.166  0.1851 -0.4427 -0.4905
 1655SOL    HW115644   3.596   1.056   4.110  0.2721  0.2694  0.5481
 1655SOL    HW215645   3.651   0.955   4.226  0.1427 -1.2800 -0.7232
 1656SOL     OW15646   9.586   7.108   2.593  0.0843 -0.1835  0.3070
 1656SOL    HW115647   9.508   7.054   2.564  0.9812 -1.9230  1.0560
 1656SOL    HW215648   9.565   7.154   2.680  0.0116 -0.9306  0.6866
 1657SOL     OW15649   9.997   3.227   3.031  0.1663  0.0911 -0.0951
 1657SOL    HW115650   9.976   3.214   2.934  0.7635  3.6727 -0.7510
 1657SOL    HW215651   9.915   3.257   3.079  0.9829  2.9857 -0.4542
 1658SOL     OW15652   1.027   0.261   4.292 -0.8573 -0.8601  0.1465
 1658SOL    HW115653   0.929   0.281   4.293 -1.3066 -2.8969 -0.1660
 1658SOL    HW215654   1.048   0.193   4.363  0.2445 -0.7290 -0.0531
 1659SOL     OW15655   4.028   4.075   4.903 -0.1235 -0.7855 -0.0030
 1659SOL    HW115656   3.979   3.993   4.875 -0.6840  0.0966 -1.6616
 1659SOL    HW215657   3.987   4.155   4.860 -0.5565  0.5652  2.7984
 1660SOL     OW15658   2.242   9.167   2.200  0.0615 -0.2145  1.2441
 1660SOL    HW115659   2.246   9.069   2.179  0.9160 -0.0119  0.4091
 1660SOL    HW215660   2.208   9.217   2.121  0.1742  0.2180  1.4656
 1661SOL     OW15661   2.978   2.935   1.437 -0.5336 -0.5771  0.2645
 1661SOL    HW115662   2.977   2.971   1.344  0.1929 -0.0041  0.4739
 1661SOL    HW215663   3.067   2.953   1.479 -1.0934 -0.2131  1.3128
 1662SOL     OW15664   1.345   3.692   3.606 -0.2734 -0.7021 -0.9984
 1662SOL    HW115665   1.411   3.636   3.656 -1.1556  0.2857  1.3537
 1662SOL    HW215666   1.258   3.644   3.600 -0.6785 -0.1116 -0.0259
 1663SOL     OW15667   3.342   9.868   0.889 -0.3435  0.6222 -0.0900
 1663SOL    HW115668   3.345   9.774   0.924 -1.2767  1.3121  1.9372
 1663SOL    HW215669   3.433   9.909   0.896  0.1776 -0.2732 -1.4389
 1664SOL     OW15670   0.820   3.645   1.817 -0.3020  0.1239  0.1943
 1664SOL    HW115671   0.784   3.699   1.742 -0.8671 -1.2289 -0.5220
 1664SOL    HW215672   0.905   3.686   1.850 -0.8724  1.5998 -0.1295
 1665SOL     OW15673   4.514   1.507   3.719 -0.0658 -0.6020  0.4607
 1665SOL    HW115674   4.470   1.591   3.753 -1.6198 -1.1971 -0.0507
 1665SOL    HW215675   4.444   1.440   3.695  1.0928 -1.0316 -1.7924
 1666SOL     OW15676   2.862   9.482   2.218 -0.0307 -0.0052 -0.8608
 1666SOL    HW115677   2.848   9.444   2.127 -1.0736  1.0597 -1.1680
 1666SOL    HW215678   2.947   9.447   2.257  1.7081  1.4148 -3.2387
 1667SOL     OW15679   4.884   6.844   3.118  0.2193  0.2372 -0.0396
 1667SOL    HW115680   4.944   6.773   3.083  0.8360  0.5409  0.3809
 1667SOL    HW215681   4.914   6.871   3.210 -0.6336  0.3050  0.2272
 1668SOL     OW15682   0.858   8.840   0.897  0.1498  0.1383 -0.2823
 1668SOL    HW115683   0.890   8.894   0.820  2.2222  0.7326  0.9488
 1668SOL    HW215684   0.899   8.749   0.894 -0.1932 -0.0242 -0.1617
 1669SOL     OW15685   9.976   8.159   1.157 -0.0226  0.0032 -0.1995
 1669SOL    HW115686  10.051   8.175   1.221 -0.1015  1.8294 -0.5323
 1669SOL    HW215687   9.943   8.247   1.121 -3.2166 -0.6725  0.9324
 1670SOL     OW15688   3.985   2.411   1.875  0.4110  0.6811 -0.3393
 1670SOL    HW115689   4.019   2.412   1.969  1.2343  0.3040 -0.6288
 1670SOL    HW215690   4.052   2.454   1.815 -0.0219  0.7373 -0.7830
 1671SOL     OW15691   1.577   7.682   0.275  1.1320 -0.3600  0.0795
 1671SOL    HW115692   1.609   7.771   0.309  0.7914 -0.1539 -0.1432
 1671SOL    HW215693   1.587   7.614   0.348  1.5307 -0.1734  0.2055
 1672SOL     OW15694   1.193   8.252   2.169  0.3054 -0.0434 -0.0600
 1672SOL    HW115695   1.156   8.199   2.246 -0.3136  2.1327  1.1818
 1672SOL    HW215696   1.288   8.278   2.189  0.2365  0.2805 -0.1557
 1673SOL     OW15697   8.883   7.504   3.850  0.0325 -0.2241 -0.3992
 1673SOL    HW115698   8.791   7.532   3.877  0.3027 -0.5626  0.9217
 1673SOL    HW215699   8.881   7.410   3.815  0.3647 -1.4486  2.7368
 1674SOL     OW15700   4.683   0.014   4.550  0.1954  0.1633  0.3133
 1674SOL    HW115701   4.611   0.080   4.574  0.8173  1.8408 -2.2679
 1674SOL    HW215702   4.773   0.056   4.563  0.6966 -1.3085  1.7794
 1675SOL     OW15703   4.262   1.581   1.875 -0.4912  0.6056 -0.2955
 1675SOL    HW115704   4.243   1.638   1.796  0.0903  2.6178  0.9780
 1675SOL    HW215705   4.337   1.621   1.928 -1.9554  0.2419  2.1680
 1676SOL     OW15706   7.357   0.863   2.954  0.0009 -0.9541  0.4479
 1676SOL    HW115707   7.281   0.916   2.916  0.9977 -0.3626 -0.7492
 1676SOL    HW215708   7.365   0.883   3.052 -1.7056 -1.4185  0.6992
 1677SOL     OW15709   4.431   0.913   0.680  0.1401 -0.6963 -0.3999
 1677SOL    HW115710   4.492   0.931   0.602 -0.8422 -1.1777 -1.3067
 1677SOL    HW215711   4.423   0.995   0.736  2.4993 -0.9504  0.3729
 1678SOL     OW15712   0.697   7.478   0.549 -0.5234 -0.6513  0.0428
 1678SOL    HW115713   0.628   7.531   0.598 -0.9595 -2.2533  1.2218
 1678SOL    HW215714   0.774   7.537   0.525 -2.1597  1.1020 -1.0593
 1679SOL     OW15715   8.032   1.499   3.675  0.2479 -0.0552  0.4819
 1679SOL    HW115716   7.934   1.521   3.670  0.4001  0.3664 -0.8307
 1679SOL    HW215717   8.080   1.541   3.598  1.2754 -1.2368  0.4596
 1680SOL     OW15718   3.580   1.964   1.004 -0.5380  0.3320  0.9670
 1680SOL    HW115719   3.621   2.029   1.069 -1.5591  0.5042  1.4546
 1680SOL    HW215720   3.636   1.960   0.921  0.4243  0.6055  1.5889
 1681SOL     OW15721   4.279   6.595   2.430  0.3231 -0.0159 -0.1853
 1681SOL    HW115722   4.200   6.646   2.396 -1.1652 -1.4531  1.0453
 1681SOL    HW215723   4.264   6.570   2.525  2.0309 -0.7940 -0.1082
 1682SOL     OW15724   7.800   9.072   3.510  0.3070  0.7022 -0.2425
 1682SOL    HW115725   7.734   8.997   3.507  2.4847 -1.3113  0.1842
 1682SOL    HW215726   7.789   9.130   3.430 -1.4044 -0.0910 -0.5951
 1683SOL     OW15727   8.650   0.392   0.529  0.0435  0.5857  0.2964
 1683SOL    HW115728   8.584   0.366   0.459 -1.2547 -2.2045  2.4491
 1683SOL    HW215729   8.743   0.379   0.495 -0.4864  2.7720 -2.1113
 1684SOL     OW15730   8.302   8.770   4.972  0.4157 -0.0233  0.1180
 1684SOL    HW115731   8.277   8.770   5.069 -0.3016 -0.5900 -0.0627
 1684SOL    HW215732   8.395   8.733   4.962  0.2226 -0.6275  0.5243
 1685SOL     OW15733   0.393   3.495   3.205 -0.0583  0.5849 -0.4002
 1685SOL    HW115734   0.342   3.580   3.218 -2.3010 -0.8847  0.8123
 1685SOL    HW215735   0.376   3.459   3.113  0.3358  1.0808 -0.6687
 1686SOL     OW15736   3.637   2.624   0.992 -0.3387  0.6043  0.2477
 1686SOL    HW115737   3.715   2.604   0.933 -0.8042  0.2215 -0.2381
 1686SOL    HW215738   3.617   2.722   0.988 -0.0220  0.6688  0.2047
 1687SOL     OW15739   8.763   9.884   3.702  0.0243 -1.0170 -0.0600
 1687SOL    HW115740   8.756   9.917   3.608  3.4207  0.5669  0.1835
 1687SOL    HW215741   8.709   9.944   3.762 -1.6325 -1.6594 -0.8721
 1688SOL     OW15742   2.361   6.249   2.998 -0.1395 -0.2795 -0.3249
 1688SOL    HW115743   2.370   6.231   2.901  1.4416 -0.4035 -0.1711
 1688SOL    HW215744   2.450   6.235   3.043 -1.4541 -2.9198  1.5808
 1689SOL     OW15745   2.568   2.086   3.177 -0.3517  0.0013 -0.3487
 1689SOL    HW115746   2.550   1.999   3.222 -3.0744  0.5194 -0.3476
 1689SOL    HW215747   2.568   2.073   3.078  0.7940 -0.2633 -0.3206
 1690SOL     OW15748   1.641   1.415   4.921  0.0748 -0.7682  0.0653
 1690SOL    HW115749   1.658   1.401   4.823  0.6825 -1.4231  0.2692
 1690SOL    HW215750   1.590   1.337   4.958  0.8507 -1.0629  0.5262
 1691SOL     OW15751   3.959   9.730   5.323 -0.5771 -0.1055 -0.4215
 1691SOL    HW115752   3.963   9.748   5.421 -0.4920  0.1502 -0.4713
 1691SOL    HW215753   3.930   9.636   5.307 -0.1375 -0.2885 -0.1423
 1692SOL     OW15754   8.893   0.985   4.860 -0.5015  0.0576  0.2176
 1692SOL    HW115755   8.844   0.902   4.884 -1.4970  0.5408 -0.0921
 1692SOL    HW215756   8.865   1.014   4.768  2.3444 -1.1188 -1.0496
 1693SOL     OW15757   9.605   0.224   1.104 -0.5436  0.3416 -0.0235
 1693SOL    HW115758   9.596   0.324   1.102  0.7939  0.4778  0.0747
 1693SOL    HW215759   9.606   0.189   1.011  0.8570  0.6208 -0.1320
 1694SOL     OW15760   9.520   4.441   1.978 -0.2288  0.0268  0.2935
 1694SOL    HW115761   9.603   4.496   1.988  0.8829 -1.4648 -0.6010
 1694SOL    HW215762   9.497   4.432   1.881 -2.4136  1.8248  0.5931
 1695SOL     OW15763   0.281   7.397   2.452 -0.8320 -0.6815 -0.0032
 1695SOL    HW115764   0.252   7.345   2.372 -1.7719 -2.1975  1.2793
 1695SOL    HW215765   0.251   7.349   2.535  1.8895 -0.2214  1.3004
 1696SOL     OW15766   3.719   9.609   2.680  0.3934 -0.3575  0.6022
 1696SOL    HW115767   3.662   9.683   2.716  1.7574  0.0668  1.9678
 1696SOL    HW215768   3.775   9.571   2.754  1.6241 -0.9931 -0.6180
 1697SOL     OW15769   5.978   7.971   3.306 -0.6018  0.3057  0.7160
 1697SOL    HW115770   6.030   7.953   3.390 -1.3243  0.1118  1.1265
 1697SOL    HW215771   5.881   7.951   3.322 -0.7576  0.3592 -0.1378
 1698SOL     OW15772   0.776   0.944   4.479  0.4664 -0.1131  0.3409
 1698SOL    HW115773   0.761   0.855   4.437 -2.5040  0.3179  0.4306
 1698SOL    HW215774   0.768   1.016   4.409  1.5253  0.2057  0.5290
 1699SOL     OW15775   0.866   7.097   5.045  0.2439 -0.4606 -0.2829
 1699SOL    HW115776   0.903   7.017   5.091  2.6424 -0.6190 -2.4146
 1699SOL    HW215777   0.941   7.155   5.013 -1.4343  1.6852 -0.4319
 1700SOL     OW15778   1.465   5.283   1.505 -0.2106  0.2650 -0.7398
 1700SOL    HW115779   1.457   5.291   1.604  0.3807 -2.1120 -0.4609
 1700SOL    HW215780   1.380   5.244   1.468 -1.5778  3.8528 -1.5640
 1701SOL     OW15781   4.243   1.207   3.363  0.0604 -0.3387  0.3188
 1701SOL    HW115782   4.145   1.229   3.360  0.3649  1.0440  0.4855
 1701SOL    HW215783   4.254   1.109   3.383 -1.3081 -0.8273 -1.1688
 1702SOL     OW15784   3.574   9.397   4.171 -0.4369 -0.5047  0.2948
 1702SOL    HW115785   3.515   9.372   4.094 -0.4875  1.1209 -0.2201
 1702SOL    HW215786   3.667   9.414   4.137 -0.4124  0.0190  0.6278
 1703SOL     OW15787   8.657   8.517   2.822  0.0298  0.1904 -0.5570
 1703SOL    HW115788   8.677   8.551   2.915 -0.2078  0.8356 -0.7397
 1703SOL    HW215789   8.733   8.460   2.791  1.1297  1.7518 -0.8185
 1704SOL     OW15790   9.012   9.161   4.290 -0.2001  0.2388  0.3810
 1704SOL    HW115791   9.099   9.158   4.240  0.7573  0.4076  1.9861
 1704SOL    HW215792   8.948   9.097   4.248  1.0345 -0.6237 -0.2416
 1705SOL     OW15793   4.511   9.433   4.835 -0.7049 -0.0692  0.2115
 1705SOL    HW115794   4.609   9.432   4.816 -1.0868 -0.8645 -1.8493
 1705SOL    HW215795   4.492   9.374   4.914  0.4063 -0.2878  0.3245
 1706SOL     OW15796   2.243   7.304   1.075  0.5527 -0.0950 -0.1464
 1706SOL    HW115797   2.294   7.264   1.151 -0.4271  0.5214  0.8529
 1706SOL    HW215798   2.153   7.260   1.068 -0.2652  1.4214  0.5344
 1707SOL     OW15799   7.355   8.664   3.647 -0.2140 -0.5406  0.6305
 1707SOL    HW115800   7.332   8.607   3.725 -0.2590  0.6595  1.4978
 1707SOL    HW215801   7.288   8.650   3.574  0.0845 -1.9993  0.6147
 1708SOL     OW15802   1.252   9.365   1.627 -0.2937 -0.1232 -0.0455
 1708SOL    HW115803   1.168   9.311   1.630 -0.8166  0.5726 -1.7047
 1708SOL    HW215804   1.233   9.458   1.660 -0.0299 -0.1438  0.1647
 1709SOL     OW15805   0.074   8.910   0.612 -0.1002 -0.1363  0.3335
 1709SOL    HW115806   0.165   8.872   0.630  0.6859  1.4351 -0.2256
 1709SOL    HW215807   0.071   8.947   0.520 -1.1052  0.4156  0.5791
 1710SOL     OW15808   0.782   6.983   3.042 -0.2267 -0.4400 -0.2797
 1710SOL    HW115809   0.806   6.969   3.138  0.0181 -1.1143 -0.4355
 1710SOL    HW215810   0.686   6.958   3.027 -1.1927  2.7149  0.4432
 1711SOL     OW15811   8.189   0.780   4.158 -0.0531 -0.0714  0.3945
 1711SOL    HW115812   8.151   0.870   4.133 -0.2733 -0.2899 -0.0648
 1711SOL    HW215813   8.188   0.720   4.078  0.2969 -0.4158  0.6468
 1712SOL     OW15814   6.809   0.366   3.778  1.0853  0.0052 -1.0149
 1712SOL    HW115815   6.871   0.317   3.838  0.2791 -0.3666 -0.4729
 1712SOL    HW215816   6.827   0.464   3.783  0.6246  0.0255  0.2838
 1713SOL     OW15817   8.680   1.783   2.695 -0.1617  0.2651  0.3277
 1713SOL    HW115818   8.710   1.747   2.606  2.4388  0.6404  1.0134
 1713SOL    HW215819   8.661   1.707   2.757  2.5785  0.0019  0.8905
 1714SOL     OW15820   8.326   7.647   3.851  0.5186  0.4316 -0.1279
 1714SOL    HW115821   8.236   7.606   3.865  0.8706 -0.2029  0.3634
 1714SOL    HW215822   8.324   7.709   3.773 -1.4600  3.8024  2.4542
 1715SOL     OW15823   2.008   4.797   0.520 -0.2646 -0.6771  0.3097
 1715SOL    HW115824   2.041   4.890   0.539  0.9738 -1.1193  0.3030
 1715SOL    HW215825   2.009   4.781   0.422 -0.2613 -0.7885  0.3284
 1716SOL     OW15826   5.732   0.816   3.120 -0.8798  0.3516 -0.0451
 1716SOL    HW115827   5.645   0.845   3.080 -0.7553 -0.3607 -0.8370
 1716SOL    HW215828   5.808   0.853   3.067 -0.6896  0.9706  0.6457
 1717SOL     OW15829   3.348   6.637   2.565 -0.2533 -0.0564 -0.6905
 1717SOL    HW115830   3.376   6.676   2.653  1.6230  0.1937 -1.3821
 1717SOL    HW215831   3.373   6.541   2.561 -1.1194 -0.2915 -0.6305
 1718SOL     OW15832   5.173   0.106   4.080  0.5866  0.1484  0.0772
 1718SOL    HW115833   5.187   0.009   4.062 -2.2071  0.0759 -1.9726
 1718SOL    HW215834   5.261   0.148   4.105  2.2667 -2.4071 -1.3041
 1719SOL     OW15835   5.034   8.128   3.072 -0.0458 -0.2419 -0.0901
 1719SOL    HW115836   5.114   8.137   3.131 -0.2841 -0.5648  0.2773
 1719SOL    HW215837   4.965   8.072   3.116  0.3738 -1.7389 -1.2885
 1720SOL     OW15838   3.701   4.736   2.001 -0.1237 -0.1403 -0.7090
 1720SOL    HW115839   3.660   4.657   2.047 -0.1726  0.3824  0.1530
 1720SOL    HW215840   3.668   4.820   2.044  0.7426  0.3203 -0.9397
 1721SOL     OW15841   5.562   9.807   1.811  0.2691  0.2755 -0.2466
 1721SOL    HW115842   5.568   9.900   1.775 -1.1026  1.3583  2.2197
 1721SOL    HW215843   5.499   9.754   1.756 -0.5240  1.4264 -0.4717
 1722SOL     OW15844   0.734   2.365   0.769 -0.4006  0.0490 -0.1722
 1722SOL    HW115845   0.781   2.449   0.794 -2.5177  1.4458 -0.7763
 1722SOL    HW215846   0.798   2.288   0.774  1.8650  1.8524 -0.8136
 1723SOL     OW15847   8.027   9.211   3.533 -0.3606 -0.4430 -0.4156
 1723SOL    HW115848   8.030   9.217   3.633  2.4658 -2.4147 -0.3426
 1723SOL    HW215849   7.934   9.186   3.504 -1.5145  1.2615  1.5841
 1724SOL     OW15850   8.428   2.470   0.582  0.3760  0.2100  0.6704
 1724SOL    HW115851   8.413   2.374   0.558  0.2190  0.2941  0.4290
 1724SOL    HW215852   8.341   2.511   0.608  0.2550  0.5802 -0.2963
 1725SOL     OW15853   3.298   3.961   1.005  0.8180 -0.2250  0.0619
 1725SOL    HW115854   3.328   4.049   1.042 -1.2313  0.2404  0.7150
 1725SOL    HW215855   3.250   3.977   0.919 -1.3346 -0.4507  1.1848
 1726SOL     OW15856   1.063   2.870   1.063  0.0862  0.5948  0.0911
 1726SOL    HW115857   1.014   2.788   1.035 -0.6273  0.6945  1.0177
 1726SOL    HW215858   1.010   2.918   1.133  0.4125  1.9280 -0.5555
 1727SOL     OW15859   0.104   8.693   5.248 -0.0706 -0.7100  0.2105
 1727SOL    HW115860   0.043   8.730   5.318 -0.2352 -2.1944  0.8667
 1727SOL    HW215861   0.078   8.730   5.158  2.2549  3.9241  1.2639
 1728SOL     OW15862   6.832   0.827   4.036  0.0479 -0.1175 -0.3655
 1728SOL    HW115863   6.917   0.788   4.001  0.4518 -0.1041  0.5808
 1728SOL    HW215864   6.828   0.814   4.136 -0.7122  0.5468 -0.3052
 1729SOL     OW15865   1.452   1.568   0.311 -0.7658  0.0901  0.5219
 1729SOL    HW115866   1.372   1.600   0.261 -1.3062 -0.2487  1.1517
 1729SOL    HW215867   1.423   1.504   0.383  0.0691 -0.0476  0.7452
 1730SOL     OW15868   1.793   1.776   1.975 -0.3805 -0.2433  0.1443
 1730SOL    HW115869   1.745   1.821   1.899 -2.0218 -0.9308  0.7541
 1730SOL    HW215870   1.806   1.679   1.953  1.9014  0.1791 -0.5589
 1731SOL     OW15871   5.809   9.594   2.861 -0.7030  0.0395  0.2349
 1731SOL    HW115872   5.720   9.570   2.822 -0.7342 -1.3186  1.1298
 1731SOL    HW215873   5.796   9.631   2.953 -0.2159 -1.9478  1.1267
 1732SOL     OW15874   3.241   8.328   0.664  0.4330 -0.7432 -0.3186
 1732SOL    HW115875   3.144   8.349   0.664  0.6125  0.1439  1.4524
 1732SOL    HW215876   3.254   8.229   0.676 -0.2198 -0.6282  1.4104
 1733SOL     OW15877   3.152   6.955   2.257  0.0886 -0.0255  1.0769
 1733SOL    HW115878   3.052   6.946   2.257  0.2416 -2.1446  3.1940
 1733SOL    HW215879   3.193   6.883   2.201  0.4472  0.9887  0.0097
 1734SOL     OW15880   0.107   8.399   3.014  0.2705 -0.4886  0.1650
 1734SOL    HW115881   0.009   8.379   3.018 -0.2427  1.4940 -1.6654
 1734SOL    HW215882   0.132   8.459   3.090 -0.3499  0.5891 -0.4676
 1735SOL     OW15883   1.095   0.877   1.429 -0.6123  0.5208 -0.0648
 1735SOL    HW115884   1.114   0.942   1.502  0.4965 -0.5221  0.5752
 1735SOL    HW215885   1.005   0.836   1.443 -0.3184  0.1812  0.8123
 1736SOL     OW15886   0.100   1.411   2.612 -0.2425 -0.1203 -0.2524
 1736SOL    HW115887   0.194   1.400   2.578 -0.2904 -0.0575 -0.4031
 1736SOL    HW215888   0.076   1.331   2.667  0.1544  0.1924  0.3888
 1737SOL     OW15889   2.952   2.261   5.541  0.3108  0.6463 -0.4483
 1737SOL    HW115890   2.982   2.182   5.595 -2.9830 -0.7945 -0.5979
 1737SOL    HW215891   2.923   2.230   5.451  0.4270  2.2607 -1.0551
 1738SOL     OW15892   9.957   6.926   3.601  0.2663  0.1590  0.1014
 1738SOL    HW115893   9.982   7.023   3.604 -0.3557  0.3035  0.8436
 1738SOL    HW215894  10.018   6.878   3.538 -0.9186  1.4764 -2.1373
 1739SOL     OW15895   0.647   3.258   1.941  0.3144  0.2805 -0.0793
 1739SOL    HW115896   0.565   3.202   1.953 -0.9371  1.7297 -1.6026
 1739SOL    HW215897   0.724   3.200   1.915  0.1583 -1.2896  2.8554
 1740SOL     OW15898   0.841   8.882   2.441 -0.2669  0.0338  0.0586
 1740SOL    HW115899   0.873   8.823   2.515 -0.2099 -0.3455 -0.2687
 1740SOL    HW215900   0.809   8.969   2.479 -0.9444 -0.4471  0.6073
 1741SOL     OW15901   9.953   8.605   4.388 -0.3555 -0.4258 -0.1871
 1741SOL    HW115902   9.865   8.648   4.367 -0.8725 -1.8428 -1.0713
 1741SOL    HW215903   9.936   8.520   4.439  0.4306 -1.1727 -1.1407
 1742SOL     OW15904   4.637   9.123   1.797 -0.5876 -0.6057  0.2123
 1742SOL    HW115905   4.706   9.162   1.737  0.1958 -0.4640  1.2055
 1742SOL    HW215906   4.649   9.024   1.803 -1.8004 -0.8679 -1.3086
 1743SOL     OW15907   7.914   3.150   1.587  0.1465 -0.2705 -0.1171
 1743SOL    HW115908   7.841   3.093   1.625  0.9755 -1.3916 -0.1841
 1743SOL    HW215909   7.874   3.218   1.525 -0.9120 -0.3859  0.4332
 1744SOL     OW15910   9.864   6.666   3.274 -0.2674  0.2588 -0.0657
 1744SOL    HW115911   9.794   6.598   3.297 -0.1871 -0.4484 -1.8765
 1744SOL    HW215912   9.954   6.632   3.303 -0.2334 -0.3862 -0.9254
 1745SOL     OW15913   0.157   9.459   2.203  0.0902 -0.2720 -0.0318
 1745SOL    HW115914   0.126   9.372   2.164  0.7638 -1.1536  1.3544
 1745SOL    HW215915   0.197   9.515   2.131 -0.5270 -1.0300 -0.9803
 1746SOL     OW15916   0.857   1.516   0.214  0.0996 -0.2894 -0.2169
 1746SOL    HW115917   0.800   1.515   0.131 -1.3259  0.1485  0.7505
 1746SOL    HW215918   0.802   1.541   0.293  0.9911 -2.7571  1.2415
 1747SOL     OW15919   6.315   7.996   2.241  0.5061  0.0561 -0.2673
 1747SOL    HW115920   6.397   7.939   2.237 -0.7429 -1.7504 -0.3825
 1747SOL    HW215921   6.307   8.050   2.157  1.7738  0.5361 -0.0862
 1748SOL     OW15922   8.342   8.187   3.579 -0.0311  0.5491 -0.3903
 1748SOL    HW115923   8.247   8.217   3.571 -0.1547  0.1471 -0.4230
 1748SOL    HW215924   8.398   8.263   3.613 -0.2215  1.0300 -1.1302
 1749SOL     OW15925   3.054   2.281   1.614 -0.2224  0.7688  0.0015
 1749SOL    HW115926   3.107   2.196   1.615  0.2909  1.0879  0.1465
 1749SOL    HW215927   3.046   2.314   1.520 -1.7592 -0.2636 -0.2443
 1750SOL     OW15928   4.296   2.475   5.174 -0.4465 -0.1968  0.2533
 1750SOL    HW115929   4.197   2.483   5.164 -0.7460 -1.8805  1.5471
 1750SOL    HW215930   4.324   2.380   5.157  0.5055 -0.4623  2.9280
 1751SOL     OW15931   1.181   5.447   1.870  0.4988 -0.4161  0.4133
 1751SOL    HW115932   1.082   5.458   1.859  0.4609 -1.7611 -0.5743
 1751SOL    HW215933   1.226   5.534   1.849 -0.4684  0.2170  0.9150
 1752SOL     OW15934   5.367   7.984   3.502 -0.2545  0.1674  0.4937
 1752SOL    HW115935   5.389   7.929   3.422 -0.2370  0.0912  0.5504
 1752SOL    HW215936   5.348   7.924   3.580  0.4952  0.2567  0.7442
 1753SOL     OW15937   1.784   1.036   1.708 -0.0960 -0.7316  0.0589
 1753SOL    HW115938   1.882   1.054   1.702 -0.3798  1.1493  0.5390
 1753SOL    HW215939   1.753   0.990   1.625  1.3200 -2.0404  0.2331
 1754SOL     OW15940   2.156   1.404   1.904  0.2559  0.0313 -0.3138
 1754SOL    HW115941   2.188   1.363   1.818  1.0876 -0.2868  0.1370
 1754SOL    HW215942   2.218   1.478   1.930 -0.5293  0.7377 -0.4706
 1755SOL     OW15943   1.400   0.315   1.900  0.8361  0.0149  0.4478
 1755SOL    HW115944   1.371   0.220   1.914  3.1694 -0.4139  2.6438
 1755SOL    HW215945   1.372   0.370   1.978 -0.9959  1.3059 -1.0691
 1756SOL     OW15946   9.920   7.434   2.404 -0.7253 -0.5026  0.0122
 1756SOL    HW115947  10.018   7.452   2.417 -1.0268  1.4651 -0.2213
 1756SOL    HW215948   9.908   7.367   2.331  0.4247 -0.3376 -0.3493
 1757SOL     OW15949   9.727   9.501   4.546  0.1580  0.2113  0.2822
 1757SOL    HW115950   9.781   9.432   4.498 -0.7967 -1.2794  1.3015
 1757SOL    HW215951   9.783   9.541   4.620  0.0358 -0.9922  1.0400
 1758SOL     OW15952   1.842   7.335   5.340  0.3958 -0.1143 -0.5562
 1758SOL    HW115953   1.823   7.432   5.358  0.7406 -0.3895  1.3124
 1758SOL    HW215954   1.915   7.328   5.271  0.2793  0.9498 -0.7993
 1759SOL     OW15955   3.241   4.610   5.262 -0.7468  0.6355  0.5574
 1759SOL    HW115956   3.236   4.695   5.314 -1.0108  1.1480 -0.2967
 1759SOL    HW215957   3.337   4.586   5.246 -0.6729  0.7263  0.8708
 1760SOL     OW15958   4.672   9.176   2.095  0.0987 -0.9772 -0.3185
 1760SOL    HW115959   4.742   9.104   2.096  1.1495  0.0474  0.2929
 1760SOL    HW215960   4.637   9.186   2.002  2.1154 -0.2028 -1.0247
 1761SOL     OW15961   1.242   5.247   1.398 -0.0734  0.5827  0.4757
 1761SOL    HW115962   1.175   5.195   1.451  0.3771 -2.5796 -1.8602
 1761SOL    HW215963   1.202   5.272   1.310  1.3519 -0.2416 -0.4372
 1762SOL     OW15964   2.093   4.735   5.546 -0.3623  0.8159  1.1704
 1762SOL    HW115965   2.004   4.747   5.591 -0.7952 -1.2153  0.9051
 1762SOL    HW215966   2.083   4.745   5.447 -0.4963 -0.3472  1.0555
 1763SOL     OW15967   3.193   1.544   4.200 -0.6219 -0.0109 -0.3500
 1763SOL    HW115968   3.112   1.514   4.149 -0.3682  0.7331 -1.1940
 1763SOL    HW215969   3.275   1.505   4.158 -0.6109 -1.6526  1.1546
 1764SOL     OW15970   0.762   8.837   1.540  0.2989  0.2113  0.4143
 1764SOL    HW115971   0.813   8.847   1.626 -1.5447 -0.9178  1.7021
 1764SOL    HW215972   0.664   8.845   1.559 -0.1705 -0.8000 -1.4751
 1765SOL     OW15973   8.197   0.356   2.679  0.5562  0.9149  0.9005
 1765SOL    HW115974   8.242   0.392   2.761 -0.6146  2.4674  0.8836
 1765SOL    HW215975   8.267   0.329   2.612  1.4964  1.8337  1.4916
 1766SOL     OW15976   1.242   8.572   2.135 -0.2984  0.6874 -0.1795
 1766SOL    HW115977   1.307   8.550   2.208 -0.1872  0.7736 -0.2526
 1766SOL    HW215978   1.259   8.513   2.056 -0.4513  0.5586 -0.1182
 1767SOL     OW15979   1.932   1.700   1.447 -0.2922  0.1458 -0.7161
 1767SOL    HW115980   1.943   1.733   1.541  0.6878 -1.2070 -0.3385
 1767SOL    HW215981   1.985   1.616   1.435 -2.4960 -1.1688 -1.6956
 1768SOL     OW15982   9.832   1.983   0.289 -0.0782  0.7891  0.5970
 1768SOL    HW115983   9.883   1.934   0.359 -0.6238  1.7072  1.6375
 1768SOL    HW215984   9.853   2.081   0.294 -1.0877  1.0252  0.2988
 1769SOL     OW15985   1.622   1.450   2.723  0.8126 -0.3350  0.0832
 1769SOL    HW115986   1.707   1.500   2.739  0.7044 -0.0194 -0.3359
 1769SOL    HW215987   1.619   1.370   2.784  2.0455 -1.1168 -0.8502
 1770SOL     OW15988   2.868   8.933   1.112 -0.3278  0.0916 -0.1279
 1770SOL    HW115989   2.791   8.996   1.113  1.7252  2.7053  1.2989
 1770SOL    HW215990   2.888   8.902   1.204  0.3553 -0.4998 -0.4682
 1771SOL     OW15991   3.490   8.797   1.281 -0.0619  0.2583 -0.3734
 1771SOL    HW115992   3.525   8.792   1.188  0.7729 -0.3170 -0.0362
 1771SOL    HW215993   3.404   8.847   1.282  0.5426  1.3435 -1.2794
 1772SOL     OW15994   2.752   5.580   0.626  0.0806 -0.0409 -0.9421
 1772SOL    HW115995   2.755   5.629   0.713  0.5694  0.1912 -1.0843
 1772SOL    HW215996   2.687   5.504   0.632  0.7266 -0.5364 -0.1116
 1773SOL     OW15997   0.933   9.617   1.612  0.2277 -0.3352 -0.3874
 1773SOL    HW115998   0.887   9.529   1.620  0.1610 -0.4047 -1.4042
 1773SOL    HW215999   0.865   9.687   1.589  0.5236 -0.3182 -1.2243
 1774SOL     OW16000   4.084   3.080   2.053 -0.1302  0.4695 -0.0672
 1774SOL    HW116001   4.092   3.128   1.966  0.5869 -2.2606 -1.5487
 1774SOL    HW216002   4.145   3.123   2.120 -0.6812  2.5842 -0.8763
 1775SOL     OW16003   4.125   2.362   0.606  0.2260  0.0719  0.1616
 1775SOL    HW116004   4.224   2.376   0.608  0.3525 -0.7886 -0.0602
 1775SOL    HW216005   4.105   2.265   0.598 -0.6398  0.2528  0.0902
 1776SOL     OW16006   3.189   9.036   1.531  0.6704 -0.7696  0.3343
 1776SOL    HW116007   3.105   8.983   1.538 -0.3803  1.0455  2.3430
 1776SOL    HW216008   3.257   9.001   1.596  0.1432  0.0063  1.3239
 1777SOL     OW16009   2.159   1.894   2.163  0.3873  0.7873 -0.2742
 1777SOL    HW116010   2.187   1.893   2.067 -0.1021  0.7129 -0.4138
 1777SOL    HW216011   2.220   1.834   2.216 -0.4091 -0.5104 -0.8271
 1778SOL     OW16012   3.174   3.481   2.167 -0.6854 -0.7690 -0.6576
 1778SOL    HW116013   3.105   3.501   2.098 -0.8764  3.2379  0.6028
 1778SOL    HW216014   3.134   3.493   2.258  2.1468  3.9614  0.1220
 1779SOL     OW16015   2.448   0.110   1.857 -0.6880  0.0949  0.1232
 1779SOL    HW116016   2.438   0.169   1.937 -0.6292  0.0427  0.1694
 1779SOL    HW216017   2.543   0.114   1.824 -1.1386  1.4847 -1.0147
 1780SOL     OW16018   1.758   1.642   5.013  0.4153 -0.1611 -0.3755
 1780SOL    HW116019   1.712   1.563   4.972 -0.1872  0.0064 -0.0262
 1780SOL    HW216020   1.691   1.698   5.062  1.4260 -1.4017  2.4961
 1781SOL     OW16021   9.037   8.309   1.265 -0.3595  0.5477  0.3368
 1781SOL    HW116022   9.120   8.253   1.254 -0.0860  0.7441  1.4037
 1781SOL    HW216023   9.057   8.386   1.324 -1.1886  0.8632  0.2044
 1782SOL     OW16024   8.887   0.737   2.284  0.4697  0.3213 -0.0238
 1782SOL    HW116025   8.947   0.759   2.207  1.4001  0.4306  0.7143
 1782SOL    HW216026   8.795   0.772   2.266 -0.0335 -2.0116 -2.2743
 1783SOL     OW16027   2.357   2.965   3.767  0.3074  0.0821 -0.4011
 1783SOL    HW116028   2.346   2.996   3.673  0.4192  0.3775 -0.3208
 1783SOL    HW216029   2.272   2.924   3.799  0.4817 -0.6323 -0.8503
 1784SOL     OW16030   8.186   2.939   3.035 -0.0092 -0.2988  0.1655
 1784SOL    HW116031   8.093   2.975   3.024 -0.3175 -1.0928  0.1422
 1784SOL    HW216032   8.183   2.857   3.092  0.7148 -0.1769  0.3772
 1785SOL     OW16033   6.560   0.417   4.321 -0.0824 -0.4117  0.0924
 1785SOL    HW116034   6.489   0.469   4.368  1.2601  2.4070 -0.8951
 1785SOL    HW216035   6.644   0.419   4.375  0.7657  0.7912 -1.2351
 1786SOL     OW16036   3.418   5.126   5.623  0.3646 -0.1832  0.2914
 1786SOL    HW116037   3.469   5.045   5.593  0.5225  0.4839 -1.2742
 1786SOL    HW216038   3.320   5.111   5.608  0.2713 -0.6200  1.3002
 1787SOL     OW16039   4.975   8.038   3.431  0.2471  0.3037 -0.6328
 1787SOL    HW116040   4.974   7.946   3.471  0.2922  0.5573 -0.0371
 1787SOL    HW216041   4.937   8.035   3.339 -0.8630 -0.1154 -0.1676
 1788SOL     OW16042   9.747   3.838   2.362 -0.4373 -0.3732 -0.0640
 1788SOL    HW116043   9.723   3.798   2.450 -0.1209 -1.1810 -0.3425
 1788SOL    HW216044   9.665   3.846   2.305 -0.2578 -2.1264 -0.6071
 1789SOL     OW16045   9.640   3.392   3.386  0.1204  0.3530  0.7414
 1789SOL    HW116046   9.723   3.388   3.442  0.8743  0.1810 -0.3611
 1789SOL    HW216047   9.594   3.479   3.400  0.2983  0.3072  1.6275
 1790SOL     OW16048   6.325   1.143   2.726  0.3374  0.1255 -0.5385
 1790SOL    HW116049   6.352   1.204   2.801 -0.1174 -0.5070  0.1477
 1790SOL    HW216050   6.231   1.164   2.699  0.2176 -0.1932 -0.3744
 1791SOL     OW16051   8.124   2.372   3.012 -0.3505  0.1524 -0.2143
 1791SOL    HW116052   8.149   2.275   3.011 -2.0119 -0.2955 -1.8434
 1791SOL    HW216053   8.148   2.413   2.924 -1.0028  0.8519 -0.0655
 1792SOL     OW16054   2.845   5.005   1.312 -0.0430  0.1035 -0.0409
 1792SOL    HW116055   2.923   4.983   1.370  0.1403  0.2000 -0.2478
 1792SOL    HW216056   2.871   5.077   1.247  0.5016 -1.6586 -1.8400
 1793SOL     OW16057   0.244   0.318   2.861 -0.3025 -0.4154 -0.0038
 1793SOL    HW116058   0.251   0.231   2.908  1.2185 -0.4765 -0.3338
 1793SOL    HW216059   0.335   0.358   2.850 -0.9835  1.2370  0.1902
 1794SOL     OW16060   8.962   8.244   4.382  0.2045 -0.2675  0.2673
 1794SOL    HW116061   9.013   8.288   4.309 -3.8338  3.6653 -0.4422
 1794SOL    HW216062   8.896   8.180   4.343 -0.7884  0.5657  0.5558
 1795SOL     OW16063   2.236   2.802   4.582  0.4472 -0.1324  0.0490
 1795SOL    HW116064   2.301   2.831   4.651  0.8520 -0.9778  0.0355
 1795SOL    HW216065   2.240   2.702   4.573 -0.1923 -0.1018 -0.5982
 1796SOL     OW16066   9.204   1.278   2.070 -0.0818  0.0929  0.0894
 1796SOL    HW116067   9.151   1.202   2.034 -0.6073  1.7443 -2.7878
 1796SOL    HW216068   9.302   1.256   2.067 -0.2368 -0.4820 -0.6257
 1797SOL     OW16069   7.027   7.174   2.885 -0.2883  0.0144  0.6629
 1797SOL    HW116070   7.027   7.267   2.848 -0.1761 -0.1045  0.3631
 1797SOL    HW216071   6.934   7.138   2.886 -0.3316  0.1331  0.7826
 1798SOL     OW16072   7.903   9.698   1.154 -0.4827 -0.5109  0.3536
 1798SOL    HW116073   7.804   9.696   1.140 -0.9236 -0.0478  3.2705
 1798SOL    HW216074   7.938   9.789   1.129 -0.7572 -0.6969 -0.7546
 1799SOL     OW16075   4.803   8.368   2.619  0.0588  0.2828  0.0147
 1799SOL    HW116076   4.820   8.386   2.716  1.4236  2.6089 -0.6151
 1799SOL    HW216077   4.723   8.420   2.589  0.7206  1.0107 -0.5185
 1800SOL     OW16078   2.160   9.543   3.365  0.0133 -0.1545  0.3229
 1800SOL    HW116079   2.097   9.619   3.382  1.1455  0.6379  1.0993
 1800SOL    HW216080   2.251   9.568   3.399  1.0636 -0.7301 -2.0044
 1801SOL     OW16081   8.576   8.984   5.027 -0.9019 -0.1406 -0.1584
 1801SOL    HW116082   8.603   8.972   4.931  1.1673  0.3502  0.3276
 1801SOL    HW216083   8.567   8.894   5.070 -1.9638 -0.3695 -0.8237
 1802SOL     OW16084   7.898   8.190   2.048 -0.2366  0.3225 -0.0663
 1802SOL    HW116085   7.856   8.116   2.100  0.1703 -0.4443 -0.8029
 1802SOL    HW216086   7.853   8.277   2.070  0.1259  0.0667  1.7507
 1803SOL     OW16087   9.225   0.958   0.825 -0.3341  0.2095 -0.2478
 1803SOL    HW116088   9.284   1.028   0.865 -1.0748 -0.1778  1.5547
 1803SOL    HW216089   9.278   0.874   0.811 -0.2162  0.1782  0.4079
 1804SOL     OW16090   2.970   1.908   0.485 -0.2094  0.8779 -0.2089
 1804SOL    HW116091   2.938   1.953   0.569  2.7622 -0.3071  1.6510
 1804SOL    HW216092   2.974   1.809   0.500 -0.2219  0.6014 -1.9551
 1805SOL     OW16093   1.885   3.043   2.278  0.0413 -0.5951  0.1664
 1805SOL    HW116094   1.830   3.121   2.247  0.2799 -0.6417 -0.3775
 1805SOL    HW216095   1.835   2.994   2.349  0.3606  0.6959  1.2896
 1806SOL     OW16096   1.896   7.780   3.436  0.0098  0.4661 -0.3134
 1806SOL    HW116097   1.836   7.727   3.376  0.9436 -0.8018 -0.1518
 1806SOL    HW216098   1.929   7.722   3.510  1.7294  1.0146 -0.6178
 1807SOL     OW16099   0.280   7.211   0.767 -0.6463  0.2976 -0.3729
 1807SOL    HW116100   0.220   7.190   0.843  0.4605 -0.1423  0.3955
 1807SOL    HW216101   0.265   7.146   0.693 -1.4414  0.4826 -0.3771
 1808SOL     OW16102   9.853   9.014   2.223  0.6005  0.6404 -0.6771
 1808SOL    HW116103   9.771   8.998   2.169  0.1835  1.2866 -0.2316
 1808SOL    HW216104   9.913   8.934   2.216 -1.4906 -1.1824  1.5554
 1809SOL     OW16105   0.790   2.070   1.707  0.3962  0.1355 -0.0128
 1809SOL    HW116106   0.815   1.977   1.679  0.6625 -0.1474  1.1370
 1809SOL    HW216107   0.800   2.079   1.806  0.3093  1.3760 -0.1042
 1810SOL     OW16108   6.035   0.770   4.234 -0.1230  0.0298 -0.0739
 1810SOL    HW116109   6.015   0.867   4.220 -2.2218 -0.1878  1.2047
 1810SOL    HW216110   6.125   0.760   4.276  0.7014  1.3291 -1.4771
 1811SOL     OW16111   0.489   2.809   0.240  0.4143  0.4108 -0.0950
 1811SOL    HW116112   0.498   2.854   0.151  0.0845 -1.1824 -0.9370
 1811SOL    HW216113   0.550   2.730   0.244 -0.4652 -0.2428  0.6420
 1812SOL     OW16114   3.191   0.061   2.119 -0.2388  0.2178  0.0541
 1812SOL    HW116115   3.200   0.019   2.209 -1.7498  1.8117  0.9782
 1812SOL    HW216116   3.137   0.002   2.059 -1.6053  0.4313  1.0700
 1813SOL     OW16117   2.104   7.887   1.262 -0.1188 -0.4218  0.3207
 1813SOL    HW116118   2.117   7.788   1.262  0.3899 -0.3646 -0.2249
 1813SOL    HW216119   2.153   7.926   1.183 -1.1047  0.1594 -0.0084
 1814SOL     OW16120   2.212   2.877   0.724 -0.0632 -0.6543  0.1148
 1814SOL    HW116121   2.124   2.830   0.714 -0.4091  0.4079 -2.0993
 1814SOL    HW216122   2.204   2.949   0.793 -1.5469  0.8106 -1.5354
 1815SOL     OW16123   5.081   9.653   1.341 -0.1097  0.8225  0.3563
 1815SOL    HW116124   5.013   9.727   1.333 -1.0217  0.0417  0.8457
 1815SOL    HW216125   5.123   9.638   1.251 -2.4400 -0.4357 -0.5656
 1816SOL     OW16126   5.281   1.001   3.026  0.0182 -0.2369 -0.5778
 1816SOL    HW116127   5.208   0.958   2.972  0.5310  0.8484 -2.1611
 1816SOL    HW216128   5.367   0.954   3.007  0.1021 -0.1983 -0.2832
 1817SOL     OW16129   1.932   7.248   3.075  0.3029 -0.4384 -0.1427
 1817SOL    HW116130   1.999   7.280   3.142  0.1815 -2.1681  0.8337
 1817SOL    HW216131   1.841   7.247   3.116  0.2299 -1.5194 -0.2962
 1818SOL     OW16132   9.274   4.612   3.296  0.1336  0.5065  0.0431
 1818SOL    HW116133   9.369   4.626   3.324  0.4004 -0.5544 -0.3213
 1818SOL    HW216134   9.232   4.700   3.276  0.6871  1.0804  1.3575
 1819SOL     OW16135   9.984   4.390   3.068  0.3253 -0.3122 -0.4229
 1819SOL    HW116136   9.928   4.341   3.000  0.4290 -1.3780  0.2478
 1819SOL    HW216137   9.945   4.480   3.085 -1.3524 -1.1451  0.2392
 1820SOL     OW16138   1.401   7.404   4.205  0.1906  0.0455 -0.1378
 1820SOL    HW116139   1.394   7.503   4.193 -1.4828  0.1336  1.3308
 1820SOL    HW216140   1.322   7.359   4.163 -0.3582 -0.4380  1.3594
 1821SOL     OW16141   4.083   5.930   2.107  0.2305  0.1695 -0.2848
 1821SOL    HW116142   4.124   5.968   2.191 -1.4107 -0.9069  1.0253
 1821SOL    HW216143   4.065   6.005   2.043  1.5360  1.0005  0.2847
 1822SOL     OW16144   9.729   7.613   2.529 -0.2492 -0.3445  0.4217
 1822SOL    HW116145   9.744   7.619   2.628 -0.3782  0.9426  0.3638
 1822SOL    HW216146   9.794   7.547   2.490  1.4078  0.8859  1.0257
 1823SOL     OW16147   9.087   3.162   1.212  0.3280  0.1505 -0.0021
 1823SOL    HW116148   9.061   3.175   1.117 -0.3046 -0.3658  0.0964
 1823SOL    HW216149   9.046   3.234   1.268  1.7083  1.1807 -0.2826
 1824SOL     OW16150   1.183   6.592   2.098  0.4021 -0.1706 -0.0321
 1824SOL    HW116151   1.269   6.640   2.114  0.1593  0.4879 -0.6656
 1824SOL    HW216152   1.200   6.493   2.097  1.2384 -0.0344 -0.6225
 1825SOL     OW16153   1.228   0.652   3.188  0.0090 -0.0856  0.0862
 1825SOL    HW116154   1.162   0.586   3.223 -0.5142 -0.2940 -1.2752
 1825SOL    HW216155   1.184   0.741   3.175 -0.2767 -0.4828 -1.7751
 1826SOL     OW16156   1.763   1.466   5.518 -0.0714 -0.4078  0.0312
 1826SOL    HW116157   1.860   1.476   5.537  0.0057  0.6480 -0.8862
 1826SOL    HW216158   1.710   1.479   5.602  0.5319 -0.2943  0.3922
 1827SOL     OW16159   1.830   7.830   4.988  0.1386  0.1870  0.2699
 1827SOL    HW116160   1.731   7.813   4.987  0.2043 -0.4249  2.2931
 1827SOL    HW216161   1.875   7.762   5.047  1.5471  1.5687  0.8150
 1828SOL     OW16162   2.914   1.445   1.109  0.3397  0.2144  1.2015
 1828SOL    HW116163   2.980   1.386   1.063 -1.7657 -2.3886  1.3342
 1828SOL    HW216164   2.896   1.526   1.054  0.5101 -1.1099 -0.8293
 1829SOL     OW16165   3.120   1.341   3.717  0.3343  0.0813  0.1655
 1829SOL    HW116166   3.198   1.404   3.716  0.0076  0.5196  2.0751
 1829SOL    HW216167   3.040   1.387   3.755 -0.6610 -0.6377 -1.0012
 1830SOL     OW16168   6.617   0.523   3.159 -0.1375 -0.3351  0.0705
 1830SOL    HW116169   6.583   0.442   3.111  0.2086 -0.5637  0.2044
 1830SOL    HW216170   6.544   0.561   3.216 -0.9962  0.7846 -1.7087
 1831SOL     OW16171   0.640   9.053   3.195  0.1185 -0.0015 -0.0356
 1831SOL    HW116172   0.544   9.043   3.167 -0.1467 -0.3562  0.9741
 1831SOL    HW216173   0.643   9.100   3.284  1.0061  2.4625 -1.3336
 1832SOL     OW16174   7.828   2.478   2.609 -0.3134 -0.5911 -0.1945
 1832SOL    HW116175   7.918   2.462   2.568 -0.4117 -1.2265 -0.1729
 1832SOL    HW216176   7.759   2.486   2.537  0.0689  2.0233 -0.3122
 1833SOL     OW16177   2.710   7.077   0.229  0.1050  0.1399 -0.2033
 1833SOL    HW116178   2.777   7.006   0.207 -0.0520 -0.1745  0.3124
 1833SOL    HW216179   2.741   7.165   0.193 -0.9374 -0.6386 -3.1133
 1834SOL     OW16180   3.747   0.972   3.494  0.1283 -0.4155 -0.3960
 1834SOL    HW116181   3.687   0.909   3.544 -1.0156 -0.1091 -1.3529
 1834SOL    HW216182   3.824   0.921   3.455  0.8153 -0.7235  1.3099
 1835SOL     OW16183   2.862   0.074   0.504 -0.4134  0.2290 -0.3386
 1835SOL    HW116184   2.930   0.143   0.480  0.2231 -0.4347 -0.4708
 1835SOL    HW216185   2.805   0.053   0.424 -0.1952  0.1445 -0.4726
 1836SOL     OW16186   8.014   2.664   2.211  0.4937 -0.3578  0.5225
 1836SOL    HW116187   8.061   2.587   2.254  2.0537  1.9377  3.0752
 1836SOL    HW216188   7.918   2.664   2.239  0.4344 -1.4392  0.3584
 1837SOL     OW16189   9.996   7.788   1.374  0.2482 -0.3051  0.4234
 1837SOL    HW116190  10.068   7.727   1.405 -0.7786 -0.8307  1.8341
 1837SOL    HW216191   9.955   7.752   1.290  0.4303 -0.9542  0.6119
 1838SOL     OW16192   3.142   2.500   5.523  0.3150  0.0170 -0.3216
 1838SOL    HW116193   3.237   2.469   5.526  0.5049  0.6253  0.1861
 1838SOL    HW216194   3.080   2.422   5.531  0.7727 -0.3746 -0.5965
 1839SOL     OW16195   1.693   8.039   0.860  0.4440  0.0677  0.4585
 1839SOL    HW116196   1.601   8.004   0.841  0.2847  0.5101  0.4051
 1839SOL    HW216197   1.761   7.980   0.816  0.1620 -0.0032  0.1149
 1840SOL     OW16198   2.536   0.878   2.679 -0.8502 -0.2107  0.5118
 1840SOL    HW116199   2.448   0.836   2.703 -1.8636 -0.3269 -3.2212
 1840SOL    HW216200   2.525   0.977   2.674 -0.4579 -0.1274  1.1902
 1841SOL     OW16201   3.722   3.949   1.508  0.2090 -0.0468  0.5760
 1841SOL    HW116202   3.726   3.849   1.509 -0.5067 -0.0752  0.8781
 1841SOL    HW216203   3.712   3.984   1.601  0.8893  0.3288  0.5112
 1842SOL     OW16204   9.360   7.276   0.797  0.4632  0.1542 -0.5697
 1842SOL    HW116205   9.459   7.271   0.808  0.4236  2.1100  0.9790
 1842SOL    HW216206   9.320   7.186   0.816  1.8056 -0.2576  0.3981
 1843SOL     OW16207   5.979   8.732   2.911 -0.2047  0.1678 -0.7049
 1843SOL    HW116208   5.969   8.831   2.921 -0.5664 -0.0511  1.2995
 1843SOL    HW216209   6.057   8.701   2.965  0.2941 -0.5672 -1.8324
 1844SOL     OW16210   9.292   8.973   4.370  0.3143 -0.1985  0.4826
 1844SOL    HW116211   9.294   8.981   4.270  0.2698 -0.5196  0.4546
 1844SOL    HW216212   9.204   8.935   4.399  0.9731 -1.7728  0.5041
 1845SOL     OW16213   8.733   5.611   2.886 -0.6968 -0.1715 -0.2979
 1845SOL    HW116214   8.741   5.619   2.985  2.0383  2.9443 -0.7077
 1845SOL    HW216215   8.658   5.669   2.853 -2.8249 -2.6191  0.0537
 1846SOL     OW16216   2.969   3.840   0.008 -0.1462  0.1945 -0.4756
 1846SOL    HW116217   2.965   3.743  -0.015 -1.8016  0.0584  0.3263
 1846SOL    HW216218   2.928   3.894  -0.066 -2.1430  0.0261  0.4766
 1847SOL     OW16219   0.593   8.730   4.282 -0.0188  0.3355 -0.2810
 1847SOL    HW116220   0.576   8.802   4.349  0.5792 -0.5534  0.8303
 1847SOL    HW216221   0.674   8.755   4.227  0.8191  0.0285  0.7998
 1848SOL     OW16222   2.735   7.127   0.501  0.4301 -0.2815  0.4900
 1848SOL    HW116223   2.717   7.098   0.407 -2.1673  0.4328  0.7258
 1848SOL    HW216224   2.713   7.224   0.511  1.1743 -0.2258  1.7187
 1849SOL     OW16225   1.552   0.115   3.949  0.0150  0.3250 -0.5851
 1849SOL    HW116226   1.528   0.184   3.881 -1.0319  0.0358 -0.5122
 1849SOL    HW216227   1.482   0.113   4.020  1.2883  0.8807  0.6994
 1850SOL     OW16228   2.111   7.531   4.695  0.4670 -0.0516 -0.3136
 1850SOL    HW116229   2.175   7.557   4.767  1.0935 -1.7392 -0.2241
 1850SOL    HW216230   2.156   7.540   4.606  1.0550 -1.7770 -0.2154
 1851SOL     OW16231   3.141   4.415   0.960  0.0404  0.0177 -0.3135
 1851SOL    HW116232   3.144   4.497   0.904 -2.5377  0.0796 -0.4223
 1851SOL    HW216233   3.205   4.347   0.923  1.9940  1.8429 -0.3725
 1852SOL     OW16234   9.254   8.482   4.512  0.0032  0.0972  0.3115
 1852SOL    HW116235   9.200   8.416   4.563 -0.3960  0.9178  0.9693
 1852SOL    HW216236   9.228   8.575   4.540  0.9331  0.5188 -0.1991
 1853SOL     OW16237   0.865   9.185   4.658  0.0015  0.1513  0.4868
 1853SOL    HW116238   0.859   9.266   4.717 -0.3089  0.8137 -0.4458
 1853SOL    HW216239   0.956   9.179   4.617 -0.5137  0.9982 -0.8055
 1854SOL     OW16240   2.444   0.526   1.931  0.4041  0.3866  0.2530
 1854SOL    HW116241   2.444   0.440   1.981  2.2055 -0.0157 -0.4002
 1854SOL    HW216242   2.454   0.602   1.995  0.6793 -0.0093  0.6813
 1855SOL     OW16243   4.692   9.134   1.422  0.0413 -0.1754 -0.8493
 1855SOL    HW116244   4.752   9.171   1.492 -0.7471 -1.8493  0.7533
 1855SOL    HW216245   4.655   9.208   1.366  0.8348  1.1583  0.3831
 1856SOL     OW16246   0.722   2.449   5.303  0.6250  0.3345 -0.1584
 1856SOL    HW116247   0.806   2.394   5.302  0.7658  0.5153  1.0004
 1856SOL    HW216248   0.698   2.471   5.398 -1.4398 -0.7914 -0.3929
 1857SOL     OW16249   1.102   1.916   4.950  0.0051  0.3804 -0.1890
 1857SOL    HW116250   1.106   2.008   4.991  0.4983 -0.1331  0.9413
 1857SOL    HW216251   1.151   1.917   4.862 -0.0120  1.2077 -0.1947
 1858SOL     OW16252   9.238   1.010   2.265  0.1315 -0.1027  0.5009
 1858SOL    HW116253   9.312   1.076   2.256  0.3318 -0.0055  2.4652
 1858SOL    HW216254   9.158   1.041   2.214  0.6675  0.9807  0.3119
 1859SOL     OW16255   2.137   1.562   3.913  0.1854 -0.5239 -0.1118
 1859SOL    HW116256   2.065   1.556   3.844  1.4105 -1.4698 -1.3329
 1859SOL    HW216257   2.131   1.483   3.974  0.7658 -1.0954 -0.7900
 1860SOL     OW16258   9.407   9.747   3.589 -0.3518  0.0240  0.6092
 1860SOL    HW116259   9.444   9.714   3.676 -1.3007 -0.5014  0.8275
 1860SOL    HW216260   9.438   9.688   3.515 -1.9483 -1.3439  0.9841
 1861SOL     OW16261   7.793   8.462   4.028 -0.1006 -0.1162 -0.6534
 1861SOL    HW116262   7.812   8.530   3.957 -0.3208 -0.6535 -1.2306
 1861SOL    HW216263   7.702   8.479   4.067  0.0977  0.2934 -0.3590
 1862SOL     OW16264   3.099   0.823   0.662 -0.2132 -0.2890  0.0547
 1862SOL    HW116265   3.117   0.792   0.569 -0.7027  1.1093 -0.5260
 1862SOL    HW216266   3.144   0.911   0.678  0.1045 -0.6497  1.2374
 1863SOL     OW16267   2.425   3.374   1.775 -0.2849  0.2623  0.3551
 1863SOL    HW116268   2.459   3.316   1.848 -2.3022  0.8390  1.8108
 1863SOL    HW216269   2.443   3.470   1.797 -0.7514  0.4274  0.0379
 1864SOL     OW16270   0.077   2.369   0.211  0.4050 -0.4469  0.4272
 1864SOL    HW116271   0.153   2.346   0.272  0.7902  1.0573  0.5412
 1864SOL    HW216272   0.099   2.453   0.161  0.2090 -1.8120 -2.0083
 1865SOL     OW16273   3.491   0.975   2.006  0.2243  0.4857 -0.1268
 1865SOL    HW116274   3.579   0.980   2.054  0.2866  0.8404 -0.2740
 1865SOL    HW216275   3.507   0.983   1.907  0.2014 -1.3848 -0.2939
 1866SOL     OW16276   2.808   3.546   0.228  0.3709 -0.3246 -0.2481
 1866SOL    HW116277   2.759   3.584   0.149  0.3850 -0.3568 -0.2727
 1866SOL    HW216278   2.897   3.512   0.198 -0.0249 -1.2461 -0.4170
 1867SOL     OW16279   9.279   7.056   1.688  0.3120  0.0308  0.0898
 1867SOL    HW116280   9.241   7.063   1.780 -1.6363  0.6312 -0.7359
 1867SOL    HW216281   9.336   6.973   1.681  0.4480 -0.0299  1.8077
 1868SOL     OW16282   5.970   9.082   4.167  0.1672 -0.2618  0.2088
 1868SOL    HW116283   6.026   9.138   4.228 -0.3378 -0.2634  0.6765
 1868SOL    HW216284   6.025   9.006   4.132  0.6244  0.0669  0.1987
 1869SOL     OW16285   2.428   7.057   1.907  0.5321 -0.6164 -0.2650
 1869SOL    HW116286   2.520   7.067   1.944  0.2452  0.5246  0.1772
 1869SOL    HW216287   2.432   7.022   1.814  1.4533  0.2473 -0.5550
 1870SOL     OW16288   1.871   5.948   3.538  0.3280  0.2018  0.7883
 1870SOL    HW116289   1.854   6.037   3.495 -2.1016 -0.0846  1.0402
 1870SOL    HW216290   1.844   5.875   3.475  2.5925 -0.3874  0.4685
 1871SOL     OW16291   3.200   2.278   4.083 -0.2580 -0.3022  0.4811
 1871SOL    HW116292   3.226   2.219   4.007 -0.7175 -1.0259  0.8794
 1871SOL    HW216293   3.201   2.225   4.168 -1.7162  0.0021  0.6965
 1872SOL     OW16294   0.521   8.539   4.122  0.5409  0.2849  0.1996
 1872SOL    HW116295   0.508   8.467   4.190  1.0558 -1.1569 -1.1919
 1872SOL    HW216296   0.558   8.621   4.166  2.4881 -1.1873  1.3771
 1873SOL     OW16297   4.224   7.998   4.084 -0.1041  0.1495  0.2502
 1873SOL    HW116298   4.182   7.909   4.101  2.3171 -1.2021 -0.6358
 1873SOL    HW216299   4.178   8.068   4.139 -2.2763 -1.5647  0.6698
 1874SOL     OW16300   5.448   9.060   2.804  0.1504  0.0439  0.5324
 1874SOL    HW116301   5.526   9.069   2.867  1.0024 -0.6580 -0.4138
 1874SOL    HW216302   5.461   9.121   2.726 -0.8053  0.7540  0.9197
 1875SOL     OW16303   9.096   0.883   0.606  0.5076 -0.3277  0.8296
 1875SOL    HW116304   9.170   0.899   0.672 -0.1444  1.0885  1.2322
 1875SOL    HW216305   9.012   0.858   0.656  0.4655 -1.0002  0.4271
 1876SOL     OW16306   0.448   3.059   0.689 -0.5271 -0.5994  0.1356
 1876SOL    HW116307   0.384   3.030   0.760 -0.2541  0.1033  0.6692
 1876SOL    HW216308   0.486   2.979   0.643 -1.3985 -1.0313  0.1653
 1877SOL     OW16309   0.344   4.014   1.652  0.6590  0.1371  0.3104
 1877SOL    HW116310   0.434   4.027   1.609  1.1679  2.1731  1.8921
 1877SOL    HW216311   0.355   4.005   1.751 -0.8799  0.3980  0.5216
 1878SOL     OW16312   4.422   8.734   1.376 -0.3941  0.0096 -0.7602
 1878SOL    HW116313   4.512   8.691   1.369 -0.2952  0.4005 -1.9986
 1878SOL    HW216314   4.433   8.828   1.410 -0.3097  0.1635 -1.2142
 1879SOL     OW16315   1.971   7.313   0.577 -0.2432 -0.0470 -0.2545
 1879SOL    HW116316   1.918   7.286   0.658 -1.2493 -0.5503 -1.0650
 1879SOL    HW216317   1.912   7.365   0.515  0.9519  1.6980  0.0453
 1880SOL     OW16318   5.486   8.191   1.632 -0.3543  0.1322 -0.1819
 1880SOL    HW116319   5.582   8.214   1.642  0.0632 -1.1123 -1.1213
 1880SOL    HW216320   5.433   8.229   1.708  1.4774 -2.6076  2.5426
 1881SOL     OW16321   9.493   7.657   4.877  0.4641 -0.1540  0.1076
 1881SOL    HW116322   9.418   7.610   4.923  0.6716  0.2017  0.8058
 1881SOL    HW216323   9.492   7.754   4.901 -1.8924  0.8953 -3.7847
 1882SOL     OW16324   7.763   0.253   4.224  0.3813  0.4426 -0.5810
 1882SOL    HW116325   7.774   0.179   4.290  1.6470  2.1048  1.1155
 1882SOL    HW216326   7.830   0.243   4.151  1.0676  0.3419  0.0593
 1883SOL     OW16327   9.151   4.395   3.171  0.1415 -0.1093 -0.4276
 1883SOL    HW116328   9.181   4.481   3.213  1.7000 -0.8048 -0.1194
 1883SOL    HW216329   9.091   4.416   3.094 -0.6864  1.2309  0.5417
 1884SOL     OW16330   9.750   6.341   3.053 -0.0069  0.2475 -0.0324
 1884SOL    HW116331   9.693   6.422   3.042  0.2862  0.3100 -1.1391
 1884SOL    HW216332   9.760   6.295   2.965  1.6460  0.2320  0.1533
 1885SOL     OW16333   9.925   2.218   0.652  0.4362 -0.1684  0.1693
 1885SOL    HW116334  10.012   2.266   0.662  0.7683 -1.0427  1.6510
 1885SOL    HW216335   9.868   2.235   0.732 -1.3715  1.5781 -1.4360
 1886SOL     OW16336   9.223   9.877   0.578  0.2379  0.6710 -0.2524
 1886SOL    HW116337   9.178   9.820   0.510 -1.1710  1.6881 -0.1974
 1886SOL    HW216338   9.321   9.856   0.581 -0.3455 -2.1800  0.2177
 1887SOL     OW16339   2.410   1.108   2.660  0.1891 -0.1128  0.0624
 1887SOL    HW116340   2.491   1.150   2.620 -0.0431 -0.6029 -0.9557
 1887SOL    HW216341   2.328   1.150   2.620 -0.0502 -2.1129 -1.6553
 1888SOL     OW16342   9.833   9.443   1.083  0.2779 -0.2328 -0.3701
 1888SOL    HW116343   9.825   9.386   1.002 -2.2009 -2.0511  1.0875
 1888SOL    HW216344   9.930   9.456   1.105  0.9267 -2.0096 -2.0053
 1889SOL     OW16345   9.972   7.058   3.299  0.5130  0.3060  0.3853
 1889SOL    HW116346   9.993   6.962   3.321 -0.7375 -0.6194 -2.2284
 1889SOL    HW216347  10.039   7.092   3.233 -0.1940  0.5876 -0.1950
 1890SOL     OW16348   0.395   7.767   4.001 -0.2817  0.3522  0.2410
 1890SOL    HW116349   0.329   7.705   3.959 -0.6316 -0.2462  1.6730
 1890SOL    HW216350   0.381   7.770   4.100  3.1355 -1.3581  0.8677
 1891SOL     OW16351   1.210   2.178   2.105 -0.4260 -0.1650  0.1701
 1891SOL    HW116352   1.144   2.127   2.161 -0.6833  0.2208  0.2173
 1891SOL    HW216353   1.299   2.132   2.109 -0.9757 -1.3468 -0.8374
 1892SOL     OW16354   2.135   8.157   5.409 -0.1300 -0.2078  0.0145
 1892SOL    HW116355   2.181   8.118   5.329  1.1726 -0.3975  0.8336
 1892SOL    HW216356   2.072   8.090   5.448 -1.7543  0.3403 -1.6023
 1893SOL     OW16357   2.432   4.330   1.695  0.0375  0.0423 -0.1460
 1893SOL    HW116358   2.446   4.338   1.596  1.5224  0.2613  0.0805
 1893SOL    HW216359   2.361   4.395   1.723  2.4474  2.9256 -0.4617
 1894SOL     OW16360   6.339   9.868   0.712 -0.0480  0.5195 -0.0683
 1894SOL    HW116361   6.294   9.936   0.653 -0.3586  0.1373 -0.2709
 1894SOL    HW216362   6.414   9.825   0.662  0.1437  0.7087  0.0571
 1895SOL     OW16363   0.125   2.984   4.307  0.4654 -0.1975  1.1871
 1895SOL    HW116364   0.150   3.078   4.285 -1.2735 -0.3734 -1.8008
 1895SOL    HW216365   0.185   2.921   4.259  1.4354 -0.6660  2.9507
 1896SOL     OW16366   5.830   0.337   3.364  0.0785 -0.0802  0.5779
 1896SOL    HW116367   5.736   0.302   3.370  0.1153  0.0483  2.1666
 1896SOL    HW216368   5.829   0.428   3.322 -0.3156 -0.7609 -0.9469
 1897SOL     OW16369   4.685   8.231   1.271 -0.0938  0.5506 -0.6640
 1897SOL    HW116370   4.630   8.161   1.225  1.4198 -1.0899 -0.0405
 1897SOL    HW216371   4.749   8.271   1.205  1.0712 -0.7614 -0.3399
 1898SOL     OW16372   8.656   7.428   1.102  0.7177  0.7943  0.2932
 1898SOL    HW116373   8.558   7.421   1.122  0.8096  0.5821  0.6749
 1898SOL    HW216374   8.706   7.452   1.185  1.2945 -1.8147  0.7660
 1899SOL     OW16375   1.112   7.032   1.206  0.3672  0.0401  0.2058
 1899SOL    HW116376   1.025   7.065   1.243  0.0179 -0.6580  0.0147
 1899SOL    HW216377   1.169   6.998   1.280 -0.1457 -0.9262  0.1680
 1900SOL     OW16378   1.850   3.226   3.050 -0.1529 -0.1695  0.0329
 1900SOL    HW116379   1.841   3.141   3.102  0.4233 -0.8294 -0.9172
 1900SOL    HW216380   1.880   3.205   2.957  2.1430  1.2182  0.4175
 1901SOL     OW16381   9.825   1.895   2.730 -0.2123 -0.1209  0.0412
 1901SOL    HW116382   9.731   1.897   2.764 -0.0665 -0.8501  0.4876
 1901SOL    HW216383   9.850   1.986   2.697 -0.8968  0.2029  0.4049
 1902SOL     OW16384   4.475   3.955   1.311 -0.2746  0.0577 -0.3695
 1902SOL    HW116385   4.401   4.012   1.275 -1.1838 -0.0077  1.3040
 1902SOL    HW216386   4.523   4.005   1.383 -0.1422 -0.7450  0.1067
 1903SOL     OW16387   2.249   8.951   4.271 -0.4785 -0.5035  0.0333
 1903SOL    HW116388   2.234   9.010   4.350  0.4936 -1.5057  0.9888
 1903SOL    HW216389   2.293   9.004   4.198 -3.1627  0.9355 -0.6097
 1904SOL     OW16390   8.330   4.933   1.600 -0.2854 -0.0223 -0.3264
 1904SOL    HW116391   8.399   4.875   1.643 -0.9900  1.5209  3.0070
 1904SOL    HW216392   8.330   4.916   1.501  2.3419 -2.6543  0.0426
 1905SOL     OW16393   2.992   2.294   3.622  0.6387 -0.1731  0.5640
 1905SOL    HW116394   2.893   2.301   3.632  0.6820  0.7679  0.4186
 1905SOL    HW216395   3.026   2.372   3.569  1.1083 -2.0654 -2.0084
 1906SOL     OW16396   2.711   9.014   0.025 -0.4482  0.0380 -0.9006
 1906SOL    HW116397   2.727   8.933   0.082 -1.5626 -0.2763 -1.0203
 1906SOL    HW216398   2.624   9.056   0.052 -0.1236  0.8944 -1.1912
 1907SOL     OW16399   3.436   8.563   1.844 -0.5192  0.2819  0.1217
 1907SOL    HW116400   3.378   8.510   1.782  0.8813 -0.8423 -0.2501
 1907SOL    HW216401   3.384   8.587   1.926 -1.4808 -0.7647 -0.1731
 1908SOL     OW16402   6.345   9.809   2.521 -0.2159 -0.1339 -0.1696
 1908SOL    HW116403   6.395   9.748   2.460  0.6406 -3.2186  3.3981
 1908SOL    HW216404   6.247   9.789   2.515 -0.2899  0.5982 -1.5570
 1909SOL     OW16405   3.205   1.022   5.102  0.6834 -0.2899  0.2244
 1909SOL    HW116406   3.290   0.976   5.128  0.4782 -0.6233  0.3108
 1909SOL    HW216407   3.199   1.110   5.148  0.8950 -0.3456  0.3587
 1910SOL     OW16408   2.407   6.060   0.122 -0.4915 -0.4313 -0.0505
 1910SOL    HW116409   2.380   6.140   0.175 -1.0014  0.9455 -2.3296
 1910SOL    HW216410   2.329   5.996   0.117 -0.2942 -0.7748  1.2213
 1911SOL     OW16411   1.265   4.812   2.720  0.3977  0.2627  0.1616
 1911SOL    HW116412   1.205   4.879   2.677 -0.6342 -0.8108 -0.0981
 1911SOL    HW216413   1.352   4.856   2.744 -1.0001  2.1990  1.8530
 1912SOL     OW16414   0.718   9.789   0.864 -0.2091  0.5709 -0.2443
 1912SOL    HW116415   0.703   9.833   0.776 -1.2511  0.3910 -0.1663
 1912SOL    HW216416   0.801   9.735   0.861 -1.2893 -1.0337 -1.7537
 1913SOL     OW16417   6.630   1.121   3.387 -0.9900 -0.4813  0.6489
 1913SOL    HW116418   6.637   1.021   3.388  1.0972 -0.4268 -1.9906
 1913SOL    HW216419   6.717   1.161   3.415 -0.8167  0.5457 -1.2437
 1914SOL     OW16420   0.082   3.387   2.639  0.4036  0.1523  0.2413
 1914SOL    HW116421   0.055   3.416   2.547  2.6385 -1.5548 -1.0100
 1914SOL    HW216422   0.112   3.466   2.692  1.2400  0.8755 -1.2814
 1915SOL     OW16423   2.798   2.250   1.759  0.8214 -0.1975 -0.3915
 1915SOL    HW116424   2.780   2.345   1.784 -0.2526 -0.7431  1.0049
 1915SOL    HW216425   2.886   2.243   1.713  1.3783  1.3374  0.4259
 1916SOL     OW16426   4.373   8.321   0.255  0.0436 -0.4108  0.2365
 1916SOL    HW116427   4.330   8.269   0.329 -0.4029 -0.0664  0.2240
 1916SOL    HW216428   4.416   8.403   0.293  0.4132 -0.5909  0.2055
 1917SOL     OW16429   1.767   3.867   1.459  0.0110  0.5350 -0.7096
 1917SOL    HW116430   1.685   3.924   1.458  0.2894  0.9558  0.0271
 1917SOL    HW216431   1.847   3.924   1.479  0.0181 -0.4517  2.1921
 1918SOL     OW16432   5.052   9.438   4.602  0.3108 -0.2800 -0.1952
 1918SOL    HW116433   5.133   9.447   4.545  0.3434  0.7447  0.0071
 1918SOL    HW216434   5.008   9.527   4.612  2.2225  0.2916  4.2209
 1919SOL     OW16435   1.088   6.700   3.573  0.2575 -0.6257  0.4660
 1919SOL    HW116436   1.054   6.616   3.529  0.3031 -0.6937  0.5596
 1919SOL    HW216437   1.011   6.750   3.613  0.2130 -0.5476  0.2784
 1920SOL     OW16438   4.376   8.338   3.054  0.3901  0.4083  0.2829
 1920SOL    HW116439   4.412   8.425   3.086 -1.1777  1.0893  0.2652
 1920SOL    HW216440   4.324   8.294   3.128  0.1238  0.0884 -0.0868
 1921SOL     OW16441   1.155   0.173   3.206  0.0876  0.0189  0.0335
 1921SOL    HW116442   1.086   0.103   3.226  1.0196 -0.7790  0.4891
 1921SOL    HW216443   1.246   0.135   3.222  0.6355  1.0479 -0.6392
 1922SOL     OW16444   0.213   5.224   1.606  0.2227 -0.1897  0.6268
 1922SOL    HW116445   0.199   5.280   1.687  1.9675 -0.4667  1.1181
 1922SOL    HW216446   0.162   5.138   1.616 -0.8803  0.4618  0.7075
 1923SOL     OW16447   9.467   0.232   4.398  0.0611 -0.4079 -0.2880
 1923SOL    HW116448   9.462   0.323   4.357  2.2200 -0.6835 -1.2039
 1923SOL    HW216449   9.416   0.232   4.484  1.3227  2.1052  0.5051
 1924SOL     OW16450   9.978   7.630   0.285 -0.5270 -0.1337 -0.2052
 1924SOL    HW116451   9.880   7.651   0.280 -0.7652 -1.2546 -0.2913
 1924SOL    HW216452   9.995   7.572   0.365 -0.2149 -1.4990 -1.2519
 1925SOL     OW16453   2.324   3.902   0.874  0.0448  0.2297  0.3023
 1925SOL    HW116454   2.364   3.812   0.894 -1.9782 -0.2394  2.4511
 1925SOL    HW216455   2.297   3.946   0.959 -1.9579  1.4918 -0.9446
 1926SOL     OW16456   4.077   1.053   3.895  0.2761 -0.3114  0.3355
 1926SOL    HW116457   4.126   1.140   3.890 -0.5494  0.1845  0.6922
 1926SOL    HW216458   4.074   1.011   3.804 -1.5300  1.2921 -0.4076
 1927SOL     OW16459   0.827   8.186   3.899  0.1098  0.4943  0.2424
 1927SOL    HW116460   0.917   8.153   3.927 -0.0897 -0.2442  0.0308
 1927SOL    HW216461   0.832   8.283   3.879  0.9785  0.3490 -0.2760
 1928SOL     OW16462   9.917   0.218   1.842  0.0227 -0.0579 -0.1378
 1928SOL    HW116463   9.857   0.158   1.789  0.0978 -0.2879  0.0347
 1928SOL    HW216464   9.887   0.312   1.833 -1.2736 -0.3407  1.1888
 1929SOL     OW16465   1.977   9.737   3.441 -0.1634  0.1003 -0.0713
 1929SOL    HW116466   1.898   9.751   3.500  0.5570 -1.6636  1.3764
 1929SOL    HW216467   2.050   9.800   3.469  0.3599 -1.0832  1.3138
 1930SOL     OW16468   8.091   9.437   1.168  0.1093 -0.0265  0.1267
 1930SOL    HW116469   8.019   9.506   1.160 -0.3583 -0.5622 -0.3183
 1930SOL    HW216470   8.130   9.440   1.260 -1.6125 -0.8355  0.9059
 1931SOL     OW16471   4.559   2.877   5.629 -0.6995 -0.0713  0.5304
 1931SOL    HW116472   4.628   2.934   5.674 -3.3189  2.4543  1.4537
 1931SOL    HW216473   4.565   2.889   5.530  0.8230 -0.6679  0.5304
 1932SOL     OW16474   1.004   3.101   1.258  0.0103 -0.2121  0.4404
 1932SOL    HW116475   1.047   3.187   1.232 -0.7463 -0.3202 -1.1703
 1932SOL    HW216476   0.921   3.086   1.204 -1.2570 -0.7416  2.4672
 1933SOL     OW16477   8.118   6.367   2.452 -0.1705 -0.5957 -0.7371
 1933SOL    HW116478   8.097   6.291   2.391 -0.4758 -0.6154 -0.6096
 1933SOL    HW216479   8.077   6.350   2.542 -0.8025  0.0230 -0.9022
 1934SOL     OW16480   2.673   0.865   1.092 -0.6318  0.2929 -0.1710
 1934SOL    HW116481   2.644   0.826   1.004 -0.0831  0.0450 -0.2432
 1934SOL    HW216482   2.726   0.797   1.142 -2.4728 -0.2298  1.1476
 1935SOL     OW16483   3.375   2.456   2.379  0.8476  0.2281 -0.0229
 1935SOL    HW116484   3.442   2.531   2.377  0.3353  0.6738 -0.4578
 1935SOL    HW216485   3.423   2.369   2.385  1.4360  0.6977  3.5912
 1936SOL     OW16486   3.549   4.021   5.179 -0.0073 -0.3498  0.7541
 1936SOL    HW116487   3.647   4.013   5.198  0.0887 -2.3307 -0.4645
 1936SOL    HW216488   3.501   4.046   5.263  1.4546 -0.0232  1.5086
 1937SOL     OW16489   3.129   4.065   1.842 -0.2082 -0.5666  0.3681
 1937SOL    HW116490   3.034   4.052   1.870 -0.4053 -1.7436 -0.7595
 1937SOL    HW216491   3.132   4.082   1.743  0.6460  0.9155  0.6386
 1938SOL     OW16492   3.462   5.353   0.884 -0.2554  0.6563  0.3494
 1938SOL    HW116493   3.490   5.264   0.920 -0.8594  0.3628  0.0916
 1938SOL    HW216494   3.378   5.343   0.831  1.1548  0.9107 -2.0169
 1939SOL     OW16495   7.214   9.271   3.286  0.1452  0.0226 -0.0786
 1939SOL    HW116496   7.309   9.268   3.316 -0.1481 -2.3746  0.7093
 1939SOL    HW216497   7.204   9.223   3.198 -0.4982 -0.5584  0.3062
 1940SOL     OW16498   1.932   8.107   1.025 -0.4654  0.2022 -0.4597
 1940SOL    HW116499   1.901   8.090   1.118  1.9735  0.2743  0.3905
 1940SOL    HW216500   1.860   8.081   0.961 -1.8713 -0.5826  1.3937
 1941SOL     OW16501   3.016   4.976   3.290 -0.1139 -0.2833 -0.6633
 1941SOL    HW116502   2.919   4.959   3.270 -0.2139  0.7049 -1.0771
 1941SOL    HW216503   3.024   5.060   3.343  0.6290  0.4364 -1.9153
 1942SOL     OW16504   8.292   8.805   3.352 -0.2891 -0.2689  0.1085
 1942SOL    HW116505   8.260   8.712   3.337 -0.9612  0.2487 -1.7063
 1942SOL    HW216506   8.343   8.837   3.272  1.3616  0.3590  1.3607
 1943SOL     OW16507   9.535   1.679   3.781  0.0704 -0.4491 -0.3542
 1943SOL    HW116508   9.567   1.767   3.745  1.5200 -1.0669 -0.6067
 1943SOL    HW216509   9.564   1.605   3.720 -0.8457 -1.1365  0.0316
 1944SOL     OW16510   2.178   9.919   1.996 -0.1980  0.1165  0.3253
 1944SOL    HW116511   2.139  10.007   1.969  1.4757  1.0264  0.8107
 1944SOL    HW216512   2.179   9.912   2.096  1.0491  0.1999  0.3313
 1945SOL     OW16513   3.878   0.022   2.055  0.6262 -0.4809  0.5185
 1945SOL    HW116514   3.799   0.023   2.115  0.6228 -1.4398  0.5421
 1945SOL    HW216515   3.900   0.115   2.026  0.5229 -0.0343  1.8551
 1946SOL     OW16516   9.121   1.187   3.730 -0.1546  0.4921  0.0979
 1946SOL    HW116517   9.151   1.248   3.656  0.3557  0.4968  0.3093
 1946SOL    HW216518   9.155   1.221   3.817  0.3687 -0.2416  0.1884
 1947SOL     OW16519   0.810   2.118   1.985 -0.2862  0.3944 -0.5449
 1947SOL    HW116520   0.724   2.088   2.026  1.0204  0.3884  2.3349
 1947SOL    HW216521   0.821   2.217   1.997 -0.2015  0.5050 -1.4985
 1948SOL     OW16522   1.864   6.614   5.594  0.0638 -0.0392 -0.1492
 1948SOL    HW116523   1.892   6.704   5.626 -0.7792  0.1389  0.1062
 1948SOL    HW216524   1.900   6.544   5.656 -0.2494  0.1989  0.3038
 1949SOL     OW16525   0.924   7.148   0.177  0.9272 -0.5934 -0.1118
 1949SOL    HW116526   0.946   7.051   0.166 -1.4987 -1.3521  1.4660
 1949SOL    HW216527   0.920   7.192   0.087  1.1030 -2.1614 -0.8869
 1950SOL     OW16528   0.118   2.227   1.786 -0.0073 -0.1145  0.2484
 1950SOL    HW116529   0.206   2.246   1.745  0.8449  1.6191  2.7638
 1950SOL    HW216530   0.045   2.253   1.723  1.2501  1.3735 -0.6108
 1951SOL     OW16531   2.223   2.177   3.160  0.4834 -0.1788  0.1265
 1951SOL    HW116532   2.125   2.180   3.181  0.4538 -0.0618 -0.0321
 1951SOL    HW216533   2.265   2.100   3.209  0.4013  0.0545  0.5621
 1952SOL     OW16534   5.865   8.226   2.301  0.5390 -1.0721 -0.0524
 1952SOL    HW116535   5.908   8.161   2.237  1.2882 -0.3865 -0.2542
 1952SOL    HW216536   5.849   8.313   2.255  2.9242  0.0910  1.2069
 1953SOL     OW16537   9.429   6.266   1.943  0.1609  0.0810 -0.3710
 1953SOL    HW116538   9.379   6.256   2.029 -0.5608 -3.0945 -1.0985
 1953SOL    HW216539   9.370   6.238   1.867  2.0134 -0.7724 -1.5264
 1954SOL     OW16540   2.624   5.753   1.745  0.6940 -0.1341  0.1559
 1954SOL    HW116541   2.667   5.663   1.748  0.0969 -0.4712 -1.0861
 1954SOL    HW216542   2.579   5.765   1.657 -1.0903  0.5211  1.1314
 1955SOL     OW16543   1.187   4.121   1.480  0.5553 -0.2026 -0.3013
 1955SOL    HW116544   1.117   4.190   1.460  1.7527  0.9794 -0.4520
 1955SOL    HW216545   1.158   4.032   1.444 -1.0359  0.1959 -0.0326
 1956SOL     OW16546   0.146   2.044   0.276 -0.6153 -0.2003 -0.0048
 1956SOL    HW116547   0.189   2.132   0.298  0.2796 -0.6736  0.1957
 1956SOL    HW216548   0.112   2.045   0.182 -0.0306  0.1444 -0.2129
 1957SOL     OW16549   3.640   1.899   3.464  0.4150 -0.0123  0.8157
 1957SOL    HW116550   3.738   1.918   3.477  0.6981 -0.3205 -0.7838
 1957SOL    HW216551   3.599   1.972   3.409 -0.0084 -0.4857  0.5077
 1958SOL     OW16552   9.599   2.788   3.345  0.5124 -0.1993 -0.4125
 1958SOL    HW116553   9.634   2.698   3.318  2.4067 -0.1282  1.7038
 1958SOL    HW216554   9.543   2.779   3.427 -1.4390  0.2325 -1.6555
 1959SOL     OW16555   5.401   0.969   0.834  0.8550  0.0732  0.7711
 1959SOL    HW116556   5.481   0.996   0.888  0.8389 -1.4110  1.5509
 1959SOL    HW216557   5.368   0.881   0.865  0.0060 -0.1706 -0.7731
 1960SOL     OW16558   0.881   2.123   5.539  0.0694 -0.2961  0.1383
 1960SOL    HW116559   0.786   2.102   5.515  0.0453  1.3238 -1.3454
 1960SOL    HW216560   0.940   2.047   5.513 -0.3570  0.2110 -2.5182
 1961SOL     OW16561   3.490   1.750   5.550 -0.2632  0.5501  0.3157
 1961SOL    HW116562   3.414   1.755   5.485 -0.7247 -0.5995  0.7467
 1961SOL    HW216563   3.454   1.758   5.643  0.1974  0.4314  0.5025
 1962SOL     OW16564   4.405   0.334   3.763 -0.8522 -0.0587 -0.8347
 1962SOL    HW116565   4.499   0.302   3.753 -1.0375 -0.3539 -1.7190
 1962SOL    HW216566   4.364   0.292   3.844 -0.5791 -0.8034 -1.0805
 1963SOL     OW16567   8.392   1.110   4.147 -0.2441 -0.0764  0.2484
 1963SOL    HW116568   8.411   1.180   4.078  0.2484 -0.7076 -0.2552
 1963SOL    HW216569   8.464   1.111   4.217  0.6768 -1.2237 -0.6718
 1964SOL     OW16570   3.725   7.533   3.196  0.6754  0.4788  0.2533
 1964SOL    HW116571   3.699   7.518   3.101 -0.5949 -1.0607  0.8288
 1964SOL    HW216572   3.800   7.599   3.200 -0.0601  1.4712 -1.7373
 1965SOL     OW16573   9.062   8.756   4.966  0.3206  0.4134  0.5113
 1965SOL    HW116574   9.124   8.793   5.035 -0.4035 -1.0948  1.9972
 1965SOL    HW216575   9.054   8.657   4.978  0.0937  0.1379 -1.6770
 1966SOL     OW16576   1.116   7.641   1.006  0.2890 -0.0134 -0.0789
 1966SOL    HW116577   1.086   7.546   1.013  1.6848 -0.4545  0.1538
 1966SOL    HW216578   1.127   7.679   1.098 -0.0143  0.2816 -0.1669
 1967SOL     OW16579   0.930   4.173   3.371 -0.1525  0.1300  0.7258
 1967SOL    HW116580   0.914   4.267   3.342  0.0186 -0.0110  0.1747
 1967SOL    HW216581   1.009   4.135   3.323 -0.5180 -0.4566  0.5791
 1968SOL     OW16582   5.753   7.073   2.041 -0.0859  0.5526 -0.0490
 1968SOL    HW116583   5.715   7.064   2.133 -1.5240  2.5539 -0.4235
 1968SOL    HW216584   5.680   7.097   1.977  1.1382  0.5133 -1.4770
 1969SOL     OW16585   2.570   3.125   2.465  0.0299  0.7678  0.6072
 1969SOL    HW116586   2.498   3.060   2.441  1.6603 -1.2804  1.1130
 1969SOL    HW216587   2.645   3.117   2.399  0.0817  2.4131  0.4587
 1970SOL     OW16588   0.210   6.266   2.145 -0.1342  0.4917 -0.3952
 1970SOL    HW116589   0.222   6.353   2.097 -1.7386  0.8447 -0.1876
 1970SOL    HW216590   0.263   6.195   2.100 -2.1023  0.6758 -3.0858
 1971SOL     OW16591   0.757   1.168   4.312  0.2328 -0.2987  0.3848
 1971SOL    HW116592   0.855   1.185   4.301  0.1849 -0.9038 -1.0762
 1971SOL    HW216593   0.706   1.248   4.280  0.2532  0.4714  2.1798
 1972SOL     OW16594   9.140   1.923   0.028  0.0540  0.3245  0.0299
 1972SOL    HW116595   9.196   2.005   0.040  0.4265  0.5290 -2.6979
 1972SOL    HW216596   9.178   1.867  -0.046 -1.4091 -1.2620  0.4262
 1973SOL     OW16597   6.174   0.072   0.604 -0.0762  0.0387  0.5797
 1973SOL    HW116598   6.144   0.166   0.594  2.1078  0.7350  0.3655
 1973SOL    HW216599   6.096   0.015   0.630 -2.3916  1.1038 -3.4969
 1974SOL     OW16600   5.340   0.962   4.303 -0.1219 -1.0348  0.0592
 1974SOL    HW116601   5.353   0.965   4.204 -1.6008 -0.2777 -0.1173
 1974SOL    HW216602   5.283   0.883   4.327 -1.4581 -0.0771  0.0972
 1975SOL     OW16603   3.210   6.939   4.641  0.4052  0.4235 -0.6282
 1975SOL    HW116604   3.302   6.947   4.679 -0.2469  0.8896  0.9008
 1975SOL    HW216605   3.172   6.849   4.665 -0.7724  1.4744  1.6441
 1976SOL     OW16606   1.163   1.973   2.322  0.1672  0.7584 -0.1682
 1976SOL    HW116607   1.207   1.889   2.291 -1.3639  0.5688 -1.8810
 1976SOL    HW216608   1.113   1.956   2.406  1.2014  0.3685  0.3829
 1977SOL     OW16609   3.880   7.096   4.047  0.3727 -0.5871 -0.2579
 1977SOL    HW116610   3.973   7.074   4.019  1.1179  1.1356  0.8011
 1977SOL    HW216611   3.820   7.097   3.966  1.6591  0.2136 -1.2172
 1978SOL     OW16612   7.826   0.414   1.381  0.6552 -0.0667  0.1287
 1978SOL    HW116613   7.737   0.383   1.347  1.0453 -0.2380 -0.7607
 1978SOL    HW216614   7.851   0.499   1.336  0.1321  0.9327  1.6975
 1979SOL     OW16615   8.188   1.469   4.026  0.1018  0.4567 -0.3536
 1979SOL    HW116616   8.153   1.507   4.111 -2.0880 -2.4787  0.1252
 1979SOL    HW216617   8.280   1.434   4.040 -1.0252 -1.9193  1.4142
 1980SOL     OW16618   3.396   7.970   5.005 -0.0957  0.5730  0.1123
 1980SOL    HW116619   3.358   7.896   5.060 -0.1082  0.5964  0.1345
 1980SOL    HW216620   3.359   7.964   4.912 -0.5184  0.8854  0.2637
 1981SOL     OW16621   2.109   6.612   3.052  0.2694 -0.5566 -0.2928
 1981SOL    HW116622   2.011   6.598   3.037  0.1550 -1.3920  1.1417
 1981SOL    HW216623   2.124   6.660   3.138  1.1259 -0.4742 -0.4786
 1982SOL     OW16624   0.204   2.484   1.537  0.2234 -0.5563 -0.3935
 1982SOL    HW116625   0.145   2.564   1.528 -1.2318 -1.5492  0.0943
 1982SOL    HW216626   0.216   2.441   1.447  2.7939  1.4263 -1.0423
 1983SOL     OW16627   4.124   8.067   1.174  0.3157  0.3727  0.0287
 1983SOL    HW116628   4.076   8.018   1.101 -0.8779  0.4410  0.7540
 1983SOL    HW216629   4.175   8.001   1.229  1.2912  0.3290 -0.9012
 1984SOL     OW16630   3.141   4.486   4.732  0.0018 -0.0590  0.0377
 1984SOL    HW116631   3.071   4.441   4.788 -0.3698  1.3399  0.7187
 1984SOL    HW216632   3.119   4.475   4.635 -0.9868  0.0720  0.2435
 1985SOL     OW16633   9.403   0.533   0.505  0.3339  0.3787 -0.1500
 1985SOL    HW116634   9.375   0.536   0.409  0.1122 -1.8750 -0.1832
 1985SOL    HW216635   9.346   0.596   0.558  0.4331  1.6117 -1.4796
 1986SOL     OW16636   8.478   6.924   1.680 -0.3099 -0.4646 -0.3442
 1986SOL    HW116637   8.415   6.976   1.737  2.8901  1.8645  1.1933
 1986SOL    HW216638   8.474   6.958   1.586 -0.9783  0.0001 -0.1487
 1987SOL     OW16639   0.652   7.343   4.900 -0.0578  0.0439  0.8953
 1987SOL    HW116640   0.636   7.324   4.997 -0.8805 -0.1296  0.7281
 1987SOL    HW216641   0.750   7.349   4.883  0.1967 -2.5336  1.2411
 1988SOL     OW16642   5.560   0.454   2.692  0.0176  0.3903  0.2861
 1988SOL    HW116643   5.494   0.431   2.620  1.7913 -2.0692 -0.6386
 1988SOL    HW216644   5.652   0.427   2.663  1.0551  1.2535  2.6450
 1989SOL     OW16645   3.459   1.457   3.521  0.0151 -0.0840 -0.0649
 1989SOL    HW116646   3.480   1.383   3.585 -1.3795 -1.2833 -0.9895
 1989SOL    HW216647   3.401   1.525   3.566  0.5744  0.0192  0.5089
 1990SOL     OW16648   0.443   7.356   2.903 -0.3677  0.6192  0.0625
 1990SOL    HW116649   0.540   7.381   2.902 -0.0419 -0.6476 -1.9130
 1990SOL    HW216650   0.430   7.273   2.958 -0.4307  1.1176  0.8097
 1991SOL     OW16651   4.590   2.146   3.005  0.3282  0.0632 -0.3103
 1991SOL    HW116652   4.610   2.217   2.938  0.9073 -0.1672 -0.3872
 1991SOL    HW216653   4.630   2.171   3.093  0.7079 -0.2656 -0.3898
 1992SOL     OW16654   1.544   6.746   0.598 -0.6397 -0.2781 -0.2711
 1992SOL    HW116655   1.447   6.771   0.603 -0.1074  2.1458 -1.7404
 1992SOL    HW216656   1.572   6.739   0.502  1.1020  0.8792  0.1316
 1993SOL     OW16657   9.688   0.318   4.589  0.1643  0.0135  0.2617
 1993SOL    HW116658   9.710   0.244   4.526 -1.1296  0.9740 -1.3613
 1993SOL    HW216659   9.590   0.318   4.607  0.5964 -0.5666  2.7040
 1994SOL     OW16660   4.474   4.146   0.071 -0.4716 -0.2472 -0.2049
 1994SOL    HW116661   4.378   4.116   0.076  0.2142 -3.0726 -2.4765
 1994SOL    HW216662   4.532   4.067   0.052  2.4480  1.3139  1.8030
 1995SOL     OW16663   5.242   6.861   3.074  0.4224  0.2866  0.6357
 1995SOL    HW116664   5.179   6.931   3.040 -0.5820  0.1431  2.1926
 1995SOL    HW216665   5.312   6.845   3.005 -0.6969  1.1177 -0.7415
 1996SOL     OW16666   1.173   6.735   1.565  0.4493 -0.0675 -0.4672
 1996SOL    HW116667   1.177   6.779   1.655  0.6276 -0.9564 -0.0328
 1996SOL    HW216668   1.079   6.711   1.544  0.5317 -0.7562 -0.0708
 1997SOL     OW16669   7.413   0.422   0.483 -0.6518 -0.0888 -0.6731
 1997SOL    HW116670   7.436   0.519   0.490  0.5115 -0.3377 -0.9732
 1997SOL    HW216671   7.446   0.386   0.396  0.7816 -1.2406  0.3142
 1998SOL     OW16672   3.244   2.953   4.528 -0.0844  0.0476 -0.3918
 1998SOL    HW116673   3.272   2.870   4.480 -1.4218  0.5598 -2.1273
 1998SOL    HW216674   3.312   3.025   4.513  0.3790 -0.3222 -0.0583
 1999SOL     OW16675   2.170   4.948   1.624 -0.2794 -0.3895 -0.2242
 1999SOL    HW116676   2.191   4.860   1.581 -0.5940 -0.4460 -0.2610
 1999SOL    HW216677   2.078   4.977   1.598 -0.4987 -0.4611  0.4641
 2000SOL     OW16678   0.375   9.075   3.042  0.0409  0.1016 -0.0825
 2000SOL    HW116679   0.431   9.033   2.971  1.0034  1.0761  0.0925
 2000SOL    HW216680   0.279   9.052   3.027  0.3399 -0.4669 -1.1543
 2001SOL     OW16681   2.257   6.998   5.170  0.1448  0.3446  0.1899
 2001SOL    HW116682   2.273   7.097   5.172 -0.8918  0.5014  0.6011
 2001SOL    HW216683   2.331   6.954   5.118  1.8142  1.1071  1.8390
 2002SOL     OW16684   8.455   8.047   4.086 -0.4562 -0.2194 -0.0668
 2002SOL    HW116685   8.489   8.009   4.000  0.6266  1.0047 -0.2010
 2002SOL    HW216686   8.367   8.092   4.071  0.5094  1.4418 -0.9066
 2003SOL     OW16687   9.576   9.351   5.309  0.1466  0.2295  0.1283
 2003SOL    HW116688   9.573   9.345   5.409  1.7972 -1.7121  0.0863
 2003SOL    HW216689   9.509   9.418   5.278 -0.7513  0.4796  2.5040
 2004SOL     OW16690   7.548   0.388   2.976  0.1309  0.4341  0.1592
 2004SOL    HW116691   7.490   0.467   2.955  0.2458  0.5443  0.2573
 2004SOL    HW216692   7.490   0.309   2.997 -0.0253 -0.1657 -2.3223
 2005SOL     OW16693   2.334   9.775   5.026 -0.0876  0.6887  0.1597
 2005SOL    HW116694   2.335   9.730   5.115  1.1992 -1.0841 -0.7148
 2005SOL    HW216695   2.399   9.852   5.026 -1.4662  1.8841  1.3079
 2006SOL     OW16696   1.179   8.437   4.758 -0.2733  0.2014 -0.1705
 2006SOL    HW116697   1.172   8.481   4.668  0.5291  1.8178  0.5295
 2006SOL    HW216698   1.260   8.378   4.760 -1.6688 -1.8005 -1.3038
 2007SOL     OW16699   1.764   7.079   0.973  0.3744 -0.0601  0.0922
 2007SOL    HW116700   1.742   7.069   1.070  0.4581  1.1097  0.2412
 2007SOL    HW216701   1.685   7.052   0.918 -0.9301  2.5081  0.5855
 2008SOL     OW16702   9.203   5.689   2.846 -0.0689 -0.2727  0.5532
 2008SOL    HW116703   9.196   5.632   2.928  1.4174  0.9694  1.5604
 2008SOL    HW216704   9.283   5.747   2.853  1.2887 -1.6420 -2.7440
 2009SOL     OW16705   3.583   3.719   1.206 -0.4055 -0.4782 -0.1939
 2009SOL    HW116706   3.523   3.736   1.285 -0.6756 -0.5834 -0.3756
 2009SOL    HW216707   3.638   3.638   1.223 -0.0539 -0.1751  0.1254
 2010SOL     OW16708   9.123   1.145   2.808 -0.2166 -0.0492  0.1352
 2010SOL    HW116709   9.181   1.169   2.730  0.5908 -0.7281  0.5244
 2010SOL    HW216710   9.027   1.163   2.785 -0.0490 -0.8991 -1.2567
 2011SOL     OW16711   0.008   9.298   3.189 -0.0625 -0.3306  0.2253
 2011SOL    HW116712   0.091   9.312   3.136  0.6218  0.2617  1.4549
 2011SOL    HW216713  -0.055   9.374   3.173  0.5612  0.3662  1.0296
 2012SOL     OW16714   4.435   0.606   4.877 -0.0924  0.3096  0.0809
 2012SOL    HW116715   4.507   0.542   4.850  0.2427  0.5741  0.3341
 2012SOL    HW216716   4.447   0.630   4.973 -1.0819 -0.3746  0.3850
 2013SOL     OW16717   8.176   4.835   2.012 -0.0437 -0.0535  0.3632
 2013SOL    HW116718   8.087   4.880   2.008 -0.8666 -1.7594 -1.3062
 2013SOL    HW216719   8.196   4.808   2.107 -0.2503  2.3280  1.1079
 2014SOL     OW16720   3.339   8.927   2.376 -0.5189 -0.0932 -0.3989
 2014SOL    HW116721   3.304   8.885   2.461  1.6051 -0.0950  0.5029
 2014SOL    HW216722   3.407   8.867   2.335 -0.5751  0.5331 -1.4222
 2015SOL     OW16723   8.870   2.259   3.164  0.2160 -0.3451 -0.1391
 2015SOL    HW116724   8.911   2.171   3.140 -2.3029 -2.1251  1.8069
 2015SOL    HW216725   8.778   2.265   3.126  0.8514  2.0842 -1.4341
 2016SOL     OW16726   0.561   9.141   3.798 -0.4007  0.2439  0.4889
 2016SOL    HW116727   0.518   9.188   3.875 -0.0574 -0.7155  1.2748
 2016SOL    HW216728   0.491   9.112   3.733 -0.4626  3.8707 -1.2071
 2017SOL     OW16729   0.353   1.781   2.937 -0.3035  0.4983 -0.2017
 2017SOL    HW116730   0.447   1.750   2.929  0.0681  1.7214 -0.6728
 2017SOL    HW216731   0.291   1.710   2.902  0.3864 -0.5776  0.7398
 2018SOL     OW16732   3.098   2.085   1.199 -0.0440 -0.3835  0.6618
 2018SOL    HW116733   3.037   2.163   1.207 -1.2331 -1.3964  1.4824
 2018SOL    HW216734   3.176   2.111   1.141 -1.4473  0.7719 -0.7679
 2019SOL     OW16735   7.468   8.986   0.657 -0.3001 -0.2104  0.2728
 2019SOL    HW116736   7.397   8.937   0.707  1.2283 -1.3429  1.4167
 2019SOL    HW216737   7.529   9.032   0.722 -0.2906  1.1947 -0.7062
 2020SOL     OW16738   2.029   8.452   3.661 -0.1915 -0.2820 -0.2910
 2020SOL    HW116739   2.072   8.515   3.595  0.2232 -0.7717 -0.4917
 2020SOL    HW216740   2.100   8.394   3.702 -0.6406 -0.9886 -0.5080
 2021SOL     OW16741   2.456   3.589   2.648  0.4959 -0.9811  0.7506
 2021SOL    HW116742   2.429   3.519   2.583 -1.3849 -1.5411  2.0725
 2021SOL    HW216743   2.379   3.653   2.661  1.4185  0.0549  1.1999
 2022SOL     OW16744   9.987   9.759   0.166 -0.7125  0.3578  0.6133
 2022SOL    HW116745  10.080   9.730   0.146 -1.0172 -0.9822  1.0819
 2022SOL    HW216746   9.989   9.835   0.231  0.0444 -0.0462  1.0734
 2023SOL     OW16747   2.788   8.232   5.581  0.5656  0.1225 -0.2118
 2023SOL    HW116748   2.768   8.285   5.664  2.7146 -0.9879  1.0614
 2023SOL    HW216749   2.733   8.149   5.580  1.0095 -0.1901  0.4700
 2024SOL     OW16750   4.551   8.757   3.274 -0.7229  0.3487  0.1475
 2024SOL    HW116751   4.553   8.841   3.327  0.9247 -1.2243  2.6901
 2024SOL    HW216752   4.644   8.731   3.248 -1.3283 -0.0275 -1.7629
 2025SOL     OW16753   4.686   7.022   2.762  0.1819 -0.1192 -0.3465
 2025SOL    HW116754   4.696   6.943   2.824 -2.3663 -0.7595 -0.6940
 2025SOL    HW216755   4.592   7.055   2.765  1.1043  2.6070 -0.6245
 2026SOL     OW16756   1.637   4.441   1.828 -0.1492  0.5415 -0.9434
 2026SOL    HW116757   1.614   4.512   1.761 -0.5536  1.8818  0.5680
 2026SOL    HW216758   1.557   4.384   1.844 -0.1871  0.5037 -1.2607
 2027SOL     OW16759   9.632   0.965   4.894 -0.1060  0.6899 -0.5944
 2027SOL    HW116760   9.694   1.024   4.946 -1.6404  1.0706  0.8298
 2027SOL    HW216761   9.596   1.015   4.815  1.2592  0.5125 -1.3475
 2028SOL     OW16762   4.040   7.403   1.392 -0.2635 -0.2537  0.5246
 2028SOL    HW116763   4.042   7.471   1.465  0.7885 -0.2920  0.5374
 2028SOL    HW216764   4.115   7.338   1.404 -0.1882 -0.3669 -0.4879
 2029SOL     OW16765   4.748   6.944   3.639  0.2853 -0.2563 -0.2611
 2029SOL    HW116766   4.802   6.983   3.713 -1.4740  0.8837  0.4526
 2029SOL    HW216767   4.651   6.942   3.665 -0.1288 -1.5408 -1.8076
 2030SOL     OW16768   7.466   9.278   3.353  0.5751  0.0524  0.1024
 2030SOL    HW116769   7.516   9.302   3.436  0.3182  0.7920  0.0483
 2030SOL    HW216770   7.484   9.346   3.282 -0.5599  0.3885  0.1127
 2031SOL     OW16771   1.928   3.788   4.832 -0.0723 -0.0632  0.6342
 2031SOL    HW116772   2.012   3.737   4.816 -0.6289 -0.5040 -0.9299
 2031SOL    HW216773   1.942   3.853   4.907  1.2691 -1.0206  1.2305
 2032SOL     OW16774   9.739   8.667   3.297 -0.9586 -0.1127 -0.8535
 2032SOL    HW116775   9.687   8.582   3.309 -0.9142 -0.0709 -0.3771
 2032SOL    HW216776   9.719   8.730   3.372  0.5225 -0.4670 -0.1463
 2033SOL     OW16777   1.396   1.203   5.296 -0.3278  0.3374 -0.2362
 2033SOL    HW116778   1.471   1.248   5.346 -0.5432  1.0350 -0.5344
 2033SOL    HW216779   1.326   1.271   5.273 -0.7868 -0.2074 -0.4557
 2034SOL     OW16780   5.428   1.164   2.691  0.0366 -0.2042 -0.7293
 2034SOL    HW116781   5.380   1.214   2.763  0.4549 -1.0191  0.1221
 2034SOL    HW216782   5.493   1.101   2.732  0.4287 -0.5279 -1.8339
 2035SOL     OW16783   8.346   0.220   5.620  0.5346 -0.1843 -0.0697
 2035SOL    HW116784   8.427   0.265   5.582 -0.1092 -0.3330 -1.6821
 2035SOL    HW216785   8.333   0.131   5.575  0.1642 -0.6934  1.0411
 2036SOL     OW16786   3.657   3.359   1.791  0.4999  0.5930  0.0431
 2036SOL    HW116787   3.563   3.383   1.813 -0.2301 -2.0312 -0.0805
 2036SOL    HW216788   3.663   3.326   1.697  1.2096 -0.7769  0.5400
 2037SOL     OW16789   3.624   4.714   4.961  0.6718 -0.2637  0.1546
 2037SOL    HW116790   3.590   4.657   4.886 -0.6315 -2.3681  2.2568
 2037SOL    HW216791   3.723   4.706   4.968  0.4013 -3.4139  1.2269
 2038SOL     OW16792   3.288   2.237   3.485  0.2065 -0.4299 -0.0402
 2038SOL    HW116793   3.205   2.200   3.444 -0.0360  1.3693 -1.2464
 2038SOL    HW216794   3.289   2.337   3.474  2.2233 -0.3671  0.4958
 2039SOL     OW16795   0.382   1.758   4.622 -0.2883 -0.3153 -0.5147
 2039SOL    HW116796   0.431   1.672   4.607  0.2833 -0.0690 -0.0570
 2039SOL    HW216797   0.446   1.828   4.656 -1.1280 -0.2407  0.9410
 2040SOL     OW16798   7.828   1.923   2.424  0.5395 -0.4672 -0.0989
 2040SOL    HW116799   7.832   1.962   2.516  1.8790  0.2604 -0.4449
 2040SOL    HW216800   7.895   1.969   2.365  0.0967 -1.3083 -1.2908
 2041SOL     OW16801   2.139   9.307   3.253 -0.5822 -0.1286 -0.2798
 2041SOL    HW116802   2.125   9.259   3.340  0.4474 -0.4465 -0.2924
 2041SOL    HW216803   2.145   9.405   3.271 -1.0576 -0.1334 -0.0751
 2042SOL     OW16804   2.485   8.071   2.137  0.3957 -0.3648 -0.4561
 2042SOL    HW116805   2.526   8.057   2.227 -1.1955 -1.4526  0.1270
 2042SOL    HW216806   2.410   8.006   2.124  1.7821 -1.4603 -3.3212
 2043SOL     OW16807   3.757   8.375   0.591 -0.6897  0.6199 -0.0264
 2043SOL    HW116808   3.681   8.396   0.530 -1.3025 -0.6878  0.2693
 2043SOL    HW216809   3.728   8.384   0.686 -0.9747 -1.4322  0.1145
 2044SOL     OW16810   1.258   0.325   3.481  0.3375  0.0509 -0.5307
 2044SOL    HW116811   1.222   0.233   3.495  0.4767  0.0619 -0.0981
 2044SOL    HW216812   1.337   0.321   3.419  1.9488 -0.4595  1.4746
 2045SOL     OW16813   2.838   6.963   0.806 -0.0897 -0.1878 -0.0951
 2045SOL    HW116814   2.768   6.970   0.736 -1.8662 -2.7217  1.3341
 2045SOL    HW216815   2.896   6.883   0.787  0.6943  0.3081  0.2007
 2046SOL     OW16816   0.038   9.411   2.890 -0.3236  0.4477  0.5715
 2046SOL    HW116817   0.046   9.334   2.826  2.0535  2.1959 -1.3396
 2046SOL    HW216818   0.121   9.416   2.946 -0.3817  1.7140  0.5526
 2047SOL     OW16819   9.853   4.041   1.803  0.4793 -0.2624  0.0990
 2047SOL    HW116820   9.887   4.013   1.713  1.8632  0.6012  0.3395
 2047SOL    HW216821   9.757   4.013   1.813  0.6717 -1.3956 -1.1796
 2048SOL     OW16822   1.100   1.879   1.347 -0.4434  0.5928 -1.0919
 2048SOL    HW116823   1.068   1.972   1.331 -0.2076  0.9591  0.4794
 2048SOL    HW216824   1.197   1.873   1.326 -0.7597  0.3561 -2.5050
 2049SOL     OW16825   0.858   7.493   5.609 -0.0323 -0.3203 -0.7784
 2049SOL    HW116826   0.909   7.517   5.692 -0.2317 -2.3246 -0.0395
 2049SOL    HW216827   0.784   7.559   5.595  0.2675  0.2823  0.4176
 2050SOL     OW16828   1.404   7.017   2.274 -0.3803  0.2897 -0.2169
 2050SOL    HW116829   1.502   7.031   2.267 -0.3616 -0.8403 -3.0691
 2050SOL    HW216830   1.356   7.100   2.246 -0.2124 -0.0543 -1.5774
 2051SOL     OW16831   1.515   8.827   1.519  0.3283  0.4502  0.4062
 2051SOL    HW116832   1.442   8.803   1.454  0.8757 -0.3050  0.0687
 2051SOL    HW216833   1.480   8.893   1.585 -0.8436 -0.3978  0.6351
 2052SOL     OW16834   1.417   0.862   0.413  0.3911 -0.0605  0.0161
 2052SOL    HW116835   1.444   0.797   0.342  1.6664  0.9962 -0.4921
 2052SOL    HW216836   1.490   0.867   0.482  0.3625  0.9116 -0.0168
 2053SOL     OW16837   9.151   9.436   2.599 -0.2132  0.2126  1.0380
 2053SOL    HW116838   9.148   9.361   2.665 -0.5941  0.0233  0.8103
 2053SOL    HW216839   9.058   9.466   2.579 -0.1911 -0.7062 -0.5119
 2054SOL     OW16840   0.523   8.947   0.210 -0.1052 -0.0041  0.0872
 2054SOL    HW116841   0.487   8.921   0.121 -0.3389 -0.0332  0.1914
 2054SOL    HW216842   0.463   9.015   0.252 -0.4434 -0.6034  0.5832
 2055SOL     OW16843   4.005   9.962   1.478  0.9171 -0.2702  0.2014
 2055SOL    HW116844   3.958   9.919   1.401 -1.8739  2.3341  0.3374
 2055SOL    HW216845   4.022   9.894   1.549  1.2820 -2.1735 -1.6605
 2056SOL     OW16846   3.092   7.503   1.225 -0.2961 -0.6525  0.4342
 2056SOL    HW116847   3.150   7.473   1.149  0.5356  1.9592  0.0124
 2056SOL    HW216848   3.012   7.442   1.231  0.0540 -1.4123 -1.9735
 2057SOL     OW16849   1.669   3.775   3.793 -0.0487  0.5262  0.1015
 2057SOL    HW116850   1.637   3.846   3.730 -0.8104 -0.7617 -1.0059
 2057SOL    HW216851   1.610   3.694   3.784  1.7877 -0.8557  0.1245
 2058SOL     OW16852   7.304   8.041   3.927  1.0749  0.0252 -0.4680
 2058SOL    HW116853   7.206   8.057   3.944  0.7449  1.5848 -3.5243
 2058SOL    HW216854   7.339   7.975   3.994 -2.1042 -0.6917  0.5816
 2059SOL     OW16855   3.935   4.792   1.829  0.1284  0.0489 -0.0476
 2059SOL    HW116856   4.001   4.827   1.896  0.0138 -1.6806  1.0064
 2059SOL    HW216857   3.847   4.778   1.874  0.1984 -1.6518 -0.4255
 2060SOL     OW16858   4.294   9.365   3.773  0.0570  0.0648  0.4018
 2060SOL    HW116859   4.216   9.359   3.835 -0.2185 -1.5781 -0.0749
 2060SOL    HW216860   4.363   9.426   3.811 -0.8828  0.4615  1.4690
 2061SOL     OW16861   4.042   5.542   1.194  0.4848  0.1562  0.4636
 2061SOL    HW116862   4.127   5.594   1.201 -0.2423  1.4343  0.0212
 2061SOL    HW216863   3.964   5.605   1.199 -0.3890 -0.7405 -1.4754
 2062SOL     OW16864   4.476   1.042   0.066  0.3383 -0.2532  0.0298
 2062SOL    HW116865   4.502   0.977  -0.006 -0.4900 -0.9230  0.3237
 2062SOL    HW216866   4.520   1.130   0.049  1.0676 -0.7407 -0.6600
 2063SOL     OW16867   9.859   8.871   1.862 -0.3566 -0.2330 -0.0035
 2063SOL    HW116868   9.805   8.790   1.839 -0.6562  0.3598 -1.4802
 2063SOL    HW216869   9.800   8.940   1.905 -0.2457 -0.5444  0.6464
 2064SOL     OW16870   7.029   0.602   0.732 -0.2598 -0.3993 -0.3066
 2064SOL    HW116871   7.103   0.535   0.740 -0.2238 -0.2411  0.7234
 2064SOL    HW216872   6.949   0.558   0.691  0.8526 -0.2161 -2.7473
 2065SOL     OW16873   2.558   6.660   4.948 -0.6195 -0.1849  0.0311
 2065SOL    HW116874   2.512   6.571   4.951 -0.4454 -0.3889 -2.6431
 2065SOL    HW216875   2.635   6.659   5.013  0.5559 -2.6681 -1.3060
 2066SOL     OW16876   1.955   8.231   2.861  0.5930 -0.5779  0.4848
 2066SOL    HW116877   1.961   8.181   2.775  2.4969  0.1080  0.2010
 2066SOL    HW216878   1.973   8.170   2.938  0.6902 -0.7981  0.2846
 2067SOL     OW16879   6.698   0.032   2.655  0.0880 -0.0230 -0.3590
 2067SOL    HW116880   6.688  -0.032   2.579 -0.6812 -0.8284  0.4067
 2067SOL    HW216881   6.625   0.017   2.722 -0.3068  1.8750 -0.3214
 2068SOL     OW16882   1.828   3.122   2.705 -0.3290  0.0031  0.2387
 2068SOL    HW116883   1.758   3.193   2.707 -1.9014 -1.5141  1.5104
 2068SOL    HW216884   1.815   3.061   2.784  0.8512 -1.7759 -0.9051
 2069SOL     OW16885   1.581   0.049   5.035  0.3523  0.0838  0.2809
 2069SOL    HW116886   1.553   0.113   4.964 -0.0303 -1.3991 -0.9378
 2069SOL    HW216887   1.500   0.012   5.081  0.4676 -0.9049 -0.2862
 2070SOL     OW16888   0.939   6.151   2.294 -0.0585 -0.0655  0.3781
 2070SOL    HW116889   0.962   6.054   2.308 -0.0373  0.3123  3.2479
 2070SOL    HW216890   0.840   6.162   2.296 -0.1181 -0.2333 -1.4753
 2071SOL     OW16891   2.445   2.839   4.777 -0.0636  0.4569 -0.0216
 2071SOL    HW116892   2.522   2.903   4.784  1.6361 -1.5034 -0.1512
 2071SOL    HW216893   2.425   2.800   4.867 -1.8799  2.0287  0.2804
 2072SOL     OW16894   9.047   8.670   2.132  0.0028  0.2078 -0.0012
 2072SOL    HW116895   9.109   8.665   2.054 -0.9347  0.9198 -0.8153
 2072SOL    HW216896   8.969   8.728   2.108 -1.3803 -1.3384  0.7063
 2073SOL     OW16897   3.788   4.432   5.512  0.8525  0.2189 -0.5600
 2073SOL    HW116898   3.753   4.339   5.515  0.4226  0.4213  1.0484
 2073SOL    HW216899   3.753   4.479   5.431 -0.6832 -0.3204 -0.2115
 2074SOL     OW16900   9.558   6.501   1.978 -0.6203 -0.0032  0.6007
 2074SOL    HW116901   9.512   6.557   1.909  3.1015 -0.7121 -2.6008
 2074SOL    HW216902   9.509   6.414   1.987 -0.7340 -0.2405 -1.7978
 2075SOL     OW16903   4.386   9.242   4.187  0.4034  0.3198 -0.0752
 2075SOL    HW116904   4.469   9.281   4.146 -1.3146  2.6301 -1.4749
 2075SOL    HW216905   4.352   9.168   4.130  2.0574 -1.3562  1.0601
 2076SOL     OW16906   7.889   0.917   5.073  0.5293  0.7179 -0.3126
 2076SOL    HW116907   7.975   0.888   5.031  0.2732  1.0253 -1.0428
 2076SOL    HW216908   7.851   0.841   5.126  1.2871  0.6049  0.0730
 2077SOL     OW16909   8.128   3.611   2.563 -0.0511  0.5208 -0.3404
 2077SOL    HW116910   8.173   3.544   2.622  1.3448 -2.1976 -4.2999
 2077SOL    HW216911   8.040   3.636   2.603  1.4951 -0.0192  3.6157
 2078SOL     OW16912   1.701   5.922   2.813  0.2072  0.0157 -0.5200
 2078SOL    HW116913   1.652   5.920   2.900 -0.2241  0.7872 -0.7385
 2078SOL    HW216914   1.704   5.830   2.774  0.5367 -0.3578  0.3832
 2079SOL     OW16915   3.488   6.788   2.731  0.2045 -0.3579  0.0011
 2079SOL    HW116916   3.539   6.751   2.809 -0.2331  2.2750  1.6324
 2079SOL    HW216917   3.553   6.821   2.662  0.6106 -2.2070 -0.5060
 2080SOL     OW16918   1.177   1.166   2.099 -0.4820 -0.3433  0.0062
 2080SOL    HW116919   1.181   1.121   2.188 -1.1557 -0.1646  0.1297
 2080SOL    HW216920   1.087   1.206   2.086 -1.1478 -2.2512 -1.6596
 2081SOL     OW16921   3.731   9.903   4.744 -0.1609 -0.1813  0.1349
 2081SOL    HW116922   3.652   9.855   4.706 -0.3169 -0.0720  0.3225
 2081SOL    HW216923   3.707   9.943   4.832  0.9033 -2.4451  1.4866
 2082SOL     OW16924   2.317   2.751   2.946 -0.2823  0.1431  0.1141
 2082SOL    HW116925   2.400   2.807   2.938 -0.6041  0.4593 -1.0091
 2082SOL    HW216926   2.304   2.725   3.042  0.9192  0.3917  0.3573
 2083SOL     OW16927   7.837   3.199   2.959 -0.0650  0.0760 -0.0885
 2083SOL    HW116928   7.851   3.269   2.889 -1.1791  0.7076  0.2996
 2083SOL    HW216929   7.885   3.115   2.933  0.0959  0.5252 -1.2620
 2084SOL     OW16930   5.718   0.660   2.749  0.2744 -0.0655 -0.2080
 2084SOL    HW116931   5.810   0.661   2.712  0.1736 -0.6376 -0.4821
 2084SOL    HW216932   5.675   0.572   2.730 -0.1204 -0.0184  0.4237
 2085SOL     OW16933   0.232   8.267   1.537 -0.0750  0.4502  0.1252
 2085SOL    HW116934   0.264   8.352   1.496  0.9924  0.8729  1.7783
 2085SOL    HW216935   0.188   8.287   1.625 -0.9367 -0.5807 -0.0608
 2086SOL     OW16936   2.777   9.120   0.423 -0.4820  0.2599 -0.1352
 2086SOL    HW116937   2.821   9.209   0.438  1.1756 -0.4962 -0.4983
 2086SOL    HW216938   2.701   9.132   0.358 -0.7281  1.5297  0.3610
 2087SOL     OW16939   4.419   2.083   0.987 -0.0580 -0.4294  0.1362
 2087SOL    HW116940   4.457   2.145   0.918  1.4918 -1.0338  0.4374
 2087SOL    HW216941   4.344   2.129   1.035 -1.5945 -0.2179 -2.3673
 2088SOL     OW16942   0.210   7.559   3.009 -0.7281  0.6605  0.3356
 2088SOL    HW116943   0.247   7.651   3.006 -0.1562  0.4206  0.0161
 2088SOL    HW216944   0.283   7.492   2.994 -0.9350  0.1074  1.7207
 2089SOL     OW16945   0.402   8.271   3.471  0.1191  0.4565  0.5972
 2089SOL    HW116946   0.436   8.180   3.494 -0.8357 -0.3073 -0.9370
 2089SOL    HW216947   0.478   8.330   3.443  0.5816 -0.2483  0.3843
 2090SOL     OW16948   8.601   2.584   3.594 -0.1201  0.4933 -0.1127
 2090SOL    HW116949   8.632   2.544   3.680 -0.6196 -1.3734 -0.7746
 2090SOL    HW216950   8.677   2.587   3.529 -0.1904  0.2165 -0.2068
 2091SOL     OW16951   9.609   9.632   2.517 -0.1076 -0.5258 -0.2189
 2091SOL    HW116952   9.631   9.586   2.603 -0.0084 -0.5335 -0.2493
 2091SOL    HW216953   9.545   9.575   2.464 -0.3413 -0.4205 -0.0515
 2092SOL     OW16954   8.838   8.458   3.884  0.4464 -0.1896 -0.2409
 2092SOL    HW116955   8.770   8.414   3.942  0.9419 -0.4947  0.1139
 2092SOL    HW216956   8.805   8.461   3.790 -0.5576  0.7201  0.1325
 2093SOL     OW16957   0.911   8.778   2.682  0.0698  0.1962 -0.2550
 2093SOL    HW116958   0.843   8.753   2.751  1.0003  0.7298  0.8594
 2093SOL    HW216959   0.984   8.711   2.681 -0.0815  0.0349 -0.9315
 2094SOL     OW16960   0.689   4.563   3.098 -0.5375 -0.2023 -0.0137
 2094SOL    HW116961   0.732   4.575   3.187 -0.3442  1.1880 -0.2861
 2094SOL    HW216962   0.598   4.604   3.099  0.7769  2.9761 -1.4598
 2095SOL     OW16963   2.648   3.399   5.155 -0.1083 -0.3195 -0.5630
 2095SOL    HW116964   2.630   3.496   5.168 -1.6776 -0.2631 -3.0184
 2095SOL    HW216965   2.612   3.348   5.233 -0.4774  0.9391  0.1013
 2096SOL     OW16966   4.801   2.897   0.222 -0.6189  0.4337  0.5744
 2096SOL    HW116967   4.870   2.911   0.293 -0.9055  0.4765  0.8455
 2096SOL    HW216968   4.822   2.813   0.172  0.2151  0.9942 -0.0261
 2097SOL     OW16969   2.050   0.195   1.986 -0.1813 -0.7420  0.1244
 2097SOL    HW116970   1.952   0.195   2.003 -0.1753 -1.0561  0.1664
 2097SOL    HW216971   2.098   0.212   2.072 -0.2444  1.2354 -0.2143
 2098SOL     OW16972   0.646   3.166   3.340 -0.1899 -0.1769  0.5142
 2098SOL    HW116973   0.690   3.224   3.409 -1.2821  0.4189  0.7165
 2098SOL    HW216974   0.692   3.179   3.252  0.9423 -0.6284  1.0258
 2099SOL     OW16975   1.424   1.782   3.990  0.7600 -0.0201  0.8841
 2099SOL    HW116976   1.357   1.781   4.064  1.3054  0.2402  1.3838
 2099SOL    HW216977   1.464   1.691   3.979  0.4900 -0.1212  0.7339
 2100SOL     OW16978   4.025   1.814   1.501 -0.2351 -0.7493 -0.1608
 2100SOL    HW116979   3.946   1.774   1.455 -1.0148  0.1531  0.3669
 2100SOL    HW216980   4.072   1.876   1.438 -1.2417  0.4063  0.2065
 2101SOL     OW16981   8.400   1.294   3.937 -0.4959  0.1503 -0.1191
 2101SOL    HW116982   8.490   1.298   3.894 -0.0162 -0.1854  0.8565
 2101SOL    HW216983   8.330   1.310   3.867  0.3665  2.0746 -0.5955
 2102SOL     OW16984   2.873   5.166   0.795 -0.4713  0.2053  0.2578
 2102SOL    HW116985   2.889   5.218   0.711  0.1945 -1.2379 -0.5361
 2102SOL    HW216986   2.802   5.097   0.779  0.9643 -1.3227  0.2964
 2103SOL     OW16987   1.717   2.856   3.402  0.2590 -0.4039  0.6187
 2103SOL    HW116988   1.631   2.813   3.375  0.3362 -0.7854  0.9757
 2103SOL    HW216989   1.733   2.937   3.346 -0.3775 -0.2805  0.6193
 2104SOL     OW16990   8.605   8.484   1.455  0.1870  0.2442 -0.3084
 2104SOL    HW116991   8.543   8.487   1.377 -1.5852 -1.2376  0.9988
 2104SOL    HW216992   8.699   8.499   1.424 -0.5360  0.0914 -2.6524
 2105SOL     OW16993   4.882   0.703   3.927 -0.3753 -0.5831  0.0915
 2105SOL    HW116994   4.785   0.702   3.900 -0.2292  0.2571 -0.5080
 2105SOL    HW216995   4.922   0.791   3.902  0.1322 -0.3063  1.8330
 2106SOL     OW16996   4.634   9.702   2.339 -0.3569 -0.0420  0.6177
 2106SOL    HW116997   4.568   9.715   2.413  1.0018  1.2745  1.6181
 2106SOL    HW216998   4.727   9.708   2.375  0.3319 -1.1790 -0.9057
 2107SOL     OW16999   8.802   9.051   3.408  0.1195 -0.2998 -0.5058
 2107SOL    HW117000   8.824   9.131   3.464 -0.4242  1.0730 -2.2257
 2107SOL    HW217001   8.787   9.079   3.313  1.8659 -2.7200 -1.5439
 2108SOL     OW17002   2.707   8.392   4.947  0.0724  0.2937 -0.2979
 2108SOL    HW117003   2.719   8.480   4.901 -3.0389  0.0429 -1.7562
 2108SOL    HW217004   2.689   8.407   5.044 -1.0609  1.3478 -0.6492
 2109SOL     OW17005   9.214   4.861   2.023  0.2209  0.1654 -0.0300
 2109SOL    HW117006   9.283   4.821   1.963  1.0137 -1.1143  1.6841
 2109SOL    HW217007   9.133   4.802   2.025 -1.3801  2.1634 -2.8113
 2110SOL     OW17008   8.080   3.229   2.763  0.4797  0.1211 -0.0258
 2110SOL    HW117009   8.128   3.315   2.780  1.5190  0.0021 -2.2981
 2110SOL    HW217010   8.146   3.157   2.744 -0.5330 -0.4090 -1.5690
 2111SOL     OW17011   1.966   5.856   2.487 -0.2039 -0.2016 -0.6375
 2111SOL    HW117012   1.998   5.870   2.581  1.5916  0.8909 -1.3746
 2111SOL    HW217013   1.870   5.882   2.480  0.0642  1.2323  0.5626
 2112SOL     OW17014   8.528   4.259   2.053 -0.1947 -0.1485  0.5498
 2112SOL    HW117015   8.603   4.237   1.992 -0.2409 -0.0617  0.4633
 2112SOL    HW217016   8.520   4.358   2.064 -2.2325  0.0068 -1.8695
 2113SOL     OW17017   2.336   5.199   1.542  0.2483 -0.4483  0.5564
 2113SOL    HW117018   2.433   5.184   1.563  0.1134 -1.2666  0.6006
 2113SOL    HW217019   2.280   5.144   1.604 -0.2434 -0.0116  0.4978
 2114SOL     OW17020   1.004   1.883   0.013  0.0389  0.1132  0.2820
 2114SOL    HW117021   1.075   1.899   0.082  0.5761 -1.9747  0.2252
 2114SOL    HW217022   0.915   1.882   0.058  0.0788  1.9800  0.4633
 2115SOL     OW17023   1.193   9.559   1.043  0.6134 -0.0660 -0.0256
 2115SOL    HW117024   1.228   9.528   1.132 -1.0248 -0.6781  0.4350
 2115SOL    HW217025   1.126   9.492   1.010 -1.2031  1.7895 -0.1719
 2116SOL     OW17026   3.207   9.129   4.211  0.5624  0.5298  0.0759
 2116SOL    HW117027   3.175   9.221   4.191  1.3071  1.2737  2.1491
 2116SOL    HW217028   3.163   9.096   4.295 -0.1674 -1.2547 -0.9821
 2117SOL     OW17029   3.005   5.520   3.106  0.5246  0.2911 -0.2877
 2117SOL    HW117030   2.953   5.543   3.024 -2.1287  0.4639  1.3850
 2117SOL    HW217031   3.007   5.421   3.118  3.1773  0.0934 -1.9334
 2118SOL     OW17032   4.755   1.501   2.835  0.1339 -0.0178  0.9981
 2118SOL    HW117033   4.700   1.434   2.785 -0.5822  0.2581  1.4094
 2118SOL    HW217034   4.850   1.470   2.839 -0.0691 -0.6929  0.6219
 2119SOL     OW17035   0.960   5.865   2.744 -0.1075 -0.0141 -0.0292
 2119SOL    HW117036   1.008   5.800   2.684 -0.4080  0.2314 -0.5379
 2119SOL    HW217037   0.874   5.892   2.702 -0.8029 -0.6201  0.9911
 2120SOL     OW17038   0.697   4.059   0.781  0.4988 -0.4094 -0.2863
 2120SOL    HW117039   0.654   4.096   0.699  1.2655 -0.1621 -0.5777
 2120SOL    HW217040   0.796   4.058   0.769  0.7369  1.2792  1.3228
 2121SOL     OW17041   3.010   4.833   1.526 -0.0612  0.2540  0.0241
 2121SOL    HW117042   2.954   4.750   1.530  3.2788 -2.0991  0.3237
 2121SOL    HW217043   3.055   4.837   1.437  0.3596  1.3630  0.2902
 2122SOL     OW17044   8.170   0.314   3.733 -0.0019  0.6763  0.3021
 2122SOL    HW117045   8.267   0.304   3.711  0.5551  0.0386  2.8818
 2122SOL    HW217046   8.115   0.261   3.668  1.2985  1.7458 -1.6953
 2123SOL     OW17047   3.092   8.475   1.260  0.2489  0.1691 -0.2717
 2123SOL    HW117048   3.177   8.430   1.232  0.0600  0.3257 -1.1245
 2123SOL    HW217049   3.112   8.544   1.329  1.1566  1.8929 -2.2187
 2124SOL     OW17050   9.625   4.350   2.793  0.2786  0.2351  0.0228
 2124SOL    HW117051   9.716   4.329   2.828 -0.4923 -1.5515  1.0646
 2124SOL    HW217052   9.587   4.269   2.747 -1.6419  0.2014  1.5656
 2125SOL     OW17053   9.840   0.033   5.597 -0.6545 -0.5914 -0.3940
 2125SOL    HW117054   9.932   0.065   5.617 -0.9920 -0.1341  0.4442
 2125SOL    HW217055   9.839  -0.067   5.594 -0.0213 -0.5849 -0.9639
 2126SOL     OW17056   9.128   0.099   3.230  0.1438  0.1917 -0.9106
 2126SOL    HW117057   9.084   0.122   3.317  0.5197  0.8610 -0.8906
 2126SOL    HW217058   9.165   0.006   3.235  1.4170  0.7383  0.1719
 2127SOL     OW17059   2.457   3.392   0.586  0.2255 -0.2560  0.0640
 2127SOL    HW117060   2.416   3.302   0.573  0.8374 -0.7360  1.4673
 2127SOL    HW217061   2.503   3.420   0.501 -1.9363 -0.2287 -1.1373
 2128SOL     OW17062   3.723   8.499   3.869 -0.0563 -0.5226 -0.2089
 2128SOL    HW117063   3.722   8.435   3.945  1.2603 -0.1277  0.1563
 2128SOL    HW217064   3.708   8.450   3.783 -0.0927 -1.1659  0.1654
 2129SOL     OW17065   1.687   1.129   3.843 -0.1876  0.3381  0.3465
 2129SOL    HW117066   1.636   1.043   3.836 -0.4290  0.4831  0.2858
 2129SOL    HW217067   1.731   1.149   3.756  0.9078 -0.3536  0.7265
 2130SOL     OW17068   0.654   4.195   3.195 -0.1478  0.3482 -0.0085
 2130SOL    HW117069   0.611   4.235   3.275  2.4694  2.0743  0.5836
 2130SOL    HW217070   0.726   4.132   3.223 -0.9418 -1.0493 -1.0058
 2131SOL     OW17071   1.000   8.311   3.031  0.1684 -0.5129  0.3416
 2131SOL    HW117072   0.926   8.267   3.083 -0.7931 -0.7716 -1.1975
 2131SOL    HW217073   1.067   8.242   3.004 -0.0760 -0.6176  0.0067
 2132SOL     OW17074   4.900   2.954   1.931 -0.1832 -0.0293  0.1877
 2132SOL    HW117075   4.833   3.025   1.952  0.3299  0.3764  0.4355
 2132SOL    HW217076   4.855   2.882   1.877 -1.2953 -0.6854  1.9505
 2133SOL     OW17077   2.674   4.701   1.547 -0.2404  0.1994 -0.0816
 2133SOL    HW117078   2.634   4.619   1.587  1.0126 -0.5099 -0.2609
 2133SOL    HW217079   2.730   4.748   1.615 -1.3562  1.1838  0.1677
 2134SOL     OW17080   2.433   3.127   4.202  0.3169 -0.0532 -0.2160
 2134SOL    HW117081   2.441   3.161   4.108  0.2879 -0.4399 -0.3633
 2134SOL    HW217082   2.405   3.202   4.263  0.3119  0.1941 -0.5211
 2135SOL     OW17083   2.279   7.520   0.698  0.2003  0.4598 -0.5380
 2135SOL    HW117084   2.351   7.516   0.767 -1.5456  0.0977  1.2986
 2135SOL    HW217085   2.255   7.428   0.668 -1.5983  0.3526  1.1213
 2136SOL     OW17086   8.364   9.366   1.561 -0.1941  0.6431  0.0202
 2136SOL    HW117087   8.372   9.450   1.616  0.9487  0.8283 -0.4006
 2136SOL    HW217088   8.373   9.389   1.464  0.5682 -0.0163 -0.0716
 2137SOL     OW17089   7.739   2.633   2.255  0.1173  0.2406  0.1795
 2137SOL    HW117090   7.754   2.553   2.197 -0.5361  0.4326 -0.2618
 2137SOL    HW217091   7.664   2.615   2.318 -0.8723  0.9524 -0.7747
 2138SOL     OW17092   3.398   3.416   1.897  0.6362  0.0528 -0.0432
 2138SOL    HW117093   3.304   3.423   1.863  0.6183 -1.3393 -0.3058
 2138SOL    HW217094   3.415   3.488   1.963 -0.7287  0.1265  0.2337
 2139SOL     OW17095   3.039   9.356   5.611  0.2667 -0.3346  0.0450
 2139SOL    HW117096   2.975   9.429   5.636  1.3553  1.7156 -2.9021
 2139SOL    HW217097   3.081   9.319   5.693  1.4707  4.0245  1.4912
 2140SOL     OW17098   6.880   9.094   2.925 -0.2134 -0.1815 -0.5151
 2140SOL    HW117099   6.835   9.110   3.013  0.5481  1.3492 -0.3913
 2140SOL    HW217100   6.811   9.089   2.853 -0.6662  1.4825 -0.2301
 2141SOL     OW17101   7.481   0.271   3.297 -0.3367 -0.8868  0.5999
 2141SOL    HW117102   7.575   0.270   3.332  0.3261  2.0645 -0.9534
 2141SOL    HW217103   7.420   0.303   3.370  0.0342 -1.4649  1.1780
 2142SOL     OW17104   3.230   9.537   0.181  0.4392  0.2312  0.2490
 2142SOL    HW117105   3.136   9.561   0.160  0.3025  0.9676  1.6481
 2142SOL    HW217106   3.236   9.438   0.194  0.1822 -0.0095 -1.4012
 2143SOL     OW17107   9.999   0.418   5.412  0.2773 -0.3462 -0.1286
 2143SOL    HW117108   9.915   0.423   5.358 -1.0060 -0.4869  1.8191
 2143SOL    HW217109  10.035   0.510   5.426 -0.2203 -0.1833  0.0810
 2144SOL     OW17110   4.927   6.851   1.710  0.3562 -0.2604  0.0355
 2144SOL    HW117111   5.024   6.839   1.689  0.4219  0.4491 -0.0920
 2144SOL    HW217112   4.916   6.867   1.808  0.3654 -0.3986  0.0585
 2145SOL     OW17113   9.684   6.126   1.995 -0.4043  0.7772 -0.3105
 2145SOL    HW117114   9.757   6.191   2.014  0.0010  0.0345  0.7100
 2145SOL    HW217115   9.598   6.176   1.979 -0.1735  1.5492  0.8162
 2146SOL     OW17116   0.455   6.514   2.577 -0.1154  0.1741  0.1694
 2146SOL    HW117117   0.426   6.455   2.501  0.1795 -0.6705  0.7112
 2146SOL    HW217118   0.475   6.605   2.542  0.8709 -0.4429 -0.9196
 2147SOL     OW17119   8.960   2.119   1.248 -0.0845  0.4773  0.1591
 2147SOL    HW117120   9.020   2.129   1.169 -1.5097 -1.4584 -1.2233
 2147SOL    HW217121   8.997   2.051   1.311 -0.4365 -0.1419 -0.3042
 2148SOL     OW17122   4.598   2.350   1.019 -0.3636  0.0431  0.0016
 2148SOL    HW117123   4.602   2.450   1.019 -1.2759  0.1199 -2.4985
 2148SOL    HW217124   4.578   2.318   0.927 -2.1257 -2.3662  1.1760
 2149SOL     OW17125   7.854   0.474   2.792  0.2902 -0.4656 -0.1170
 2149SOL    HW117126   7.853   0.423   2.878 -0.6524  0.6043  0.5256
 2149SOL    HW217127   7.874   0.412   2.716 -3.3237 -2.3199  0.3088
 2150SOL     OW17128   3.210   6.180   3.268  0.6887 -0.2527  0.2020
 2150SOL    HW117129   3.247   6.213   3.355  1.5660  1.1014 -0.6569
 2150SOL    HW217130   3.265   6.104   3.235  0.1276 -1.0103  1.0159
 2151SOL     OW17131   2.983   6.484   0.569  0.2217  0.4514 -0.3552
 2151SOL    HW117132   3.081   6.488   0.551  0.2752 -1.1140 -0.4793
 2151SOL    HW217133   2.949   6.392   0.547 -1.1343  0.7801  0.3367
 2152SOL     OW17134   6.585   9.623   0.772  0.0243 -0.3072 -0.0550
 2152SOL    HW117135   6.677   9.586   0.778  0.0198 -0.4062 -0.5451
 2152SOL    HW217136   6.586   9.707   0.717 -0.2482 -0.5591 -0.4485
 2153SOL     OW17137   2.576   9.004   2.812  0.0151 -0.3675  0.2189
 2153SOL    HW117138   2.565   9.054   2.726  0.5905  2.8568  1.9467
 2153SOL    HW217139   2.656   9.038   2.861 -1.3018 -0.8775  2.8634
 2154SOL     OW17140   3.990   9.347   1.270 -0.3364 -0.1019 -0.5205
 2154SOL    HW117141   4.003   9.338   1.171 -0.0937  0.7134 -0.5674
 2154SOL    HW217142   3.903   9.394   1.288 -0.2976 -0.0958 -0.3480
 2155SOL     OW17143   3.224   1.910   2.788 -0.5213  0.0621 -0.0705
 2155SOL    HW117144   3.213   2.010   2.782 -1.6530 -0.0535  0.0109
 2155SOL    HW217145   3.302   1.889   2.846 -0.1290  0.9039 -0.2732
 2156SOL     OW17146   3.117   0.661   1.089 -0.1909  0.4028  0.0876
 2156SOL    HW117147   3.134   0.721   1.167  0.5938  0.7257 -0.3181
 2156SOL    HW217148   3.077   0.714   1.015  1.2135  0.6131 -0.5455
 2157SOL     OW17149   3.108   9.347   1.050  0.6468  0.1253  0.1572
 2157SOL    HW117150   3.088   9.251   1.032  0.7585 -0.1190  1.3087
 2157SOL    HW217151   3.206   9.359   1.066  0.8174  0.6335 -1.1903
 2158SOL     OW17152   6.724   1.128   2.859  0.7927 -0.5187  0.0707
 2158SOL    HW117153   6.818   1.155   2.838  0.1011  1.1033 -1.0171
 2158SOL    HW217154   6.694   1.058   2.794 -0.3319  2.3835 -2.7197
 2159SOL     OW17155   9.068   1.047   1.998  0.6646  0.2433 -0.0204
 2159SOL    HW117156   9.100   1.013   1.909  0.4129 -0.9459  0.3392
 2159SOL    HW217157   8.971   1.071   1.992  0.0991 -1.8300  0.4769
 2160SOL     OW17158   0.850   0.317   0.713 -0.0532  0.2357 -1.0280
 2160SOL    HW117159   0.934   0.268   0.688  0.4599  0.0283  1.0091
 2160SOL    HW217160   0.777   0.252   0.731  0.1372  0.2893 -0.0461
 2161SOL     OW17161   9.133   4.785   1.687 -0.4099  0.6084 -0.7392
 2161SOL    HW117162   9.210   4.735   1.727 -1.4102  0.9027  1.6485
 2161SOL    HW217163   9.166   4.845   1.615  1.7982  1.5978  1.0334
 2162SOL     OW17164   2.052   0.018   0.603 -0.1442 -0.4409  0.3010
 2162SOL    HW117165   2.071   0.115   0.618 -0.5089 -0.0647 -1.4748
 2162SOL    HW217166   2.120  -0.038   0.651  0.8010  0.7236  0.3223
 2163SOL     OW17167   1.538   1.024   1.823  0.0575 -0.1316 -0.0428
 2163SOL    HW117168   1.624   1.059   1.784  0.0740 -0.8182 -0.6152
 2163SOL    HW217169   1.470   1.014   1.751  0.1650 -1.6510  0.0573
 2164SOL     OW17170   0.447   0.517   4.300  0.1558  0.1561  0.4233
 2164SOL    HW117171   0.477   0.589   4.238 -0.1650 -0.1291 -0.0611
 2164SOL    HW217172   0.419   0.437   4.248 -1.5462  0.4504  0.8684
 2165SOL     OW17173   0.074   1.375   5.610 -0.3101  0.4899  0.7139
 2165SOL    HW117174   0.111   1.445   5.671 -0.4776  0.3359  0.9891
 2165SOL    HW217175  -0.015   1.405   5.575 -1.1829 -0.3374  2.1727
 2166SOL     OW17176   7.410   0.170   0.598 -0.4852  0.9516 -0.2375
 2166SOL    HW117177   7.418   0.252   0.542 -0.3680  0.5794 -0.7760
 2166SOL    HW217178   7.441   0.090   0.545 -2.3761  0.2860 -0.3733
 2167SOL     OW17179   4.674   1.112   3.644  0.1052  0.1495  0.0997
 2167SOL    HW117180   4.770   1.093   3.626 -0.1219  0.6043 -1.7091
 2167SOL    HW217181   4.666   1.198   3.694  0.5798  0.7991 -0.9214
 2168SOL     OW17182   4.623   0.201   2.838 -0.3195 -0.4526  0.4499
 2168SOL    HW117183   4.546   0.146   2.806 -1.1764 -0.4976  2.4686
 2168SOL    HW217184   4.705   0.144   2.845 -0.9039 -1.1867  1.3922
 2169SOL     OW17185   0.395   8.064   4.370  0.0358  0.0455 -0.0576
 2169SOL    HW117186   0.375   7.976   4.413  0.5287 -0.6472 -1.2112
 2169SOL    HW217187   0.325   8.084   4.301  0.2772  0.2334 -0.2515
 2170SOL     OW17188   3.143   2.470   1.820 -0.0430 -0.3489  0.2323
 2170SOL    HW117189   3.126   2.389   1.764 -1.6787  0.0540  0.1109
 2170SOL    HW217190   3.092   2.548   1.783  0.8310  0.5315  0.8424
 2171SOL     OW17191   9.891   0.536   2.771 -0.4547  0.6275 -0.0363
 2171SOL    HW117192   9.840   0.471   2.715 -0.9264  0.9284  0.0403
 2171SOL    HW217193   9.871   0.629   2.740  0.9326  0.7047 -0.7561
 2172SOL     OW17194   9.776   7.306   1.135  0.0873  0.3323 -0.5231
 2172SOL    HW117195   9.787   7.405   1.135 -1.5167  0.5290 -1.7209
 2172SOL    HW217196   9.866   7.262   1.144  0.7775  1.8763  0.2656
 2173SOL     OW17197   1.495   7.806   2.023  0.0202 -0.4942 -0.5582
 2173SOL    HW117198   1.439   7.864   2.083  2.3330 -0.3405  1.5170
 2173SOL    HW217199   1.522   7.857   1.942  0.5809  0.7514  0.4079
 2174SOL     OW17200   9.941   1.621   4.309 -0.3992 -0.0056  0.3859
 2174SOL    HW117201   9.860   1.597   4.361 -0.5600 -0.5212 -0.0909
 2174SOL    HW217202  10.023   1.604   4.364 -0.5691 -0.5022  0.4861
 2175SOL     OW17203   1.671   0.823   4.199 -0.0846 -0.2662  0.0270
 2175SOL    HW117204   1.593   0.866   4.246 -0.1047 -1.6177  1.2606
 2175SOL    HW217205   1.755   0.872   4.222 -0.4328  0.6678 -0.6229
 2176SOL     OW17206   1.860   0.941   1.429 -0.0998 -0.0215  0.1142
 2176SOL    HW117207   1.902   0.938   1.339  0.4416 -2.4547  0.4148
 2176SOL    HW217208   1.921   0.988   1.493 -0.1180  0.9581 -0.5821
 2177SOL     OW17209   5.639   7.731   1.408 -0.6701 -0.0618  0.2951
 2177SOL    HW117210   5.576   7.699   1.336 -2.1077  0.3631  1.3300
 2177SOL    HW217211   5.648   7.660   1.478  2.4671 -1.3600 -1.3617
 2178SOL     OW17212   8.073   9.765   0.228 -0.6397 -0.6994 -0.5342
 2178SOL    HW117213   8.129   9.682   0.237  0.0272  0.0279  2.3497
 2178SOL    HW217214   8.132   9.846   0.238 -1.9510  0.0877  0.9043
 2179SOL     OW17215   9.248   0.936   3.750  0.0644  0.2138  0.0988
 2179SOL    HW117216   9.192   1.017   3.736  0.0262  0.2152  0.2667
 2179SOL    HW217217   9.301   0.917   3.667  0.4150  0.6727  0.2175
 2180SOL     OW17218   7.074   0.773   3.484  0.1836  0.2428 -0.0228
 2180SOL    HW117219   7.045   0.763   3.579 -0.8381  2.8874 -0.0147
 2180SOL    HW217220   6.993   0.778   3.424  0.8024 -0.6507 -0.9503
 2181SOL     OW17221   8.706   2.225   2.848 -0.4100  0.1020 -0.1346
 2181SOL    HW117222   8.758   2.149   2.810  0.8677  0.4804  0.8218
 2181SOL    HW217223   8.677   2.203   2.941  1.3704  1.4045  0.7495
 2182SOL     OW17224   0.119   2.109   3.366  0.3916  0.0674 -0.0247
 2182SOL    HW117225   0.149   2.035   3.306  3.5344  0.8938  0.4839
 2182SOL    HW217226   0.130   2.197   3.320 -0.3602  0.4663  0.5364
 2183SOL     OW17227   0.754   2.431   3.519 -0.3791 -0.3218  0.4987
 2183SOL    HW117228   0.734   2.427   3.617 -0.0596  1.5697  0.6674
 2183SOL    HW217229   0.682   2.481   3.472 -1.0153 -2.0444 -0.3971
 2184SOL     OW17230   6.885   9.284   3.660 -0.6897 -0.7449 -0.2312
 2184SOL    HW117231   6.874   9.307   3.757  0.2207 -1.5914  0.0766
 2184SOL    HW217232   6.962   9.222   3.648 -0.5188 -0.2987 -1.5638
 2185SOL     OW17233   2.064   4.776   0.245  0.1752 -0.0913  0.3466
 2185SOL    HW117234   1.976   4.769   0.197  0.9959 -0.9545 -1.0839
 2185SOL    HW217235   2.117   4.693   0.229  0.3138 -0.5735  3.1452
 2186SOL     OW17236   4.203   7.651   3.701 -0.0661  0.4816  0.0200
 2186SOL    HW117237   4.117   7.609   3.730  0.2909 -0.4320 -0.2280
 2186SOL    HW217238   4.268   7.649   3.777  1.0831 -2.4777 -0.9690
 2187SOL     OW17239   8.980   2.338   2.757 -0.0998  0.2260  0.3068
 2187SOL    HW117240   8.987   2.309   2.661 -0.1808  1.2248 -0.0069
 2187SOL    HW217241   8.884   2.341   2.784 -0.0075 -1.4712  0.8692
 2188SOL     OW17242   3.949   3.743   2.020  0.5310 -0.0339 -0.0036
 2188SOL    HW117243   4.031   3.799   2.025  0.8759 -0.5388 -0.0536
 2188SOL    HW217244   3.885   3.783   1.955  0.2283  1.0300  0.9156
 2189SOL     OW17245   1.076   6.663   1.013 -0.3943 -0.0540  0.4442
 2189SOL    HW117246   1.080   6.642   0.916  0.5827  3.9454 -0.4792
 2189SOL    HW217247   1.005   6.607   1.057 -0.6163 -2.1361 -2.4801
 2190SOL     OW17248   4.128   7.081   3.917 -0.1024  0.0389  0.5850
 2190SOL    HW117249   4.151   7.143   3.842  1.5082 -0.4461  0.6462
 2190SOL    HW217250   4.213   7.046   3.958 -0.9729 -0.4554  1.9988
 2191SOL     OW17251   6.369   0.874   2.755  0.4755  0.0865  0.1498
 2191SOL    HW117252   6.355   0.826   2.841 -1.2171 -1.0372 -0.7178
 2191SOL    HW217253   6.347   0.971   2.766 -1.2111 -0.3285  0.6332
 2192SOL     OW17254   9.761   1.975   3.365 -0.0319  0.4456 -0.8942
 2192SOL    HW117255   9.800   2.058   3.404 -0.8308 -0.0998  1.0990
 2192SOL    HW217256   9.692   2.000   3.297 -0.8387  1.4180  0.2749
 2193SOL     OW17257   2.823   0.865   0.406  0.3648 -1.0189 -0.5210
 2193SOL    HW117258   2.920   0.843   0.420  0.7128  0.2484 -0.8964
 2193SOL    HW217259   2.767   0.808   0.466  1.3405 -1.7633 -0.2983
 2194SOL     OW17260   3.970   0.012   0.591  0.0677  0.7303  0.0009
 2194SOL    HW117261   4.063  -0.002   0.557 -0.2822 -0.4952 -0.4677
 2194SOL    HW217262   3.928  -0.076   0.613 -1.0014  1.2657  0.1660
 2195SOL     OW17263   2.255   8.786   1.449  0.1144  0.3083 -0.2149
 2195SOL    HW117264   2.258   8.793   1.548  1.9863  0.3776 -0.2510
 2195SOL    HW217265   2.302   8.865   1.409  0.7720 -0.5205 -1.1119
 2196SOL     OW17266   1.652   0.411   2.253  0.1638 -0.1764 -0.2698
 2196SOL    HW117267   1.567   0.453   2.222  0.4123 -0.5128 -1.4335
 2196SOL    HW217268   1.708   0.387   2.174  0.2579 -2.2009  0.3743
 2197SOL     OW17269   0.596   7.731   0.634 -0.1071 -0.3491  0.2705
 2197SOL    HW117270   0.550   7.814   0.603 -1.1595 -2.0946 -3.1903
 2197SOL    HW217271   0.652   7.751   0.714  1.2053  4.1168 -1.5911
 2198SOL     OW17272   3.146   4.233   0.271 -0.1534 -0.6908 -0.6602
 2198SOL    HW117273   3.210   4.161   0.244 -1.1387 -1.7856 -0.0942
 2198SOL    HW217274   3.082   4.198   0.338  0.6250  1.3078  1.1832
 2199SOL     OW17275   8.930   1.805   4.460 -0.1752  0.0061 -0.0332
 2199SOL    HW117276   8.977   1.858   4.531  2.4083 -0.3430 -1.4224
 2199SOL    HW217277   8.992   1.790   4.383 -2.3794 -1.0766 -1.6558
 2200SOL     OW17278   7.919   1.246   2.756 -0.4520  0.4476  0.1370
 2200SOL    HW117279   7.832   1.212   2.721 -0.3579  1.0696 -0.7090
 2200SOL    HW217280   7.903   1.326   2.814 -0.5357 -0.1123  0.9019
 2201SOL     OW17281   5.443   1.054   3.960 -0.1648 -0.1048  0.0363
 2201SOL    HW117282   5.494   0.974   3.993 -0.2695  0.1678  0.8742
 2201SOL    HW217283   5.393   1.030   3.877 -1.6280 -1.4403  1.2575
 2202SOL     OW17284   8.360   7.680   2.093  0.5450 -0.7099 -0.2347
 2202SOL    HW117285   8.392   7.592   2.058  0.1824 -0.4505 -1.2547
 2202SOL    HW217286   8.272   7.702   2.051  0.6167  0.1279  0.0395
 2203SOL     OW17287   6.997   0.266   1.400 -0.3602 -0.2541 -0.3405
 2203SOL    HW117288   7.085   0.305   1.426 -0.1634 -0.6380 -0.4319
 2203SOL    HW217289   6.998   0.242   1.303 -0.7857  0.3365 -0.4930
 2204SOL     OW17290   0.275   6.361   3.508  0.1466  0.7549  0.2178
 2204SOL    HW117291   0.186   6.316   3.502  0.0442  0.9188  0.5252
 2204SOL    HW217292   0.281   6.413   3.593  0.2244  1.4016 -0.1772
 2205SOL     OW17293   9.718   6.792   1.819 -0.5171 -0.3657 -0.1061
 2205SOL    HW117294   9.721   6.828   1.726 -0.3209 -0.0145  0.0363
 2205SOL    HW217295   9.657   6.713   1.822  0.0771 -0.8514 -0.6976
 2206SOL     OW17296   8.493   8.680   2.191 -0.2584  0.2994 -0.3725
 2206SOL    HW117297   8.547   8.757   2.158  0.4929 -0.0898 -0.0672
 2206SOL    HW217298   8.431   8.711   2.263  0.2829  0.5550 -0.0159
 2207SOL     OW17299   2.674   7.813   4.523 -0.2081  0.2105 -0.0128
 2207SOL    HW117300   2.709   7.856   4.440  1.3953 -2.5078 -0.8097
 2207SOL    HW217301   2.595   7.865   4.557  2.1018  4.1895 -0.4051
 2208SOL     OW17302   1.055   7.097   5.368 -0.0836 -0.0036 -0.0751
 2208SOL    HW117303   1.029   7.017   5.314 -0.5487 -0.8755  1.4090
 2208SOL    HW217304   1.129   7.072   5.431 -2.2731 -0.1230  2.5604
 2209SOL     OW17305   1.255   4.617   2.358 -0.5830  0.2110  0.3096
 2209SOL    HW117306   1.343   4.664   2.349  0.1457 -1.6420 -2.6571
 2209SOL    HW217307   1.192   4.649   2.287 -0.7351 -1.8200 -0.5102
 2210SOL     OW17308   4.898   1.374   3.940  0.4809  1.2320  0.2348
 2210SOL    HW117309   4.949   1.291   3.917 -0.1528  0.8221  0.2968
 2210SOL    HW217310   4.831   1.392   3.868 -0.7541  0.5649  1.2115
 2211SOL     OW17311   4.534   1.762   2.679 -0.1925 -0.3632 -0.0005
 2211SOL    HW117312   4.586   1.837   2.639  0.7276 -0.5686  0.8238
 2211SOL    HW217313   4.467   1.798   2.743  0.5562 -0.2777  0.7366
 2212SOL     OW17314   4.866   3.820   1.901 -0.6410  0.0862  0.7796
 2212SOL    HW117315   4.859   3.838   1.803 -1.4253 -1.6851  0.4923
 2212SOL    HW217316   4.776   3.827   1.944 -0.2307  1.3087  1.4659
 2213SOL     OW17317   3.832   2.157   3.893  1.0436 -0.0386  0.2265
 2213SOL    HW117318   3.833   2.157   3.993 -2.1645  1.4773  0.3182
 2213SOL    HW217319   3.853   2.065   3.860 -1.2551 -1.4203  2.4179
 2214SOL     OW17320   3.335   8.097   2.546  0.8104 -0.1225 -0.8884
 2214SOL    HW117321   3.434   8.110   2.545  1.1929 -2.7390 -1.0366
 2214SOL    HW217322   3.306   8.059   2.458  0.0310 -1.5870 -0.0221
 2215SOL     OW17323   2.928   2.861   2.968  0.3619  0.3905  0.2906
 2215SOL    HW117324   2.942   2.804   3.049 -0.1371  0.8125  0.6784
 2215SOL    HW217325   3.014   2.869   2.918 -0.0044 -2.3267 -0.8490
 2216SOL     OW17326   9.429   9.073   2.558 -0.0626 -0.0830  0.5635
 2216SOL    HW117327   9.442   8.974   2.563  0.0148 -0.1274 -0.3233
 2216SOL    HW217328   9.389   9.096   2.469 -0.2923  0.6610  0.8588
 2217SOL     OW17329   1.466   9.547   3.594 -0.0983  0.1384 -0.7532
 2217SOL    HW117330   1.427   9.612   3.658 -2.6757 -2.0363 -0.0144
 2217SOL    HW217331   1.524   9.482   3.644  0.3439  0.2911 -1.0718
 2218SOL     OW17332   9.948   7.723   3.209 -0.8735  0.6477 -0.1362
 2218SOL    HW117333  10.043   7.698   3.230 -0.8973 -0.5054 -1.3442
 2218SOL    HW217334   9.931   7.816   3.241  0.1486  0.2516  1.6513
 2219SOL     OW17335   9.217   0.302   5.132  0.5454  0.3625 -0.8037
 2219SOL    HW117336   9.255   0.313   5.223  2.2949 -1.9365 -1.2049
 2219SOL    HW217337   9.221   0.389   5.083  1.0629  1.2317  0.7622
 2220SOL     OW17338   0.165   1.686   4.866  0.0789  0.5834 -0.5918
 2220SOL    HW117339   0.123   1.713   4.780 -0.9835 -0.0544 -0.2829
 2220SOL    HW217340   0.175   1.766   4.925 -2.5931  0.4285  0.1260
 2221SOL     OW17341   3.531   1.248   5.535 -0.4218 -0.5204  0.4420
 2221SOL    HW117342   3.489   1.271   5.623 -1.7055  0.6657 -0.4522
 2221SOL    HW217343   3.562   1.332   5.491  1.2161 -1.2104  0.2294
 2222SOL     OW17344   1.360   2.292   1.414  0.0145 -0.4841 -0.3669
 2222SOL    HW117345   1.352   2.193   1.401 -0.2386 -0.6518  1.0155
 2222SOL    HW217346   1.430   2.311   1.483 -1.2788  0.2148  0.7651
 2223SOL     OW17347   6.461   1.650   2.243 -1.2061 -0.3284 -0.1998
 2223SOL    HW117348   6.536   1.590   2.214 -1.5142 -0.5986 -0.4366
 2223SOL    HW217349   6.499   1.734   2.282 -0.7673 -0.7614  0.3252
 2224SOL     OW17350   0.894   6.734   2.628 -0.3106  0.0695 -0.0578
 2224SOL    HW117351   0.839   6.804   2.673  0.2337  0.5810 -0.1848
 2224SOL    HW217352   0.843   6.648   2.626 -0.8046  0.3441  0.4970
 2225SOL     OW17353   1.560   7.112   3.994  0.5610  0.4610 -0.8240
 2225SOL    HW117354   1.468   7.148   3.998  0.3093 -0.2378 -0.0838
 2225SOL    HW217355   1.557   7.012   4.000  1.3756  0.4501 -0.4604
 2226SOL     OW17356   0.889   2.178   4.742 -0.4077 -0.0017 -0.1821
 2226SOL    HW117357   0.815   2.215   4.686 -1.1122 -1.7851 -0.4563
 2226SOL    HW217358   0.851   2.132   4.822  0.4743  0.2721  0.3981
 2227SOL     OW17359   2.120   4.434   2.058 -0.4734 -0.2515 -0.3727
 2227SOL    HW117360   2.033   4.419   2.011 -0.5760  1.6084 -0.8056
 2227SOL    HW217361   2.142   4.532   2.059  0.9316 -0.5490  0.9621
 2228SOL     OW17362   7.910   9.466   3.761  0.3860 -0.3027 -0.3550
 2228SOL    HW117363   7.833   9.452   3.698 -0.8473 -1.2879  1.3025
 2228SOL    HW217364   7.903   9.557   3.802  1.3475  0.4487 -1.8147
 2229SOL     OW17365   0.757   8.535   2.577 -0.2031 -0.2452  0.3111
 2229SOL    HW117366   0.724   8.512   2.669  0.4475 -0.5446  0.4649
 2229SOL    HW217367   0.688   8.592   2.531 -0.2000  0.5461  1.2639
 2230SOL     OW17368   2.666   9.253   1.101 -0.6165  0.0450  0.0787
 2230SOL    HW117369   2.719   9.247   1.016 -1.1681  3.3227 -0.5833
 2230SOL    HW217370   2.589   9.189   1.097  1.0654 -1.9688 -0.5919
 2231SOL     OW17371   7.940   7.099   2.856 -0.1293  0.2065  0.2399
 2231SOL    HW117372   7.913   7.005   2.835 -1.4069  0.8205 -0.9304
 2231SOL    HW217373   7.949   7.152   2.771  0.3531  1.2052  0.8953
 2232SOL     OW17374   9.559   8.605   2.392  0.1810 -0.3327  0.2615
 2232SOL    HW117375   9.639   8.606   2.452  1.0424 -0.3764 -0.8679
 2232SOL    HW217376   9.586   8.632   2.299 -0.7773 -2.0600 -0.5536
 2233SOL     OW17377   0.322   8.780   0.626  0.1746  0.2535  0.1253
 2233SOL    HW117378   0.406   8.785   0.572  1.5027 -1.7368  1.9399
 2233SOL    HW217379   0.305   8.685   0.652 -2.5539  0.6607 -0.0444
 2234SOL     OW17380   4.029   9.414   3.874 -0.8138 -0.1477  0.8969
 2234SOL    HW117381   4.056   9.384   3.966 -0.7776 -0.5746  0.7453
 2234SOL    HW217382   3.976   9.342   3.830  1.1278 -0.8727 -0.3082
 2235SOL     OW17383   0.151   8.239   0.807 -0.3182 -0.6591  0.0982
 2235SOL    HW117384   0.121   8.290   0.888  0.0120 -0.2728 -0.0276
 2235SOL    HW217385   0.215   8.167   0.835 -0.1179 -0.4530  0.1645
 2236SOL     OW17386   9.959   7.171   1.525  0.3537 -0.2512 -0.1904
 2236SOL    HW117387  10.014   7.101   1.570 -1.0372  0.0740  2.0972
 2236SOL    HW217388   9.977   7.260   1.567 -0.1208  0.2560 -1.0504
 2237SOL     OW17389   9.788   2.621   0.266  0.0740  0.2116  0.2689
 2237SOL    HW117390   9.719   2.548   0.270 -0.0459  0.3148  0.0614
 2237SOL    HW217391   9.843   2.619   0.350 -0.1572  0.1066  0.4187
 2238SOL     OW17392   0.201   2.418   4.986  0.6673  0.1581  0.4164
 2238SOL    HW117393   0.228   2.445   5.078  1.7898 -0.5093  0.2787
 2238SOL    HW217394   0.234   2.486   4.921  1.1585 -0.1404  0.3529
 2239SOL     OW17395   2.979   8.590   4.776  0.5192  0.1516 -0.0728
 2239SOL    HW117396   3.015   8.575   4.867  1.5504 -0.3089 -0.5465
 2239SOL    HW217397   3.003   8.512   4.718 -1.1002 -0.0924 -0.4413
 2240SOL     OW17398   1.597   2.823   5.393  0.3315  0.1540 -0.5971
 2240SOL    HW117399   1.622   2.917   5.416  2.0154 -0.2711 -0.6142
 2240SOL    HW217400   1.639   2.798   5.306  0.8208 -0.9852 -0.0397
 2241SOL     OW17401   9.507   5.558   1.921 -0.0891  0.2484 -0.5179
 2241SOL    HW117402   9.536   5.561   2.017 -0.9371  0.6742 -0.2741
 2241SOL    HW217403   9.411   5.583   1.914  0.4655  2.1534 -1.6925
 2242SOL     OW17404   3.859   8.962   3.446 -0.6935 -0.5197  0.1665
 2242SOL    HW117405   3.784   8.986   3.507 -0.8316 -2.7413  0.9332
 2242SOL    HW217406   3.822   8.923   3.362 -0.4124 -0.9337  0.2361
 2243SOL     OW17407   4.533   7.085   1.646  0.2926 -0.0833  0.3218
 2243SOL    HW117408   4.460   7.026   1.679  1.2853 -0.9866  0.9116
 2243SOL    HW217409   4.515   7.179   1.676 -1.7062  0.0776 -1.3157
 2244SOL     OW17410   9.810   8.896   4.578  0.2140  0.5321 -0.0392
 2244SOL    HW117411   9.827   8.808   4.621  0.9726  0.6293 -0.1396
 2244SOL    HW217412   9.896   8.937   4.550 -0.1997  0.9139 -0.7707
 2245SOL     OW17413   4.711   3.816   0.166  0.0771 -0.0586  0.0598
 2245SOL    HW117414   4.797   3.767   0.175 -0.0451 -0.2412  0.2353
 2245SOL    HW217415   4.636   3.761   0.205  0.2927  1.2777  2.4718
 2246SOL     OW17416   1.780   0.633   2.407 -1.2173 -0.6432  0.1595
 2246SOL    HW117417   1.686   0.607   2.382 -1.1888 -0.3366 -0.2786
 2246SOL    HW217418   1.791   0.731   2.394 -1.0652 -0.5537  0.9632
 2247SOL     OW17419   4.792   9.892   0.555 -0.1732  0.3824 -0.1775
 2247SOL    HW117420   4.856   9.815   0.565  0.2151  0.8233  0.8971
 2247SOL    HW217421   4.705   9.870   0.599  0.9244  1.6361  2.7791
 2248SOL     OW17422   5.848   9.871   2.792 -0.8220  0.4358  0.6508
 2248SOL    HW117423   5.826   9.774   2.797  1.1487 -0.4092 -4.3549
 2248SOL    HW217424   5.922   9.892   2.856 -0.9122 -1.4569  1.3964
 2249SOL     OW17425   4.622   9.084   3.959 -0.2331 -0.3755  0.0693
 2249SOL    HW117426   4.686   9.013   3.986  0.6941  1.0290  1.6844
 2249SOL    HW217427   4.669   9.149   3.898  0.1891  1.1527  1.9771
 2250SOL     OW17428   2.543   1.351   1.759  0.4273 -0.2767  0.1032
 2250SOL    HW117429   2.597   1.329   1.678 -0.0415 -0.9495 -0.0317
 2250SOL    HW217430   2.571   1.292   1.835 -0.5242 -1.0522 -0.1352
 2251SOL     OW17431   0.923   1.080   3.979  0.4372 -0.2707  0.0320
 2251SOL    HW117432   0.841   1.088   3.924 -0.0128  0.2232  0.7585
 2251SOL    HW217433   0.975   0.999   3.951 -0.6905 -1.0252  0.0996
 2252SOL     OW17434   4.345   3.350   2.193  0.3135  0.6126  0.0373
 2252SOL    HW117435   4.260   3.372   2.143  0.9447  0.4248 -1.1487
 2252SOL    HW217436   4.330   3.268   2.248 -0.7050  1.4103  0.9666
 2253SOL     OW17437   5.280   8.246   3.604 -0.5008  0.1559  0.0667
 2253SOL    HW117438   5.302   8.157   3.565 -1.1353  0.2145 -0.4276
 2253SOL    HW217439   5.183   8.250   3.627 -0.8153  1.2495 -1.3250
 2254SOL     OW17440   5.890   1.333   3.979 -0.3425  0.1612 -0.0269
 2254SOL    HW117441   5.796   1.319   4.010  0.9230  0.5279  4.2515
 2254SOL    HW217442   5.941   1.248   3.992  0.8122  1.0334  1.2411
 2255SOL     OW17443   3.381   7.220   2.389  0.4957  0.9499 -0.2486
 2255SOL    HW117444   3.282   7.217   2.374  0.4353  0.5351  0.2618
 2255SOL    HW217445   3.407   7.312   2.417 -0.0577  0.4910  1.8422
 2256SOL     OW17446   2.057   5.024   3.238 -0.6272  0.0102  0.3718
 2256SOL    HW117447   2.052   5.123   3.251 -0.6970 -0.1542  1.6614
 2256SOL    HW217448   1.987   4.979   3.294  0.6563 -0.8827  1.2832
 2257SOL     OW17449   2.849   9.800   3.597  0.0708  0.9229 -1.0041
 2257SOL    HW117450   2.899   9.775   3.680 -1.5457  0.0274 -0.2814
 2257SOL    HW217451   2.884   9.888   3.563  1.7196  0.5974 -0.1933
 2258SOL     OW17452   2.090   6.962   3.766 -0.1567 -0.0008  0.2835
 2258SOL    HW117453   2.007   6.995   3.720 -1.0655  0.1906  2.0179
 2258SOL    HW217454   2.141   6.902   3.705 -2.2879 -1.2310 -0.3188
 2259SOL     OW17455   8.345   2.038   3.350 -0.0349  1.1061  0.0430
 2259SOL    HW117456   8.327   1.951   3.304 -0.1211 -0.0422  2.1747
 2259SOL    HW217457   8.261   2.070   3.395  0.6800  0.8726  1.5703
 2260SOL     OW17458   1.168   0.264   0.895 -0.2758  0.1918  0.1285
 2260SOL    HW117459   1.115   0.212   0.828  0.7723 -0.9074  0.1459
 2260SOL    HW217460   1.200   0.349   0.852  0.5767 -0.6123 -0.8388
 2261SOL     OW17461   2.456   8.035   1.852 -0.8742  0.0401  0.1344
 2261SOL    HW117462   2.529   7.989   1.802 -1.2135  1.3514 -1.6478
 2261SOL    HW217463   2.495   8.095   1.922 -0.2224  0.6194 -0.7131
 2262SOL     OW17464   2.315   3.626   0.650  0.0597  0.0583  0.1401
 2262SOL    HW117465   2.357   3.536   0.635 -0.3546 -0.2405  0.7708
 2262SOL    HW217466   2.231   3.615   0.703 -0.0447  0.8095  0.1304
 2263SOL     OW17467   3.458   6.669   2.992  0.0637 -0.2862  0.9975
 2263SOL    HW117468   3.493   6.691   3.083  0.6371  0.2868  0.6421
 2263SOL    HW217469   3.362   6.698   2.985  0.9241  2.5242  0.4014
 2264SOL     OW17470   1.993   4.706   1.905 -0.0363 -0.2372  0.1427
 2264SOL    HW117471   2.004   4.789   1.961  1.0745  0.0643 -0.5288
 2264SOL    HW217472   1.925   4.723   1.834 -2.0127 -0.8509  1.8234
 2265SOL     OW17473   1.001   9.067   3.594  0.2894  0.2857  0.1091
 2265SOL    HW117474   1.029   9.161   3.574  0.1329  0.6023  1.2844
 2265SOL    HW217475   1.068   9.003   3.557  0.2098  0.8429 -1.0172
 2266SOL     OW17476   1.766   8.385   2.755 -0.3989  0.2987 -0.2846
 2266SOL    HW117477   1.845   8.336   2.793 -0.0844  0.8741 -0.1885
 2266SOL    HW217478   1.682   8.349   2.796 -0.1170  0.3578  0.3604
 2267SOL     OW17479   8.751   9.098   1.079  0.6966  0.5850  0.3064
 2267SOL    HW117480   8.768   9.008   1.040 -1.0285 -0.7224  2.4511
 2267SOL    HW217481   8.838   9.140   1.106  1.8298  1.0864 -3.8230
 2268SOL     OW17482   5.287   7.795   3.702 -0.6547 -0.5170  0.4519
 2268SOL    HW117483   5.206   7.780   3.645 -1.1309  0.5224  0.8480
 2268SOL    HW217484   5.260   7.834   3.790  0.3683  1.0558  0.1051
 2269SOL     OW17485   4.586   8.926   4.463 -0.3158 -0.1644  0.0625
 2269SOL    HW117486   4.489   8.948   4.476 -0.4125 -0.5379 -0.0474
 2269SOL    HW217487   4.636   9.010   4.442 -1.0215 -0.3354 -2.3543
 2270SOL     OW17488   0.360   1.022   1.290  0.1176 -0.2084 -0.3358
 2270SOL    HW117489   0.357   0.992   1.385  1.8804  0.3518 -0.1070
 2270SOL    HW217490   0.444   0.990   1.247 -0.4213 -0.0125 -1.5746
 2271SOL     OW17491   1.446   7.249   1.181 -0.1075 -0.2689  0.1961
 2271SOL    HW117492   1.384   7.291   1.247  0.2702  1.1300 -0.3234
 2271SOL    HW217493   1.425   7.151   1.173 -0.3385 -0.3974  2.1642
 2272SOL     OW17494   7.564   0.110   1.989  0.3360 -0.2941  0.0389
 2272SOL    HW117495   7.524   0.117   2.080  1.4324  1.4796  0.3857
 2272SOL    HW217496   7.492   0.126   1.920 -0.0078  0.6591  0.6200
 2273SOL     OW17497   5.046   9.904   1.585  0.0197  0.0162 -0.1996
 2273SOL    HW117498   4.985   9.834   1.623 -1.0457  1.1177  0.1412
 2273SOL    HW217499   5.132   9.861   1.557 -1.7127 -1.9528 -2.7574
 2274SOL     OW17500   7.706   1.392   0.753 -0.3509 -0.1837 -0.0955
 2274SOL    HW117501   7.739   1.383   0.659  0.5636 -0.2185  0.2244
 2274SOL    HW217502   7.632   1.327   0.769  0.2734 -0.9822 -0.4436
 2275SOL     OW17503   9.297   3.991   1.765 -0.1347  0.0232 -1.2477
 2275SOL    HW117504   9.367   3.977   1.695 -0.2609 -2.3055 -0.9576
 2275SOL    HW217505   9.308   3.922   1.837 -1.5591  0.8196 -0.2362
 2276SOL     OW17506   2.825   3.968   2.342 -0.1554  0.2956  0.2531
 2276SOL    HW117507   2.847   3.927   2.430  1.1939  1.5741  0.5400
 2276SOL    HW217508   2.863   3.913   2.268 -1.4996 -0.9099  0.4401
 2277SOL     OW17509   1.280   1.456   2.397 -0.1876  0.3811 -0.1663
 2277SOL    HW117510   1.288   1.504   2.484  1.9170  0.4922 -0.4034
 2277SOL    HW217511   1.325   1.367   2.404 -0.2542  0.2766 -1.0496
 2278SOL     OW17512   4.285   3.589   1.979  0.3002  0.6133  0.0402
 2278SOL    HW117513   4.230   3.528   2.035  0.6286 -1.0177 -1.3669
 2278SOL    HW217514   4.346   3.642   2.037 -0.1051 -0.2892  1.3055
 2279SOL     OW17515   9.094   6.791   2.996  0.1600 -0.3862  0.0222
 2279SOL    HW117516   9.039   6.779   2.914  0.0994 -0.1364  0.0267
 2279SOL    HW217517   9.179   6.839   2.973 -0.0539  0.0642  0.1818
 2280SOL     OW17518   6.021   0.695   1.585  0.4605  0.0961  0.1076
 2280SOL    HW117519   6.061   0.615   1.629  0.8624 -0.3116 -0.9853
 2280SOL    HW217520   6.068   0.712   1.497  0.4187  1.5409  0.3426
 2281SOL     OW17521   2.429   2.384   5.382 -0.7327  0.3316  0.2144
 2281SOL    HW117522   2.486   2.316   5.335 -1.0482 -0.8415  1.4893
 2281SOL    HW217523   2.487   2.457   5.417 -0.4057  0.8248 -1.2961
 2282SOL     OW17524   8.547   1.749   3.099  0.1405  0.0150 -0.4893
 2282SOL    HW117525   8.631   1.783   3.142  1.8930 -0.9632 -3.0332
 2282SOL    HW217526   8.469   1.778   3.153  2.1511  0.2436  2.4230
 2283SOL     OW17527   2.963   6.078   3.173  0.5503  0.6927 -0.0581
 2283SOL    HW117528   2.962   5.979   3.162  3.0528  0.8957 -2.6358
 2283SOL    HW217529   3.044   6.106   3.225 -0.8991  1.3381  1.9625
 2284SOL     OW17530   1.749   6.205   1.006 -0.4760 -0.4444 -0.2997
 2284SOL    HW117531   1.745   6.274   0.934  0.8669 -0.2664 -0.2090
 2284SOL    HW217532   1.834   6.153   0.998  0.1027  0.1338  1.6675
 2285SOL     OW17533   4.916   9.019   2.819  0.1479 -0.5111  0.0670
 2285SOL    HW117534   4.918   8.919   2.819 -0.2833 -0.5216  0.1232
 2285SOL    HW217535   4.883   9.052   2.731 -1.2680 -0.4605  0.6019
 2286SOL     OW17536   9.490   9.362   4.507 -0.0507  0.1004  0.6149
 2286SOL    HW117537   9.400   9.402   4.523 -0.0197  0.7643 -0.8177
 2286SOL    HW217538   9.561   9.430   4.525  0.1532 -0.2914  1.3187
 2287SOL     OW17539   4.028   3.246   3.623  0.3918 -0.2894  0.4349
 2287SOL    HW117540   3.949   3.288   3.579 -0.2221  1.2863  2.9006
 2287SOL    HW217541   4.103   3.239   3.558 -1.5775 -1.3371 -1.8051
 2288SOL     OW17542   1.889   4.055   1.766  0.3790  0.1624  0.7983
 2288SOL    HW117543   1.986   4.031   1.761  0.1769 -0.9031  1.9718
 2288SOL    HW217544   1.839   4.010   1.692  0.6487  0.0685  0.6748
 2289SOL     OW17545   2.814   1.700   3.801 -0.7083  0.1872 -0.2199
 2289SOL    HW117546   2.792   1.795   3.779 -0.7367 -0.1577 -1.7434
 2289SOL    HW217547   2.899   1.697   3.853 -0.6111  1.0384 -0.3241
 2290SOL     OW17548   5.637   4.146   0.364  0.0482 -0.2998  0.3071
 2290SOL    HW117549   5.732   4.143   0.333 -0.3314  0.6045 -0.9595
 2290SOL    HW217550   5.591   4.061   0.338  0.2567 -0.3633  0.1401
 2291SOL     OW17551   2.351   1.546   4.984  0.9081 -0.4462  0.1831
 2291SOL    HW117552   2.406   1.473   4.944  1.3502  0.0239 -0.0767
 2291SOL    HW217553   2.323   1.520   5.076 -1.4329 -2.2235 -0.9594
 2292SOL     OW17554   0.733   0.159   4.375  0.7879  0.1556 -0.2537
 2292SOL    HW117555   0.674   0.224   4.422  0.2897 -0.8350  0.5160
 2292SOL    HW217556   0.769   0.093   4.440 -0.6372 -1.7941 -1.3801
 2293SOL     OW17557   8.909   2.560   1.904  0.2425 -0.0445 -0.7722
 2293SOL    HW117558   8.934   2.502   1.827  0.4261 -0.1577 -0.6291
 2293SOL    HW217559   8.991   2.604   1.940  0.1386  0.1032 -0.7200
 2294SOL     OW17560   3.549   1.322   5.117 -0.2723 -0.1520  0.6836
 2294SOL    HW117561   3.508   1.241   5.159 -1.9883  0.6270  0.5845
 2294SOL    HW217562   3.538   1.318   5.018 -2.3331  1.1923  0.8183
 2295SOL     OW17563   5.259   9.278   1.625  0.2906 -0.0703 -0.3794
 2295SOL    HW117564   5.190   9.347   1.600 -1.3264 -1.3039  0.5761
 2295SOL    HW217565   5.348   9.321   1.631 -0.5536  1.7696 -0.6976
 2296SOL     OW17566   9.311   0.529   3.369 -0.1037  0.2553  0.3399
 2296SOL    HW117567   9.367   0.594   3.317 -0.5157  1.0312  0.8527
 2296SOL    HW217568   9.240   0.579   3.419  0.4806 -0.4470  1.9065
 2297SOL     OW17569   0.702   8.007   0.496  0.1315 -0.2428 -0.0789
 2297SOL    HW117570   0.767   7.998   0.571  1.2551  2.8573 -0.6217
 2297SOL    HW217571   0.611   7.980   0.527  0.7487  0.1929  2.1453
 2298SOL     OW17572   4.157   7.848   0.086  0.4505  0.4914  0.1713
 2298SOL    HW117573   4.203   7.805   0.009  1.6796 -0.0006  1.1488
 2298SOL    HW217574   4.198   7.937   0.104  0.1498  0.6182  0.2318
 2299SOL     OW17575   4.631   1.919   1.140  0.0829 -0.3052 -0.6070
 2299SOL    HW117576   4.577   1.993   1.099 -0.8919 -1.5022 -1.5157
 2299SOL    HW217577   4.634   1.931   1.239  0.5902  1.3772 -0.8071
 2300SOL     OW17578   4.057   4.406   2.082  0.3684 -0.6157 -0.2149
 2300SOL    HW117579   4.146   4.367   2.057  0.9616  1.2556 -1.1141
 2300SOL    HW217580   3.998   4.333   2.118  0.8104 -2.7258 -3.5061
 2301SOL     OW17581   3.148   8.798   0.356  0.0734 -0.4148 -0.3736
 2301SOL    HW117582   3.178   8.867   0.421 -0.6204 -1.0282  0.6122
 2301SOL    HW217583   3.133   8.711   0.403 -0.7660 -0.7859 -1.2853
 2302SOL     OW17584   9.642   3.864   3.476 -0.2445  0.0101  0.6907
 2302SOL    HW117585   9.716   3.839   3.413 -1.0982  0.6711 -0.6100
 2302SOL    HW217586   9.660   3.954   3.516 -0.4174  0.2546  0.2296
 2303SOL     OW17587   5.973   8.567   1.580  0.5482 -0.0759  0.4860
 2303SOL    HW117588   6.045   8.626   1.545  0.9811 -0.6843  0.3309
 2303SOL    HW217589   5.961   8.489   1.519 -0.0024 -0.1574  0.6942
 2304SOL     OW17590   0.336   5.629   1.457 -0.4393 -0.2299  0.0625
 2304SOL    HW117591   0.398   5.600   1.530 -3.2357  0.1388  2.7131
 2304SOL    HW217592   0.279   5.551   1.430 -3.4294  0.9930  2.5217
 2305SOL     OW17593   4.875   4.120   0.066 -0.3866  0.7245 -0.2588
 2305SOL    HW117594   4.891   4.080   0.157 -0.0455 -0.6449 -0.9061
 2305SOL    HW217595   4.814   4.199   0.075 -0.4084  0.5693  1.1527
 2306SOL     OW17596   3.362   9.195   3.630  0.6648  0.2606 -0.2830
 2306SOL    HW117597   3.403   9.253   3.700 -2.2586  3.5955 -1.1797
 2306SOL    HW217598   3.332   9.251   3.553  1.3135 -2.9970 -3.0027
 2307SOL     OW17599   8.071   0.632   2.865 -0.5433 -0.5921 -0.2628
 2307SOL    HW117600   8.160   0.598   2.835 -0.5329 -0.7291 -0.0728
 2307SOL    HW217601   7.999   0.590   2.809 -0.5423 -1.0469  0.0791
 2308SOL     OW17602   3.487   9.394   1.689 -0.9834 -0.0431  0.0704
 2308SOL    HW117603   3.531   9.373   1.777 -2.1226 -1.5000  0.3034
 2308SOL    HW217604   3.529   9.340   1.617 -0.3967  0.7729 -0.2059
 2309SOL     OW17605   1.385   6.870   2.500 -0.1093  0.2805  1.0040
 2309SOL    HW117606   1.311   6.825   2.549 -1.0367  0.8481  0.1459
 2309SOL    HW217607   1.351   6.905   2.412  1.4670 -0.5492  0.0359
 2310SOL     OW17608   2.877   0.508   1.843  0.8831  0.1895 -0.1637
 2310SOL    HW117609   2.878   0.413   1.811  1.0595 -0.0413  0.5183
 2310SOL    HW217610   2.786   0.547   1.828  0.7353 -0.1680 -0.2029
 2311SOL     OW17611   8.764   3.278   1.105  0.2337  0.1516  0.5556
 2311SOL    HW117612   8.801   3.196   1.061  1.6203  1.1300 -0.1730
 2311SOL    HW217613   8.807   3.290   1.195  0.7763  0.5853  0.2499
 2312SOL     OW17614   1.992   1.976   5.259  0.2620 -0.2498  0.2143
 2312SOL    HW117615   2.004   1.888   5.211  2.7835 -0.0575  0.4117
 2312SOL    HW217616   1.977   2.048   5.192  1.2503 -0.3749 -0.1527
 2313SOL     OW17617   2.975   2.583   2.149  0.3959  0.1823 -0.1921
 2313SOL    HW117618   2.904   2.653   2.138 -0.7035 -0.4128  2.6898
 2313SOL    HW217619   2.946   2.499   2.103 -0.0343  0.4538 -0.4233
 2314SOL     OW17620   3.108   7.154   0.058  0.6821 -0.3349 -0.0684
 2314SOL    HW117621   3.091   7.147   0.156 -2.6579  0.9616 -0.4938
 2314SOL    HW217622   3.137   7.247   0.036 -0.1993 -0.1538 -0.4990
 2315SOL     OW17623   2.636   1.479   4.780 -0.4155  0.2043  0.1508
 2315SOL    HW117624   2.650   1.429   4.695 -0.1174 -0.2755  0.4737
 2315SOL    HW217625   2.717   1.469   4.838  0.3903  2.5558 -0.5119
 2316SOL     OW17626   1.628   1.650   4.246  0.0883  0.0868  0.0810
 2316SOL    HW117627   1.536   1.678   4.275  0.3352  0.5321  0.4416
 2316SOL    HW217628   1.623   1.611   4.154 -0.2909  1.2655 -0.4095
 2317SOL     OW17629   3.477   8.405   5.374 -0.8141 -0.2211  0.0283
 2317SOL    HW117630   3.543   8.362   5.313  0.5774  0.7934  0.7868
 2317SOL    HW217631   3.385   8.371   5.354 -0.0273 -1.8624 -0.8547
 2318SOL     OW17632   2.760   2.835   3.885  0.3412  0.7140 -0.2271
 2318SOL    HW117633   2.758   2.933   3.907  1.3630  0.4761  1.0008
 2318SOL    HW217634   2.814   2.787   3.954  1.0876 -0.5120 -1.6318
 2319SOL     OW17635   8.808   8.418   1.699 -0.1080 -0.4447 -0.5040
 2319SOL    HW117636   8.785   8.333   1.651 -0.2612 -0.7151  0.0416
 2319SOL    HW217637   8.751   8.493   1.663 -0.3613 -0.6842 -0.6041
 2320SOL     OW17638   5.922   1.598   3.180 -1.0108  0.2447 -0.0957
 2320SOL    HW117639   5.906   1.624   3.274 -3.3163 -1.2164 -0.0489
 2320SOL    HW217640   5.984   1.519   3.177  0.6436  1.5126  0.0702
 2321SOL     OW17641   9.419   5.333   2.989 -0.3612 -0.6952 -0.1913
 2321SOL    HW117642   9.375   5.252   2.951 -1.0656 -0.6043  0.4316
 2321SOL    HW217643   9.504   5.352   2.938 -0.8247 -1.1003 -1.1289
 2322SOL     OW17644   8.042   9.684   1.405  0.4358 -0.1831  0.4678
 2322SOL    HW117645   8.068   9.589   1.420 -3.2538 -0.9917  2.2520
 2322SOL    HW217646   7.972   9.689   1.334  1.7071  1.4149 -0.7234
 2323SOL     OW17647   3.445   3.355   0.728  0.2253  0.6527  0.8267
 2323SOL    HW117648   3.400   3.278   0.774 -0.6363  0.2909 -0.5882
 2323SOL    HW217649   3.412   3.441   0.767 -0.7040  0.3554  0.7189
 2324SOL     OW17650   3.932   8.404   1.243  0.6709 -0.5426 -0.2992
 2324SOL    HW117651   4.028   8.417   1.268  0.1094  0.0201  1.6219
 2324SOL    HW217652   3.883   8.490   1.254 -0.6415 -1.4810  1.4450
 2325SOL     OW17653   5.300   9.936   2.797 -0.3484 -0.1614 -0.1805
 2325SOL    HW117654   5.377  10.000   2.797 -0.4221 -0.0486 -1.6007
 2325SOL    HW217655   5.280   9.908   2.703 -3.1567  1.1401 -0.0094
 2326SOL     OW17656   8.451   0.333   5.279 -0.3471  0.1380  0.0253
 2326SOL    HW117657   8.534   0.364   5.232 -1.3540  1.0469 -1.1992
 2326SOL    HW217658   8.420   0.403   5.342 -0.1817 -0.2002  0.4809
 2327SOL     OW17659   4.506   8.449   1.696 -0.6786 -0.3239  0.5161
 2327SOL    HW117660   4.516   8.539   1.737  0.4834  0.1384 -0.7676
 2327SOL    HW217661   4.583   8.430   1.635 -1.0723 -2.0422  0.4997
 2328SOL     OW17662   4.323   1.663   4.876  0.0240 -0.1446  0.3806
 2328SOL    HW117663   4.269   1.680   4.959  3.0689  0.6991  2.2529
 2328SOL    HW217664   4.372   1.577   4.885  2.6564  1.3525  0.7518
 2329SOL     OW17665   2.562   7.162   5.005  0.5153 -0.2073  0.0866
 2329SOL    HW117666   2.641   7.120   5.049 -0.2122  0.7785  2.4337
 2329SOL    HW217667   2.587   7.253   4.971  0.7909 -0.5134 -0.5245
 2330SOL     OW17668   1.145   2.356   3.521 -0.3389  0.5303  0.0189
 2330SOL    HW117669   1.084   2.432   3.498 -0.5979  0.4811  0.5235
 2330SOL    HW217670   1.232   2.392   3.554 -0.3359  0.6080 -0.0755
 2331SOL     OW17671   9.850   6.728   2.677 -0.6832  0.7338 -0.4127
 2331SOL    HW117672   9.751   6.714   2.682 -0.3195 -1.9916 -0.0129
 2331SOL    HW217673   9.884   6.691   2.590  0.0797  1.0289 -0.2368
 2332SOL     OW17674   9.101   9.692   0.430 -0.1015  0.2192  0.0386
 2332SOL    HW117675   9.176   9.667   0.369 -1.0655 -0.7875 -0.7545
 2332SOL    HW217676   9.071   9.611   0.481  0.4613  0.9761  1.5983
 2333SOL     OW17677   8.893   0.604   4.310  0.6225 -0.5078 -0.7424
 2333SOL    HW117678   8.867   0.509   4.324 -0.0033 -0.2117  0.2052
 2333SOL    HW217679   8.954   0.611   4.231  0.7532 -1.6998 -0.7595
 2334SOL     OW17680   0.506   6.770   2.450 -0.3066 -0.5887  0.1362
 2334SOL    HW117681   0.590   6.822   2.436 -0.7869  0.4411  1.0406
 2334SOL    HW217682   0.466   6.748   2.361  0.0223  0.3829 -0.2557
 2335SOL     OW17683   2.189   8.838   2.116  0.1060  0.3718 -0.3508
 2335SOL    HW117684   2.125   8.860   2.042  0.4330 -0.1711 -0.8029
 2335SOL    HW217685   2.221   8.744   2.105 -1.0576 -0.2329  1.4031
 2336SOL     OW17686   2.727   3.440   4.881  0.5460 -0.0201  0.4794
 2336SOL    HW117687   2.795   3.374   4.849  2.3730  0.1705  3.6934
 2336SOL    HW217688   2.740   3.455   4.979 -3.1558  1.2547  0.8417
 2337SOL     OW17689   2.248   0.457   5.058  0.4046 -0.1019 -0.3432
 2337SOL    HW117690   2.168   0.459   5.118  0.4719 -2.8170 -0.0809
 2337SOL    HW217691   2.327   0.495   5.107 -0.1129  0.0587  0.3757
 2338SOL     OW17692   2.906   6.153   0.428 -0.3219  0.6216  0.7009
 2338SOL    HW117693   2.871   6.128   0.518 -0.8142 -1.5839 -0.0597
 2338SOL    HW217694   2.947   6.072   0.385  2.1321  2.2079 -0.0588
 2339SOL     OW17695   9.438   3.022   1.343 -0.2263 -0.4587 -0.4481
 2339SOL    HW117696   9.350   2.997   1.383  0.2542  1.5571  1.9693
 2339SOL    HW217697   9.483   3.089   1.401  1.3066  1.2466 -3.4735
 2340SOL     OW17698   1.011   5.577   2.838  0.2018  0.1418 -0.2036
 2340SOL    HW117699   1.040   5.574   2.933 -0.6837  0.7466  0.0944
 2340SOL    HW217700   0.956   5.659   2.822 -1.3460 -0.9617 -0.7393
 2341SOL     OW17701   7.140   2.179   2.538 -0.1306  0.2670  0.2919
 2341SOL    HW117702   7.097   2.233   2.610  1.8348  1.5581  0.5395
 2341SOL    HW217703   7.165   2.239   2.462  0.4198 -0.6061 -0.2209
 2342SOL     OW17704   8.385   8.266   2.504  0.3067 -0.2543 -0.7278
 2342SOL    HW117705   8.306   8.212   2.473 -1.3093  0.6740  1.6497
 2342SOL    HW217706   8.431   8.218   2.579  0.3321  0.5337 -0.2379
 2343SOL     OW17707   2.829   7.619   3.632 -0.1158  0.0154 -0.3455
 2343SOL    HW117708   2.759   7.661   3.690 -0.3927 -0.9825  0.0630
 2343SOL    HW217709   2.896   7.688   3.604  1.2110  0.1164  2.8877
 2344SOL     OW17710   2.205   5.925   1.287  0.2461  0.9659 -0.5373
 2344SOL    HW117711   2.232   5.829   1.294 -2.1561  0.3379  0.5763
 2344SOL    HW217712   2.267   5.981   1.342  1.6240  0.0654 -1.1417
 2345SOL     OW17713   1.466   5.993   1.113  0.1838 -0.0138  0.2448
 2345SOL    HW117714   1.462   5.916   1.176 -2.4789  2.2068  2.9481
 2345SOL    HW217715   1.473   6.078   1.166  0.6963  1.7604 -2.5823
 2346SOL     OW17716   4.636   9.913   0.879  0.1162 -0.0365  0.3303
 2346SOL    HW117717   4.631   9.842   0.809 -1.3725 -0.2174  0.6066
 2346SOL    HW217718   4.560   9.977   0.867  0.4063  0.4715  1.1901
 2347SOL     OW17719   6.801   1.541   2.212 -0.4659 -0.3922  0.0503
 2347SOL    HW117720   6.803   1.640   2.211  1.6633 -0.4086 -0.8371
 2347SOL    HW217721   6.785   1.507   2.118 -0.5156 -0.9016  0.2381
 2348SOL     OW17722   2.112   9.952   3.500  0.3710 -0.6475 -0.0676
 2348SOL    HW117723   2.055  10.015   3.446  0.0505  0.5773  1.6419
 2348SOL    HW217724   2.208   9.981   3.495  0.4794 -1.1133 -0.7568
 2349SOL     OW17725   1.442   8.453   2.331  0.2658 -0.0713 -0.9226
 2349SOL    HW117726   1.448   8.437   2.430 -1.3214 -0.2517 -0.8547
 2349SOL    HW217727   1.522   8.506   2.302  3.2236 -3.9909 -0.3537
 2350SOL     OW17728   7.144   2.564   2.961 -0.0134  0.1541  0.1945
 2350SOL    HW117729   7.073   2.493   2.962 -0.1581  0.2180 -2.6231
 2350SOL    HW217730   7.208   2.546   2.887  1.5651  1.4322  1.2334
 2351SOL     OW17731   3.746   2.532   1.795  0.0068 -0.4507 -0.2425
 2351SOL    HW117732   3.761   2.626   1.763  1.0325 -0.2967  0.6744
 2351SOL    HW217733   3.834   2.492   1.821 -0.3238 -1.9547 -1.4103
 2352SOL     OW17734   2.731   8.641   4.825  0.0821 -0.1361  0.0869
 2352SOL    HW117735   2.671   8.680   4.755 -0.1223 -0.5663  0.0204
 2352SOL    HW217736   2.826   8.644   4.793  0.0957  0.5064  0.1738
 2353SOL     OW17737   3.701   9.210   2.656  0.3426  0.7774  0.1936
 2353SOL    HW117738   3.603   9.220   2.674 -0.1622  0.1481 -2.0612
 2353SOL    HW217739   3.733   9.290   2.604  0.7670  0.4451 -0.0507
 2354SOL     OW17740   8.852   8.672   3.657  0.2024 -0.0806 -0.4021
 2354SOL    HW117741   8.921   8.726   3.610  1.9338  0.0632  2.1839
 2354SOL    HW217742   8.896   8.618   3.729 -2.2247 -0.8722  0.5309
 2355SOL     OW17743   2.961   1.337   3.467  0.0538 -0.1331  0.0039
 2355SOL    HW117744   2.906   1.417   3.491  1.6447  1.0887 -0.2904
 2355SOL    HW217745   3.010   1.305   3.548  1.8342  1.1312 -0.5512
 2356SOL     OW17746   0.168   8.978   1.025  0.0471 -0.3514 -0.2001
 2356SOL    HW117747   0.207   8.956   1.114  1.0051  0.0131 -0.5291
 2356SOL    HW217748   0.240   8.978   0.955 -0.5304  0.3660 -0.8029
 2357SOL     OW17749   9.964   8.483   3.508 -0.0575  0.1385 -0.1775
 2357SOL    HW117750  10.041   8.440   3.556 -0.3619 -0.3178 -0.0943
 2357SOL    HW217751   9.994   8.516   3.419  0.7849  1.9469  0.7419
 2358SOL     OW17752   4.523   2.950   1.938  0.2603 -0.5808  0.0917
 2358SOL    HW117753   4.609   2.997   1.960  0.9853 -3.2423  3.3153
 2358SOL    HW217754   4.450   2.985   1.997 -0.5435  0.5095 -1.5112
 2359SOL     OW17755   6.094   1.383   3.090 -0.6555 -0.1796 -0.1773
 2359SOL    HW117756   6.161   1.434   3.035  0.3715 -0.6017  0.6625
 2359SOL    HW217757   6.142   1.321   3.151 -1.8064  0.0822  1.0137
 2360SOL     OW17758   6.406   0.598   3.323  0.0631  0.2083 -0.3818
 2360SOL    HW117759   6.439   0.596   3.418  0.6542 -0.3818 -0.5925
 2360SOL    HW217760   6.395   0.692   3.293  0.1340  0.4001  0.1897
 2361SOL     OW17761   5.030   3.778   2.936  0.7265  0.7116 -0.5221
 2361SOL    HW117762   4.934   3.784   2.908  0.6469 -0.1387 -0.4496
 2361SOL    HW217763   5.078   3.714   2.876  1.1278  0.7514 -0.2420
 2362SOL     OW17764   2.489   2.794   0.774 -0.2917 -0.5629 -0.4936
 2362SOL    HW117765   2.391   2.809   0.786 -0.1722 -0.8087  0.8790
 2362SOL    HW217766   2.529   2.872   0.725 -0.7952  0.5801  0.9000
 2363SOL     OW17767   1.834   5.970   3.139  0.1087 -0.6549 -0.0653
 2363SOL    HW117768   1.911   5.965   3.076  0.0562 -1.3069 -0.0801
 2363SOL    HW217769   1.847   5.904   3.213 -1.4197 -2.2909 -1.1867
 2364SOL     OW17770   1.849   3.976   0.554  0.2897  0.1720 -0.0602
 2364SOL    HW117771   1.834   4.067   0.516  2.2092  0.5975  0.1627
 2364SOL    HW217772   1.785   3.960   0.629  0.4726  1.6463  0.4194
 2365SOL     OW17773   9.199   3.553   1.880  0.4431 -0.1201 -0.4920
 2365SOL    HW117774   9.139   3.608   1.823 -0.4394  0.9502  1.4338
 2365SOL    HW217775   9.190   3.456   1.855 -1.2339  0.1475 -0.9442
 2366SOL     OW17776   2.458   0.307   0.142 -0.6870 -0.3600 -0.6555
 2366SOL    HW117777   2.556   0.330   0.140 -1.0549  1.2285 -0.9341
 2366SOL    HW217778   2.432   0.267   0.055 -0.7003  1.0039 -1.2856
 2367SOL     OW17779   5.571   9.029   3.242  0.8082 -0.0836  0.2440
 2367SOL    HW117780   5.543   8.967   3.315 -1.4913  0.9293  0.2783
 2367SOL    HW217781   5.537   9.121   3.262  1.7004  0.5919 -1.2247
 2368SOL     OW17782   2.034   1.280   3.897 -0.0422  0.8160  0.0507
 2368SOL    HW117783   1.974   1.240   3.966  0.8269 -0.2915  0.1993
 2368SOL    HW217784   1.983   1.345   3.841 -1.5892 -0.6996 -0.3482
 2369SOL     OW17785   2.163   8.097   4.556  0.6173 -0.3404 -0.2775
 2369SOL    HW117786   2.237   8.133   4.498 -2.2392  1.6586 -2.8725
 2369SOL    HW217787   2.104   8.038   4.501 -1.5391  0.7194  0.8293
 2370SOL     OW17788   0.939   7.489   1.802 -0.4985 -0.1367 -1.1110
 2370SOL    HW117789   0.968   7.577   1.765 -1.1496  0.1343 -0.9897
 2370SOL    HW217790   0.891   7.504   1.888  0.0816 -0.6780 -0.6898
 2371SOL     OW17791   0.783   0.624   3.949 -0.5514  0.0844 -0.7218
 2371SOL    HW117792   0.783   0.703   4.010 -0.9419  0.0770 -0.7148
 2371SOL    HW217793   0.693   0.614   3.907 -1.2496 -1.7922  1.1291
 2372SOL     OW17794   9.063   5.645   1.626  0.3536 -0.1611 -0.0123
 2372SOL    HW117795   9.139   5.710   1.633  0.0985  0.2917 -1.2175
 2372SOL    HW217796   8.984   5.691   1.585 -1.7055  0.3089  4.2950
 2373SOL     OW17797   9.914   4.719   2.764  0.3168  0.1157  0.4164
 2373SOL    HW117798   9.932   4.805   2.813 -2.1444  0.3012  1.0540
 2373SOL    HW217799   9.947   4.727   2.670  1.4584  1.2236  0.9021
 2374SOL     OW17800   0.526   7.649   0.321 -0.6070  0.3148 -0.2834
 2374SOL    HW117801   0.598   7.621   0.385  0.2992 -0.0873 -1.4739
 2374SOL    HW217802   0.449   7.585   0.328  0.4242 -1.0565 -1.1978
 2375SOL     OW17803   1.610   3.283   1.925 -0.1614  0.0068 -0.1037
 2375SOL    HW117804   1.535   3.333   1.884 -1.2569  0.1966  2.0895
 2375SOL    HW217805   1.625   3.198   1.873 -3.9041 -1.5474  1.1844
 2376SOL     OW17806   7.265   8.285   3.049  0.8013  0.2270  0.0844
 2376SOL    HW117807   7.234   8.346   2.976 -0.4823  1.4832  1.6402
 2376SOL    HW217808   7.197   8.213   3.063  1.8529 -1.0201 -1.0858
 2377SOL     OW17809   8.284   9.498   4.059  0.6736  0.2922  0.1869
 2377SOL    HW117810   8.301   9.429   3.988  1.1629 -0.2912  0.8588
 2377SOL    HW217811   8.335   9.473   4.141  0.9460  1.5182  0.4017
 2378SOL     OW17812   2.788   4.485   2.350 -1.0386 -0.1099  0.4019
 2378SOL    HW117813   2.841   4.411   2.392  0.6793 -0.4629 -2.2676
 2378SOL    HW217814   2.787   4.564   2.412  1.1354 -0.7130  1.2695
 2379SOL     OW17815   2.075   2.484   0.905  0.3360 -0.0615  0.2503
 2379SOL    HW117816   2.035   2.414   0.846 -0.0496  0.0851  0.3374
 2379SOL    HW217817   2.036   2.476   0.997  1.0721 -0.4131  0.5446
 2380SOL     OW17818   1.776   6.193   2.778 -0.1482  0.3608 -0.1352
 2380SOL    HW117819   1.750   6.224   2.869 -0.0901 -1.3940  0.4887
 2380SOL    HW217820   1.779   6.093   2.776  1.4347  0.4123 -1.6077
 2381SOL     OW17821   4.646   9.917   5.105 -0.0780  0.1765 -0.4889
 2381SOL    HW117822   4.742   9.893   5.092 -0.4380 -0.7365 -1.5386
 2381SOL    HW217823   4.601   9.926   5.016 -0.7951  1.3123 -0.0219
 2382SOL     OW17824   2.834   2.276   0.814  0.0978  0.3675 -0.4209
 2382SOL    HW117825   2.782   2.299   0.731 -0.9770  2.0084  0.6735
 2382SOL    HW217826   2.826   2.350   0.880 -0.2731 -1.5359  1.7441
 2383SOL     OW17827   3.158   0.187   3.746  0.4584 -0.6080 -0.1938
 2383SOL    HW117828   3.213   0.260   3.704 -1.1349 -0.1362 -1.4837
 2383SOL    HW217829   3.153   0.109   3.684 -0.7529 -0.4518 -0.2988
 2384SOL     OW17830   1.904   3.653   0.898 -0.1950  0.0753 -0.3965
 2384SOL    HW117831   1.973   3.724   0.886 -0.7192  0.6765  0.0829
 2384SOL    HW217832   1.935   3.569   0.854  1.3923 -0.0421  0.9160
 2385SOL     OW17833   5.612   8.951   3.896  0.4013 -0.2087  0.4257
 2385SOL    HW117834   5.614   8.976   3.993 -0.4447  2.0479 -0.1288
 2385SOL    HW217835   5.660   9.020   3.843  0.5826 -1.2771 -0.8052
 2386SOL     OW17836   8.935   8.861   0.117  0.1128 -0.4126  0.3875
 2386SOL    HW117837   8.898   8.943   0.073  0.6445 -0.3186  0.1114
 2386SOL    HW217838   8.922   8.868   0.216  0.4647  0.1633  0.3964
 2387SOL     OW17839   3.679   1.381   4.214  0.5057  0.4403  0.6311
 2387SOL    HW117840   3.583   1.380   4.186  0.2384  1.4363  1.4545
 2387SOL    HW217841   3.720   1.292   4.197 -0.0389  0.5739 -1.5163
 2388SOL     OW17842   0.228   1.697   5.335  0.1222 -0.7970 -0.0113
 2388SOL    HW117843   0.313   1.674   5.288 -0.1846 -0.3314 -0.7912
 2388SOL    HW217844   0.185   1.612   5.368  2.6308 -0.8379  3.5146
 2389SOL     OW17845   1.807   1.873   3.166 -0.3070 -0.0838 -0.4296
 2389SOL    HW117846   1.898   1.838   3.145 -0.4492 -0.6062 -0.2063
 2389SOL    HW217847   1.799   1.889   3.264 -0.0097  1.2780 -0.6178
 2390SOL     OW17848   1.996   6.987   5.087 -0.2564 -0.8175  0.0280
 2390SOL    HW117849   2.002   6.960   4.990  0.9715  0.8678 -0.4006
 2390SOL    HW217850   2.085   6.971   5.131 -0.1272  0.5187  0.2840
 2391SOL     OW17851   3.385   4.561   0.699  0.4697  0.1055  0.0258
 2391SOL    HW117852   3.415   4.621   0.625 -0.0523 -0.8038 -0.9414
 2391SOL    HW217853   3.461   4.502   0.728  0.3356 -0.3856 -0.6242
 2392SOL     OW17854   3.762   3.498   1.304  0.2198 -0.2768 -0.1967
 2392SOL    HW117855   3.847   3.454   1.334  0.7387 -0.6202 -2.1076
 2392SOL    HW217856   3.684   3.440   1.329  0.5348  0.0116  1.5066
 2393SOL     OW17857   7.659   9.209   0.289  0.7244  0.6442 -0.7094
 2393SOL    HW117858   7.575   9.159   0.309  0.4904  1.5209  0.5866
 2393SOL    HW217859   7.639   9.307   0.286  1.4842  0.7812 -1.5840
 2394SOL     OW17860   7.047   1.691   3.189 -0.5204  0.1547 -0.3748
 2394SOL    HW117861   7.088   1.599   3.194 -2.3430 -0.6731 -0.3288
 2394SOL    HW217862   6.968   1.695   3.249  0.0836  2.0717  0.3326
 2395SOL     OW17863   1.587   0.101   3.111  0.1476  0.1048 -0.1235
 2395SOL    HW117864   1.672   0.092   3.059  0.2770 -0.1908  0.1345
 2395SOL    HW217865   1.531   0.020   3.096  0.3009 -0.1004  0.4013
 2396SOL     OW17866   4.288   2.475   2.352  0.6275 -0.6880 -0.9061
 2396SOL    HW117867   4.274   2.512   2.444  1.9364  0.2743 -1.0767
 2396SOL    HW217868   4.282   2.375   2.355  0.9727 -0.6876  0.2965
 2397SOL     OW17869   9.988   1.170   2.682  0.0785 -0.5446 -0.7172
 2397SOL    HW117870   9.900   1.207   2.653  0.0959  0.3629  0.3482
 2397SOL    HW217871  10.004   1.083   2.636 -0.7941 -0.1110 -1.8765
 2398SOL     OW17872   1.858   6.229   3.080 -0.0389  0.2041 -0.3966
 2398SOL    HW117873   1.834   6.133   3.075  1.0734 -0.0470 -1.3524
 2398SOL    HW217874   1.957   6.238   3.093 -0.1564  1.2145 -0.1312
 2399SOL     OW17875   1.499   3.734   4.459  0.5881 -0.0435 -0.0789
 2399SOL    HW117876   1.502   3.821   4.410  0.5311  0.1524  0.2646
 2399SOL    HW217877   1.540   3.746   4.550  0.9887 -0.4831 -0.2033
 2400SOL     OW17878   7.829   1.509   1.216  0.2357 -0.3841 -0.0130
 2400SOL    HW117879   7.850   1.479   1.123 -0.3655 -0.0047 -0.2725
 2400SOL    HW217880   7.877   1.451   1.281  1.1474 -0.2659 -0.5752
 2401SOL     OW17881   9.524   4.173   2.476  0.4649 -0.2046  0.0767
 2401SOL    HW117882   9.478   4.139   2.394  0.1263  2.2398 -0.7942
 2401SOL    HW217883   9.463   4.234   2.526  1.7356  0.7389  0.5057
 2402SOL     OW17884   0.846   7.232   5.534 -0.1986 -0.1222 -0.1063
 2402SOL    HW117885   0.838   7.328   5.560  2.2983 -0.4519  2.0321
 2402SOL    HW217886   0.916   7.222   5.463 -0.6159 -0.3583 -0.4934
 2403SOL     OW17887   0.960   3.370   2.822  0.5903  0.2409 -0.4162
 2403SOL    HW117888   1.028   3.302   2.851  0.3274  0.5622  0.9402
 2403SOL    HW217889   1.006   3.442   2.770  1.5012  1.1385  1.5987
 2404SOL     OW17890   5.663   7.458   3.938  0.0794 -0.0380  0.0113
 2404SOL    HW117891   5.673   7.496   4.030 -1.2486  0.6856 -0.1408
 2404SOL    HW217892   5.579   7.492   3.896  0.5402 -0.5686 -1.3765
 2405SOL     OW17893   4.579   0.581   0.788  0.5339  0.0450  0.1127
 2405SOL    HW117894   4.597   0.623   0.699 -0.2060  0.6783  0.2569
 2405SOL    HW217895   4.662   0.584   0.843  0.5870  1.0315 -0.0014
 2406SOL     OW17896   7.557   9.957   4.106  0.0508  0.7516 -0.5343
 2406SOL    HW117897   7.590   9.866   4.080  0.8733  0.9792 -0.2860
 2406SOL    HW217898   7.621   9.999   4.170 -1.5325  0.5172  1.2628
 2407SOL     OW17899   1.516   7.313   5.064  0.6590  0.1946 -0.4820
 2407SOL    HW117900   1.418   7.330   5.066  0.4127 -1.1610 -0.1792
 2407SOL    HW217901   1.546   7.282   5.154  1.1923 -0.2784 -0.8189
 2408SOL     OW17902   5.674   9.746   1.040 -0.6451 -0.0535 -0.2637
 2408SOL    HW117903   5.725   9.726   1.124  0.0795  0.8407 -0.4846
 2408SOL    HW217904   5.600   9.680   1.030  0.5102 -1.4310  0.0212
 2409SOL     OW17905   9.314   7.232   3.030 -0.4933  0.5338 -0.1426
 2409SOL    HW117906   9.275   7.243   2.939  1.7053  0.1759 -1.1485
 2409SOL    HW217907   9.242   7.244   3.098 -2.2615  0.3170 -1.9252
 2410SOL     OW17908   4.770   8.824   3.990  0.6072  0.2180 -0.1369
 2410SOL    HW117909   4.693   8.813   4.053  0.8367  1.7363  0.4097
 2410SOL    HW217910   4.856   8.818   4.040  0.7959  1.1639 -0.3398
 2411SOL     OW17911   3.722   1.507   5.245 -0.3935 -0.0022  0.2795
 2411SOL    HW117912   3.807   1.472   5.206 -0.4774 -1.1864  1.1599
 2411SOL    HW217913   3.645   1.454   5.209 -0.7082  0.6305  0.0104
 2412SOL     OW17914   8.927   0.420   3.991 -0.4529  0.6982  0.6319
 2412SOL    HW117915   8.957   0.345   4.050 -0.6715  0.2726  0.2073
 2412SOL    HW217916   8.988   0.498   4.003  0.2652  0.1637  0.4680
 2413SOL     OW17917   6.189   7.880   1.913  0.5506 -0.0697  0.5194
 2413SOL    HW117918   6.195   7.788   1.950 -2.5732 -0.1943  0.7925
 2413SOL    HW217919   6.154   7.876   1.819  2.6503  0.6898 -0.3292
 2414SOL     OW17920   1.902   3.671   3.885 -0.2722 -0.2055 -0.3789
 2414SOL    HW117921   1.839   3.735   3.841  0.8776  0.1632 -1.4927
 2414SOL    HW217922   1.856   3.583   3.898 -0.9780  0.0265 -1.2878
 2415SOL     OW17923   2.908   3.874   1.495 -0.0198  0.2020  0.0436
 2415SOL    HW117924   2.923   3.939   1.421  1.8462  0.5155  0.6820
 2415SOL    HW217925   2.944   3.784   1.469 -0.0860  0.1106  0.2621
 2416SOL     OW17926   2.159   6.566   3.994 -0.4844 -0.0422  0.3697
 2416SOL    HW117927   2.243   6.621   3.994  0.1142 -0.9456 -0.0249
 2416SOL    HW217928   2.161   6.503   4.072 -0.6612 -0.2683  0.1917
 2417SOL     OW17929   6.119   7.755   3.170 -0.5564 -0.5130 -0.8351
 2417SOL    HW117930   6.059   7.833   3.186  2.6539  1.9790 -0.3996
 2417SOL    HW217931   6.087   7.703   3.091 -3.3591  0.6095 -0.4714
 2418SOL     OW17932   4.202   9.646   0.157 -0.3560  0.6920  0.1307
 2418SOL    HW117933   4.192   9.551   0.127  1.2581  0.5986 -0.1863
 2418SOL    HW217934   4.224   9.648   0.255  0.0368  0.7125  0.0431
 2419SOL     OW17935   7.326   0.950   1.609 -0.1558 -0.0326 -0.1739
 2419SOL    HW117936   7.243   0.926   1.658  1.0548  0.5548  2.2368
 2419SOL    HW217937   7.359   1.039   1.640  1.6180 -0.4696 -0.7326
 2420SOL     OW17938   2.761   2.695   3.663 -0.0076  0.0184  0.2255
 2420SOL    HW117939   2.780   2.761   3.736  1.8902  0.9956 -1.1231
 2420SOL    HW217940   2.815   2.613   3.678  1.2326  0.6652 -0.6869
 2421SOL     OW17941   2.477   8.708   4.121 -0.2623  0.5964  0.4238
 2421SOL    HW117942   2.443   8.684   4.212 -0.2881 -0.0169  0.2564
 2421SOL    HW217943   2.574   8.686   4.115 -0.2760  0.5744  0.2809
 2422SOL     OW17944   4.472   7.799   4.092  0.1384 -0.0627  0.0774
 2422SOL    HW117945   4.440   7.858   4.166  0.8253  0.1668  0.1972
 2422SOL    HW217946   4.486   7.853   4.009  1.2589  0.0471  0.3272
 2423SOL     OW17947   4.018   1.584   2.035 -0.5434 -0.2138 -0.3496
 2423SOL    HW117948   3.993   1.516   1.966 -1.3028 -0.9592  0.6244
 2423SOL    HW217949   4.117   1.591   2.041 -0.4739 -0.1798 -1.4680
 2424SOL     OW17950   1.125   1.381   4.502  0.1721 -0.2085  0.0543
 2424SOL    HW117951   1.094   1.452   4.565  0.8705  0.6021 -0.4967
 2424SOL    HW217952   1.107   1.411   4.408  0.3950 -0.7990 -0.1763
 2425SOL     OW17953   4.451   7.992   3.896  0.5911 -0.3626 -0.0987
 2425SOL    HW117954   4.395   8.064   3.937 -0.2474 -0.6326 -0.7531
 2425SOL    HW217955   4.407   7.959   3.813  1.2672 -1.2266 -0.1206
 2426SOL     OW17956   1.156   4.400   3.674  0.0252 -0.0417  0.3183
 2426SOL    HW117957   1.068   4.354   3.666 -0.0122 -0.5339  3.0099
 2426SOL    HW217958   1.183   4.437   3.585 -1.6732 -2.0841 -1.0959
 2427SOL     OW17959   1.692   0.619   2.680  0.2899  0.0839  0.3234
 2427SOL    HW117960   1.757   0.632   2.605 -1.2594 -0.6339 -1.1942
 2427SOL    HW217961   1.715   0.536   2.731  2.5955  1.7014  1.9936
 2428SOL     OW17962   8.433   9.156   3.187  0.0922 -0.0242 -0.0782
 2428SOL    HW117963   8.383   9.179   3.271 -0.7207 -1.7941 -0.0706
 2428SOL    HW217964   8.531   9.168   3.203 -0.0723 -0.0581  1.0331
 2429SOL     OW17965   0.842   3.760   3.230  0.0449  0.1793  0.2755
 2429SOL    HW117966   0.932   3.803   3.229  0.2640 -0.1788  2.4398
 2429SOL    HW217967   0.784   3.807   3.297 -0.5006 -1.2963  0.8640
 2430SOL     OW17968   6.870   6.843   3.349 -0.4560  0.1035  0.1752
 2430SOL    HW117969   6.912   6.840   3.440 -0.8926  0.0027  0.3785
 2430SOL    HW217970   6.823   6.930   3.337  0.4328  0.5188 -0.3390
 2431SOL     OW17971   4.748   0.136   0.991 -0.0264 -0.3153 -0.2172
 2431SOL    HW117972   4.807   0.176   0.920 -0.5852  0.2550 -0.3691
 2431SOL    HW217973   4.717   0.046   0.961 -2.5571  1.0757 -2.0226
 2432SOL     OW17974   3.629   5.951   1.446  0.0265  0.5092 -0.0260
 2432SOL    HW117975   3.549   6.002   1.474 -1.1094 -0.6804 -1.0204
 2432SOL    HW217976   3.609   5.902   1.360  2.2801  1.3837 -1.0950
 2433SOL     OW17977   0.097   8.606   0.936 -0.3836  0.0003  0.0972
 2433SOL    HW117978   0.177   8.596   0.995  1.1409  2.4159 -1.5070
 2433SOL    HW217979   0.105   8.546   0.857 -0.9054 -0.8564  0.6780
 2434SOL     OW17980   2.966   0.480   1.302  0.0966 -0.0823  0.8059
 2434SOL    HW117981   3.064   0.488   1.323  0.0663  1.1125  0.5346
 2434SOL    HW217982   2.940   0.384   1.299  1.3977 -0.4203  0.2821
 2435SOL     OW17983   1.173   1.984   3.027 -0.1515  0.3983 -0.4584
 2435SOL    HW117984   1.147   2.080   3.029 -1.3930  0.0568  0.1527
 2435SOL    HW217985   1.124   1.934   3.099  1.3090 -0.4891 -0.0576
 2436SOL     OW17986   4.684   0.168   2.509 -0.4464 -0.3870  0.0580
 2436SOL    HW117987   4.637   0.243   2.464 -0.7437 -0.3253  0.4658
 2436SOL    HW217988   4.710   0.195   2.602  1.1818 -0.1200 -0.4636
 2437SOL     OW17989   2.381   8.161   4.384 -0.0746 -0.4167 -0.3666
 2437SOL    HW117990   2.472   8.188   4.417 -0.7042  1.0794  0.1570
 2437SOL    HW217991   2.392   8.100   4.305  1.3806  0.0325 -0.5432
 2438SOL     OW17992   2.586   0.422   4.533  0.3821  0.5540  0.6715
 2438SOL    HW117993   2.489   0.434   4.508  1.1816  2.1555 -1.8863
 2438SOL    HW217994   2.605   0.324   4.544 -0.9682  0.0215 -1.3733
 2439SOL     OW17995   8.702   8.219   3.321  0.1318 -0.3730  0.2258
 2439SOL    HW117996   8.788   8.225   3.371  0.0207 -0.3907  0.4179
 2439SOL    HW217997   8.642   8.153   3.366 -0.2269  0.1085  0.4527
 2440SOL     OW17998   0.644   2.531   1.179  0.8353  0.0584 -0.5090
 2440SOL    HW117999   0.731   2.557   1.221  0.9910  0.4872 -1.0825
 2440SOL    HW218000   0.649   2.437   1.147 -0.1341 -1.1337  2.6513
 2441SOL     OW18001   9.708   5.416   1.513 -0.2887  0.1574  0.5641
 2441SOL    HW118002   9.703   5.386   1.609 -1.4643  1.1534  0.8283
 2441SOL    HW218003   9.789   5.376   1.470  0.4197 -0.0705  2.0589
 2442SOL     OW18004   1.503   7.537   1.940  0.4647  0.1061 -0.0269
 2442SOL    HW118005   1.541   7.513   1.851 -0.9244  0.7001 -0.8051
 2442SOL    HW218006   1.515   7.635   1.956 -1.0333  0.3730 -0.4460
 2443SOL     OW18007   1.577   5.821   0.270  0.1944  0.4833  0.4225
 2443SOL    HW118008   1.616   5.872   0.347  0.8713 -1.5864  1.4859
 2443SOL    HW218009   1.614   5.728   0.269 -1.8991 -0.3836 -0.7736
 2444SOL     OW18010   3.541   9.939   2.472 -0.1412 -0.0349 -0.3529
 2444SOL    HW118011   3.457   9.934   2.418  0.0082  2.3415 -0.8940
 2444SOL    HW218012   3.619   9.921   2.414 -0.2060 -1.1431 -0.0982
 2445SOL     OW18013   5.528   3.929   0.235  0.6199  0.2779 -0.6884
 2445SOL    HW118014   5.539   3.829   0.238 -0.8519  0.1464  0.5393
 2445SOL    HW218015   5.436   3.951   0.203 -0.4054  1.1737  2.7347
 2446SOL     OW18016   2.260   0.284   3.832  0.0859 -0.1124 -0.0285
 2446SOL    HW118017   2.345   0.245   3.795  0.3104  0.2093  0.1410
 2446SOL    HW218018   2.228   0.357   3.772 -0.8243 -1.1433 -0.8269
 2447SOL     OW18019   9.146   9.625   1.015  0.4478  0.3649  0.5192
 2447SOL    HW118020   9.076   9.560   0.985  1.8694 -0.0783 -1.9653
 2447SOL    HW218021   9.103   9.700   1.066 -1.8128  0.1015 -0.9452
 2448SOL     OW18022   2.016   4.429   0.366  0.0410 -0.2779  0.8953
 2448SOL    HW118023   2.040   4.419   0.463 -1.9944 -0.3460  1.4188
 2448SOL    HW218024   1.925   4.469   0.359  0.2641 -0.0798 -1.0104
 2449SOL     OW18025   3.711   9.648   1.675  0.0097 -0.1008 -0.0947
 2449SOL    HW118026   3.791   9.637   1.616  1.6828  1.0686  1.8959
 2449SOL    HW218027   3.645   9.576   1.655  1.5024 -1.0245 -1.8451
 2450SOL     OW18028   3.933   7.488   4.854  0.3435 -0.0122  0.0215
 2450SOL    HW118029   4.021   7.532   4.836  1.2503 -1.4540  0.8673
 2450SOL    HW218030   3.923   7.407   4.796 -0.0315 -0.3584  0.5595
 2451SOL     OW18031   3.834   6.814   2.179 -0.1769 -0.2423 -0.0941
 2451SOL    HW118032   3.837   6.914   2.187  1.7428 -0.3780  1.5090
 2451SOL    HW218033   3.744   6.781   2.207  0.0638  0.8575  2.0994
 2452SOL     OW18034   2.129   3.367   3.839  0.6299 -0.0985 -0.2422
 2452SOL    HW118035   2.224   3.386   3.814  0.0286  2.0272 -0.9735
 2452SOL    HW218036   2.099   3.433   3.908  0.5534 -2.5223  2.0951
 2453SOL     OW18037   5.264   0.749   1.573  0.0392  0.2050  0.5469
 2453SOL    HW118038   5.267   0.776   1.670  1.4241  0.8581  0.3297
 2453SOL    HW218039   5.350   0.706   1.548 -0.2889  0.1058 -0.4291
 2454SOL     OW18040   2.464   7.042   4.412  0.5888  0.0585 -0.1674
 2454SOL    HW118041   2.384   7.009   4.362  0.0402 -0.3725  0.9669
 2454SOL    HW218042   2.544   6.986   4.388 -0.3787 -2.3157  1.8971
 2455SOL     OW18043   3.818   3.862   3.919  0.0583  0.7321  0.6504
 2455SOL    HW118044   3.892   3.796   3.930  0.9193  1.4982 -0.3486
 2455SOL    HW218045   3.731   3.821   3.946  0.6400 -0.6733  0.4094
 2456SOL     OW18046   2.735   7.423   1.760 -0.2609 -0.2938  0.6411
 2456SOL    HW118047   2.794   7.366   1.702  0.0709  1.9391 -1.3024
 2456SOL    HW218048   2.644   7.383   1.766  0.2525 -1.5438  0.1464
 2457SOL     OW18049   4.289   9.414   4.671 -0.1592 -0.1213  0.3259
 2457SOL    HW118050   4.328   9.480   4.735  0.8266 -2.1303  1.8720
 2457SOL    HW218051   4.363   9.360   4.631 -1.0183 -0.9469 -0.1447
 2458SOL     OW18052   4.294   0.841   1.347 -0.4686 -0.9142  0.0875
 2458SOL    HW118053   4.199   0.865   1.326 -0.8407 -1.1455  1.4653
 2458SOL    HW218054   4.330   0.780   1.276  0.4727  3.5062 -3.5093
 2459SOL     OW18055   0.051   7.023   2.403 -0.1591  0.1639 -0.0784
 2459SOL    HW118056   0.095   6.940   2.439  0.7713  0.9277  0.5827
 2459SOL    HW218057  -0.023   7.050   2.464 -0.1305  0.1010 -0.0161
 2460SOL     OW18058   3.587   2.913   0.967  0.0238 -0.0654 -0.3108
 2460SOL    HW118059   3.607   2.946   1.059  0.0510 -3.3824  0.9181
 2460SOL    HW218060   3.491   2.931   0.945  0.0255  0.7646  0.3287
 2461SOL     OW18061   4.256   6.475   2.880  0.1415 -0.3621 -0.0626
 2461SOL    HW118062   4.226   6.390   2.921 -0.3943  0.5692  1.5225
 2461SOL    HW218063   4.302   6.456   2.793 -2.8417 -2.0083 -1.3609
 2462SOL     OW18064   2.242   0.221   1.340 -0.4156  0.0916  0.3047
 2462SOL    HW118065   2.297   0.231   1.423  0.1079  1.2292 -0.1630
 2462SOL    HW218066   2.203   0.310   1.315  0.7878  0.1180 -1.5774
 2463SOL     OW18067   6.395   1.022   2.468  0.2581  0.1177 -0.0330
 2463SOL    HW118068   6.379   1.041   2.565  2.2839 -0.0260  0.3371
 2463SOL    HW218069   6.493   1.011   2.451 -0.1823 -1.2984 -1.8415
 2464SOL     OW18070   4.422   3.772   4.368  0.0837 -0.0861 -0.0798
 2464SOL    HW118071   4.432   3.756   4.466  2.3813 -1.1527 -0.4495
 2464SOL    HW218072   4.426   3.870   4.349  2.0128  0.0086  0.6880
 2465SOL     OW18073   0.366   5.826   2.295  1.2575 -0.5062 -0.4273
 2465SOL    HW118074   0.428   5.870   2.360  0.2826 -0.3315  0.3894
 2465SOL    HW218075   0.295   5.776   2.344  0.6788 -0.6080 -1.3507
 2466SOL     OW18076   7.785   0.730   4.816 -0.2754 -0.5256  0.4434
 2466SOL    HW118077   7.794   0.722   4.717 -0.7973 -0.2092  0.3680
 2466SOL    HW218078   7.823   0.817   4.847 -1.3584 -0.0175  0.3509
 2467SOL     OW18079   8.815   9.707   3.175  0.1813  0.0949  0.4479
 2467SOL    HW118080   8.887   9.710   3.105 -0.7097 -2.6424 -0.6652
 2467SOL    HW218081   8.761   9.624   3.162 -1.3025  0.6157  3.1457
 2468SOL     OW18082   3.597   1.433   4.645  0.0517  0.4389  0.1167
 2468SOL    HW118083   3.639   1.409   4.557 -3.0382  2.7807 -2.1122
 2468SOL    HW218084   3.658   1.494   4.696  2.7920 -2.5854  0.6201
 2469SOL     OW18085   0.169   0.335   1.451  0.4469 -0.0206  0.7127
 2469SOL    HW118086   0.164   0.317   1.549  0.6071  0.8399  0.8896
 2469SOL    HW218087   0.265   0.333   1.422  0.4102 -0.1454  0.6016
 2470SOL     OW18088   0.363   4.883   3.165 -0.0919  0.2979  0.2972
 2470SOL    HW118089   0.400   4.976   3.156 -0.0753  0.0599 -2.5500
 2470SOL    HW218090   0.266   4.887   3.186 -0.6157  1.0194 -2.1068
 2471SOL     OW18091   7.156   9.422   2.582 -0.3352  0.3910 -0.6750
 2471SOL    HW118092   7.090   9.497   2.571 -0.8824 -0.1329 -1.0496
 2471SOL    HW218093   7.124   9.361   2.654  0.2597  0.6696 -0.1709
 2472SOL     OW18094   8.085   1.115   1.017 -0.2956 -0.0991  0.5165
 2472SOL    HW118095   8.095   1.067   0.930 -2.3367  1.0024 -0.3463
 2472SOL    HW218096   8.150   1.190   1.022  0.5631 -0.8275  0.4180
 2473SOL     OW18097   2.283   1.792   1.039 -0.0234 -0.7480  0.1023
 2473SOL    HW118098   2.312   1.812   0.946  0.6360 -0.0130  0.4631
 2473SOL    HW218099   2.199   1.842   1.059 -0.9383 -1.9932 -0.5588
 2474SOL     OW18100   3.297   9.432   5.488 -0.0179  0.2278 -0.1989
 2474SOL    HW118101   3.211   9.430   5.539  1.4500 -0.9895  2.3691
 2474SOL    HW218102   3.305   9.350   5.431 -0.6458  0.4221 -0.5561
 2475SOL     OW18103   0.835   8.738   1.273 -0.5782 -0.0554 -0.7394
 2475SOL    HW118104   0.791   8.793   1.343  0.3489 -0.2726  0.0270
 2475SOL    HW218105   0.928   8.715   1.302 -0.5538 -1.0398 -1.5642
 2476SOL     OW18106   1.556   6.331   5.594 -0.1319 -0.4823  0.2195
 2476SOL    HW118107   1.567   6.414   5.539  0.5641 -0.9931 -0.4112
 2476SOL    HW218108   1.629   6.267   5.573 -0.0755 -0.8356  1.4682
 2477SOL     OW18109   1.595   2.368   1.672  0.7936 -0.2209  0.0909
 2477SOL    HW118110   1.602   2.411   1.762  0.0225 -0.3918  0.2429
 2477SOL    HW218111   1.639   2.278   1.675 -0.3114 -0.7570  0.6620
 2478SOL     OW18112   1.245   2.117   0.039  0.8111  0.2189  0.3090
 2478SOL    HW118113   1.294   2.068  -0.033  0.9897 -0.9071  1.1688
 2478SOL    HW218114   1.310   2.166   0.096  0.6572  1.2302 -0.3751
 2479SOL     OW18115   2.581   0.263   4.215  0.5733  0.2659 -0.4822
 2479SOL    HW118116   2.521   0.321   4.271 -0.8514 -0.4851 -1.2076
 2479SOL    HW218117   2.579   0.169   4.250  1.0725  0.1671 -0.7114
 2480SOL     OW18118   1.331   7.446   3.387  0.2186  0.4546 -0.0922
 2480SOL    HW118119   1.424   7.457   3.421  0.7189 -1.3364 -0.8322
 2480SOL    HW218120   1.315   7.350   3.363 -1.9919  0.6231  0.5327
 2481SOL     OW18121   4.898   0.454   4.379  0.1043  0.1024  0.5136
 2481SOL    HW118122   4.823   0.390   4.360 -0.3087  0.6867  0.1288
 2481SOL    HW218123   4.888   0.534   4.320 -1.7421  2.4221  3.7621
 2482SOL     OW18124   8.152   1.554   2.481  0.2124 -0.9886  0.7635
 2482SOL    HW118125   8.078   1.554   2.413  1.6703 -1.7260 -0.8781
 2482SOL    HW218126   8.146   1.470   2.536 -1.0509 -0.3302  1.6526
 2483SOL     OW18127   0.153   1.596   0.558 -0.6249 -0.0790 -1.2324
 2483SOL    HW118128   0.114   1.667   0.500  1.1321  1.4989 -0.5356
 2483SOL    HW218129   0.226   1.635   0.614 -0.2037 -2.2540 -0.2088
 2484SOL     OW18130   3.296   8.582   2.252  0.1261 -0.0096 -0.1413
 2484SOL    HW118131   3.302   8.483   2.247 -0.3468 -0.1198  1.2061
 2484SOL    HW218132   3.298   8.621   2.160  1.1449 -1.2157 -0.6436
 2485SOL     OW18133   7.509   7.525   3.608 -0.0566  0.2842 -0.5616
 2485SOL    HW118134   7.594   7.491   3.567 -0.3877 -0.6571 -0.4820
 2485SOL    HW218135   7.463   7.586   3.544 -0.7917 -1.5317 -1.7939
 2486SOL     OW18136   7.041   9.252   4.055  0.2376  0.0053 -0.2660
 2486SOL    HW118137   7.113   9.290   3.996 -0.8326  2.3226 -0.0921
 2486SOL    HW218138   6.960   9.233   4.000  0.9965 -2.7921 -0.4948
 2487SOL     OW18139   2.556   5.959   3.248 -0.5549  0.5534  0.2677
 2487SOL    HW118140   2.572   5.962   3.150  0.7236  1.0956  0.4721
 2487SOL    HW218141   2.636   5.997   3.296 -1.4951  1.0391  1.4819
 2488SOL     OW18142   4.492   8.207   4.483  0.0905  0.3172 -0.5087
 2488SOL    HW118143   4.395   8.219   4.501 -0.2142 -3.4266  0.7477
 2488SOL    HW218144   4.545   8.254   4.554 -0.9283 -1.9786  1.8419
 2489SOL     OW18145   2.565   8.632   4.600 -0.0342  0.0609 -0.1381
 2489SOL    HW118146   2.499   8.567   4.564  1.4706 -1.3394 -0.4315
 2489SOL    HW218147   2.631   8.656   4.528 -1.0328  2.5681 -0.2931
 2490SOL     OW18148   0.566   9.493   0.686  0.4958  0.3586  0.3475
 2490SOL    HW118149   0.663   9.501   0.662  0.7586 -2.4047  0.3605
 2490SOL    HW218150   0.554   9.518   0.782  1.5083 -1.0121  0.8504
 2491SOL     OW18151   1.986   2.909   2.066  0.8508 -0.0565  0.6360
 2491SOL    HW118152   1.963   2.812   2.077  0.4048 -0.2991 -2.0666
 2491SOL    HW218153   1.948   2.961   2.143  0.2473 -1.8979  1.6085
 2492SOL     OW18154   3.100   1.072   2.174  0.5451  0.2394  0.3680
 2492SOL    HW118155   3.152   0.986   2.173 -0.6747 -0.5015  0.4484
 2492SOL    HW218156   3.164   1.149   2.170  1.5672 -0.6816 -1.4299
 2493SOL     OW18157   9.550   7.185   2.852  0.2843  0.3244 -0.1544
 2493SOL    HW118158   9.486   7.217   2.923 -0.7176 -0.9458 -0.4733
 2493SOL    HW218159   9.602   7.107   2.886 -0.3133 -0.3892 -0.8781
 2494SOL     OW18160   9.725   8.411   5.180 -0.1435  0.3035  0.6224
 2494SOL    HW118161   9.743   8.491   5.237 -0.4907  0.4348  0.5465
 2494SOL    HW218162   9.674   8.343   5.233  0.4211 -0.0011  0.7856
 2495SOL     OW18163   4.191   1.746   2.909  0.2700 -0.3882 -0.2079
 2495SOL    HW118164   4.164   1.832   2.866 -0.6202 -0.8406 -0.5697
 2495SOL    HW218165   4.229   1.765   3.000  0.5447  0.4249 -0.4884
 2496SOL     OW18166   0.568   0.285   5.624  0.0976 -0.4884  0.3638
 2496SOL    HW118167   0.516   0.328   5.698 -2.3403  1.4256 -2.3651
 2496SOL    HW218168   0.559   0.186   5.631 -1.6846 -0.2688  1.5027
 2497SOL     OW18169   5.343   0.538   4.513 -0.0591  0.1845  0.0450
 2497SOL    HW118170   5.364   0.598   4.590  0.2331  1.1423 -0.7769
 2497SOL    HW218171   5.409   0.553   4.440  0.1890 -1.3463 -0.0632
 2498SOL     OW18172   2.042   0.969   0.151  0.7749  0.0777  0.0438
 2498SOL    HW118173   2.071   1.040   0.087  1.5525  0.7200  1.0979
 2498SOL    HW218174   1.963   1.001   0.203  1.2401  0.2439  0.6511
 2499SOL     OW18175   4.963   1.281   2.843  0.2127  0.0749 -0.3359
 2499SOL    HW118176   4.905   1.205   2.813 -1.8694  1.2517  0.5150
 2499SOL    HW218177   4.971   1.278   2.943  1.9607 -0.2932 -0.4848
 2500SOL     OW18178   3.890   3.562   4.119  0.3353  0.5097 -0.3231
 2500SOL    HW118179   3.943   3.624   4.061  0.3375  0.7113 -0.1087
 2500SOL    HW218180   3.904   3.587   4.215  0.9695 -0.3270 -0.1888
 2501SOL     OW18181   4.504   1.866   4.461 -0.2665 -0.0931 -0.4803
 2501SOL    HW118182   4.499   1.795   4.531 -2.3504 -0.5746 -1.0918
 2501SOL    HW218183   4.470   1.952   4.499 -2.5137 -0.6334 -1.2328
 2502SOL     OW18184   5.840   8.979   3.224 -0.0617  0.0785 -0.5866
 2502SOL    HW118185   5.848   8.879   3.220  0.0525  0.0982 -0.8947
 2502SOL    HW218186   5.746   9.003   3.249  0.2821 -0.1215  0.9419
 2503SOL     OW18187   1.914   9.531   5.338 -0.1042  0.0439  0.1185
 2503SOL    HW118188   1.997   9.566   5.293  0.6982 -1.0658  0.7198
 2503SOL    HW218189   1.835   9.552   5.281  0.8273 -0.7574 -1.5166
 2504SOL     OW18190   1.760   8.175   4.429 -0.7634  0.0872  0.5297
 2504SOL    HW118191   1.689   8.239   4.460  0.1453  1.4012 -0.0805
 2504SOL    HW218192   1.741   8.148   4.335 -1.0853 -0.4854  0.7511
 2505SOL     OW18193   5.647   8.665   3.795 -0.0123 -0.1785  0.3663
 2505SOL    HW118194   5.657   8.762   3.820 -0.4050  0.5924 -2.3381
 2505SOL    HW218195   5.557   8.633   3.824 -0.2457  0.5336  0.4454
 2506SOL     OW18196   4.354   2.217   3.992  0.0929  0.2393  0.3352
 2506SOL    HW118197   4.402   2.180   4.072  0.1530 -0.8409 -0.1809
 2506SOL    HW218198   4.355   2.148   3.919 -0.3331  1.0550 -0.4422
 2507SOL     OW18199   5.397   8.788   1.563  0.0963  0.3225 -0.0932
 2507SOL    HW118200   5.396   8.886   1.585  2.0413  0.6144 -1.1717
 2507SOL    HW218201   5.458   8.772   1.486 -0.1179 -1.7826  0.1444
 2508SOL     OW18202   3.159   2.846   1.187 -0.2098  0.0131  0.5017
 2508SOL    HW118203   3.073   2.796   1.191 -0.7060  0.7449 -0.8056
 2508SOL    HW218204   3.142   2.944   1.203  0.3777  0.1652  0.2034
 2509SOL     OW18205   3.102   5.274   1.545 -0.5875  0.3013 -0.6587
 2509SOL    HW118206   3.064   5.191   1.587 -0.3167  0.6218  0.2302
 2509SOL    HW218207   3.027   5.334   1.518 -0.8593 -1.0005 -2.9408
 2510SOL     OW18208   8.632   0.814   2.258 -0.4182  0.0946  0.5122
 2510SOL    HW118209   8.568   0.870   2.206 -1.1071 -0.5226  0.6910
 2510SOL    HW218210   8.601   0.806   2.352 -0.8959 -1.4538  0.2359
 2511SOL     OW18211   3.601   1.015   0.575 -0.0924 -0.0107  0.3447
 2511SOL    HW118212   3.679   1.062   0.534 -0.1202  0.9061  1.3240
 2511SOL    HW218213   3.620   0.917   0.580  0.7475  0.1295  0.0112
 2512SOL     OW18214   0.085   9.845   1.038 -0.3518  0.0017  0.8203
 2512SOL    HW118215   0.109   9.775   0.970 -2.5568 -0.8255  0.8327
 2512SOL    HW218216   0.016   9.906   0.999  0.1384  1.0001  1.5053
 2513SOL     OW18217   1.353   6.729   1.067  0.4408  0.4025  0.2109
 2513SOL    HW118218   1.409   6.703   0.989  0.1153  0.1539  0.0586
 2513SOL    HW218219   1.260   6.696   1.053  0.6931 -0.8419  1.3224
 2514SOL     OW18220   7.544   0.675   4.290  0.1651  0.6949  0.3917
 2514SOL    HW118221   7.620   0.660   4.226 -0.3841 -1.1563  0.1399
 2514SOL    HW218222   7.556   0.617   4.370 -0.9605  0.3901  0.3549
 2515SOL     OW18223   1.367   3.706   1.907 -0.1893 -0.0839  0.2126
 2515SOL    HW118224   1.274   3.742   1.897  0.3632  1.4920  0.7509
 2515SOL    HW218225   1.432   3.781   1.917  1.4712 -1.0641 -2.5878
 2516SOL     OW18226   1.146   1.577   2.951  0.3710  0.1168  0.1786
 2516SOL    HW118227   1.127   1.481   2.928 -0.4697  0.1748  0.6141
 2516SOL    HW218228   1.120   1.635   2.875 -1.4885  0.2186  0.8546
 2517SOL     OW18229   2.734   6.066   0.944  0.6698 -0.0711  0.1763
 2517SOL    HW118230   2.636   6.051   0.930  0.2976 -0.2230  2.6502
 2517SOL    HW218231   2.750   6.093   1.039  2.8820  1.4088 -0.5697
 2518SOL     OW18232   1.986   8.027   4.365 -0.1794 -0.1550  1.3347
 2518SOL    HW118233   1.941   7.944   4.332 -0.3935  0.6627 -0.5218
 2518SOL    HW218234   1.918   8.096   4.388  0.0384  0.0581  1.3494
 2519SOL     OW18235   0.120   6.957   0.187  0.4354  0.6350  0.0986
 2519SOL    HW118236   0.098   7.020   0.113 -0.5400  0.3149  0.1068
 2519SOL    HW218237   0.036   6.916   0.222  1.0851 -1.0331 -0.2207
 2520SOL     OW18238   4.135   8.126   2.278  0.3913 -0.5197 -0.1762
 2520SOL    HW118239   4.120   8.222   2.305 -1.4994 -0.6296 -0.8016
 2520SOL    HW218240   4.072   8.102   2.204 -0.7632 -2.9248  1.5331
 2521SOL     OW18241   3.227   0.907   4.537 -0.1624 -0.1896  0.4898
 2521SOL    HW118242   3.220   0.930   4.440 -0.7292 -0.0208  0.5656
 2521SOL    HW218243   3.253   0.811   4.547 -0.1556 -0.2209  0.1676
 2522SOL     OW18244   4.484   9.559   1.456 -0.1745 -0.6907 -0.1688
 2522SOL    HW118245   4.416   9.510   1.402  0.1657 -0.9116 -0.3962
 2522SOL    HW218246   4.503   9.648   1.414 -1.8053  0.2473  0.9785
 2523SOL     OW18247   4.134   0.413   3.689 -0.6567  0.4458 -0.4753
 2523SOL    HW118248   4.233   0.406   3.697 -0.9003 -1.1599  1.5902
 2523SOL    HW218249   4.099   0.474   3.761 -1.3738 -0.9821  0.4204
 2524SOL     OW18250   9.159   1.717   4.984 -1.0311  0.4805  0.0092
 2524SOL    HW118251   9.147   1.700   5.082  0.1780 -0.8163 -0.0564
 2524SOL    HW218252   9.129   1.638   4.932 -0.1980  0.5354 -0.5793
 2525SOL     OW18253   2.271   6.826   2.852 -0.1480  0.1506  0.2631
 2525SOL    HW118254   2.201   6.788   2.913 -1.3029  1.6131 -0.1105
 2525SOL    HW218255   2.260   6.926   2.848  0.8444  0.2050 -1.1883
 2526SOL     OW18256   3.006   1.041   4.648  0.5737 -0.0053  0.0653
 2526SOL    HW118257   3.069   0.973   4.612  1.9109  0.6922  1.0502
 2526SOL    HW218258   3.052   1.097   4.717 -1.0852  0.5909  0.7310
 2527SOL     OW18259   2.159   2.402   1.577 -0.6270 -0.1992 -0.3839
 2527SOL    HW118260   2.232   2.336   1.558 -1.1984 -1.3105  1.1685
 2527SOL    HW218261   2.129   2.444   1.491  1.8919  0.3641 -1.0247
 2528SOL     OW18262   2.767   1.325   4.589  0.1309  0.0391  0.0491
 2528SOL    HW118263   2.799   1.332   4.494 -0.3271 -0.3018 -0.1324
 2528SOL    HW218264   2.693   1.258   4.594  0.1286  0.0845  0.6443
 2529SOL     OW18265   6.695   7.440   1.882  0.2004 -0.3348  0.1671
 2529SOL    HW118266   6.689   7.361   1.944 -0.4978  0.8767  1.6898
 2529SOL    HW218267   6.616   7.441   1.821  1.1189 -1.7888 -1.0792
 2530SOL     OW18268   1.107   0.896   3.866  0.1486 -0.3597 -0.2702
 2530SOL    HW118269   1.102   0.796   3.870  0.2223 -0.3662 -0.3561
 2530SOL    HW218270   1.148   0.925   3.780 -2.5141 -0.1749 -1.5416
 2531SOL     OW18271   7.604   1.871   3.056  0.1018  0.3686  0.2982
 2531SOL    HW118272   7.627   1.930   3.133  0.7243  1.1251 -0.4583
 2531SOL    HW218273   7.566   1.785   3.090 -0.4913  1.0587  1.4222
 2532SOL     OW18274   2.752   8.646   4.144  1.1650  0.1645 -0.1495
 2532SOL    HW118275   2.802   8.561   4.134  1.3888  0.4981 -1.9032
 2532SOL    HW218276   2.796   8.702   4.215  0.3790 -1.6041  1.7794
 2533SOL     OW18277   2.559   7.358   3.056 -0.1681 -0.3753 -0.4214
 2533SOL    HW118278   2.496   7.314   2.993 -1.1932  1.3341 -0.6284
 2533SOL    HW218279   2.571   7.454   3.030  3.7825 -1.0241 -1.3731
 2534SOL     OW18280   3.480   8.683   3.175  0.2569 -0.2021 -0.1443
 2534SOL    HW118281   3.430   8.597   3.186 -1.3533  0.4705 -1.8891
 2534SOL    HW218282   3.445   8.732   3.095  0.9193  2.2483  1.0023
 2535SOL     OW18283   9.829   2.979   3.528  0.3959 -0.1949  0.2966
 2535SOL    HW118284   9.744   2.961   3.478  0.4629  0.3123 -0.0049
 2535SOL    HW218285   9.828   2.930   3.615 -0.7953  0.8491  0.8958
 2536SOL     OW18286   1.637   8.913   0.163  0.4856 -0.2164  0.1331
 2536SOL    HW118287   1.644   8.995   0.107  1.7200 -0.4961 -0.1274
 2536SOL    HW218288   1.619   8.834   0.104  0.4155 -0.3044  0.2726
 2537SOL     OW18289   4.179   4.153   0.003 -0.0854  0.3898  0.4046
 2537SOL    HW118290   4.119   4.100   0.063  1.0434  0.7031  1.8099
 2537SOL    HW218291   4.140   4.153  -0.090 -0.8901 -1.6167  0.7124
 2538SOL     OW18292   4.535   9.301   4.549  0.4872 -0.3537 -0.0195
 2538SOL    HW118293   4.600   9.258   4.487 -0.6863 -0.4140 -1.2255
 2538SOL    HW218294   4.528   9.246   4.633 -2.9534 -4.0893 -2.5822
 2539SOL     OW18295   4.421   0.691   3.403 -0.0485  0.1527 -0.9876
 2539SOL    HW118296   4.358   0.613   3.398  1.4734 -1.2959  1.4793
 2539SOL    HW218297   4.498   0.675   3.341  0.9063 -0.9779  0.4350
 2540SOL     OW18298   2.415   7.837   1.515  0.6165  0.2532  0.4984
 2540SOL    HW118299   2.357   7.919   1.514 -0.0484 -0.2202 -0.0562
 2540SOL    HW218300   2.492   7.850   1.452 -0.0601  0.0476 -0.3798
 2541SOL     OW18301   0.692   9.504   1.850 -0.2104 -0.1939  0.2818
 2541SOL    HW118302   0.783   9.505   1.892  0.3136  0.8866 -0.8489
 2541SOL    HW218303   0.628   9.457   1.911  1.0633 -0.8406  1.1593
 2542SOL     OW18304   2.290   8.972   2.798 -0.1707 -0.2357  0.7080
 2542SOL    HW118305   2.390   8.969   2.790 -0.2364  0.0567 -0.2946
 2542SOL    HW218306   2.261   9.067   2.808 -0.3572 -0.3072  0.8450
 2543SOL     OW18307   6.642   9.738   3.944 -0.1228  0.2227  0.3529
 2543SOL    HW118308   6.662   9.667   4.012  1.2161  0.3082  0.0725
 2543SOL    HW218309   6.566   9.794   3.976  0.7801  0.5487  2.0320
 2544SOL     OW18310   3.616   9.938   0.887  0.0531 -0.2944 -0.2127
 2544SOL    HW118311   3.641   9.958   0.792  0.7768 -3.0693 -0.6693
 2544SOL    HW218312   3.683   9.875   0.926 -2.7914 -2.9673  0.5608
 2545SOL     OW18313   2.203   7.458   3.973  0.0260  0.0502 -0.5014
 2545SOL    HW118314   2.269   7.388   3.944  1.0204  0.2700  1.1515
 2545SOL    HW218315   2.223   7.544   3.925 -0.7263 -0.5714 -1.9697
 2546SOL     OW18316   6.407   0.196   4.244  0.1543 -0.1729  0.2144
 2546SOL    HW118317   6.466   0.274   4.265  0.1559 -0.2980  0.6686
 2546SOL    HW218318   6.412   0.129   4.317  0.2445 -0.6589 -0.2367
 2547SOL     OW18319   1.023   1.917   0.666  0.0534  0.0893 -0.1448
 2547SOL    HW118320   1.115   1.883   0.683  0.3523  0.5022 -0.9046
 2547SOL    HW218321   0.966   1.902   0.746  0.5595 -0.9316  0.0216
 2548SOL     OW18322   9.087   9.918   5.337  0.2387 -0.0416 -0.5169
 2548SOL    HW118323   9.021   9.891   5.267 -0.5032 -0.3750  0.2954
 2548SOL    HW218324   9.086   9.850   5.411  0.3906  0.7462  0.2179
 2549SOL     OW18325   8.795   1.380   1.969  0.1623  0.1757  0.1524
 2549SOL    HW118326   8.765   1.476   1.964  0.4154  0.3159  1.4149
 2549SOL    HW218327   8.858   1.362   1.894  1.5190  1.4934  0.9483
 2550SOL     OW18328   3.420   1.754   0.872  0.0921 -0.0075  0.2324
 2550SOL    HW118329   3.485   1.803   0.930  0.8304 -1.4145  0.6102
 2550SOL    HW218330   3.334   1.804   0.870  0.9950  1.5856  0.1850
 2551SOL     OW18331   2.933   7.638   2.897  0.3873  0.0762 -0.5623
 2551SOL    HW118332   2.975   7.579   2.966  0.6561 -0.9363 -1.5765
 2551SOL    HW218333   2.987   7.633   2.812 -0.9836 -0.1504 -1.4278
 2552SOL     OW18334   5.769   0.552   2.980  0.3300  0.2021  0.4288
 2552SOL    HW118335   5.793   0.605   3.061 -0.2052  2.4208 -0.8025
 2552SOL    HW218336   5.739   0.615   2.907  0.5034 -1.7521 -1.3749
 2553SOL     OW18337   0.025   4.638   2.125 -0.2228  0.2276 -0.1180
 2553SOL    HW118338   0.065   4.569   2.186  2.2411  1.5698 -0.1576
 2553SOL    HW218339   0.084   4.648   2.045 -1.1084  1.6568 -0.5856
 2554SOL     OW18340   4.234   9.895   1.875 -0.7462 -0.1637 -0.0285
 2554SOL    HW118341   4.138   9.874   1.854  0.1723 -3.0437 -1.5199
 2554SOL    HW218342   4.264   9.840   1.952  0.1133 -0.3196 -0.4727
 2555SOL     OW18343   5.860   9.319   2.992  0.3191  0.3440  0.6175
 2555SOL    HW118344   5.800   9.281   2.922  0.5480  1.0903  0.0081
 2555SOL    HW218345   5.955   9.295   2.972  0.1825 -1.5377  2.0263
 2556SOL     OW18346   1.734   0.391   2.804 -0.1124  0.2348 -0.0979
 2556SOL    HW118347   1.645   0.360   2.836 -0.2666  0.7270 -0.0476
 2556SOL    HW218348   1.798   0.314   2.801 -0.3625  0.0090  0.4728
 2557SOL     OW18349   1.740   0.271   0.519 -0.3261  0.0346 -0.0255
 2557SOL    HW118350   1.722   0.356   0.469 -0.7872 -1.1692 -1.9272
 2557SOL    HW218351   1.653   0.225   0.538  0.0242 -0.6747 -0.1470
 2558SOL     OW18352   4.272   9.652   0.429 -0.4144 -0.5774  0.5807
 2558SOL    HW118353   4.205   9.592   0.474 -1.3457 -1.5915 -2.0994
 2558SOL    HW218354   4.345   9.596   0.390 -0.4222  0.1629 -0.4971
 2559SOL     OW18355   6.803   7.909   2.263 -0.4983 -0.3588 -0.0859
 2559SOL    HW118356   6.844   7.969   2.332  1.5293 -2.2523  0.4200
 2559SOL    HW218357   6.829   7.941   2.171 -1.1802  0.7390  0.0940
 2560SOL     OW18358   1.947   6.442   4.408  0.5865  0.5336  0.0280
 2560SOL    HW118359   1.926   6.538   4.427 -1.0163  0.4583 -1.2813
 2560SOL    HW218360   1.892   6.383   4.468 -1.4077  0.3837 -1.8701
 2561SOL     OW18361   3.717   1.330   2.176  0.3604  0.3956  0.1298
 2561SOL    HW118362   3.727   1.240   2.132 -1.1685 -0.3832  1.3352
 2561SOL    HW218363   3.768   1.332   2.261  0.4461  0.6912  0.0723
 2562SOL     OW18364   1.196   0.562   1.128  0.2049  0.1870  0.3391
 2562SOL    HW118365   1.102   0.544   1.158  0.0283 -0.8050 -0.7816
 2562SOL    HW218366   1.205   0.659   1.104 -0.3797  0.4036  0.9833
 2563SOL     OW18367   8.808   1.474   1.460 -0.5015  0.2933  0.1433
 2563SOL    HW118368   8.723   1.424   1.446  0.0572 -1.1792  1.9025
 2563SOL    HW218369   8.831   1.524   1.376 -2.1319 -0.7477 -0.9516
 2564SOL     OW18370   4.864   9.671   4.687  0.2946  0.6214 -0.5065
 2564SOL    HW118371   4.769   9.704   4.682  0.4195  1.1277  0.4295
 2564SOL    HW218372   4.922   9.727   4.628  0.2876  1.3084  0.1356
 2565SOL     OW18373   1.392   0.070   4.182  0.0549  0.2564  0.3440
 2565SOL    HW118374   1.425   0.162   4.204  1.5742 -0.3849  0.8287
 2565SOL    HW218375   1.427   0.005   4.250 -1.3534 -0.6248  0.2479
 2566SOL     OW18376   7.625   1.308   2.045  0.3997  0.0041 -0.8915
 2566SOL    HW118377   7.557   1.259   1.991 -0.2791 -0.0394  0.0052
 2566SOL    HW218378   7.582   1.351   2.124  1.6509 -1.3564  0.5816
 2567SOL     OW18379   3.500   5.294   1.787  0.3062  0.6043 -0.4251
 2567SOL    HW118380   3.515   5.335   1.877  1.0255  0.9684 -0.7053
 2567SOL    HW218381   3.419   5.334   1.745 -0.2723  0.1349  0.2308
 2568SOL     OW18382   2.854   9.846   4.744  0.1193  0.4163  0.9282
 2568SOL    HW118383   2.841   9.807   4.835  2.9074  0.3628  1.3679
 2568SOL    HW218384   2.887   9.940   4.752 -3.7962  1.9830 -0.1143
 2569SOL     OW18385   2.028   8.784   3.226  0.2686 -0.0287 -0.0207
 2569SOL    HW118386   1.981   8.834   3.297  1.8213 -0.4433  1.3275
 2569SOL    HW218387   2.127   8.784   3.244  0.7140  0.0342 -2.2677
 2570SOL     OW18388   1.683   5.558   2.500 -0.2789 -0.0628 -0.2444
 2570SOL    HW118389   1.763   5.550   2.441 -1.6134  0.4945 -2.1779
 2570SOL    HW218390   1.613   5.492   2.470 -1.0432  0.3674  0.5752
 2571SOL     OW18391   4.722   0.499   5.054  0.1258  0.1264 -0.4703
 2571SOL    HW118392   4.760   0.559   4.984  0.9541  1.4958  1.1165
 2571SOL    HW218393   4.639   0.541   5.091 -0.8093 -1.0113 -1.2010
 2572SOL     OW18394   1.321   4.936   3.651  0.5375 -0.2844 -0.3954
 2572SOL    HW118395   1.351   4.842   3.637 -0.7440 -0.3084 -3.1322
 2572SOL    HW218396   1.237   4.953   3.600  0.7508  2.3649  0.0593
 2573SOL     OW18397   3.116   5.188   2.886  0.3838  0.7165  0.1396
 2573SOL    HW118398   3.064   5.132   2.822  0.2082  0.3573  0.6045
 2573SOL    HW218399   3.054   5.236   2.948  0.5835  0.6548  0.3883
 2574SOL     OW18400   7.758   2.443   2.049 -0.4529  0.3499 -0.2381
 2574SOL    HW118401   7.783   2.346   2.057  0.7953  0.6536 -0.2833
 2574SOL    HW218402   7.818   2.487   1.982 -0.2760  1.4008  0.6034
 2575SOL     OW18403   9.563   8.457   3.338 -0.3290  0.0075 -0.2329
 2575SOL    HW118404   9.570   8.398   3.418  0.1686 -0.9566 -0.9677
 2575SOL    HW218405   9.483   8.430   3.283 -0.5895  0.5711 -0.1363
 2576SOL     OW18406   1.736   2.209   0.523  0.2958 -0.1634  0.5092
 2576SOL    HW118407   1.674   2.262   0.581 -0.5094  0.1327 -0.6076
 2576SOL    HW218408   1.818   2.263   0.505 -0.4665  0.6760 -0.5178
 2577SOL     OW18409   1.354   2.012   1.424  0.4289 -0.1284  0.1101
 2577SOL    HW118410   1.319   2.046   1.511  3.1584  0.5537  0.9979
 2577SOL    HW218411   1.435   1.957   1.440  1.2491  0.4030 -2.0381
 2578SOL     OW18412   3.985   1.570   2.806  0.4046 -0.1510  0.0519
 2578SOL    HW118413   3.965   1.606   2.715 -0.7555  0.7770  0.6668
 2578SOL    HW218414   4.063   1.620   2.845 -1.6263  2.2725  1.1838
 2579SOL     OW18415   5.231   6.811   2.433  0.2965  0.1434 -0.1723
 2579SOL    HW118416   5.310   6.848   2.383  0.0733  0.6440 -0.1622
 2579SOL    HW218417   5.219   6.715   2.409  1.1270 -0.0389  0.1044
 2580SOL     OW18418   4.541   8.907   2.948  0.1484 -0.0333 -0.0968
 2580SOL    HW118419   4.583   8.972   3.011  0.8472 -0.5740 -0.0013
 2580SOL    HW218420   4.442   8.908   2.960  0.3062 -0.4855  1.3638
 2581SOL     OW18421   1.175   2.884   2.976  0.1732  0.5940  0.0801
 2581SOL    HW118422   1.188   2.818   2.902 -1.3951  1.8565 -1.3658
 2581SOL    HW218423   1.259   2.891   3.029  1.0657 -0.9332 -1.0719
 2582SOL     OW18424   1.430   7.498   5.600 -0.4292 -0.2268 -0.0886
 2582SOL    HW118425   1.386   7.586   5.589 -2.1025 -1.0443 -0.0474
 2582SOL    HW218426   1.523   7.511   5.635 -1.6188  1.4061  2.6479
 2583SOL     OW18427   0.075   8.715   2.470 -0.2783 -0.0791 -0.4714
 2583SOL    HW118428  -0.021   8.707   2.496 -0.3359 -2.3282 -1.2757
 2583SOL    HW218429   0.133   8.685   2.546 -0.2354  0.3056 -0.3513
 2584SOL     OW18430   3.576   9.035   5.632  0.7994 -0.7510 -0.0243
 2584SOL    HW118431   3.509   8.982   5.580  0.6672 -0.6165  0.0066
 2584SOL    HW218432   3.531   9.116   5.670  0.7986 -1.0506  0.6229
 2585SOL     OW18433   1.881   2.404   0.111 -0.5972  0.3112 -0.0152
 2585SOL    HW118434   1.888   2.501   0.089  1.0332  0.2337  0.0675
 2585SOL    HW218435   1.973   2.366   0.122 -1.1978 -1.4374 -0.8769
 2586SOL     OW18436   2.813   0.714   1.278 -0.5174  0.4016 -0.0215
 2586SOL    HW118437   2.888   0.654   1.251 -1.0304 -0.5668  0.6742
 2586SOL    HW218438   2.791   0.699   1.374 -2.3535 -0.1472 -0.5033
 2587SOL     OW18439   0.955   0.877   2.373  0.3518 -0.2240 -0.1973
 2587SOL    HW118440   0.930   0.897   2.468 -0.6104 -0.7494 -0.3356
 2587SOL    HW218441   0.876   0.842   2.324  1.1542 -1.1206 -0.8757
 2588SOL     OW18442   4.351   6.848   1.683  0.3681 -0.0692 -0.2304
 2588SOL    HW118443   4.365   6.750   1.699  0.3816 -0.1452 -0.6978
 2588SOL    HW218444   4.282   6.861   1.612  0.1514  0.2675  0.0404
 2589SOL     OW18445   1.586   6.435   0.897  0.0151 -0.2339  0.0033
 2589SOL    HW118446   1.523   6.399   0.967 -0.2132  0.9432  0.4145
 2589SOL    HW218447   1.569   6.388   0.810 -0.4141 -0.9752  0.4744
 2590SOL     OW18448   1.828   3.512   1.212 -0.3660 -0.3457  0.0663
 2590SOL    HW118449   1.851   3.548   1.121  1.3911 -0.4195  0.4589
 2590SOL    HW218450   1.742   3.552   1.243 -0.2373  0.7948 -1.0099
 2591SOL     OW18451   8.730   7.946   1.271  0.1250  0.2001  0.3637
 2591SOL    HW118452   8.744   7.882   1.346  1.6915 -0.2613 -0.2846
 2591SOL    HW218453   8.819   7.978   1.238 -0.5954  1.5965 -0.2742
 2592SOL     OW18454   0.259   5.544   1.146  0.4122  0.2862 -0.3258
 2592SOL    HW118455   0.205   5.493   1.213  2.6815 -0.4586  1.0064
 2592SOL    HW218456   0.246   5.642   1.161 -0.1346  0.1122  0.3551
 2593SOL     OW18457   2.238   6.020   3.270  0.5507 -0.6015  0.3332
 2593SOL    HW118458   2.209   6.063   3.356  0.2712 -0.5705  0.2227
 2593SOL    HW218459   2.338   6.009   3.271  0.6976  0.6889  0.0528
 2594SOL     OW18460   7.294   9.534   0.786 -0.0359 -0.3461 -0.5575
 2594SOL    HW118461   7.211   9.507   0.835  1.3624 -2.5187  0.6833
 2594SOL    HW218462   7.308   9.473   0.709 -0.5382  1.1542 -1.8686
 2595SOL     OW18463   2.815   3.775   3.387 -0.0012  0.7383 -0.5930
 2595SOL    HW118464   2.815   3.773   3.487  3.8213  1.9732 -0.4838
 2595SOL    HW218465   2.735   3.826   3.355 -1.5424 -0.1025  1.8052
 2596SOL     OW18466   9.185   0.788   3.051 -0.4035 -0.2314 -0.0841
 2596SOL    HW118467   9.256   0.790   2.981 -0.4586 -0.1015 -0.1361
 2596SOL    HW218468   9.107   0.844   3.022  0.6727  2.0614  1.2684
 2597SOL     OW18469   1.215   0.284   1.448  0.1370 -0.4353  0.1820
 2597SOL    HW118470   1.197   0.382   1.458  0.4220 -0.6454  3.0690
 2597SOL    HW218471   1.311   0.270   1.424  0.2568 -0.0493  0.4343
 2598SOL     OW18472   3.855   3.881   2.326  0.1314  0.2430  0.1315
 2598SOL    HW118473   3.936   3.821   2.325 -0.9566 -1.2550 -1.3045
 2598SOL    HW218474   3.791   3.850   2.396  0.3287  0.7833  0.5530
 2599SOL     OW18475   2.256   0.803   2.083 -0.2453 -0.3304 -0.0962
 2599SOL    HW118476   2.162   0.835   2.067 -0.5528 -1.9447 -1.7107
 2599SOL    HW218477   2.320   0.864   2.037 -0.7107 -0.8949 -1.5336
 2600SOL     OW18478   2.765   6.513   2.399  0.6512 -0.1775 -0.4029
 2600SOL    HW118479   2.830   6.449   2.356 -0.8241 -0.5730 -2.1193
 2600SOL    HW218480   2.733   6.578   2.331 -1.1402 -0.3108  0.2917
 2601SOL     OW18481   2.825   0.381   0.946  0.4603  0.1167  0.1334
 2601SOL    HW118482   2.768   0.428   1.014 -0.5353 -0.9716  0.0705
 2601SOL    HW218483   2.909   0.350   0.989 -0.4035 -1.0456  1.0323
 2602SOL     OW18484   9.516   0.102   0.468  0.1228 -0.1851  0.2325
 2602SOL    HW118485   9.556   0.158   0.395 -0.9903 -1.6983 -1.5894
 2602SOL    HW218486   9.472   0.161   0.536 -1.2274  1.1709 -1.7767
 2603SOL     OW18487   9.285   6.726   3.676  0.6018  0.9143  0.3960
 2603SOL    HW118488   9.195   6.718   3.718  1.1456  1.8381  1.7812
 2603SOL    HW218489   9.277   6.711   3.578 -1.0444  0.8934  0.5138
 2604SOL     OW18490   2.686   8.189   1.405  0.2445 -0.3247  0.1786
 2604SOL    HW118491   2.720   8.151   1.318  0.3860  0.5098 -0.1302
 2604SOL    HW218492   2.596   8.151   1.424  1.5733 -3.0348  1.3016
 2605SOL     OW18493   8.576   9.491   5.177  0.0905 -0.0001 -0.0380
 2605SOL    HW118494   8.613   9.473   5.267 -0.8300 -0.4105  0.2640
 2605SOL    HW218495   8.603   9.583   5.147  0.1446  0.2480  0.7785
 2606SOL     OW18496   5.392   8.533   2.877 -0.3484  0.0787 -0.3847
 2606SOL    HW118497   5.394   8.633   2.871 -0.4907  0.0581 -0.7147
 2606SOL    HW218498   5.302   8.499   2.852 -0.2899 -0.1361 -0.3071
 2607SOL     OW18499   3.248   2.560   3.698 -0.3117  0.2183  0.1321
 2607SOL    HW118500   3.200   2.497   3.759 -0.0197  0.4971  0.6513
 2607SOL    HW218501   3.340   2.525   3.679 -0.3759  0.1699 -0.0859
 2608SOL     OW18502   0.967   2.875   1.425 -0.3198 -0.4917  0.2627
 2608SOL    HW118503   0.945   2.972   1.410  0.0124 -0.6841 -1.6043
 2608SOL    HW218504   1.066   2.865   1.437 -0.1531 -0.7841 -1.2562
 2609SOL     OW18505   7.094   0.925   2.943 -0.6755  0.0905  0.8280
 2609SOL    HW118506   7.034   0.948   3.021 -0.0596 -1.2532  1.7186
 2609SOL    HW218507   7.083   0.829   2.921  1.1841 -0.1814  1.0282
 2610SOL     OW18508   0.667   1.223   2.383  0.2159  0.1324  0.4777
 2610SOL    HW118509   0.650   1.125   2.398  0.6567  0.1556  1.1520
 2610SOL    HW218510   0.671   1.270   2.471  3.5936  0.1544  0.3846
 2611SOL     OW18511   1.297   3.201   4.464  0.0292 -0.8264 -0.2797
 2611SOL    HW118512   1.325   3.105   4.462 -2.8608 -1.6946 -2.5502
 2611SOL    HW218513   1.313   3.242   4.374  0.8850  0.7420  0.5623
 2612SOL     OW18514   0.243   9.922   0.395 -0.1260 -0.5626 -0.0404
 2612SOL    HW118515   0.160   9.959   0.353  0.1011  0.7471  0.6464
 2612SOL    HW218516   0.234   9.923   0.494  0.8139 -0.1540  0.0440
 2613SOL     OW18517   4.120   8.838   4.744 -0.0086  0.1506  0.5127
 2613SOL    HW118518   4.122   8.823   4.843 -0.9928  0.0081  0.5143
 2613SOL    HW218519   4.042   8.896   4.720 -0.2765 -0.5301 -0.2779
 2614SOL     OW18520   9.848   7.971   3.296  0.7998  0.1953  0.1034
 2614SOL    HW118521   9.869   8.062   3.333  0.1359  0.4268 -0.0844
 2614SOL    HW218522   9.795   7.981   3.212 -0.1923 -0.3915  0.6621
 2615SOL     OW18523   8.751   1.076   5.116  0.3356  0.4753 -0.0250
 2615SOL    HW118524   8.758   1.147   5.187  0.5708 -0.8178  1.2820
 2615SOL    HW218525   8.831   1.081   5.056 -0.6671  2.6431 -1.2343
 2616SOL     OW18526   7.676   7.960   1.766  0.4845  0.0089  0.2696
 2616SOL    HW118527   7.714   7.898   1.697  0.2088 -0.2778  0.3726
 2616SOL    HW218528   7.587   7.925   1.797  0.3161  0.4717  0.3090
 2617SOL     OW18529   2.008   6.428   1.735  0.1767 -0.1348 -0.7257
 2617SOL    HW118530   1.950   6.350   1.756 -0.7644  0.1610 -2.1664
 2617SOL    HW218531   2.104   6.405   1.755 -0.3400 -0.8783  0.9283
 2618SOL     OW18532   5.012   3.645   0.516 -0.4665  0.0590  0.0962
 2618SOL    HW118533   5.015   3.581   0.593  0.0953  0.4331  0.3890
 2618SOL    HW218534   4.967   3.729   0.545 -1.6377 -0.3771 -0.4240
 2619SOL     OW18535   3.657   3.700   4.520 -0.3873 -0.2109  0.0854
 2619SOL    HW118536   3.651   3.766   4.445 -2.9948 -0.0040  0.4480
 2619SOL    HW218537   3.589   3.722   4.590 -1.3165 -3.2721  0.1999
 2620SOL     OW18538   7.404   0.023   4.495 -0.0790 -0.4583  0.4932
 2620SOL    HW118539   7.357  -0.019   4.573  0.5109  0.5296  1.3878
 2620SOL    HW218540   7.393   0.122   4.498  0.8990 -0.3275 -0.0631
 2621SOL     OW18541   4.563   2.105   4.135  0.0468  0.4406  0.3485
 2621SOL    HW118542   4.584   2.114   4.038 -0.9266 -3.4260 -0.3204
 2621SOL    HW218543   4.605   2.180   4.186  1.3028  2.0537 -2.9255
 2622SOL     OW18544   4.059   8.390   4.800 -0.1231  1.2604  0.3585
 2622SOL    HW118545   4.137   8.393   4.737 -0.3998  1.6885  0.0417
 2622SOL    HW218546   4.022   8.481   4.812  0.3058  1.2868  1.6217
 2623SOL     OW18547   2.355   7.005   2.544  0.2455 -0.0351  0.7327
 2623SOL    HW118548   2.368   7.103   2.558 -1.1526  0.5565 -1.7714
 2623SOL    HW218549   2.257   6.984   2.548  0.2123 -0.6802 -2.2588
 2624SOL     OW18550   8.274   3.630   2.119  0.4402 -0.2747 -0.9442
 2624SOL    HW118551   8.270   3.695   2.043  0.2306  0.2626 -0.4712
 2624SOL    HW218552   8.311   3.543   2.086  1.6335  0.3802 -1.3717
 2625SOL     OW18553   1.401   3.440   1.821  0.2714 -0.1012 -0.5036
 2625SOL    HW118554   1.346   3.454   1.738 -0.5848  0.5229  0.1548
 2625SOL    HW218555   1.413   3.528   1.867  2.9359 -0.0151 -1.3093
 2626SOL     OW18556   2.333   2.424   0.687  0.1933 -0.4415  0.0586
 2626SOL    HW118557   2.276   2.345   0.663  0.7582 -0.4884 -1.1549
 2626SOL    HW218558   2.283   2.508   0.669 -0.3962 -0.5106  1.3181
 2627SOL     OW18559   8.957   1.230   1.129 -0.0923  0.6164 -0.4583
 2627SOL    HW118560   8.875   1.179   1.156 -0.2229  1.1298  0.1275
 2627SOL    HW218561   8.943   1.271   1.039 -0.1857  0.0589 -0.7007
 2628SOL     OW18562   1.671   7.282   3.130 -0.3916 -0.4272 -0.1436
 2628SOL    HW118563   1.661   7.183   3.118 -0.5278 -0.2446 -1.5705
 2628SOL    HW218564   1.639   7.308   3.221 -0.6835 -1.6494  0.1062
 2629SOL     OW18565   0.832   0.092   3.162  0.1346  0.3860 -0.3038
 2629SOL    HW118566   0.779   0.008   3.171 -0.2078  0.7112  0.8064
 2629SOL    HW218567   0.779   0.160   3.113  0.8484 -0.4033 -2.2354
 2630SOL     OW18568   3.880   4.298   4.837 -0.3004 -0.0020 -0.1286
 2630SOL    HW118569   3.830   4.220   4.799 -0.4537 -1.9582  3.9003
 2630SOL    HW218570   3.824   4.341   4.908  2.4696 -0.3067  2.2860
 2631SOL     OW18571   1.886   3.339   0.118 -0.0048 -0.4015  0.2855
 2631SOL    HW118572   1.939   3.386   0.188 -1.3935 -0.4043  1.3508
 2631SOL    HW218573   1.823   3.403   0.075 -1.2133 -1.0548  1.0623
 2632SOL     OW18574   2.495   3.684   3.719  0.7448  0.2630  0.5611
 2632SOL    HW118575   2.398   3.690   3.744  0.8447 -0.3833  1.1063
 2632SOL    HW218576   2.510   3.733   3.633 -0.3459 -0.8658 -0.2957
 2633SOL     OW18577   4.350   9.397   0.723  0.6347 -0.7074 -0.0309
 2633SOL    HW118578   4.402   9.440   0.797  1.9872 -1.8340 -0.2919
 2633SOL    HW218579   4.252   9.412   0.738  0.8902 -0.8684  1.9678
 2634SOL     OW18580   9.247   6.281   2.151 -0.3193  0.4274  0.9683
 2634SOL    HW118581   9.156   6.240   2.155 -0.3811  0.1956 -2.1255
 2634SOL    HW218582   9.239   6.380   2.146 -0.4415  0.3734  0.0105
 2635SOL     OW18583   8.568   3.492   1.338  0.0337 -0.0963  0.7313
 2635SOL    HW118584   8.528   3.454   1.255 -0.0377 -0.4653  0.9376
 2635SOL    HW218585   8.501   3.550   1.384  0.2630  0.5949  0.2196
 2636SOL     OW18586   3.595   3.171   3.077 -0.4792 -0.8402 -0.6852
 2636SOL    HW118587   3.554   3.261   3.083  0.7445 -0.2878 -0.4986
 2636SOL    HW218588   3.601   3.130   3.168 -2.7015 -1.8849 -0.9746
 2637SOL     OW18589   7.012   0.122   4.062  0.5127 -0.4598 -0.3262
 2637SOL    HW118590   7.079   0.093   3.994 -1.1194 -2.5575 -1.0956
 2637SOL    HW218591   6.925   0.074   4.046 -0.7201  1.0612  1.5697
 2638SOL     OW18592   0.391   0.590   2.612 -0.2423  0.3165 -0.1900
 2638SOL    HW118593   0.446   0.608   2.530 -0.5867 -3.1216 -1.2467
 2638SOL    HW218594   0.297   0.569   2.585 -0.3888 -0.7394  1.0901
 2639SOL     OW18595   9.214   0.185   4.281  0.2346 -0.6533  1.0882
 2639SOL    HW118596   9.306   0.161   4.251  0.1332 -0.4612  0.6211
 2639SOL    HW218597   9.217   0.270   4.335  0.5772 -1.6284  2.6538
 2640SOL     OW18598   3.911   0.761   1.232  0.5125  0.2094 -0.0942
 2640SOL    HW118599   3.956   0.850   1.226 -0.0204  0.3158 -3.6248
 2640SOL    HW218600   3.966   0.693   1.183 -0.8954 -0.6267 -0.5180
 2641SOL     OW18601   4.511   8.552   3.612  0.2661  0.0111  0.5577
 2641SOL    HW118602   4.594   8.536   3.559  0.0932 -0.0075  0.2931
 2641SOL    HW218603   4.523   8.634   3.668  0.3315  0.2186  0.2431
 2642SOL     OW18604   3.331   2.736   4.028  1.2831  0.7058  0.5594
 2642SOL    HW118605   3.384   2.818   4.007  0.0948  1.3016 -0.2370
 2642SOL    HW218606   3.234   2.761   4.038  0.7938 -0.7002 -0.4691
 2643SOL     OW18607   8.216   5.197   2.506  0.0050  0.3329 -0.3708
 2643SOL    HW118608   8.206   5.280   2.452 -1.8471 -1.7561 -3.3656
 2643SOL    HW218609   8.129   5.177   2.554  0.2687 -0.1535 -0.0837
 2644SOL     OW18610   0.890   9.488   5.256 -0.4860 -0.2310  0.4946
 2644SOL    HW118611   0.855   9.418   5.194  0.0787 -0.7548  0.7652
 2644SOL    HW218612   0.963   9.540   5.212 -1.6594  0.9380 -0.1103
 2645SOL     OW18613   1.005   8.174   2.344 -0.9133 -0.1851 -0.6609
 2645SOL    HW118614   0.931   8.128   2.294 -0.4822  0.2781 -1.7307
 2645SOL    HW218615   0.971   8.202   2.434 -1.7924 -0.7275 -0.8109
 2646SOL     OW18616   1.502   9.313   1.315  0.3691  0.0841  0.5337
 2646SOL    HW118617   1.498   9.304   1.215 -1.9325  1.7164  0.4459
 2646SOL    HW218618   1.554   9.236   1.353  6.7259  2.5977 -2.3210
 2647SOL     OW18619   1.390   0.043   5.410  0.0620 -0.2581  0.0891
 2647SOL    HW118620   1.467  -0.012   5.376  0.3448  1.6819 -2.5442
 2647SOL    HW218621   1.426   0.120   5.464 -0.0770  0.2076 -0.4856
 2648SOL     OW18622   3.719   1.008   2.123 -0.2519 -0.2240  0.3890
 2648SOL    HW118623   3.773   0.983   2.204  1.2475  2.3312  0.2193
 2648SOL    HW218624   3.769   0.981   2.041 -1.0913 -1.4617  0.2745
 2649SOL     OW18625   8.805   6.841   2.052  0.0615 -0.0224 -0.3876
 2649SOL    HW118626   8.733   6.848   2.122 -0.0259  0.6460 -0.5440
 2649SOL    HW218627   8.894   6.850   2.096 -0.0236  1.4878 -0.4857
 2650SOL     OW18628   6.733   1.346   2.406  0.3426  1.0702 -0.7402
 2650SOL    HW118629   6.714   1.259   2.360 -0.5034  0.8474  0.0275
 2650SOL    HW218630   6.733   1.420   2.338 -2.8920  1.0300 -0.8491
 2651SOL     OW18631   1.503   4.128   4.146 -0.0398 -0.6688  0.7442
 2651SOL    HW118632   1.440   4.082   4.209 -1.0734 -2.9852 -1.9011
 2651SOL    HW218633   1.483   4.100   4.052  2.5531  1.4476 -0.5027
 2652SOL     OW18634   1.966   7.871   5.359 -0.0123 -0.1807  0.0429
 2652SOL    HW118635   1.948   7.874   5.458 -1.1182  0.1173 -0.1657
 2652SOL    HW218636   2.034   7.800   5.340  0.7186  0.2124  1.0924
 2653SOL     OW18637   1.748   9.754   2.653 -0.0718 -0.2193  0.1001
 2653SOL    HW118638   1.804   9.671   2.652  0.4492  0.1412 -1.0490
 2653SOL    HW218639   1.776   9.812   2.729 -0.2810 -0.9885  0.7688
 2654SOL     OW18640   3.139   5.394   1.267 -0.1134 -0.2379  0.4811
 2654SOL    HW118641   3.173   5.316   1.321  0.2543 -0.5373 -0.1762
 2654SOL    HW218642   3.053   5.368   1.222 -1.2707  0.5485  2.2125
 2655SOL     OW18643   2.350   0.667   1.728  0.1160  0.0040  0.7708
 2655SOL    HW118644   2.369   0.605   1.803  0.8311  1.3919  1.7497
 2655SOL    HW218645   2.392   0.756   1.746 -2.1694  1.2491  0.1085
 2656SOL     OW18646   4.053   9.680   0.964 -0.4838  0.3137 -0.8806
 2656SOL    HW118647   3.997   9.722   1.035 -0.3143  1.2636 -1.2902
 2656SOL    HW218648   4.145   9.720   0.965  0.9238 -2.7743  1.2120
 2657SOL     OW18649   1.998   6.301   2.082 -0.5494  0.2284 -0.4061
 2657SOL    HW118650   2.052   6.338   2.158 -1.6676 -0.6637  0.8490
 2657SOL    HW218651   1.904   6.335   2.089 -0.6875  0.0301 -1.3151
 2658SOL     OW18652   9.783   0.481   1.792 -0.0448 -0.4518  1.2464
 2658SOL    HW118653   9.714   0.447   1.729  0.4384  0.0602  0.4289
 2658SOL    HW218654   9.767   0.578   1.811  0.8727 -0.1365  0.4640
 2659SOL     OW18655   0.913   4.888   1.877  0.6103  1.1308 -0.3043
 2659SOL    HW118656   0.957   4.812   1.830 -0.2754  0.9188 -0.8105
 2659SOL    HW218657   0.814   4.882   1.863  0.4524  1.7706  0.5518
 2660SOL     OW18658   7.805   1.011   3.074  0.4354 -0.0105  0.1235
 2660SOL    HW118659   7.747   0.956   3.014  0.2063 -0.0722  0.4037
 2660SOL    HW218660   7.894   1.024   3.030  0.3881 -0.3512 -0.0765
 2661SOL     OW18661   6.692   9.957   2.020  0.0275 -0.2629 -0.3683
 2661SOL    HW118662   6.626   9.968   1.945  0.1026 -0.6142 -0.4887
 2661SOL    HW218663   6.701  10.043   2.070  0.1299  0.0328 -0.8935
 2662SOL     OW18664   2.896   3.026   5.419  0.1756  0.7307  0.3928
 2662SOL    HW118665   2.890   3.104   5.356 -0.8329  0.0785 -0.3325
 2662SOL    HW218666   2.954   2.956   5.380  0.5894  0.8607  0.7723
 2663SOL     OW18667   2.746   2.025   4.458 -0.5544 -0.1307  0.4536
 2663SOL    HW118668   2.707   2.116   4.443  0.7154  0.4696  0.7478
 2663SOL    HW218669   2.815   2.030   4.530  0.8570 -0.9728 -0.8263
 2664SOL     OW18670   5.762   1.431   2.639 -0.0991  0.5981  0.0978
 2664SOL    HW118671   5.835   1.472   2.692  0.2809 -1.3887  1.1811
 2664SOL    HW218672   5.801   1.387   2.558 -0.4485  1.9515 -0.8205
 2665SOL     OW18673   1.034   7.384   1.012 -0.0341 -0.6938  0.0950
 2665SOL    HW118674   0.951   7.343   0.973 -1.5960  1.8874  0.5802
 2665SOL    HW218675   1.026   7.386   1.112  0.5631 -0.3409  0.1374
 2666SOL     OW18676   2.826   0.106   2.924  0.1343 -0.2886 -0.0174
 2666SOL    HW118677   2.890   0.156   2.865  1.0982 -2.2561 -0.7010
 2666SOL    HW218678   2.783   0.169   2.988  1.8776  1.2786 -0.3458
 2667SOL     OW18679   2.793   2.537   1.463  0.0779 -0.3170  0.1354
 2667SOL    HW118680   2.753   2.445   1.456  2.5262 -1.2400 -2.8744
 2667SOL    HW218681   2.891   2.529   1.479  0.3631  1.7891 -0.4406
 2668SOL     OW18682   9.970   1.728   0.113 -0.5438  0.0179  0.4202
 2668SOL    HW118683   9.969   1.741   0.014 -2.8023  0.1480  0.4474
 2668SOL    HW218684   9.945   1.813   0.158 -1.6451 -0.6191  1.0318
 2669SOL     OW18685   1.579   6.767   0.324 -0.8959  0.0692  0.1100
 2669SOL    HW118686   1.545   6.858   0.303  0.2294 -0.0759 -2.4844
 2669SOL    HW218687   1.554   6.704   0.251  3.3367 -0.4015 -1.0953
 2670SOL     OW18688   9.416   9.948   1.521 -0.5278 -0.0161  0.3809
 2670SOL    HW118689   9.418  10.027   1.460 -0.4490 -1.0788 -1.0359
 2670SOL    HW218690   9.492   9.887   1.497 -1.7560 -1.4673  0.1462
 2671SOL     OW18691   4.318   4.034   0.534  0.4882 -0.0789 -0.3561
 2671SOL    HW118692   4.334   4.127   0.504  0.6213 -0.2538 -0.8246
 2671SOL    HW218693   4.396   3.976   0.510 -0.4848 -0.7588 -1.9270
 2672SOL     OW18694   7.876   9.736   2.179 -0.2723  0.1111  0.1560
 2672SOL    HW118695   7.960   9.686   2.159 -0.2934  0.2205 -0.2200
 2672SOL    HW218696   7.840   9.708   2.268 -0.6630 -1.0598 -0.3605
 2673SOL     OW18697   1.530   1.583   2.224  0.1427  0.2941 -0.5112
 2673SOL    HW118698   1.547   1.524   2.303  1.1817  0.5656 -0.5212
 2673SOL    HW218699   1.528   1.528   2.141  2.1564  0.3777 -0.6427
 2674SOL     OW18700   1.324   9.415   3.407 -0.6101 -0.2277  0.3766
 2674SOL    HW118701   1.258   9.480   3.444  0.3383  0.7866  0.3053
 2674SOL    HW218702   1.400   9.404   3.471  0.4022  0.5517 -0.6808
 2675SOL     OW18703   2.998   2.177   2.598 -0.0736 -0.1424  0.3487
 2675SOL    HW118704   3.026   2.242   2.527 -0.4558  0.1519  0.4677
 2675SOL    HW218705   3.066   2.104   2.605 -0.8758 -1.1296 -1.5314
 2676SOL     OW18706   4.766   1.091   0.844  0.3160  0.2920  0.2271
 2676SOL    HW118707   4.859   1.116   0.872  0.6362  0.8324 -1.2573
 2676SOL    HW218708   4.771   1.022   0.772 -0.4308  0.2145  0.2563
 2677SOL     OW18709   5.201   9.599   3.723  0.2517 -0.2522  0.1810
 2677SOL    HW118710   5.115   9.549   3.718  1.5995 -2.4958 -1.2977
 2677SOL    HW218711   5.271   9.551   3.670  1.9166  2.5793 -0.2583
 2678SOL     OW18712   1.305   2.378   0.682 -0.8294  0.2610 -0.6311
 2678SOL    HW118713   1.292   2.336   0.772  2.0079 -1.8155 -1.1110
 2678SOL    HW218714   1.262   2.320   0.613  0.2135 -0.0896 -0.9801
 2679SOL     OW18715   9.256   3.690   1.175 -0.3356  0.1254 -0.2464
 2679SOL    HW118716   9.240   3.636   1.093  1.0737 -1.6308  0.6032
 2679SOL    HW218717   9.189   3.664   1.245 -1.0163  1.0358 -0.5496
 2680SOL     OW18718   1.040   7.992   4.774  0.0509  0.4157  0.4287
 2680SOL    HW118719   1.137   7.981   4.751 -0.0614 -0.2337  0.2542
 2680SOL    HW218720   1.028   7.986   4.873 -0.1150 -2.0507  0.2957
 2681SOL     OW18721   9.395   6.682   1.052 -0.0702  0.2591  0.0290
 2681SOL    HW118722   9.297   6.667   1.043 -0.3545  1.1156  1.6001
 2681SOL    HW218723   9.426   6.747   0.983 -0.4378 -0.6782 -1.0299
 2682SOL     OW18724   0.630   7.784   1.118 -0.0444 -0.0178  0.0753
 2682SOL    HW118725   0.637   7.862   1.180  1.5264  0.2263 -0.3818
 2682SOL    HW218726   0.618   7.817   1.024  1.9580 -0.2711 -0.2898
 2683SOL     OW18727   1.234   4.038   3.215 -0.3197 -0.6227  0.1440
 2683SOL    HW118728   1.303   4.076   3.153 -1.6458  0.8749 -0.4432
 2683SOL    HW218729   1.257   4.062   3.309 -0.1217 -0.0048 -0.0615
 2684SOL     OW18730   8.213   1.139   2.352 -0.3620 -0.6443 -0.6622
 2684SOL    HW118731   8.165   1.062   2.395 -2.9138  2.0648  1.5109
 2684SOL    HW218732   8.281   1.174   2.416  0.2846 -0.5997 -1.3698
 2685SOL     OW18733   2.598   0.557   4.011 -0.2441 -0.0496 -0.1103
 2685SOL    HW118734   2.695   0.542   3.995  0.4014  1.7282  1.9800
 2685SOL    HW218735   2.564   0.489   4.076  0.0451  0.4517  0.5752
 2686SOL     OW18736   0.041   2.056   1.990 -0.2854  0.2381  0.5506
 2686SOL    HW118737  -0.049   2.015   1.975 -0.4393 -0.2825  2.7223
 2686SOL    HW218738   0.056   2.129   1.923 -1.3428 -1.1931 -1.2949
 2687SOL     OW18739   1.413   8.996   2.257  0.3190  0.7004 -0.4904
 2687SOL    HW118740   1.346   8.928   2.226  2.1721 -0.5796 -1.8070
 2687SOL    HW218741   1.408   9.003   2.357 -1.8034  0.6713 -0.5734
 2688SOL     OW18742   9.628   0.943   2.005 -0.0555 -0.0574 -0.0515
 2688SOL    HW118743   9.654   0.847   2.015  0.7462  0.0952 -0.6333
 2688SOL    HW218744   9.709   0.998   1.987 -0.2045  1.0430  2.3774
 2689SOL     OW18745   4.862   9.831   2.868 -0.6955  0.4478  0.0875
 2689SOL    HW118746   4.800   9.793   2.800  0.2934 -2.0418  0.5017
 2689SOL    HW218747   4.949   9.782   2.865 -0.3919  0.7239  2.6638
 2690SOL     OW18748   1.643   3.759   0.871 -0.2225  0.4562  0.2299
 2690SOL    HW118749   1.573   3.691   0.848  0.1344 -0.0191  0.5303
 2690SOL    HW218750   1.732   3.714   0.878  0.2513  1.1987 -0.9657
 2691SOL     OW18751   7.493   2.834   1.923 -0.6613  0.2080  0.3259
 2691SOL    HW118752   7.528   2.922   1.954 -1.2866  0.5659  0.0348
 2691SOL    HW218753   7.535   2.760   1.976  0.0036  0.6682  0.4446
 2692SOL     OW18754   7.423   7.152   2.597  0.5890  0.3062  0.4193
 2692SOL    HW118755   7.333   7.130   2.559  0.1672 -1.0210  2.1321
 2692SOL    HW218756   7.422   7.244   2.636  0.2323  0.6193 -0.3233
 2693SOL     OW18757   6.997   7.462   3.256 -0.0674 -0.0929 -0.2809
 2693SOL    HW118758   6.905   7.476   3.292 -0.1381  0.6480 -0.7249
 2693SOL    HW218759   7.063   7.509   3.314 -0.1383  0.7363 -0.8590
 2694SOL     OW18760   2.704   6.520   1.526 -0.1700 -0.6248  0.1227
 2694SOL    HW118761   2.623   6.461   1.529 -0.5560 -0.0596  0.9296
 2694SOL    HW218762   2.715   6.556   1.433 -1.4813  0.1612  0.2493
 2695SOL     OW18763   8.098   9.943   4.194  0.2818  0.4610 -0.2566
 2695SOL    HW118764   8.021   9.904   4.243 -0.0656  0.4716 -0.7936
 2695SOL    HW218765   8.173   9.960   4.258 -0.1608  0.4589  0.2648
 2696SOL     OW18766   6.831   8.429   2.582 -0.1088 -0.3817 -0.1273
 2696SOL    HW118767   6.819   8.513   2.635 -0.8601  0.0494 -0.9743
 2696SOL    HW218768   6.812   8.447   2.486  1.5875 -1.0766 -0.6064
 2697SOL     OW18769   9.543   8.227   4.949 -0.6069  0.3579 -0.7589
 2697SOL    HW118770   9.523   8.219   5.047  2.2363  1.0892 -0.0972
 2697SOL    HW218771   9.532   8.323   4.921  1.2321  0.6477 -0.5326
 2698SOL     OW18772   2.762   1.638   0.756 -0.5108  0.0882  0.0900
 2698SOL    HW118773   2.846   1.636   0.701 -0.4942  3.2407 -0.0663
 2698SOL    HW218774   2.704   1.561   0.730  2.4953 -2.4382  0.5325
 2699SOL     OW18775   6.816   9.520   3.089 -0.3190 -0.0911  0.6123
 2699SOL    HW118776   6.878   9.497   3.164  0.4071 -1.7900 -0.4695
 2699SOL    HW218777   6.843   9.608   3.049  0.4551 -0.0812  1.1429
 2700SOL     OW18778   0.704   2.692   4.549 -0.4422 -0.1517  0.0480
 2700SOL    HW118779   0.703   2.791   4.562 -0.9514 -0.0522 -0.7011
 2700SOL    HW218780   0.750   2.670   4.463 -0.9073 -0.5211 -0.1092
 2701SOL     OW18781   2.403   4.927   2.297  0.0044 -0.0539 -0.2691
 2701SOL    HW118782   2.389   5.026   2.298 -0.8644 -0.1777  0.3511
 2701SOL    HW218783   2.321   4.883   2.260 -0.2971 -0.6455  1.0833
 2702SOL     OW18784   4.093   8.812   2.742 -0.5820  0.5604 -0.7403
 2702SOL    HW118785   4.022   8.876   2.770  0.4612  2.0300 -1.3749
 2702SOL    HW218786   4.072   8.776   2.651  0.0136  1.8115 -1.3818
 2703SOL     OW18787   9.801   1.900   0.760 -0.4217 -0.1778 -0.3538
 2703SOL    HW118788   9.837   1.906   0.853 -0.0717  0.0482 -0.5023
 2703SOL    HW218789   9.877   1.893   0.695 -0.5903  1.4208 -0.7490
 2704SOL     OW18790   7.942   7.497   2.410 -0.0362  0.0032 -0.2858
 2704SOL    HW118791   7.929   7.448   2.324  1.0295 -1.5435  0.4215
 2704SOL    HW218792   8.021   7.558   2.402  1.3775 -1.7118  0.2508
 2705SOL     OW18793   0.631   1.222   3.420 -0.0049 -0.4207  0.2332
 2705SOL    HW118794   0.628   1.123   3.434 -0.8389 -0.7457 -2.1231
 2705SOL    HW218795   0.554   1.251   3.365  1.9255  1.1109 -1.7593
 2706SOL     OW18796   5.244   8.123   4.270  0.1904  0.4213  0.5824
 2706SOL    HW118797   5.248   8.165   4.179  3.1807 -1.5074 -0.2643
 2706SOL    HW218798   5.321   8.156   4.325  0.2794 -0.9433  1.2836
 2707SOL     OW18799   2.687   1.255   3.703  0.5139 -0.8744  0.1855
 2707SOL    HW118800   2.640   1.226   3.786  0.0013 -1.3144 -0.2466
 2707SOL    HW218801   2.624   1.246   3.625  0.1830  1.7740  0.0796
 2708SOL     OW18802   6.269   6.893   2.461 -0.1581  0.1276  0.0603
 2708SOL    HW118803   6.181   6.896   2.509  0.1398 -0.1864  0.6279
 2708SOL    HW218804   6.342   6.919   2.523  0.2668 -0.5691 -0.1347
 2709SOL     OW18805   2.208   2.798   2.682 -0.0693 -0.5904  0.7508
 2709SOL    HW118806   2.165   2.887   2.669 -0.2593 -0.7684  0.1393
 2709SOL    HW218807   2.233   2.786   2.778  1.0306  0.6203  0.6308
 2710SOL     OW18808   2.048   0.223   5.381 -0.1153 -0.0500 -0.9497
 2710SOL    HW118809   2.058   0.306   5.327 -0.9377  0.6877 -0.0025
 2710SOL    HW218810   2.032   0.247   5.477  0.8953 -1.3239 -0.4388
 2711SOL     OW18811   6.094   7.495   3.922 -0.0971  0.0776  0.3501
 2711SOL    HW118812   6.124   7.403   3.947 -1.0925 -0.1769  0.6196
 2711SOL    HW218813   6.171   7.558   3.931  0.3646 -0.5674  1.0272
 2712SOL     OW18814   4.234   9.652   4.410  0.6376  0.5472  0.6129
 2712SOL    HW118815   4.332   9.651   4.390  0.0693 -0.3530 -2.4762
 2712SOL    HW218816   4.213   9.581   4.477  2.0882  0.6861  1.2271
 2713SOL     OW18817   1.218   7.628   4.866  0.1397  0.0844 -0.8098
 2713SOL    HW118818   1.244   7.691   4.939 -0.6211 -0.3528 -0.1482
 2713SOL    HW218819   1.247   7.665   4.777  0.3465  1.0113 -0.3598
 2714SOL     OW18820   0.285   6.417   2.384  0.1425 -0.2163 -0.8539
 2714SOL    HW118821   0.249   6.509   2.397 -0.6152 -0.8127  1.6258
 2714SOL    HW218822   0.251   6.380   2.298  0.7654  1.9407 -2.0744
 2715SOL     OW18823   2.981   4.634   3.002 -0.7743  0.5976  0.3573
 2715SOL    HW118824   3.052   4.656   3.069 -1.7463 -0.8000  1.8796
 2715SOL    HW218825   3.022   4.586   2.924  0.2686  1.6978  0.2094
 2716SOL     OW18826   1.648   0.670   3.424 -0.1866 -0.3397 -0.4516
 2716SOL    HW118827   1.656   0.739   3.352 -1.6671 -0.1827 -0.4890
 2716SOL    HW218828   1.697   0.701   3.505 -0.5388  0.5952 -0.5920
 2717SOL     OW18829   3.517   3.027   1.831  0.2046 -0.1363  0.1779
 2717SOL    HW118830   3.437   2.974   1.860  0.4337  0.1452  1.3400
 2717SOL    HW218831   3.577   3.042   1.910  1.0315  0.2989 -0.5319
 2718SOL     OW18832   8.344   9.271   2.915  0.0706  0.2642 -0.3828
 2718SOL    HW118833   8.365   9.213   2.994 -0.2043 -0.7346 -1.0418
 2718SOL    HW218834   8.337   9.366   2.946 -2.9692 -0.4478  1.3705
 2719SOL     OW18835   3.525   7.085   2.803  0.5885 -0.0213  0.0604
 2719SOL    HW118836   3.576   7.000   2.810 -0.5108 -0.9957 -2.7212
 2719SOL    HW218837   3.545   7.129   2.715 -0.6880  1.3224  0.4138
 2720SOL     OW18838   9.815   1.640   3.953  0.4710 -0.3576 -0.0883
 2720SOL    HW118839   9.835   1.569   3.886 -1.5358  0.0067 -1.1268
 2720SOL    HW218840   9.893   1.702   3.960  0.5205 -0.0787 -2.5207
 2721SOL     OW18841   1.858   4.322   3.524  0.1116  0.1436 -0.4533
 2721SOL    HW118842   1.843   4.308   3.622  1.2643  0.6681 -0.1931
 2721SOL    HW218843   1.824   4.244   3.473  0.6750 -0.7147  0.4778
 2722SOL     OW18844   6.517   0.580   3.829 -0.2012 -0.0809  0.6800
 2722SOL    HW118845   6.545   0.666   3.872 -0.6397 -0.1957  1.2074
 2722SOL    HW218846   6.571   0.504   3.867 -0.1837 -0.1071  0.6038
 2723SOL     OW18847   1.425   2.774   0.880 -0.4173  0.1507  0.7364
 2723SOL    HW118848   1.399   2.734   0.968 -0.8531 -0.5605  0.2877
 2723SOL    HW218849   1.358   2.843   0.854 -0.8446 -0.3620  0.4742
 2724SOL     OW18850   8.926   0.531   0.970  0.9196  0.6249  0.4286
 2724SOL    HW118851   9.025   0.548   0.978  1.2117 -0.7625 -0.0915
 2724SOL    HW218852   8.909   0.433   0.973 -0.0321  0.5828 -3.6893
 2725SOL     OW18853   8.822   2.880   3.498  0.1076  0.4031  0.0864
 2725SOL    HW118854   8.824   2.838   3.589  1.9882 -1.2873 -0.7184
 2725SOL    HW218855   8.906   2.931   3.483  0.0102  0.2641 -0.9086
 2726SOL     OW18856   7.911   0.149   3.344 -0.2681 -0.0864 -0.2494
 2726SOL    HW118857   7.992   0.201   3.317  0.9943  0.2211  3.7583
 2726SOL    HW218858   7.861   0.200   3.414 -0.7047 -2.8080  1.5020
 2727SOL     OW18859   3.121   9.301   1.631  0.1234  0.0053 -0.3714
 2727SOL    HW118860   3.147   9.222   1.575  0.1061 -0.2077 -0.0795
 2727SOL    HW218861   3.159   9.291   1.723 -0.3192  0.0871 -0.1803
 2728SOL     OW18862   0.710   8.328   0.304 -0.0251 -0.1979 -0.3556
 2728SOL    HW118863   0.782   8.352   0.239  3.9222 -3.8808  2.3919
 2728SOL    HW218864   0.641   8.271   0.258  0.9322 -0.0268 -2.0465
 2729SOL     OW18865   5.720   1.234   1.450 -0.2680  0.1068 -0.5559
 2729SOL    HW118866   5.688   1.211   1.359 -0.5808  0.6737 -0.5921
 2729SOL    HW218867   5.659   1.302   1.491  0.1910  0.2755 -0.1449
 2730SOL     OW18868   1.493   2.162   4.690 -1.2390 -1.1466  0.3981
 2730SOL    HW118869   1.498   2.181   4.788 -0.5439  1.1640 -0.0594
 2730SOL    HW218870   1.410   2.202   4.652 -1.1760 -1.4541 -0.0746
 2731SOL     OW18871   1.019   8.777   1.725  0.0121 -0.1225  0.9181
 2731SOL    HW118872   0.959   8.782   1.805 -0.7773  0.9247  0.2770
 2731SOL    HW218873   1.084   8.853   1.727 -0.7573  0.5840 -0.0010
 2732SOL     OW18874   2.874   3.524   3.320  0.2834 -0.0769 -0.1054
 2732SOL    HW118875   2.939   3.512   3.244  0.9607  0.5212  0.3731
 2732SOL    HW218876   2.859   3.621   3.335 -0.6289 -0.2134 -0.1203
 2733SOL     OW18877   4.242   2.358   0.958  0.2692 -0.3348 -0.6134
 2733SOL    HW118878   4.228   2.329   0.864 -0.7877 -1.3649 -0.1521
 2733SOL    HW218879   4.153   2.372   1.002  0.7533 -0.2256  0.3399
 2734SOL     OW18880   5.615   0.330   0.655 -0.3178 -0.2577 -0.1640
 2734SOL    HW118881   5.670   0.383   0.719  0.3530 -0.2542 -0.7384
 2734SOL    HW218882   5.530   0.303   0.700  0.6031 -1.1734  1.0925
 2735SOL     OW18883   2.327   2.402   2.009  0.2931  0.3825 -0.0509
 2735SOL    HW118884   2.368   2.379   1.921 -0.8869 -1.5311 -0.1361
 2735SOL    HW218885   2.277   2.488   2.001  0.2291  0.2416 -1.2502
 2736SOL     OW18886   2.691   2.602   0.703  0.3776  0.0251 -0.0515
 2736SOL    HW118887   2.748   2.606   0.785  0.2395 -1.5733  0.1205
 2736SOL    HW218888   2.599   2.634   0.724  0.6760  0.8154  0.1016
 2737SOL     OW18889   3.273   7.399   0.009  0.0601 -0.9605  0.0106
 2737SOL    HW118890   3.305   7.414   0.103 -0.0786  0.9752 -0.2328
 2737SOL    HW218891   3.351   7.390  -0.052  0.1438 -0.4822  0.0486
 2738SOL     OW18892   0.474   8.259   1.658 -0.0510  0.0748  0.5214
 2738SOL    HW118893   0.395   8.237   1.601 -1.5682  1.1013  2.1755
 2738SOL    HW218894   0.470   8.356   1.684  1.1201 -0.1559  1.5779
 2739SOL     OW18895   0.577   2.743   5.344  0.5881 -0.4540  0.3270
 2739SOL    HW118896   0.496   2.795   5.318  0.9461  1.0271  2.0762
 2739SOL    HW218897   0.549   2.655   5.383 -0.0081 -1.6863 -2.7501
 2740SOL     OW18898   4.142   1.875   2.462 -0.5986 -0.4413  0.2773
 2740SOL    HW118899   4.218   1.899   2.522 -1.0903 -1.1633  1.2144
 2740SOL    HW218900   4.133   1.776   2.458 -1.3867 -0.3624  0.0439
 2741SOL     OW18901   8.703   9.204   2.793  0.2404  0.1443 -0.0090
 2741SOL    HW118902   8.633   9.133   2.791  1.3098 -0.9178 -1.7374
 2741SOL    HW218903   8.664   9.290   2.824 -1.1823 -1.0911  1.7312
 2742SOL     OW18904   1.493   9.767   4.752 -0.1123  0.0072  0.0099
 2742SOL    HW118905   1.577   9.720   4.727  0.8457  1.5390  0.3195
 2742SOL    HW218906   1.500   9.864   4.729 -1.4324  0.3300  0.8780
 2743SOL     OW18907   4.118   4.178   1.837 -0.1333  0.3491  0.0965
 2743SOL    HW118908   4.216   4.158   1.829 -0.5107 -1.3198 -0.5885
 2743SOL    HW218909   4.098   4.263   1.789  0.9264  0.5482 -0.0186
 2744SOL     OW18910   9.714   3.421   1.899 -0.1232  0.0446  0.6167
 2744SOL    HW118911   9.718   3.520   1.913 -0.9693  0.2109 -0.2515
 2744SOL    HW218912   9.649   3.381   1.964  0.6028 -0.0133  1.3126
 2745SOL     OW18913   7.850   6.674   2.432  0.6381  0.2941 -0.3036
 2745SOL    HW118914   7.937   6.713   2.463  1.2781 -0.6563 -0.9064
 2745SOL    HW218915   7.845   6.578   2.460  0.2703  0.0410 -1.2437
 2746SOL     OW18916   0.820   1.943   2.595  0.3485  0.3904 -0.2574
 2746SOL    HW118917   0.861   2.011   2.534  1.2512  0.1116  0.0291
 2746SOL    HW218918   0.723   1.965   2.610  1.1302  2.7961  1.4916
 2747SOL     OW18919   4.507   1.709   0.125 -0.3664 -0.5085  0.4481
 2747SOL    HW118920   4.477   1.637   0.063 -0.6085 -0.1343  0.1268
 2747SOL    HW218921   4.459   1.701   0.212 -1.6154  0.2518 -0.1610
 2748SOL     OW18922   4.305   4.444   5.449  0.1357  0.2760 -0.5440
 2748SOL    HW118923   4.228   4.405   5.399  0.2880 -0.3418 -0.3005
 2748SOL    HW218924   4.271   4.507   5.518 -0.1783 -0.3368 -0.1348
 2749SOL     OW18925   1.243   6.732   0.559 -0.4595  0.0743 -0.0330
 2749SOL    HW118926   1.271   6.804   0.623 -2.6458 -0.1223  1.1815
 2749SOL    HW218927   1.204   6.774   0.477 -0.5684  0.2890  0.1288
 2750SOL     OW18928   1.667   0.116   1.206  0.1651 -0.0885  0.5482
 2750SOL    HW118929   1.673   0.025   1.166  0.9175 -0.2159  0.9459
 2750SOL    HW218930   1.584   0.162   1.172  0.4563 -0.4315 -0.6530
 2751SOL     OW18931   6.790   8.619   3.986 -0.1549  0.3074 -0.5853
 2751SOL    HW118932   6.738   8.612   4.071 -0.5579  1.8961 -0.6684
 2751SOL    HW218933   6.726   8.625   3.909  0.1233  1.8370 -0.7262
 2752SOL     OW18934   5.386   0.199   1.356 -0.1378 -0.0341 -0.0411
 2752SOL    HW118935   5.344   0.120   1.399 -0.8678 -0.7009 -1.8940
 2752SOL    HW218936   5.406   0.178   1.260  0.6839  1.6533 -0.2628
 2753SOL     OW18937   9.729   4.823   2.459  0.3022  0.5441  0.0399
 2753SOL    HW118938   9.759   4.731   2.433  1.1320  0.8911 -0.2643
 2753SOL    HW218939   9.743   4.885   2.382 -0.1204  0.9526  0.2934
 2754SOL     OW18940   3.528   3.147   4.783  0.1895 -0.3515  0.0269
 2754SOL    HW118941   3.461   3.214   4.748 -1.7772 -0.6807  2.9832
 2754SOL    HW218942   3.577   3.187   4.860 -1.7402 -2.5744  2.5068
 2755SOL     OW18943   5.997   0.463   1.187 -0.4640  0.2822  0.5720
 2755SOL    HW118944   6.027   0.375   1.225  0.6650 -0.4494 -1.9296
 2755SOL    HW218945   5.899   0.458   1.168 -0.1083 -1.0286 -1.0375
 2756SOL     OW18946   6.460   0.486   1.011  0.2200 -0.5053 -0.1647
 2756SOL    HW118947   6.362   0.503   1.013 -0.0915 -2.3017  0.5325
 2756SOL    HW218948   6.480   0.395   1.049  2.2312  0.2278  0.6410
 2757SOL     OW18949   9.697   0.240   3.293  0.6264 -0.5852 -0.1056
 2757SOL    HW118950   9.782   0.232   3.346  1.3470 -1.2940 -1.3377
 2757SOL    HW218951   9.709   0.310   3.223  0.1395 -0.5935 -0.1943
 2758SOL     OW18952   8.596   0.849   3.352  0.2642 -0.5643  0.4702
 2758SOL    HW118953   8.614   0.847   3.451  2.4777  0.6438  0.1215
 2758SOL    HW218954   8.562   0.760   3.322  2.2933 -1.8364  1.8366
 2759SOL     OW18955   4.198   1.300   3.853  0.7059  0.3065  0.0509
 2759SOL    HW118956   4.182   1.292   3.755  1.2890  0.1264 -0.0292
 2759SOL    HW218957   4.295   1.317   3.870  0.8855 -1.2205  0.6781
 2760SOL     OW18958   0.301   7.334   4.141  0.3856 -0.0881 -0.2033
 2760SOL    HW118959   0.240   7.410   4.162  0.6887  0.3737 -0.9476
 2760SOL    HW218960   0.307   7.323   4.042  0.4543 -0.9960 -0.1045
 2761SOL     OW18961   3.331   1.286   0.527 -0.1406  0.2921  0.2929
 2761SOL    HW118962   3.250   1.340   0.548 -0.0128  0.7909 -0.4907
 2761SOL    HW218963   3.413   1.343   0.537  0.1671 -0.3875  1.7245
 2762SOL     OW18964   7.194   9.777   0.733  0.1112 -0.1074 -0.0022
 2762SOL    HW118965   7.105   9.774   0.778  0.6231 -0.8871  0.9646
 2762SOL    HW218966   7.246   9.694   0.756  1.7683  1.1366  0.8291
 2763SOL     OW18967   4.045   2.954   1.042  0.2781 -0.5835  0.1563
 2763SOL    HW118968   4.123   2.895   1.065  1.5868  0.1400 -2.2467
 2763SOL    HW218969   3.970   2.898   1.007  0.8931 -0.9966 -0.5142
 2764SOL     OW18970   4.775   9.331   1.661  0.1182 -0.0448  0.0151
 2764SOL    HW118971   4.830   9.397   1.609 -0.8669  1.0351  0.3191
 2764SOL    HW218972   4.735   9.377   1.740  0.7111 -1.4090  1.1208
 2765SOL     OW18973   0.882   0.438   3.554 -0.1783 -0.2889 -0.0536
 2765SOL    HW118974   0.906   0.353   3.600  3.7745  1.6393  1.6808
 2765SOL    HW218975   0.917   0.436   3.461  0.0196 -0.5060  0.0241
 2766SOL     OW18976   0.464   1.242   1.895 -0.3549  0.0655  0.0475
 2766SOL    HW118977   0.458   1.244   1.995 -1.7493  1.1434 -0.0398
 2766SOL    HW218978   0.490   1.333   1.862 -0.3139 -0.1803 -0.5911
 2767SOL     OW18979   2.391   8.356   0.495  0.6922 -0.2259  0.1819
 2767SOL    HW118980   2.306   8.349   0.548  1.2349 -0.7670  1.0085
 2767SOL    HW218981   2.410   8.451   0.474  0.8409  0.0756  1.6108
 2768SOL     OW18982   8.882   1.117   4.190  0.5906  0.1639 -0.3863
 2768SOL    HW118983   8.877   1.051   4.115 -1.0496 -1.6744  1.2649
 2768SOL    HW218984   8.790   1.135   4.225  1.3309  0.8426  1.2973
 2769SOL     OW18985   9.022   2.444   3.288 -0.2876 -0.2626 -0.4642
 2769SOL    HW118986   8.978   2.373   3.234 -1.0617  0.5452 -0.9227
 2769SOL    HW218987   8.964   2.526   3.289 -0.6626 -0.5085  2.2314
 2770SOL     OW18988   0.896   2.787   0.373  0.1496 -0.3848 -0.3547
 2770SOL    HW118989   0.868   2.832   0.288 -0.5506 -0.8214 -0.3551
 2770SOL    HW218990   0.896   2.688   0.360  1.7187 -0.3965 -0.3583
 2771SOL     OW18991   1.876   1.617   2.776 -0.4833  0.2667  0.2853
 2771SOL    HW118992   1.855   1.636   2.872  0.1458  0.0161  0.4753
 2771SOL    HW218993   1.849   1.695   2.719 -0.5608  0.5432  0.7013
 2772SOL     OW18994   9.229   2.274   1.893  0.2486 -0.5453  0.3787
 2772SOL    HW118995   9.214   2.343   1.822  0.4656 -0.0594  0.7993
 2772SOL    HW218996   9.240   2.184   1.851 -0.2846 -0.3607 -0.1581
 2773SOL     OW18997   0.814   8.984   4.876 -0.2027 -0.4327 -0.2301
 2773SOL    HW118998   0.899   8.932   4.885  0.0648  0.1935  1.0273
 2773SOL    HW218999   0.833   9.071   4.831 -0.3945 -0.7966 -1.0228
 2774SOL     OW19000   1.077   0.018   5.592 -0.4205 -0.1078 -0.1410
 2774SOL    HW119001   1.066   0.043   5.496 -1.9727 -2.1083 -0.5167
 2774SOL    HW219002   1.154  -0.046   5.601  0.7499  1.3226  0.1965
 2775SOL     OW19003   9.428   6.370   3.236  0.3205 -0.6369  0.5919
 2775SOL    HW119004   9.504   6.430   3.214  0.7889 -1.2072  0.6400
 2775SOL    HW219005   9.367   6.362   3.157 -0.3662  0.8112  0.9597
 2776SOL     OW19006   7.801   1.286   0.496  0.0903  0.0054 -0.7214
 2776SOL    HW119007   7.816   1.208   0.558  1.2412 -0.0079 -1.0083
 2776SOL    HW219008   7.889   1.317   0.460 -0.3050  1.8324 -0.1414
 2777SOL     OW19009   1.613   4.537   3.676  0.0427 -0.1894  0.0511
 2777SOL    HW119010   1.605   4.611   3.742  0.6668 -0.5053  0.4858
 2777SOL    HW219011   1.699   4.488   3.690  0.5833  0.2525 -1.5347
 2778SOL     OW19012   1.119   8.599   3.952  0.4035 -0.0589 -0.5305
 2778SOL    HW119013   1.130   8.507   3.914 -0.6198  0.5953 -2.4959
 2778SOL    HW219014   1.036   8.603   4.007  1.4948 -0.8097  1.2343
 2779SOL     OW19015   8.848   0.125   1.622  0.0247  0.2278 -0.1627
 2779SOL    HW119016   8.788   0.196   1.660 -1.0547 -0.5617 -0.3706
 2779SOL    HW219017   8.863   0.055   1.692 -1.6077 -1.0036 -1.0157
 2780SOL     OW19018   3.856   9.002   4.867 -0.3522  0.5313  0.1769
 2780SOL    HW119019   3.934   9.048   4.909  1.1017 -1.0440 -0.7313
 2780SOL    HW219020   3.840   8.915   4.913 -2.0729  1.1884  0.8466
 2781SOL     OW19021   1.510   0.482   4.420  0.0928 -0.0662 -0.2068
 2781SOL    HW119022   1.531   0.560   4.480  0.9156 -1.4395  1.3592
 2781SOL    HW219023   1.428   0.436   4.454  0.6596 -0.9524 -0.0350
 2782SOL     OW19024   4.164   6.981   2.216 -0.7518  0.2213 -0.1671
 2782SOL    HW119025   4.261   6.960   2.229 -0.7358  1.4142  1.6590
 2782SOL    HW219026   4.151   7.021   2.125  0.4048 -0.1846 -0.5247
 2783SOL     OW19027   6.407   7.596   3.599 -0.5150  0.6216  0.7230
 2783SOL    HW119028   6.333   7.529   3.603  1.3938 -1.4872  1.7086
 2783SOL    HW219029   6.495   7.549   3.592  0.8617  3.0285  1.1070
 2784SOL     OW19030   0.943   3.042   4.214  0.8078  0.2855  0.6671
 2784SOL    HW119031   0.975   2.973   4.279  0.4604 -1.4841 -1.0342
 2784SOL    HW219032   1.021   3.099   4.186  1.3602 -0.2714  1.0441
 2785SOL     OW19033   0.487   8.721   3.061  0.3993 -0.8002 -0.2726
 2785SOL    HW119034   0.496   8.778   3.143 -0.8327 -1.4322  0.3026
 2785SOL    HW219035   0.409   8.752   3.007  0.4730 -1.1697 -0.5948
 2786SOL     OW19036   3.116   3.294   5.455  0.0053 -0.0238 -0.6753
 2786SOL    HW119037   3.166   3.375   5.423 -0.2355  1.4442  2.4359
 2786SOL    HW219038   3.022   3.297   5.420  0.0378  0.9684 -0.6999
 2787SOL     OW19039   9.837   6.481   2.068 -0.3044  0.0787  0.1471
 2787SOL    HW119040   9.902   6.410   2.040 -0.9382 -0.8850  1.0835
 2787SOL    HW219041   9.748   6.464   2.024 -0.1470  0.9699 -0.5444
 2788SOL     OW19042   1.069   7.984   4.140  0.0150  0.2871  0.1205
 2788SOL    HW119043   0.984   8.011   4.185 -0.4406 -0.7822 -0.0933
 2788SOL    HW219044   1.075   8.030   4.051 -0.7365 -0.2514 -0.2170
 2789SOL     OW19045   8.826   9.254   1.745 -0.7131  0.2314 -0.8698
 2789SOL    HW119046   8.873   9.335   1.709  0.6810 -0.3157 -0.3045
 2789SOL    HW219047   8.797   9.196   1.669 -0.5273  0.6098 -1.2294
 2790SOL     OW19048   8.972   0.242   4.171  0.0370 -0.0282 -0.5260
 2790SOL    HW119049   9.050   0.221   4.230 -0.9554 -2.5156 -0.0308
 2790SOL    HW219050   8.889   0.247   4.227 -0.8601 -2.0738 -1.6301
 2791SOL     OW19051   1.886   1.976   1.762 -0.5383 -0.0026 -0.0868
 2791SOL    HW119052   1.951   1.900   1.763 -0.7903 -0.2318 -0.9386
 2791SOL    HW219053   1.933   2.060   1.791  0.1463 -0.1725 -0.6771
 2792SOL     OW19054   4.404   2.021   2.255  0.0483  0.0679  0.2894
 2792SOL    HW119055   4.397   1.996   2.159 -0.6781  1.5298 -0.0486
 2792SOL    HW219056   4.419   1.938   2.310  0.2363 -0.7947 -1.0405
 2793SOL     OW19057   6.442   8.352   2.060  0.6720  0.5301  0.0394
 2793SOL    HW119058   6.365   8.296   2.030 -0.0955  1.4804  0.1945
 2793SOL    HW219059   6.507   8.296   2.110  0.2960 -0.3736 -0.4767
 2794SOL     OW19060   6.914   3.197   0.475  0.2261 -0.6150  0.1020
 2794SOL    HW119061   6.946   3.287   0.503 -0.5631 -0.3755  0.2414
 2794SOL    HW219062   6.838   3.207   0.410  0.0770 -1.1767  0.1841
 2795SOL     OW19063   1.187   9.157   0.459  0.2041  0.2620 -0.4283
 2795SOL    HW119064   1.282   9.176   0.482  0.5165 -0.5034 -1.0435
 2795SOL    HW219065   1.130   9.166   0.541  1.0804 -1.0202  0.3386
 2796SOL     OW19066   1.302   2.300   4.566 -0.3858 -0.3569 -0.6570
 2796SOL    HW119067   1.215   2.253   4.579 -0.3709 -0.4392 -0.8582
 2796SOL    HW219068   1.291   2.398   4.586 -0.7172 -0.2267 -1.4664
 2797SOL     OW19069   3.844   0.249   2.474  0.2222  0.0745 -0.0536
 2797SOL    HW119070   3.767   0.263   2.412 -0.0885  1.0889  0.5527
 2797SOL    HW219071   3.841   0.317   2.547  0.2970 -1.4308  1.3770
 2798SOL     OW19072   1.321   3.491   4.948  0.4468 -0.6518  0.5554
 2798SOL    HW119073   1.243   3.477   4.886  2.0501 -1.9918 -1.1961
 2798SOL    HW219074   1.293   3.469   5.041 -1.7591  0.5424  0.2085
 2799SOL     OW19075   8.869   8.157   2.675  0.1211  0.3048 -0.9659
 2799SOL    HW119076   8.827   8.081   2.725  1.2023  1.0055  1.0437
 2799SOL    HW219077   8.804   8.193   2.608 -0.6062 -2.0045 -1.5335
 2800SOL     OW19078   2.451   9.229   3.657  0.4488  0.5092 -0.0858
 2800SOL    HW119079   2.384   9.301   3.639  0.4041  0.3555 -0.5312
 2800SOL    HW219080   2.543   9.267   3.645  0.4062 -0.2726 -3.3457
 2801SOL     OW19081   4.666   8.222   0.652 -1.0886  0.7938 -0.2563
 2801SOL    HW119082   4.739   8.163   0.688 -2.2396 -0.4514  0.0603
 2801SOL    HW219083   4.594   8.166   0.612 -0.6586  2.0969 -2.9902
 2802SOL     OW19084   1.549   6.254   3.247 -0.2250  0.0838 -0.4994
 2802SOL    HW119085   1.503   6.327   3.196 -0.1273 -0.9366 -2.0663
 2802SOL    HW219086   1.648   6.269   3.244 -0.3457  1.7437  2.0597
 2803SOL     OW19087   4.356   5.098   1.308  0.3500 -0.3156  0.5505
 2803SOL    HW119088   4.264   5.138   1.306  0.4078 -0.2162 -0.4052
 2803SOL    HW219089   4.355   5.015   1.364 -0.3821 -0.4570  0.3362
 2804SOL     OW19090   2.081   8.907   4.957  0.0470  0.1233 -0.5898
 2804SOL    HW119091   2.048   8.906   5.051 -1.7694 -0.1499 -1.2176
 2804SOL    HW219092   2.114   8.816   4.932  0.5180  0.1929 -0.2176
 2805SOL     OW19093   8.056   1.100   2.955  0.5610  0.2643 -0.0006
 2805SOL    HW119094   8.130   1.131   3.014  1.5560 -0.7110 -0.7324
 2805SOL    HW219095   8.016   1.179   2.908  2.6281  0.5435 -1.3401
 2806SOL     OW19096   4.710   2.230   3.246 -0.2702 -0.0726  0.4767
 2806SOL    HW119097   4.783   2.211   3.311 -0.1781  0.2828  0.4799
 2806SOL    HW219098   4.625   2.189   3.279 -0.2927  0.3696  0.9792
 2807SOL     OW19099   8.951   8.868   1.716 -0.2295 -0.5920  0.3733
 2807SOL    HW119100   8.883   8.806   1.677 -0.2213  0.3193 -1.1435
 2807SOL    HW219101   8.905   8.940   1.767 -0.4272  0.1838 -0.8904
 2808SOL     OW19102   8.866   9.114   5.607  0.0086 -0.2955  0.2177
 2808SOL    HW119103   8.815   9.148   5.686 -0.0870 -0.1139  0.0784
 2808SOL    HW219104   8.927   9.186   5.574  1.1671 -0.8698  1.0576
 2809SOL     OW19105   8.471   1.098   1.187  0.2370 -0.0562  0.2507
 2809SOL    HW119106   8.395   1.033   1.183 -1.5123  2.0577 -1.8087
 2809SOL    HW219107   8.472   1.143   1.276 -1.7346  0.8557 -0.1794
 2810SOL     OW19108   4.241   0.388   2.501  0.2982  0.1050 -0.0483
 2810SOL    HW119109   4.236   0.290   2.486  1.8073 -0.0574  0.4531
 2810SOL    HW219110   4.192   0.412   2.585 -1.2371 -0.0277 -0.8884
 2811SOL     OW19111   7.094   8.369   3.303  0.6964 -0.1840  0.6177
 2811SOL    HW119112   7.028   8.318   3.357 -2.1689  1.7091 -0.9145
 2811SOL    HW219113   7.120   8.315   3.223  0.3249 -0.6086  0.7804
 2812SOL     OW19114   0.164   8.188   3.319 -0.8053 -0.0997  0.4694
 2812SOL    HW119115   0.234   8.254   3.346 -0.9346 -0.0599  0.7122
 2812SOL    HW219116   0.207   8.101   3.295 -0.6875 -0.1233  0.7715
 2813SOL     OW19117   9.418   7.841   2.902 -0.0760  0.1940 -0.4449
 2813SOL    HW119118   9.514   7.862   2.881  0.0483 -0.7841 -0.9231
 2813SOL    HW219119   9.372   7.813   2.818 -0.5363 -0.2542 -0.0423
 2814SOL     OW19120   3.881   9.397   2.292 -0.0164  1.2747 -0.1965
 2814SOL    HW119121   3.828   9.408   2.376  1.5409  1.8759  0.7139
 2814SOL    HW219122   3.874   9.302   2.261  0.7441  0.6528  1.5168
 2815SOL     OW19123   0.225   1.956   5.449  0.2403 -0.4468 -0.2344
 2815SOL    HW119124   0.223   1.873   5.393  1.8612 -1.1412  0.7132
 2815SOL    HW219125   0.251   2.034   5.392  1.8227 -1.1426 -0.5015
 2816SOL     OW19126   3.455   0.281   2.838  0.2586  0.0248 -0.2096
 2816SOL    HW119127   3.365   0.323   2.850 -0.1963 -0.7340 -0.8931
 2816SOL    HW219128   3.462   0.243   2.745  0.9816 -0.6204  0.0989
 2817SOL     OW19129   0.311   6.943   1.868  0.5249  0.0314 -0.6896
 2817SOL    HW119130   0.377   6.912   1.800  0.5876  0.5699 -0.8810
 2817SOL    HW219131   0.341   6.915   1.959  0.8576  0.0085 -0.8070
 2818SOL     OW19132   7.662   8.343   2.802  0.0851 -0.4526  0.4016
 2818SOL    HW119133   7.642   8.318   2.896  0.9152 -1.4404  0.3280
 2818SOL    HW219134   7.753   8.309   2.777 -0.5546 -1.1456 -1.0705
 2819SOL     OW19135   0.044   2.740   2.333  0.1390 -0.3437  0.8582
 2819SOL    HW119136   0.062   2.729   2.431 -1.8242  1.0342  1.4282
 2819SOL    HW219137  -0.013   2.665   2.301  0.9531 -0.9046  0.7276
 2820SOL     OW19138   4.032   1.422   1.208 -0.1082  0.9416  0.1726
 2820SOL    HW119139   3.933   1.431   1.218 -0.1393 -0.3066  1.1485
 2820SOL    HW219140   4.069   1.373   1.288  1.3149  1.5853 -0.0805
 2821SOL     OW19141   8.404   9.531   3.064 -0.6561  0.0730  0.1636
 2821SOL    HW119142   8.489   9.533   3.117 -1.5159  0.2635  1.5502
 2821SOL    HW219143   8.409   9.598   2.990  0.0780  0.6534  0.7374
 2822SOL     OW19144   2.409   2.758   1.171  0.6835  0.4989  0.2211
 2822SOL    HW119145   2.401   2.778   1.268  1.6477  0.5352  0.2998
 2822SOL    HW219146   2.319   2.738   1.133  0.4898 -1.1674  1.4815
 2823SOL     OW19147   0.533   1.453   0.577  0.1345 -0.2282  0.3113
 2823SOL    HW119148   0.598   1.377   0.578 -0.2018 -0.5161  0.4762
 2823SOL    HW219149   0.582   1.539   0.588  0.4881 -0.4431  0.4324
 2824SOL     OW19150   3.249   5.386   3.276  0.1952 -0.8378 -0.1314
 2824SOL    HW119151   3.182   5.425   3.213  1.4457 -0.3006 -1.1495
 2824SOL    HW219152   3.260   5.447   3.355  1.5985  0.5171 -1.3565
 2825SOL     OW19153   0.384   8.170   1.999 -0.0957  0.1913 -0.0714
 2825SOL    HW119154   0.407   8.247   2.059  1.3585  0.0412 -0.4247
 2825SOL    HW219155   0.468   8.132   1.960 -0.9812 -0.1043 -1.7273
 2826SOL     OW19156   9.565   0.841   0.978  0.2390 -0.0379  0.6763
 2826SOL    HW119157   9.540   0.850   1.074  0.1487  1.3843  0.5432
 2826SOL    HW219158   9.572   0.933   0.937  0.1575 -0.6279 -0.6949
 2827SOL     OW19159   0.527   8.525   3.438  0.2374 -0.1030  0.2572
 2827SOL    HW119160   0.584   8.600   3.405 -0.7726 -0.8676 -3.4878
 2827SOL    HW219161   0.432   8.553   3.439  0.0037 -0.8834  0.1860
 2828SOL     OW19162   7.180   6.857   2.593 -0.2425 -0.3850 -0.0791
 2828SOL    HW119163   7.263   6.824   2.638  1.1774  0.6434 -1.9359
 2828SOL    HW219164   7.109   6.787   2.601  0.2944 -0.6840  2.7964
 2829SOL     OW19165   3.722   5.557   2.207  0.1577  0.4004  0.2554
 2829SOL    HW119166   3.648   5.594   2.152 -1.0003  0.7584  2.0037
 2829SOL    HW219167   3.810   5.576   2.163 -0.6360  2.2451 -0.5513
 2830SOL     OW19168   5.112   1.551   3.722 -0.0414 -0.4873 -0.0733
 2830SOL    HW119169   5.077   1.474   3.776 -0.6748  1.0312  1.7228
 2830SOL    HW219170   5.056   1.562   3.640  0.2960 -2.1620 -0.5576
 2831SOL     OW19171   0.907   1.829   1.632 -0.0665  0.3902  0.2657
 2831SOL    HW119172   0.984   1.807   1.691 -0.3354  1.1225  0.9007
 2831SOL    HW219173   0.937   1.831   1.537  0.4639 -0.3608  0.4178
 2832SOL     OW19174   7.987   7.576   1.697 -0.3695 -0.0074 -0.3232
 2832SOL    HW119175   7.982   7.601   1.794 -0.3424  0.3451 -0.4109
 2832SOL    HW219176   7.910   7.516   1.674 -0.6741  0.3321 -0.2042
 2833SOL     OW19177   1.646   4.241   0.006  0.2118 -0.2517  0.5179
 2833SOL    HW119178   1.738   4.210   0.030  0.2732 -1.0278 -0.6868
 2833SOL    HW219179   1.582   4.164   0.011  0.0754 -0.2527 -0.9564
 2834SOL     OW19180   9.766   8.923   3.937 -0.2764  0.5196 -0.0839
 2834SOL    HW119181   9.718   8.983   4.001 -0.2030  0.6913 -0.1919
 2834SOL    HW219182   9.835   8.975   3.887 -1.0284  0.6231 -1.0386
 2835SOL     OW19183   3.464   8.954   4.864 -0.2048 -0.1380 -0.0354
 2835SOL    HW119184   3.475   9.007   4.948 -0.7081 -0.7425  0.4183
 2835SOL    HW219185   3.509   8.866   4.875  1.4763  0.5536 -1.1410
 2836SOL     OW19186   9.240   5.846   2.313  0.3059 -0.1098 -0.0720
 2836SOL    HW119187   9.150   5.832   2.274  0.0491  1.0858  0.0571
 2836SOL    HW219188   9.265   5.768   2.371 -0.5115 -0.5740 -0.3507
 2837SOL     OW19189   3.024   4.105   0.508 -0.3934  0.4320 -0.1254
 2837SOL    HW119190   3.010   4.014   0.548  1.1278 -0.4413 -1.5232
 2837SOL    HW219191   2.943   4.161   0.525 -0.4556 -0.4294  2.7144
 2838SOL     OW19192   1.209   0.004   2.418 -0.2419 -0.0635  0.0693
 2838SOL    HW119193   1.290   0.011   2.360  0.5633  0.6494  1.2505
 2838SOL    HW219194   1.189   0.092   2.460 -1.1619 -0.4220  0.4114
 2839SOL     OW19195   2.407   6.277   2.695  0.5210 -0.5228  0.4588
 2839SOL    HW119196   2.336   6.347   2.682 -0.8027 -1.8740  0.2868
 2839SOL    HW219197   2.480   6.291   2.628  0.8873  1.4322  1.2203
 2840SOL     OW19198   5.551   0.338   3.337 -0.7916 -0.0621  0.2174
 2840SOL    HW119199   5.516   0.428   3.363 -0.3348  0.4945 -1.0280
 2840SOL    HW219200   5.555   0.332   3.237  2.4892 -0.1452  0.2740
 2841SOL     OW19201   9.614   0.188   2.097 -0.1729 -0.1332 -0.3556
 2841SOL    HW119202   9.587   0.112   2.037  1.3783 -0.2032 -0.9860
 2841SOL    HW219203   9.622   0.271   2.042  0.8125 -0.0991 -0.1560
 2842SOL     OW19204   7.175   6.824   3.065  0.5865  0.4968 -0.2248
 2842SOL    HW119205   7.124   6.750   3.022  3.3183 -1.2050 -0.6445
 2842SOL    HW219206   7.186   6.899   2.999 -1.8737  1.1582  0.0874
 2843SOL     OW19207   8.494   5.533   2.645  0.3145 -0.1703 -0.0142
 2843SOL    HW119208   8.544   5.450   2.623  2.9129  0.4421  3.1434
 2843SOL    HW219209   8.434   5.517   2.723  1.8339  1.2132  1.4781
 2844SOL     OW19210   5.353   7.808   3.286  0.1557 -0.3895  0.5322
 2844SOL    HW119211   5.290   7.739   3.251 -2.6782  2.5005 -0.3464
 2844SOL    HW219212   5.419   7.832   3.214 -1.0931  0.3253 -0.4052
 2845SOL     OW19213   9.189   8.222   2.221  0.0058 -0.3893  0.1669
 2845SOL    HW119214   9.120   8.294   2.233 -0.7950 -1.3686  1.5979
 2845SOL    HW219215   9.227   8.197   2.310 -0.1859 -2.1800 -0.2318
 2846SOL     OW19216   3.212   9.084   4.530 -0.2670  0.3679 -0.1183
 2846SOL    HW119217   3.212   9.065   4.628 -1.6135  0.2755 -0.1211
 2846SOL    HW219218   3.274   9.020   4.484 -0.9583 -0.7435  0.4660
 2847SOL     OW19219   8.831   5.352   2.787 -0.3708 -0.4580  0.4095
 2847SOL    HW119220   8.791   5.328   2.698  0.1669 -0.7168  0.2381
 2847SOL    HW219221   8.789   5.436   2.820 -0.3962 -0.2200 -0.2117
 2848SOL     OW19222   0.747   5.056   1.434  0.0318  0.3723 -0.8688
 2848SOL    HW119223   0.667   5.076   1.490  1.2489 -0.5410  1.2325
 2848SOL    HW219224   0.717   5.028   1.343 -2.0683 -0.4259  0.0316
 2849SOL     OW19225   0.737   3.306   1.156  0.4778  0.2257 -0.4931
 2849SOL    HW119226   0.676   3.375   1.117  0.5907  0.9802  0.6420
 2849SOL    HW219227   0.706   3.281   1.248  1.4740  0.1156 -0.1723
 2850SOL     OW19228   9.649   7.698   4.008  0.3994  1.0522 -0.0431
 2850SOL    HW119229   9.571   7.644   4.040  1.4998  0.5285  1.8443
 2850SOL    HW219230   9.617   7.785   3.972 -0.8981  1.8470  2.8923
 2851SOL     OW19231   3.274   2.883   0.951 -0.3873 -0.2722 -0.6453
 2851SOL    HW119232   3.202   2.865   0.884 -0.1707  0.0417 -0.9687
 2851SOL    HW219233   3.244   2.853   1.042 -1.3538  0.8681 -0.5830
 2852SOL     OW19234   7.899   6.463   2.084 -0.8887 -0.0676  0.3089
 2852SOL    HW119235   7.828   6.530   2.062 -2.2763 -1.1631  1.4193
 2852SOL    HW219236   7.987   6.497   2.051 -1.9127  1.2939 -1.1025
 2853SOL     OW19237   7.620   8.643   2.008 -0.0633 -0.6428  0.0828
 2853SOL    HW119238   7.562   8.684   2.078 -0.9118  0.7500 -1.4050
 2853SOL    HW219239   7.661   8.716   1.952  0.8682 -1.7192 -0.6502
 2854SOL     OW19240   8.968   8.365   0.958  0.2642 -0.8060  0.1303
 2854SOL    HW119241   8.886   8.308   0.958  0.6109 -1.3090  1.5044
 2854SOL    HW219242   9.021   8.348   1.041  0.4515  1.4111  0.4903
 2855SOL     OW19243   8.582   6.675   3.297 -0.2055  0.3898  0.5991
 2855SOL    HW119244   8.642   6.633   3.229 -1.3278  0.3298 -0.3691
 2855SOL    HW219245   8.500   6.619   3.309 -1.8082  2.3454 -0.8319
 2856SOL     OW19246   2.653   2.316   4.386  0.2890 -0.2372  0.3654
 2856SOL    HW119247   2.579   2.272   4.437  1.9537 -0.3348  2.8146
 2856SOL    HW219248   2.642   2.415   4.389 -1.1089 -0.3164 -1.4661
 2857SOL     OW19249   7.911   9.768   4.318 -0.0160 -0.3511  0.0975
 2857SOL    HW119250   7.963   9.719   4.388  0.7549 -0.5643 -0.6142
 2857SOL    HW219251   7.925   9.724   4.229  0.8540  1.2648 -0.5887
 2858SOL     OW19252   7.378   0.374   1.104  0.1287  0.3845  0.0771
 2858SOL    HW119253   7.359   0.448   1.038  0.8278 -0.4719 -1.1095
 2858SOL    HW219254   7.394   0.414   1.194 -0.8848  1.5803 -0.2525
 2859SOL     OW19255   0.694   1.607   4.304 -0.3430  0.4641  0.0771
 2859SOL    HW119256   0.781   1.601   4.256 -0.1354  1.5693  0.2888
 2859SOL    HW219257   0.653   1.697   4.289 -0.5029  0.6669  1.5603
 2860SOL     OW19258   8.116   0.526   0.653  0.0806  0.0651  0.2429
 2860SOL    HW119259   8.031   0.484   0.621 -0.4401  1.2294  0.0400
 2860SOL    HW219260   8.095   0.611   0.701  1.0504 -0.3108  1.3549
 2861SOL     OW19261   8.938   3.196   3.057  0.3601  0.4729 -0.5890
 2861SOL    HW119262   8.904   3.112   3.098  2.4066 -0.3724 -0.5532
 2861SOL    HW219263   8.892   3.275   3.097 -1.5630 -0.6201 -0.6065
 2862SOL     OW19264   0.124   1.145   3.323 -0.4492 -0.0672  0.1063
 2862SOL    HW119265   0.080   1.171   3.237 -0.1806 -0.8604 -0.2717
 2862SOL    HW219266   0.214   1.189   3.329  0.8485 -2.4142 -1.4378
 2863SOL     OW19267   9.804   8.594   2.534  0.0882 -0.3841 -0.3996
 2863SOL    HW119268   9.864   8.514   2.530  0.1665 -0.3023 -0.8943
 2863SOL    HW219269   9.804   8.632   2.627  0.1021 -0.9185 -0.1850
 2864SOL     OW19270   3.108   0.417   0.954 -0.2674  0.2058  0.3441
 2864SOL    HW119271   3.200   0.432   0.919 -0.4467  1.1134  0.2449
 2864SOL    HW219272   3.083   0.492   1.016 -0.6329 -0.4489  1.0068
 2865SOL     OW19273   0.818   7.321   4.639  0.3936 -0.5610  0.2445
 2865SOL    HW119274   0.732   7.314   4.689 -0.6864  0.0768 -1.4927
 2865SOL    HW219275   0.876   7.390   4.681 -0.1608 -0.6223  1.1164
 2866SOL     OW19276   1.117   8.042   1.715  0.6093  0.0037  0.0111
 2866SOL    HW119277   1.191   7.977   1.697  1.4594  0.9568  0.0572
 2866SOL    HW219278   1.029   7.993   1.714  1.3222 -1.3651  1.1317
 2867SOL     OW19279   0.533   9.049   3.511  0.5466  0.1460 -0.2471
 2867SOL    HW119280   0.552   8.958   3.548 -1.1495  0.0216  0.3676
 2867SOL    HW219281   0.618   9.100   3.500  1.7210 -2.1610 -2.3237
 2868SOL     OW19282   6.327   2.029   2.693  0.0301 -0.5010 -0.0746
 2868SOL    HW119283   6.345   2.120   2.729  1.1798 -0.7587  0.0413
 2868SOL    HW219284   6.244   1.992   2.735 -0.2155  0.3308  0.1795
 2869SOL     OW19285   3.301   7.368   1.390  0.0537  0.0027  0.4036
 2869SOL    HW119286   3.215   7.417   1.399 -0.8268 -1.1051 -1.7664
 2869SOL    HW219287   3.376   7.433   1.377 -0.6003  0.9116  1.1354
 2870SOL     OW19288   2.727   4.751   0.130  0.1474 -0.0450 -0.3177
 2870SOL    HW119289   2.786   4.726   0.054  2.3310 -0.7225  1.5392
 2870SOL    HW219290   2.683   4.669   0.167 -1.7058  0.4061 -1.4412
 2871SOL     OW19291   1.640   1.675   3.450  0.0021 -0.2351  0.6456
 2871SOL    HW119292   1.607   1.613   3.520  0.6720 -0.7877  0.4762
 2871SOL    HW219293   1.612   1.769   3.473  0.2110 -0.4077  1.6430
 2872SOL     OW19294   7.099   1.434   1.102  0.3460 -0.5348  0.2618
 2872SOL    HW119295   7.021   1.439   1.165 -1.8909 -0.2725 -2.4353
 2872SOL    HW219296   7.119   1.339   1.081  1.8561 -0.6821  2.2146
 2873SOL     OW19297   8.207   8.900   4.450 -0.1984  0.4584 -0.3461
 2873SOL    HW119298   8.195   8.962   4.372  0.8753  0.8862 -0.1786
 2873SOL    HW219299   8.233   8.809   4.416 -1.1326  0.2663 -0.5573
 2874SOL     OW19300   8.131   3.323   3.046 -0.0954 -0.4838 -0.1340
 2874SOL    HW119301   8.107   3.244   2.990 -0.9630 -0.8212  0.7042
 2874SOL    HW219302   8.049   3.356   3.093  0.3966  0.5023  0.0477
 2875SOL     OW19303   9.294   2.188   1.402  0.8578 -0.2907 -0.2953
 2875SOL    HW119304   9.291   2.255   1.328  0.0078 -2.1506 -2.0312
 2875SOL    HW219305   9.349   2.109   1.373  0.5614 -1.0259  1.0880
 2876SOL     OW19306   3.575   2.897   4.639 -0.4917 -0.2147  0.1090
 2876SOL    HW119307   3.585   2.893   4.540 -1.0857 -1.7213  0.0985
 2876SOL    HW219308   3.557   2.992   4.667  0.3907  0.3378 -1.1341
 2877SOL     OW19309   6.173   6.482   3.686  0.7958  0.1857  0.1311
 2877SOL    HW119310   6.242   6.531   3.740  2.9010 -2.2665 -0.2373
 2877SOL    HW219311   6.202   6.387   3.673 -1.7563 -0.3971 -1.6733
 2878SOL     OW19312   1.778   3.045   0.983  0.0377  0.3886  0.3188
 2878SOL    HW119313   1.775   3.143   0.959 -1.3252  0.0158 -1.1444
 2878SOL    HW219314   1.686   3.007   0.979  0.5581 -0.9724  0.9024
 2879SOL     OW19315   6.990   8.937   1.483  0.1864 -0.0120  0.2913
 2879SOL    HW119316   7.079   8.980   1.500  1.2953 -1.7418 -0.9514
 2879SOL    HW219317   6.975   8.863   1.549 -0.6454  0.7301  0.9380
 2880SOL     OW19318   2.433   7.960   4.179  0.3356 -0.2476 -0.3241
 2880SOL    HW119319   2.342   7.950   4.219  1.3875 -0.2336  2.2328
 2880SOL    HW219320   2.463   7.872   4.141 -1.1850  0.0408 -2.2394
 2881SOL     OW19321   0.130   0.053   4.259  0.3218  0.2507  0.4080
 2881SOL    HW119322   0.044   0.066   4.309  0.7489 -0.5389  1.3454
 2881SOL    HW219323   0.110   0.014   4.169 -0.3397  0.5248  0.4323
 2882SOL     OW19324   8.407   9.035   0.811 -0.1533  0.3338  0.1337
 2882SOL    HW119325   8.502   9.036   0.779 -0.5280  0.3197 -1.0091
 2882SOL    HW219326   8.372   9.128   0.815 -0.0372  0.3536  0.7264
 2883SOL     OW19327   3.483   3.506   5.562 -0.6727 -0.4365  0.0507
 2883SOL    HW119328   3.503   3.569   5.487  1.1447 -0.2842  0.6298
 2883SOL    HW219329   3.396   3.529   5.604 -1.0196  0.3598 -1.0991
 2884SOL     OW19330   7.750   9.412   5.509  0.0050 -0.8126 -0.0407
 2884SOL    HW119331   7.776   9.407   5.413 -0.1634 -1.3509 -0.0601
 2884SOL    HW219332   7.653   9.390   5.519 -0.7266  2.2207 -0.0870
 2885SOL     OW19333   0.411   1.313   3.035  0.1133  0.0051  0.1869
 2885SOL    HW119334   0.440   1.407   3.050  0.5130  0.0986 -1.1345
 2885SOL    HW219335   0.345   1.309   2.960  0.5459 -0.8251 -0.1627
 2886SOL     OW19336   8.507   1.589   4.016 -0.2636  0.0266 -0.2384
 2886SOL    HW119337   8.462   1.654   3.954 -1.8930 -0.3252  0.5466
 2886SOL    HW219338   8.595   1.562   3.978 -1.6278 -0.8933 -2.8756
 2887SOL     OW19339   7.572   6.942   3.113  0.0936 -0.5052  0.0908
 2887SOL    HW119340   7.565   6.981   3.021 -1.4177 -2.5409 -0.7014
 2887SOL    HW219341   7.521   6.998   3.177  0.6152  0.5754 -0.4238
 2888SOL     OW19342   1.238   1.370   1.413 -0.6632  0.3394 -0.0792
 2888SOL    HW119343   1.178   1.294   1.437 -1.1439  0.0011 -2.1950
 2888SOL    HW219344   1.199   1.455   1.449 -1.7507 -0.0371 -0.3234
 2889SOL     OW19345   8.185   2.690   0.993 -0.2868 -0.1296 -0.0745
 2889SOL    HW119346   8.223   2.779   0.967 -1.0647  0.5670  1.0654
 2889SOL    HW219347   8.110   2.705   1.058 -0.8410 -1.5942 -0.3660
 2890SOL     OW19348   9.366   0.481   3.981 -0.1334 -0.4674 -0.0910
 2890SOL    HW119349   9.270   0.484   4.010 -0.2572 -0.7551 -0.4542
 2890SOL    HW219350   9.386   0.391   3.943  0.4427 -0.5953  0.5113
 2891SOL     OW19351   9.150   9.271   0.560 -0.1274  0.3680 -0.2940
 2891SOL    HW119352   9.127   9.176   0.538  0.2602  0.2597 -0.2290
 2891SOL    HW219353   9.066   9.325   0.566 -0.4035 -0.1653  0.5892
 2892SOL     OW19354   4.279   7.794   0.781  0.3487  0.3353  0.2717
 2892SOL    HW119355   4.330   7.760   0.860 -1.3219 -1.0208  0.7998
 2892SOL    HW219356   4.307   7.745   0.699  0.4033  0.0892  0.4374
 2893SOL     OW19357   3.171   7.221   2.195 -0.2090 -0.1119  0.0198
 2893SOL    HW119358   3.173   7.124   2.220 -1.4953  0.0610  0.8467
 2893SOL    HW219359   3.237   7.238   2.122  0.4930 -1.4852  0.3157
 2894SOL     OW19360   1.104   5.101   2.856 -0.0105 -0.5099 -0.4938
 2894SOL    HW119361   1.134   5.094   2.761 -1.1669 -1.2610 -0.8260
 2894SOL    HW219362   1.075   5.010   2.888 -0.4144 -0.1074  0.3020
 2895SOL     OW19363   2.180   5.820   0.866  0.7277  0.4331 -0.3080
 2895SOL    HW119364   2.175   5.730   0.910  0.2942  1.2886  1.4351
 2895SOL    HW219365   2.104   5.828   0.801 -0.2130  0.1370  0.7202
 2896SOL     OW19366   8.082   9.305   2.326 -0.3344  0.3104 -0.0961
 2896SOL    HW119367   8.018   9.229   2.338 -0.6612  0.3771 -1.3951
 2896SOL    HW219368   8.175   9.272   2.340 -0.5639 -0.0272  0.6925
 2897SOL     OW19369   4.243   9.923   4.474 -0.1312 -0.2592  0.4375
 2897SOL    HW119370   4.230   9.825   4.457 -0.8055 -0.0438 -0.2783
 2897SOL    HW219371   4.255   9.938   4.572  0.5162 -1.1232  0.5012
 2898SOL     OW19372   8.629   7.611   3.866 -0.1213  0.5909 -0.5919
 2898SOL    HW119373   8.533   7.590   3.883  0.2757 -1.4860 -0.8040
 2898SOL    HW219374   8.640   7.710   3.858 -2.3287  0.8215 -1.1573
 2899SOL     OW19375   1.137   3.177   4.962 -0.0915 -1.1179  0.1738
 2899SOL    HW119376   1.128   3.082   4.991 -1.0637 -1.2722 -0.6074
 2899SOL    HW219377   1.189   3.182   4.877  0.5942 -0.8812  0.6010
 2900SOL     OW19378   1.765   3.936   5.500 -0.3105 -0.3239 -0.3729
 2900SOL    HW119379   1.697   3.888   5.555 -1.4144 -0.2023 -1.6161
 2900SOL    HW219380   1.784   3.883   5.417 -0.7100  0.8342 -1.2157
 2901SOL     OW19381   0.015   8.599   0.426 -0.1136 -0.4293 -0.1876
 2901SOL    HW119382   0.086   8.534   0.401  1.9356  1.1053  1.4820
 2901SOL    HW219383  -0.015   8.581   0.520 -1.3326 -0.5233 -0.5836
 2902SOL     OW19384   6.084   9.953   1.134 -0.1877  0.4731  0.3913
 2902SOL    HW119385   6.059   9.961   1.037  0.8364 -0.7147  0.0213
 2902SOL    HW219386   6.150   9.880   1.146 -0.6102  0.3373  2.0648
 2903SOL     OW19387   6.532   8.515   2.439 -0.4968 -0.2410  0.4855
 2903SOL    HW119388   6.573   8.426   2.454 -1.1015 -0.2576  2.0901
 2903SOL    HW219389   6.442   8.504   2.398 -0.8444 -0.3999  1.2869
 2904SOL     OW19390   6.603   0.733   2.774 -0.1728  0.3204  0.0109
 2904SOL    HW119391   6.660   0.788   2.713 -0.3875 -1.1410 -1.5446
 2904SOL    HW219392   6.508   0.763   2.767 -0.2734 -0.1719 -0.7536
 2905SOL     OW19393   3.600   9.267   1.444 -0.3799  0.1293  0.1403
 2905SOL    HW119394   3.617   9.170   1.459  2.4498  0.4302 -0.8543
 2905SOL    HW219395   3.521   9.278   1.384 -1.6559 -1.4885  1.4874
 2906SOL     OW19396   7.577   0.502   1.821  0.9910 -0.0883 -0.4445
 2906SOL    HW119397   7.644   0.457   1.762  2.7645  1.3176  0.4294
 2906SOL    HW219398   7.582   0.601   1.808  0.3734  0.1474  0.9767
 2907SOL     OW19399   8.825   9.572   3.995  0.1733  0.1203 -0.1095
 2907SOL    HW119400   8.803   9.633   3.919  1.3627  1.0780  0.2981
 2907SOL    HW219401   8.773   9.600   4.076  0.7681  0.6545  0.0952
 2908SOL     OW19402   5.116   0.118   0.590  0.2512 -0.2720  0.5275
 2908SOL    HW119403   5.164   0.204   0.570 -0.4162 -0.1873 -0.6998
 2908SOL    HW219404   5.033   0.112   0.535 -0.3117 -1.1787  1.4577
 2909SOL     OW19405   3.615   9.676   1.153 -0.2217 -0.2587 -0.1151
 2909SOL    HW119406   3.640   9.662   1.057  1.2376  0.8517  0.0736
 2909SOL    HW219407   3.519   9.704   1.159 -0.9899 -2.5519 -1.0506
 2910SOL     OW19408   7.800   8.203   1.623  0.3049 -0.6439 -0.2822
 2910SOL    HW119409   7.895   8.182   1.599  1.1444 -0.9532  3.0461
 2910SOL    HW219410   7.756   8.122   1.662 -0.0350  0.5681  1.9306
 2911SOL     OW19411   8.785   1.997   1.468 -0.4404 -0.1296  0.2112
 2911SOL    HW119412   8.692   1.977   1.439  0.3763 -1.6588 -1.4919
 2911SOL    HW219413   8.824   2.066   1.406 -0.2244  0.0112  0.5057
 2912SOL     OW19414   9.750   7.617   2.815 -0.3679 -0.4057 -0.0345
 2912SOL    HW119415   9.698   7.582   2.893  2.0630 -0.9907  1.3716
 2912SOL    HW219416   9.847   7.611   2.834  0.2388  1.4748 -2.2747
 2913SOL     OW19417   2.411   8.142   3.683  0.0626 -0.1854  0.5154
 2913SOL    HW119418   2.441   8.122   3.776 -0.2340  0.0002  0.6532
 2913SOL    HW219419   2.444   8.071   3.621 -0.7426 -0.9612  0.9551
 2914SOL     OW19420   4.105   8.552   4.038 -0.3622 -0.4789  0.2228
 2914SOL    HW119421   4.182   8.597   4.083 -0.9028  1.1353 -0.4295
 2914SOL    HW219422   4.036   8.620   4.014 -1.8948 -1.8664  0.5736
 2915SOL     OW19423   9.685   5.910   3.269  0.7037 -0.3498 -0.0724
 2915SOL    HW119424   9.627   5.829   3.261  1.4143 -0.8713 -0.0026
 2915SOL    HW219425   9.628   5.991   3.284 -0.1469 -0.5642 -1.9794
 2916SOL     OW19426   6.914   0.482   2.474 -0.3292 -0.7712  0.3589
 2916SOL    HW119427   6.947   0.557   2.531 -0.0715 -0.1273 -0.6197
 2916SOL    HW219428   6.863   0.417   2.530 -2.3124  1.1933  0.8900
 2917SOL     OW19429   7.037   6.019   2.193  1.0965 -0.2162  0.4644
 2917SOL    HW119430   7.106   5.956   2.229  1.4132  0.2921  0.7499
 2917SOL    HW219431   6.996   6.069   2.269  0.7047 -0.2172  0.2541
 2918SOL     OW19432   8.419   8.776   0.740 -0.2775 -0.1176 -0.6830
 2918SOL    HW119433   8.394   8.872   0.733 -0.6559  0.0799  2.3457
 2918SOL    HW219434   8.344   8.726   0.784  1.5960 -0.9370  1.7173
 2919SOL     OW19435   8.105   0.888   0.317 -0.0324  0.6422  0.2081
 2919SOL    HW119436   8.021   0.849   0.278  1.0396  0.0668 -1.5988
 2919SOL    HW219437   8.083   0.938   0.401 -2.3776  1.7034 -1.0050
 2920SOL     OW19438   7.352   0.259   2.129 -1.0921  0.1727  0.3869
 2920SOL    HW119439   7.259   0.266   2.166 -0.1517  1.3531  2.6312
 2920SOL    HW219440   7.411   0.214   2.196  0.2705  0.7060 -0.4435
 2921SOL     OW19441   9.877   7.943   5.517  0.0982 -0.0918 -0.4750
 2921SOL    HW119442   9.961   7.967   5.567 -0.4993 -1.3260  1.1807
 2921SOL    HW219443   9.846   7.853   5.547 -1.2958 -0.0540 -1.7871
 2922SOL     OW19444   2.145   5.476   2.558 -0.2057 -0.2178  0.2016
 2922SOL    HW119445   2.209   5.400   2.553 -0.5869 -0.7018  2.1815
 2922SOL    HW219446   2.160   5.527   2.643 -1.4098  0.5835 -0.0482
 2923SOL     OW19447   1.343   8.762   5.261 -0.1546  0.5898  0.2225
 2923SOL    HW119448   1.382   8.790   5.349 -1.4206  1.5340  0.5013
 2923SOL    HW219449   1.304   8.842   5.215  1.3842  0.2880 -1.6700
 2924SOL     OW19450   0.695   2.411   4.520  0.0504 -0.3848 -0.1036
 2924SOL    HW119451   0.700   2.508   4.542  0.1324 -0.4648  0.2328
 2924SOL    HW219452   0.654   2.399   4.429 -0.5029 -0.0608  0.1021
 2925SOL     OW19453   5.715   9.485   2.601 -0.1990  0.2303  0.2751
 2925SOL    HW119454   5.749   9.528   2.518  1.4217  1.7639  1.6933
 2925SOL    HW219455   5.766   9.401   2.620  1.2765  1.3129  1.1607
 2926SOL     OW19456   2.421   2.280   1.484 -0.2244  0.8407  0.3328
 2926SOL    HW119457   2.356   2.241   1.419  0.0589  1.0156 -0.0585
 2926SOL    HW219458   2.475   2.351   1.439 -0.2437  1.1857  0.8465
 2927SOL     OW19459   6.038   9.562   1.167  0.0720  0.2640 -0.2496
 2927SOL    HW119460   5.972   9.624   1.209 -0.6887  0.0245 -1.0867
 2927SOL    HW219461   6.122   9.612   1.146  0.1807  0.5552  0.8598
 2928SOL     OW19462   9.697   9.972   1.896 -0.0472 -0.0907  0.4769
 2928SOL    HW119463   9.732   9.956   1.988  0.7488  0.2622  0.2412
 2928SOL    HW219464   9.749   9.918   1.830 -1.3921 -1.2558  0.3616
 2929SOL     OW19465   1.778   9.199   4.031 -0.6095 -0.0086 -0.1581
 2929SOL    HW119466   1.744   9.107   4.052 -0.8326  0.2239  0.5015
 2929SOL    HW219467   1.861   9.217   4.085  0.1589 -0.3012 -1.2250
 2930SOL     OW19468   2.877   3.660   4.068  0.9040  0.3490  0.0740
 2930SOL    HW119469   2.857   3.758   4.064 -1.6149 -0.0904  0.8234
 2930SOL    HW219470   2.814   3.611   4.007  0.5611 -1.0068  1.4795
 2931SOL     OW19471   8.542   0.589   0.246 -0.0550  0.1215  0.1237
 2931SOL    HW119472   8.636   0.598   0.280  1.0214 -3.3744 -1.6546
 2931SOL    HW219473   8.494   0.520   0.300 -0.3036 -0.9930 -1.4848
 2932SOL     OW19474   0.357   0.907   3.551  0.4245 -0.3156  0.0939
 2932SOL    HW119475   0.326   0.997   3.521  1.0442  0.4567  1.6615
 2932SOL    HW219476   0.279   0.850   3.575  0.0230 -0.2437 -1.0481
 2933SOL     OW19477   4.178   0.931   5.421  0.7288  0.6556  0.7315
 2933SOL    HW119478   4.215   1.024   5.412  0.9438  0.3815 -1.3301
 2933SOL    HW219479   4.139   0.920   5.513  3.3574  1.7921  2.0229
 2934SOL     OW19480   0.090   7.344   0.269  0.0653  0.3089  0.1853
 2934SOL    HW119481   0.075   7.437   0.236 -1.3861 -0.7106 -2.1479
 2934SOL    HW219482   0.158   7.298   0.212  0.5783 -0.1597  1.1587
 2935SOL     OW19483   2.321   5.190   1.097  0.0112 -0.2200 -0.1754
 2935SOL    HW119484   2.344   5.156   1.006  0.2015  0.2875 -0.3215
 2935SOL    HW219485   2.336   5.118   1.165  1.5915 -0.0412 -0.3205
 2936SOL     OW19486   3.481   9.266   0.113 -0.0406  0.0308  0.3198
 2936SOL    HW119487   3.513   9.341   0.171 -0.5454  1.1710 -0.8463
 2936SOL    HW219488   3.384   9.250   0.130 -0.3634  0.8555 -0.7226
 2937SOL     OW19489   3.789   1.159   2.644 -0.2147  0.0640  0.1477
 2937SOL    HW119490   3.710   1.197   2.691 -0.7231 -0.6837 -0.1027
 2937SOL    HW219491   3.857   1.130   2.711 -0.2663  0.4504  0.3689
 2938SOL     OW19492   8.521   8.980   0.466  0.6950  0.1634  0.3614
 2938SOL    HW119493   8.493   8.898   0.517  0.6764 -0.1917 -0.2053
 2938SOL    HW219494   8.579   8.952   0.389  0.0955  0.6082 -0.2588
 2939SOL     OW19495   5.597   9.643   4.440  0.0592  0.0194 -0.5558
 2939SOL    HW119496   5.668   9.708   4.416  0.3857 -0.0890  0.1053
 2939SOL    HW219497   5.507   9.685   4.428  0.2336  0.1822 -1.3128
 2940SOL     OW19498   8.883   0.971   0.097 -0.0839 -0.0945 -0.1226
 2940SOL    HW119499   8.879   0.900   0.168 -0.1166 -0.1265 -0.1567
 2940SOL    HW219500   8.900   1.059   0.140 -1.1538  0.0450  0.0162
 2941SOL     OW19501   7.527   2.591   2.018 -0.6734 -0.2583 -0.2175
 2941SOL    HW119502   7.604   2.528   2.030  0.7591  1.5927  0.5508
 2941SOL    HW219503   7.477   2.566   1.936  1.5103 -0.7544 -1.4584
 2942SOL     OW19504   7.905   2.292   0.480  0.2315  0.2977  0.1895
 2942SOL    HW119505   7.843   2.216   0.500 -1.2973  0.5609 -3.1808
 2942SOL    HW219506   7.986   2.257   0.433  1.6031  0.2545  2.5179
 2943SOL     OW19507   2.606   5.113   2.996  0.6799 -0.3147 -0.3730
 2943SOL    HW119508   2.552   5.096   2.914  1.7615 -0.6725 -1.0231
 2943SOL    HW219509   2.622   5.027   3.044 -1.3034  0.1135  1.0823
 2944SOL     OW19510   9.661   1.729   0.126 -0.5445 -0.8149  0.0489
 2944SOL    HW119511   9.562   1.715   0.121 -0.3048 -2.4471 -0.3361
 2944SOL    HW219512   9.703   1.657   0.181  0.5635 -0.8415 -0.8062
 2945SOL     OW19513   1.140   0.091   3.504  0.9612  0.3649 -0.1979
 2945SOL    HW119514   1.197   0.038   3.441  0.5899  0.4569 -0.6157
 2945SOL    HW219515   1.106   0.031   3.576 -0.5751 -0.2927 -1.4322
 2946SOL     OW19516   8.613   4.458   2.442 -0.0300  0.1969  0.3436
 2946SOL    HW119517   8.576   4.377   2.486  0.7976 -0.1029  0.4967
 2946SOL    HW219518   8.567   4.474   2.355  0.8735 -1.3342 -0.4358
 2947SOL     OW19519   7.925   4.635   1.925  0.5613  0.1696 -0.1818
 2947SOL    HW119520   8.009   4.648   1.873  0.4829 -0.1825 -0.4024
 2947SOL    HW219521   7.894   4.723   1.962  1.8999  0.0362  1.2730
 2948SOL     OW19522   7.532   0.294   1.522  0.7926 -0.1043 -0.3171
 2948SOL    HW119523   7.583   0.244   1.452  1.3378  1.7623 -1.3021
 2948SOL    HW219524   7.505   0.383   1.485 -1.1309 -0.1202  1.0015
 2949SOL     OW19525   3.443   8.533   4.837  0.2765 -0.1838 -0.1230
 2949SOL    HW119526   3.410   8.570   4.749 -5.2570 -1.5997  1.1783
 2949SOL    HW219527   3.456   8.435   4.829  0.9286 -0.1341  0.3283
 2950SOL     OW19528   7.691   6.065   3.086  0.0035  0.2206  0.2282
 2950SOL    HW119529   7.780   6.023   3.103  0.0108  0.7367  1.5037
 2950SOL    HW219530   7.688   6.101   2.993  1.2274  0.4255  0.2686
 2951SOL     OW19531   8.546   4.891   2.303  0.5909  0.4712 -0.1828
 2951SOL    HW119532   8.487   4.966   2.333 -0.1265 -0.2140  0.1399
 2951SOL    HW219533   8.597   4.857   2.382  0.4724  0.2274 -0.2129
 2952SOL     OW19534   7.578   8.889   2.156 -0.2694  0.4625 -0.0429
 2952SOL    HW119535   7.656   8.855   2.207 -0.6349 -2.4539 -1.3272
 2952SOL    HW219536   7.606   8.968   2.101  0.9701  1.3797  1.8386
 2953SOL     OW19537   6.473   6.927   2.626 -0.2667  0.2996  0.2641
 2953SOL    HW119538   6.468   6.939   2.726 -0.6710  2.3304  0.0220
 2953SOL    HW219539   6.558   6.881   2.602  0.7428  1.5290  1.4095
 2954SOL     OW19540   4.745   3.479   2.269 -0.0731 -0.8774 -0.1964
 2954SOL    HW119541   4.693   3.440   2.193  0.1752  0.5837 -1.1556
 2954SOL    HW219542   4.683   3.529   2.330 -0.1134 -1.0449 -0.1012
 2955SOL     OW19543   1.647   0.416   1.854  0.3618 -0.0000 -0.0221
 2955SOL    HW119544   1.553   0.385   1.870 -0.2517  2.1787  0.7928
 2955SOL    HW219545   1.689   0.361   1.782 -1.6542 -0.7844 -0.6260
 2956SOL     OW19546   6.057   9.697   2.200 -0.7578  0.0738  0.1400
 2956SOL    HW119547   6.125   9.757   2.158 -0.4851 -0.3759 -0.0658
 2956SOL    HW219548   6.045   9.616   2.143 -1.3159  0.0537  0.2835
 2957SOL     OW19549   1.307   2.205   0.450 -0.0246 -0.3122  0.2269
 2957SOL    HW119550   1.339   2.112   0.469 -0.8117 -0.8084 -0.8518
 2957SOL    HW219551   1.327   2.228   0.355 -1.6491 -0.1371 -0.0850
 2958SOL     OW19552   9.802   0.665   0.836  0.2477 -0.2320 -0.2381
 2958SOL    HW119553   9.896   0.632   0.833 -0.0751 -1.2648  0.9132
 2958SOL    HW219554   9.801   0.763   0.858  1.0787 -0.0146 -1.1469
 2959SOL     OW19555   9.239   9.490   4.488  0.0619  0.2043  0.6899
 2959SOL    HW119556   9.170   9.497   4.416  0.6644 -2.2870 -0.1909
 2959SOL    HW219557   9.195   9.492   4.577 -0.9019  1.1544  0.1955
 2960SOL     OW19558   0.034   9.859   2.274  0.1664 -0.0268  0.2048
 2960SOL    HW119559   0.031   9.777   2.330  0.4900 -0.1956 -0.0206
 2960SOL    HW219560   0.064   9.937   2.330 -0.0606 -0.0776  0.3975
 2961SOL     OW19561   8.898   1.384   4.166 -0.1775 -0.0904  1.4299
 2961SOL    HW119562   8.886   1.286   4.182 -2.0007 -0.0201  0.6520
 2961SOL    HW219563   8.848   1.435   4.236 -1.3268  0.2575  0.3684
 2962SOL     OW19564   7.968   0.544   4.886  0.4458 -0.6944  0.3840
 2962SOL    HW119565   7.897   0.604   4.850  1.6049 -0.8572 -2.2536
 2962SOL    HW219566   8.054   0.595   4.894  1.0543 -1.5731 -0.4102
 2963SOL     OW19567   4.256   9.802   2.826  0.6405  0.7521  0.1539
 2963SOL    HW119568   4.338   9.749   2.805 -0.4306 -0.8817 -0.0295
 2963SOL    HW219569   4.203   9.754   2.897 -1.0688  0.8160 -1.0441
 2964SOL     OW19570   8.195   6.512   3.166 -0.0647 -0.0956 -0.3193
 2964SOL    HW119571   8.135   6.435   3.146 -0.0036  0.7282 -4.0684
 2964SOL    HW219572   8.205   6.522   3.265 -4.5053 -1.4182  0.3581
 2965SOL     OW19573   7.980   2.151   3.222  0.1325  0.1120 -0.3479
 2965SOL    HW119574   7.918   2.082   3.260  2.8378 -2.4435 -0.4273
 2965SOL    HW219575   8.045   2.179   3.292  0.2674  1.1481 -0.8801
 2966SOL     OW19576   7.068   7.415   2.644 -0.0769  0.6087 -0.6501
 2966SOL    HW119577   7.091   7.512   2.646 -0.2791  0.6488  0.0932
 2966SOL    HW219578   6.969   7.405   2.642 -0.0547  0.4228 -0.7470
 2967SOL     OW19579   2.949   9.080   3.848 -0.2477  0.3967  0.6519
 2967SOL    HW119580   2.893   8.996   3.850 -0.1113  0.2924  0.2670
 2967SOL    HW219581   3.043   9.058   3.874  0.1193  0.1601 -0.8399
 2968SOL     OW19582   1.963   3.379   5.252 -0.0973  0.0458  0.0162
 2968SOL    HW119583   1.902   3.375   5.331 -0.1416 -0.3716 -0.0398
 2968SOL    HW219584   1.922   3.330   5.175 -0.1729  0.6754 -0.3479
 2969SOL     OW19585   1.409   5.260   3.286 -0.1127  0.0397  0.6067
 2969SOL    HW119586   1.389   5.249   3.188 -0.7083 -0.2185  0.7561
 2969SOL    HW219587   1.452   5.177   3.321  0.3161  0.2208  0.5123
 2970SOL     OW19588   4.094   7.677   2.998  0.2527 -0.2042 -0.3469
 2970SOL    HW119589   4.016   7.712   3.049  0.1661  0.1364 -0.7104
 2970SOL    HW219590   4.141   7.607   3.052 -0.4154 -0.5517 -0.2060
 2971SOL     OW19591   9.940   7.395   1.665  0.0858  0.1233  0.1119
 2971SOL    HW119592   9.926   7.494   1.673 -2.2078 -0.2840  1.6100
 2971SOL    HW219593   9.960   7.356   1.755 -0.3679 -0.9467 -0.2338
 2972SOL     OW19594   3.867   3.730   3.489 -0.2288 -0.4439  0.3813
 2972SOL    HW119595   3.777   3.772   3.505 -0.1732 -0.0948 -0.2486
 2972SOL    HW219596   3.909   3.710   3.578  0.3479  2.0898  0.7170
 2973SOL     OW19597   0.199   2.456   3.453  0.0398 -0.3648  0.3982
 2973SOL    HW119598   0.196   2.551   3.484  0.1574 -0.4133  0.5596
 2973SOL    HW219599   0.143   2.399   3.515  0.1286 -0.4319  0.4175
 2974SOL     OW19600   9.437   2.987   2.310  0.1228 -0.2319 -0.6359
 2974SOL    HW119601   9.470   3.079   2.331 -0.8802 -0.1359  0.5616
 2974SOL    HW219602   9.507   2.920   2.331  0.7851  0.2363 -1.3205
 2975SOL     OW19603   1.334   9.477   3.099  0.2958  0.6183 -0.7469
 2975SOL    HW119604   1.315   9.472   3.197 -1.2631 -1.1304 -1.1096
 2975SOL    HW219605   1.283   9.553   3.058 -0.6591  0.0901 -0.5460
 2976SOL     OW19606   0.980   9.477   3.103  0.3406  0.4008  0.2262
 2976SOL    HW119607   1.047   9.542   3.068 -0.6395  0.9207 -0.7277
 2976SOL    HW219608   0.934   9.432   3.027  2.0184 -2.5303  0.8595
 2977SOL     OW19609   3.222   8.595   3.504  0.4260 -0.1770 -0.9074
 2977SOL    HW119610   3.170   8.525   3.456  0.0977 -0.4189 -0.2070
 2977SOL    HW219611   3.232   8.675   3.445 -2.5397  0.6934 -0.3241
 2978SOL     OW19612   1.634   6.556   5.426  0.4093 -0.1673 -0.6301
 2978SOL    HW119613   1.688   6.604   5.495 -0.9431  1.7943 -0.9014
 2978SOL    HW219614   1.690   6.542   5.344  0.9408  0.6006 -0.4027
 2979SOL     OW19615   7.571   7.505   4.233 -0.3328  0.5115  0.3862
 2979SOL    HW119616   7.647   7.455   4.192  0.0129  0.8994  0.5427
 2979SOL    HW219617   7.607   7.583   4.285 -0.8490  0.7894  0.3289
 2980SOL     OW19618   2.437   9.586   4.613 -0.0909 -0.1940 -0.4906
 2980SOL    HW119619   2.400   9.665   4.661  1.0648 -0.8751  1.5757
 2980SOL    HW219620   2.533   9.604   4.589  0.6344 -1.5260  1.3295
 2981SOL     OW19621   3.706   8.261   5.169 -0.3511 -0.0978  0.0243
 2981SOL    HW119622   3.608   8.248   5.150 -0.6088  0.9895  0.5755
 2981SOL    HW219623   3.757   8.257   5.083 -1.1367  1.5683 -0.5417
 2982SOL     OW19624   1.185   0.306   4.049  0.1048  0.4797 -0.3317
 2982SOL    HW119625   1.141   0.345   4.131 -2.8798 -0.5761 -1.3856
 2982SOL    HW219626   1.244   0.230   4.077 -1.4452 -0.3423  0.7876
 2983SOL     OW19627   3.099   4.427   4.435  0.4178 -0.1119  0.4260
 2983SOL    HW119628   3.010   4.460   4.404  0.3681  1.1447  1.8614
 2983SOL    HW219629   3.152   4.395   4.357 -1.5183 -1.4446 -0.3761
 2984SOL     OW19630   1.907   1.211   2.725 -0.0495 -0.2784  0.5154
 2984SOL    HW119631   1.905   1.285   2.657  1.1718 -1.8015 -1.2299
 2984SOL    HW219632   1.982   1.227   2.789  0.5950 -0.3487 -0.2279
 2985SOL     OW19633   6.030   8.877   1.319 -0.1837  0.7238  0.3580
 2985SOL    HW119634   6.090   8.830   1.384 -0.3031 -1.2222 -0.8775
 2985SOL    HW219635   6.086   8.917   1.247 -0.2117  0.8107  0.3848
 2986SOL     OW19636   1.462   1.638   1.792  0.7971  0.0980 -0.0163
 2986SOL    HW119637   1.506   1.566   1.738  0.9062  0.8599 -0.9572
 2986SOL    HW219638   1.364   1.619   1.799  1.0128 -0.7602  0.7347
 2987SOL     OW19639   3.928   0.384   1.709 -0.7228 -0.2323 -0.2886
 2987SOL    HW119640   4.012   0.337   1.738 -0.9350 -1.3181 -1.3938
 2987SOL    HW219641   3.882   0.422   1.789  0.9177  0.5455  0.3187
 2988SOL     OW19642   6.961   9.892   2.088 -0.3383 -0.1795  0.6784
 2988SOL    HW119643   6.876   9.896   2.034  0.7230  3.8792 -0.8417
 2988SOL    HW219644   6.938   9.894   2.185 -2.0818 -2.3422  0.3641
 2989SOL     OW19645   8.529   9.627   2.112  0.1356  0.4860 -0.3059
 2989SOL    HW119646   8.526   9.721   2.145  0.4666 -0.0487  1.2664
 2989SOL    HW219647   8.602   9.578   2.159 -0.5829 -0.7940 -0.5207
 2990SOL     OW19648   7.282   8.595   2.417  0.0945 -0.5178 -0.0731
 2990SOL    HW119649   7.250   8.500   2.417  0.5147 -0.6709  1.2788
 2990SOL    HW219650   7.214   8.653   2.462  0.8668 -0.5421  1.1214
 2991SOL     OW19651   8.094   4.313   2.046 -0.0431  0.0610  0.1395
 2991SOL    HW119652   8.160   4.359   1.987 -1.4417  0.7601 -0.9302
 2991SOL    HW219653   8.123   4.218   2.061  1.0923  0.2995 -0.4688
 2992SOL     OW19654   9.497   9.091   1.179 -0.2109 -0.7030  0.2182
 2992SOL    HW119655   9.593   9.087   1.205 -0.4215 -1.7939  0.8870
 2992SOL    HW219656   9.489   9.101   1.080  0.5935  0.0514  0.2325
 2993SOL     OW19657   4.798   1.940   3.423 -0.2651 -0.2289 -0.5714
 2993SOL    HW119658   4.835   1.929   3.330 -0.3846  1.4660 -0.8301
 2993SOL    HW219659   4.869   1.918   3.489  0.3039  0.0689 -1.0742
 2994SOL     OW19660   4.116   1.692   3.958 -0.2868 -0.3672 -0.2268
 2994SOL    HW119661   4.179   1.642   4.018 -1.5539 -0.2978  1.1951
 2994SOL    HW219662   4.105   1.786   3.992  0.0930  0.1159 -1.4063
 2995SOL     OW19663   2.354   2.383   2.629 -0.1643 -0.0327  0.5599
 2995SOL    HW119664   2.334   2.344   2.539  0.0693  1.4442 -0.1488
 2995SOL    HW219665   2.447   2.358   2.657  0.3069  0.7608 -0.2910
 2996SOL     OW19666   3.689   2.557   0.672  0.6218  0.3135  0.0499
 2996SOL    HW119667   3.778   2.540   0.714  0.2551 -2.0478 -0.0221
 2996SOL    HW219668   3.634   2.473   0.677 -1.1605  1.3992 -0.9444
 2997SOL     OW19669   6.407   7.215   3.982  0.1995 -0.4636 -0.2259
 2997SOL    HW119670   6.324   7.166   4.010  0.3275 -0.8222 -0.4635
 2997SOL    HW219671   6.425   7.290   4.045 -1.2757  0.7031 -1.1555
 2998SOL     OW19672   4.846   9.847   3.149  0.0987 -0.1122  0.4481
 2998SOL    HW119673   4.853   9.802   3.061 -0.6024  0.2383  0.2120
 2998SOL    HW219674   4.751   9.872   3.167  0.5983  2.0358  0.1938
 2999SOL     OW19675   4.331   4.293   1.612  0.0801 -0.0432 -0.1947
 2999SOL    HW119676   4.341   4.317   1.515 -2.5949 -1.9162 -0.9965
 2999SOL    HW219677   4.234   4.293   1.636  0.7317  0.8043  2.6360
 3000SOL     OW19678   4.293   2.499   1.454  0.4075  0.0555  0.1923
 3000SOL    HW119679   4.239   2.578   1.483  0.3796 -0.2086  0.8789
 3000SOL    HW219680   4.310   2.504   1.356  0.4554  0.9479  0.2395
 3001SOL     OW19681   3.123   9.659   0.439  0.7435 -0.1535 -0.1016
 3001SOL    HW119682   3.175   9.724   0.494  0.8084  0.2900 -0.6888
 3001SOL    HW219683   3.158   9.658   0.346 -1.2219  1.2386 -0.8891
 3002SOL     OW19684   9.430   0.580   2.537  0.7663 -0.0346 -0.1651
 3002SOL    HW119685   9.435   0.482   2.556 -0.7428  0.0239  0.5978
 3002SOL    HW219686   9.511   0.626   2.574  1.3970 -0.9542 -0.3896
 3003SOL     OW19687   2.584   5.416   1.676  0.1772  0.4355 -0.3873
 3003SOL    HW119688   2.576   5.320   1.702 -0.1791  0.2822 -1.0338
 3003SOL    HW219689   2.497   5.462   1.692 -0.3320  0.1302 -2.0908
 3004SOL     OW19690   0.962   9.961   2.219 -0.3338  0.1597 -0.2718
 3004SOL    HW119691   1.043   9.974   2.275 -0.3702 -0.0492 -0.1678
 3004SOL    HW219692   0.889  10.023   2.249 -0.4769 -0.2155  0.1569
 3005SOL     OW19693   0.079   3.749   1.897 -0.1646  0.1231  0.0763
 3005SOL    HW119694   0.153   3.697   1.940  0.8920  0.4838 -1.2816
 3005SOL    HW219695   0.055   3.827   1.955  0.3261 -0.1608  0.6671
 3006SOL     OW19696   2.936   5.543   3.747  0.5730 -0.3788  0.0924
 3006SOL    HW119697   2.976   5.634   3.733  0.2904  0.0286  1.8309
 3006SOL    HW219698   2.864   5.549   3.816  2.0633 -2.3153  1.8866
 3007SOL     OW19699   6.474   8.484   1.834 -0.7336  0.0764 -0.3696
 3007SOL    HW119700   6.449   8.428   1.914  0.0363  0.7322  0.3439
 3007SOL    HW219701   6.559   8.533   1.854 -0.0409 -0.4576 -1.9474
 3008SOL     OW19702   5.258   9.940   0.730 -0.1797  0.2689 -0.5388
 3008SOL    HW119703   5.204  10.011   0.684 -1.5876 -0.1091  0.4767
 3008SOL    HW219704   5.248   9.854   0.681 -0.8174  0.1128 -0.1426
 3009SOL     OW19705   9.105   0.875   1.078  0.9301  0.3092  0.0078
 3009SOL    HW119706   9.034   0.935   1.115  0.5660  0.0477 -0.2749
 3009SOL    HW219707   9.150   0.920   1.001 -2.0180 -1.3654 -2.8088
 3010SOL     OW19708   9.358   2.782   1.047 -0.3206 -0.1651 -0.0278
 3010SOL    HW119709   9.277   2.816   1.093 -0.3235 -2.7342  2.0024
 3010SOL    HW219710   9.440   2.812   1.096 -0.2152 -0.6400  0.0969
 3011SOL     OW19711   5.760   9.549   3.975  0.8736 -0.3937  0.0531
 3011SOL    HW119712   5.844   9.581   3.933  2.2677 -3.4704  0.4009
 3011SOL    HW219713   5.776   9.531   4.072 -0.1718 -0.9725  0.1264
 3012SOL     OW19714   3.740   1.553   2.952 -0.3822 -1.3379 -0.6935
 3012SOL    HW119715   3.831   1.538   2.914  0.0096  1.4637 -0.9912
 3012SOL    HW219716   3.676   1.573   2.877 -0.2716  1.0705 -0.2007
 3013SOL     OW19717   4.473   6.772   1.345  0.6696 -0.1122 -0.5106
 3013SOL    HW119718   4.499   6.868   1.354  1.0914 -0.4276  1.9056
 3013SOL    HW219719   4.548   6.722   1.302  0.2713  0.6886 -2.2021
 3014SOL     OW19720   9.637   1.727   3.442 -0.0071  0.5211  0.6230
 3014SOL    HW119721   9.670   1.692   3.529 -0.1576 -1.3457 -0.0450
 3014SOL    HW219722   9.684   1.813   3.421  2.7576 -0.8612  0.8280
 3015SOL     OW19723   1.673   1.115   4.503  0.1658  0.0388  0.1581
 3015SOL    HW119724   1.594   1.085   4.556 -0.5971  1.0637 -0.3749
 3015SOL    HW219725   1.740   1.157   4.564 -0.0419 -0.1325  0.5064
 3016SOL     OW19726   9.126   3.307   3.645 -0.3059 -0.1924  0.3776
 3016SOL    HW119727   9.099   3.296   3.740  1.2580 -0.4293  0.8189
 3016SOL    HW219728   9.102   3.399   3.613 -0.1310  0.1631  1.2551
 3017SOL     OW19729   9.475   8.665   2.127  0.5218  0.4549  0.2089
 3017SOL    HW119730   9.405   8.593   2.126  0.5986  0.3761 -1.9076
 3017SOL    HW219731   9.551   8.639   2.067  0.3694  2.4579 -0.9044
 3018SOL     OW19732   9.717   6.005   1.726 -0.0850  0.0897  0.0459
 3018SOL    HW119733   9.708   6.040   1.819  3.1005 -2.3754  1.3654
 3018SOL    HW219734   9.659   5.925   1.714  0.0047  0.0166  0.1031
 3019SOL     OW19735   9.821   7.117   4.168  0.2399 -0.2561  0.4886
 3019SOL    HW119736   9.758   7.040   4.185 -1.0518  1.0341  1.6491
 3019SOL    HW219737   9.776   7.202   4.192  1.9403  0.8249 -0.1125
 3020SOL     OW19738   1.465   7.799   2.658 -0.5675  0.1940 -0.0205
 3020SOL    HW119739   1.377   7.814   2.701 -1.8761  2.1329 -3.2099
 3020SOL    HW219740   1.518   7.884   2.657  0.8519 -0.6545  0.7706
 3021SOL     OW19741   6.013   0.648   3.654  0.2423  0.1312  0.2872
 3021SOL    HW119742   5.986   0.560   3.616  1.1372 -0.7929  1.7602
 3021SOL    HW219743   6.093   0.682   3.605 -0.0627  0.1064 -0.2382
 3022SOL     OW19744   4.745   1.276   2.151  0.0371  0.3288 -0.3471
 3022SOL    HW119745   4.793   1.261   2.238 -0.9858  0.6727  0.2754
 3022SOL    HW219746   4.786   1.355   2.105  1.8814 -1.0312 -1.1169
 3023SOL     OW19747   9.630   3.984   2.647 -0.2819 -0.1855  0.5665
 3023SOL    HW119748   9.608   3.897   2.603  1.8950 -0.8543  0.7483
 3023SOL    HW219749   9.587   4.059   2.596 -1.8392 -1.3114  0.1823
 3024SOL     OW19750   8.301   2.431   1.096 -0.0884 -0.3393  0.2130
 3024SOL    HW119751   8.262   2.523   1.085 -0.4379 -0.6287 -1.1588
 3024SOL    HW219752   8.339   2.401   1.008  2.0098 -0.6289  1.2017
 3025SOL     OW19753   9.011   7.061   1.884  0.1293  0.3056 -0.2599
 3025SOL    HW119754   8.978   7.011   1.804 -0.5853  0.6243 -0.1705
 3025SOL    HW219755   8.933   7.102   1.931  0.4758 -0.4050  0.9557
 3026SOL     OW19756   0.978   5.317   2.287 -0.5698  0.1532 -0.0044
 3026SOL    HW119757   0.961   5.219   2.297 -1.2218 -0.0322 -2.4090
 3026SOL    HW219758   1.071   5.332   2.253 -0.4449  0.3705  0.4307
 3027SOL     OW19759   4.165   6.608   1.656 -0.4496 -0.1148  0.8144
 3027SOL    HW119760   4.148   6.689   1.711 -0.5916  0.1346  0.4035
 3027SOL    HW219761   4.112   6.613   1.571 -0.2981 -0.5352  0.6923
 3028SOL     OW19762   1.471   6.644   1.280  0.1503  0.0665  0.0544
 3028SOL    HW119763   1.565   6.614   1.262  1.1525  3.0864 -0.0020
 3028SOL    HW219764   1.426   6.667   1.194 -0.0125  0.3980  0.2250
 3029SOL     OW19765   8.070   9.401   1.866  0.1443  0.1945 -0.0194
 3029SOL    HW119766   8.132   9.395   1.943 -0.5442 -0.4310  0.4869
 3029SOL    HW219767   8.069   9.314   1.816 -0.7219  0.0121  0.2958
 3030SOL     OW19768   4.215   4.854   1.157  0.0870  0.0633 -0.1021
 3030SOL    HW119769   4.156   4.781   1.122 -0.3043  0.1910  0.2918
 3030SOL    HW219770   4.198   4.938   1.106 -0.4419  0.2340  0.3591
 3031SOL     OW19771   1.665   9.731   1.937 -0.8074 -0.3234 -0.0413
 3031SOL    HW119772   1.568   9.717   1.917 -0.9817  0.8635 -0.0877
 3031SOL    HW219773   1.685   9.700   2.030 -1.2905 -0.3521  0.0553
 3032SOL     OW19774   2.820   2.263   4.780 -0.0298  0.2359  0.2127
 3032SOL    HW119775   2.794   2.332   4.712 -0.3656 -0.6778 -0.6084
 3032SOL    HW219776   2.867   2.187   4.734 -1.3381 -0.9701  0.8118
 3033SOL     OW19777   1.178   7.878   3.234  0.1849  0.3534 -0.4937
 3033SOL    HW119778   1.254   7.812   3.229 -0.7283 -0.5880 -2.1849
 3033SOL    HW219779   1.213   7.970   3.217  0.9947 -0.0486 -1.0474
 3034SOL     OW19780   4.084   2.761   3.476  0.3259  0.3658  0.8446
 3034SOL    HW119781   4.077   2.832   3.546 -2.9588 -0.6662  1.7012
 3034SOL    HW219782   4.079   2.671   3.520  2.9910 -0.3997 -0.3396
 3035SOL     OW19783   4.923   7.961   2.852  0.4865 -0.0861  0.0037
 3035SOL    HW119784   4.972   7.985   2.936  1.1668 -3.0124  0.5085
 3035SOL    HW219785   4.955   8.019   2.778  2.5941  0.0734  0.9789
 3036SOL     OW19786   3.473   9.807   0.548 -0.1414 -0.2502 -0.0520
 3036SOL    HW119787   3.380   9.821   0.581 -0.4022 -1.0867 -0.4151
 3036SOL    HW219788   3.516   9.896   0.530 -0.9950  0.1315 -0.2455
 3037SOL     OW19789   2.398   9.447   2.008 -0.8293 -0.2593  0.0387
 3037SOL    HW119790   2.340   9.529   2.003 -1.2892 -0.7027 -3.1513
 3037SOL    HW219791   2.343   9.367   1.985  0.5285 -0.9532 -0.8125
 3038SOL     OW19792   1.166   0.833   1.995  0.3373 -0.1732  0.0414
 3038SOL    HW119793   1.221   0.904   1.951 -1.6105  2.3457  1.5713
 3038SOL    HW219794   1.197   0.820   2.089  0.9897 -1.7204 -0.3749
 3039SOL     OW19795   3.886   8.644   4.775  0.2209 -0.4988 -0.4589
 3039SOL    HW119796   3.799   8.632   4.727 -0.5777  0.5417  0.6930
 3039SOL    HW219797   3.928   8.730   4.745  0.7247 -0.8717 -0.8195
 3040SOL     OW19798   3.265   6.715   0.515 -0.4535  0.3267  0.5431
 3040SOL    HW119799   3.299   6.807   0.530  3.0806 -0.5048 -1.7683
 3040SOL    HW219800   3.191   6.717   0.448  0.6496  1.3200 -0.6492
 3041SOL     OW19801   1.472   6.634   2.357  0.3011  0.0295  0.3038
 3041SOL    HW119802   1.561   6.650   2.314  0.4589  0.4747  0.7913
 3041SOL    HW219803   1.453   6.707   2.423 -0.0410 -0.5204  0.8264
 3042SOL     OW19804   6.162   8.774   1.553  0.1472  0.1009  0.1621
 3042SOL    HW119805   6.182   8.870   1.577 -0.8047 -0.1613  2.0374
 3042SOL    HW219806   6.214   8.714   1.613  3.5261 -0.6376 -3.2891
 3043SOL     OW19807   5.327   8.827   2.707  0.8149  0.2337  0.1952
 3043SOL    HW119808   5.374   8.825   2.619  0.1426 -1.0760 -0.1435
 3043SOL    HW219809   5.354   8.910   2.757  1.8700  0.5464 -0.8612
 3044SOL     OW19810   4.067   7.829   0.998  0.3091 -0.4570 -0.3131
 3044SOL    HW119811   3.973   7.796   0.993  0.1297  0.0307 -0.2499
 3044SOL    HW219812   4.118   7.799   0.917 -0.3424  0.5933 -1.1316
 3045SOL     OW19813   1.877   9.017   5.279 -0.2904 -0.2602 -0.5977
 3045SOL    HW119814   1.824   9.043   5.199 -0.2161  0.5427 -0.3947
 3045SOL    HW219815   1.881   9.095   5.343  1.5131 -0.1397 -0.8278
 3046SOL     OW19816   9.248   9.349   0.083  0.1386  0.0281 -0.2018
 3046SOL    HW119817   9.275   9.304   0.168 -0.1575  2.0927  1.0312
 3046SOL    HW219818   9.202   9.435   0.105 -2.2090 -0.6210 -2.4118
 3047SOL     OW19819   3.662   2.204   1.181 -0.1708 -0.2991  0.4339
 3047SOL    HW119820   3.693   2.299   1.189 -0.6106  0.0164 -1.3525
 3047SOL    HW219821   3.608   2.179   1.262 -0.3098  1.0685  0.7735
 3048SOL     OW19822   0.568   6.144   2.730  0.2427  0.3915 -0.2848
 3048SOL    HW119823   0.578   6.206   2.808  1.1357 -2.4123  1.9375
 3048SOL    HW219824   0.471   6.131   2.709  0.0018  1.1927  0.3233
 3049SOL     OW19825   3.118   0.811   2.544  0.2537  0.1379 -0.3869
 3049SOL    HW119826   3.202   0.819   2.490 -0.8651  1.1380 -2.0049
 3049SOL    HW219827   3.076   0.722   2.528  0.4644  0.0376 -0.3829
 3050SOL     OW19828   3.468   3.358   3.426 -0.3188  0.5411  0.1808
 3050SOL    HW119829   3.549   3.401   3.386  0.2636  1.7478  2.5128
 3050SOL    HW219830   3.395   3.426   3.434 -1.1775 -0.2535 -0.8671
 3051SOL     OW19831   3.189   7.763   1.205 -0.1581 -0.4413 -0.0461
 3051SOL    HW119832   3.157   7.669   1.213 -1.0555 -0.2419 -1.2320
 3051SOL    HW219833   3.219   7.795   1.295  0.5493 -1.9839  0.2849
 3052SOL     OW19834   1.791   4.071   4.127  0.3738 -0.0923  0.4955
 3052SOL    HW119835   1.699   4.101   4.152  0.2583 -1.1705  1.4367
 3052SOL    HW219836   1.785   3.984   4.078  0.9833 -0.9942  1.9887
 3053SOL     OW19837   2.012   3.156   1.545  0.6478  0.1300 -0.1759
 3053SOL    HW119838   1.957   3.199   1.473  0.2829  1.7157  1.0149
 3053SOL    HW219839   2.068   3.226   1.590 -0.9692 -0.3549  2.7350
 3054SOL     OW19840   5.764   0.028   1.182 -0.4004 -0.3309  0.8562
 3054SOL    HW119841   5.837   0.093   1.205 -0.0742 -0.8632  1.3511
 3054SOL    HW219842   5.797  -0.035   1.111 -0.7008  0.0190  0.4061
 3055SOL     OW19843   5.805   9.239   4.016 -0.1401 -0.1145 -0.3151
 3055SOL    HW119844   5.850   9.167   4.069 -1.3919 -0.8879 -0.3026
 3055SOL    HW219845   5.863   9.321   4.017  0.5295 -0.5844  1.0262
 3056SOL     OW19846   4.880   0.225   0.779 -0.3023 -0.7319 -0.0013
 3056SOL    HW119847   4.920   0.146   0.733 -0.0994  0.2556 -1.5614
 3056SOL    HW219848   4.948   0.298   0.785 -0.7515 -0.3581  0.6668
 3057SOL     OW19849   2.456   9.043   1.089  0.4911 -0.1118 -0.3436
 3057SOL    HW119850   2.385   9.113   1.093  1.4538  0.8750 -0.5684
 3057SOL    HW219851   2.443   8.987   1.007 -2.2125 -2.2816  1.4654
 3058SOL     OW19852   7.114   7.699   2.344 -0.2298  0.1900 -0.4204
 3058SOL    HW119853   7.124   7.742   2.433  0.3293 -1.8412  0.5377
 3058SOL    HW219854   7.028   7.648   2.341 -1.0225  1.5641 -1.6349
 3059SOL     OW19855   1.381   0.220   3.764 -0.1989  0.4147  0.5321
 3059SOL    HW119856   1.377   0.203   3.665 -0.4096 -1.0763  0.7929
 3059SOL    HW219857   1.290   0.245   3.797 -0.1903  0.6091  0.4139
 3060SOL     OW19858   9.885   1.555   2.664  0.0982  0.3626  0.5280
 3060SOL    HW119859   9.894   1.651   2.639  0.1203  0.0014 -0.8718
 3060SOL    HW219860   9.968   1.506   2.638 -0.5100 -0.3246 -0.1314
 3061SOL     OW19861   4.683   7.619   3.263 -0.2761 -0.1263  0.2602
 3061SOL    HW119862   4.591   7.610   3.225  0.5288  0.3706 -1.9040
 3061SOL    HW219863   4.720   7.528   3.283 -0.7937 -0.3836  0.0507
 3062SOL     OW19864   6.665   7.931   3.100 -0.3207 -0.8271 -0.1982
 3062SOL    HW119865   6.717   7.958   3.181  0.2990 -1.9398 -0.2287
 3062SOL    HW219866   6.634   8.014   3.052 -0.1951 -0.1657  0.8470
 3063SOL     OW19867   9.558   8.793   4.614  0.1337  0.0816  0.2096
 3063SOL    HW119868   9.544   8.706   4.567 -1.0325  1.2068 -1.6233
 3063SOL    HW219869   9.641   8.836   4.580  0.4026 -0.0484  0.6997
 3064SOL     OW19870   1.262   0.471   5.535  0.1061  0.1134  0.4928
 3064SOL    HW119871   1.233   0.482   5.440  0.3026 -0.9211  0.3003
 3064SOL    HW219872   1.233   0.550   5.588  0.6976  1.0895 -0.5936
 3065SOL     OW19873   4.193   3.420   5.434 -0.3813 -0.1779 -0.2092
 3065SOL    HW119874   4.143   3.354   5.491 -0.8275 -1.5169 -2.1011
 3065SOL    HW219875   4.174   3.402   5.338  2.0321  0.6920 -0.8847
 3066SOL     OW19876   7.196   6.924   2.312  0.4024  0.8275  0.5169
 3066SOL    HW119877   7.184   6.893   2.406  0.0322 -0.5656  0.0131
 3066SOL    HW219878   7.292   6.913   2.285  0.4243  0.8455  0.5852
 3067SOL     OW19879   8.085   0.249   4.710  0.3503 -0.2725  0.2359
 3067SOL    HW119880   8.132   0.335   4.694  0.1715 -0.3749 -0.9063
 3067SOL    HW219881   8.090   0.192   4.627 -1.4981 -0.4125  0.1923
 3068SOL     OW19882   0.323   0.616   0.966  0.0351 -0.7270  0.7626
 3068SOL    HW119883   0.333   0.638   1.063  1.2722  0.1332  0.4516
 3068SOL    HW219884   0.390   0.669   0.913 -1.4369 -0.2818 -0.6770
 3069SOL     OW19885   7.529   3.008   2.614  0.2770  0.4789  0.0211
 3069SOL    HW119886   7.564   3.102   2.613 -1.1391  1.0179 -2.0171
 3069SOL    HW219887   7.541   2.967   2.523 -1.7648 -0.3096  0.0884
 3070SOL     OW19888   9.615   1.482   3.606  0.0864 -0.1834 -0.4355
 3070SOL    HW119889   9.656   1.452   3.520 -0.3075 -1.3031 -0.2342
 3070SOL    HW219890   9.589   1.402   3.661  1.8436  0.4972  1.4523
 3071SOL     OW19891   7.852   9.983   3.783 -0.1000 -0.3101 -0.5789
 3071SOL    HW119892   7.859   9.883   3.788  0.4559 -0.2356  0.0471
 3071SOL    HW219893   7.891  10.024   3.865  0.5872  0.4711 -1.2827
 3072SOL     OW19894   6.247   0.239   1.556 -0.3356  0.1862 -0.5351
 3072SOL    HW119895   6.306   0.159   1.554 -0.1701  0.3567 -3.0269
 3072SOL    HW219896   6.297   0.319   1.523 -0.3988  1.4248  2.2230
 3073SOL     OW19897   4.351   6.675   3.024 -0.5865  0.0496  0.2393
 3073SOL    HW119898   4.419   6.646   3.092  1.4404 -0.1277 -1.8039
 3073SOL    HW219899   4.303   6.595   2.988 -0.5728 -0.0033  0.3391
 3074SOL     OW19900   3.431   3.168   4.446 -0.3922  0.7781  0.0549
 3074SOL    HW119901   3.501   3.110   4.405 -0.1120 -0.0838  1.7225
 3074SOL    HW219902   3.470   3.257   4.467  0.1174  0.4111  0.6696
 3075SOL     OW19903   9.055   5.167   2.796  0.4066  0.4509 -0.9272
 3075SOL    HW119904   8.974   5.220   2.822 -1.1868 -1.6570 -1.3932
 3075SOL    HW219905   9.080   5.188   2.702  0.7023  1.4834 -0.6181
 3076SOL     OW19906   8.566   8.329   2.213 -0.2449  0.0050 -0.3079
 3076SOL    HW119907   8.542   8.420   2.244 -0.0663  0.6488 -1.9792
 3076SOL    HW219908   8.649   8.333   2.158 -2.1302 -0.5726 -3.3331
 3077SOL     OW19909   1.153   6.070   0.637  0.2733  0.0049 -0.7690
 3077SOL    HW119910   1.170   5.979   0.598  2.7727  0.0968 -0.0313
 3077SOL    HW219911   1.241   6.116   0.652 -0.9887  2.9236 -2.0010
 3078SOL     OW19912   4.300   3.694   5.426 -0.3215 -0.3550  0.5577
 3078SOL    HW119913   4.303   3.758   5.349  1.7518 -1.6934 -0.5276
 3078SOL    HW219914   4.228   3.626   5.410  0.7182 -1.1911 -0.6956
 3079SOL     OW19915   7.656   9.524   1.353  0.0527 -0.7600  0.0064
 3079SOL    HW119916   7.676   9.487   1.444 -0.0074  0.5079  0.5362
 3079SOL    HW219917   7.622   9.617   1.361  0.0118 -0.6466 -1.3234
 3080SOL     OW19918   5.374   9.259   4.758 -0.3497  0.7630  0.1486
 3080SOL    HW119919   5.434   9.184   4.782 -0.0206  1.2854  0.9716
 3080SOL    HW219920   5.428   9.335   4.721 -0.7764  0.2314 -1.6621
 3081SOL     OW19921   0.214   1.923   4.516 -0.6998  0.8061 -0.8343
 3081SOL    HW119922   0.243   2.018   4.524 -0.2482  0.6394 -0.4623
 3081SOL    HW219923   0.279   1.864   4.564 -1.5793  0.4145 -0.1104
 3082SOL     OW19924   6.867   0.426   2.212  0.1863 -0.1405  0.2170
 3082SOL    HW119925   6.900   0.471   2.295  0.1580  0.7969 -0.2723
 3082SOL    HW219926   6.946   0.397   2.157  0.2365  1.3722 -0.5594
 3083SOL     OW19927   2.308   5.942   3.005  0.2685  0.0931  0.0014
 3083SOL    HW119928   2.383   5.910   2.948 -0.7150  1.0483 -1.8645
 3083SOL    HW219929   2.336   6.025   3.054  0.8169 -0.2255  0.2275
 3084SOL     OW19930   0.628   2.953   1.298  0.4711  0.2654 -0.0231
 3084SOL    HW119931   0.645   2.997   1.386  2.1978 -0.5097  0.0476
 3084SOL    HW219932   0.597   2.859   1.314  2.6024 -0.4939 -0.2543
 3085SOL     OW19933   2.205   6.747   3.621  0.5757 -0.8375 -0.0076
 3085SOL    HW119934   2.244   6.736   3.530  1.4414 -0.3150  0.2996
 3085SOL    HW219935   2.277   6.741   3.690  0.3178  1.3474  0.4881
 3086SOL     OW19936   9.624   2.242   0.423  0.3056 -0.1566  0.8811
 3086SOL    HW119937   9.723   2.245   0.407  0.2519 -0.6914  0.4663
 3086SOL    HW219938   9.591   2.149   0.411 -0.9011  0.6520 -2.7624
 3087SOL     OW19939   0.790   9.810   5.363  0.3129  0.1587 -0.1712
 3087SOL    HW119940   0.733   9.891   5.351  1.1561  0.9416  1.0576
 3087SOL    HW219941   0.732   9.729   5.368 -0.5955  0.7919 -0.3277
 3088SOL     OW19942   9.475   6.799   3.865  0.5937 -0.1380  0.4128
 3088SOL    HW119943   9.420   6.745   3.801 -0.9080  0.3619  1.2499
 3088SOL    HW219944   9.567   6.811   3.828  0.2599 -1.3175 -0.8427
 3089SOL     OW19945   9.854   0.312   5.031 -0.0661 -0.0814  0.3463
 3089SOL    HW119946   9.941   0.331   4.986 -0.2975 -0.8409 -0.4345
 3089SOL    HW219947   9.863   0.229   5.087 -0.7620 -1.1964 -1.1458
 3090SOL     OW19948   0.746   5.759   2.358 -0.1637 -1.0216 -0.5216
 3090SOL    HW119949   0.743   5.816   2.276 -0.4232 -1.0942 -0.5644
 3090SOL    HW219950   0.745   5.817   2.440 -1.4976 -0.9939 -0.5523
 3091SOL     OW19951   8.726   8.122   0.960 -0.2451 -0.1633 -0.1686
 3091SOL    HW119952   8.664   8.168   1.024 -1.5802  1.1992 -2.3784
 3091SOL    HW219953   8.707   8.024   0.960 -0.8445 -0.0533  0.8455
 3092SOL     OW19954   9.817   1.355   4.955 -0.3426 -0.3872  0.4759
 3092SOL    HW119955   9.884   1.365   4.882 -2.1311  2.0749 -0.9001
 3092SOL    HW219956   9.749   1.286   4.928  0.4114 -1.3180  0.9364
 3093SOL     OW19957   7.346   9.247   2.850 -0.1284 -0.1073 -0.0814
 3093SOL    HW119958   7.404   9.322   2.817  0.0485 -0.3455 -0.3208
 3093SOL    HW219959   7.300   9.205   2.772 -2.4418  1.5645  0.3400
 3094SOL     OW19960   5.954   7.396   2.331 -0.0477 -0.5285  0.4019
 3094SOL    HW119961   6.005   7.316   2.363  0.8500 -0.2729 -0.3664
 3094SOL    HW219962   5.912   7.376   2.243 -0.5228 -0.4338  0.6060
 3095SOL     OW19963   8.438   8.485   1.226  0.0045 -0.4065 -0.2496
 3095SOL    HW119964   8.340   8.484   1.248  0.2840  0.7754  1.1745
 3095SOL    HW219965   8.457   8.560   1.163 -0.3064 -1.8849 -2.1453
 3096SOL     OW19966   3.883   2.030   4.227  0.5118  0.2761 -0.3471
 3096SOL    HW119967   3.978   2.011   4.253 -0.5674 -1.9061  2.1667
 3096SOL    HW219968   3.849   1.956   4.170 -1.1073 -1.4150  2.6799
 3097SOL     OW19969   0.629   8.002   3.137  0.5391 -0.4768  0.2491
 3097SOL    HW119970   0.726   7.988   3.156  0.8002  0.9587 -0.0036
 3097SOL    HW219971   0.617   8.034   3.043 -0.0025  1.3620  0.9296
 3098SOL     OW19972   4.106   4.016   1.039  0.3913 -0.1737 -0.7515
 3098SOL    HW119973   4.177   4.061   0.983 -1.0270  1.2251 -1.4770
 3098SOL    HW219974   4.027   4.077   1.047 -0.8032 -1.7878 -0.0935
 3099SOL     OW19975   0.839   3.166   4.529  0.4681  0.4173 -0.2719
 3099SOL    HW119976   0.864   3.186   4.434 -1.2906 -0.2185 -0.8927
 3099SOL    HW219977   0.778   3.237   4.563  1.9356  1.2138  0.7635
 3100SOL     OW19978   1.345   9.356   0.786 -0.1773  0.2159  0.0778
 3100SOL    HW119979   1.383   9.280   0.732  0.5572 -0.5070  1.5748
 3100SOL    HW219980   1.328   9.434   0.726  0.1070 -0.7513 -1.2957
 3101SOL     OW19981   8.893   6.305   3.048  0.3608 -0.0160  0.4909
 3101SOL    HW119982   8.894   6.231   2.981 -0.0127  0.3322  0.0890
 3101SOL    HW219983   8.972   6.365   3.032 -0.5442  0.9104 -0.6201
 3102SOL     OW19984   4.435   0.837   1.022 -0.0457  0.1429 -0.1514
 3102SOL    HW119985   4.488   0.784   1.087  0.5801  0.8895 -0.0469
 3102SOL    HW219986   4.464   0.816   0.929 -0.7964 -0.7696 -0.1832
 3103SOL     OW19987   0.588   9.476   0.292 -0.2425  0.2745  0.2790
 3103SOL    HW119988   0.646   9.513   0.219 -0.4883 -0.0203 -0.0668
 3103SOL    HW219989   0.529   9.548   0.328  0.3945  0.6004  0.6922
 3104SOL     OW19990   0.229   5.620   1.877 -0.0571 -0.0944 -0.6661
 3104SOL    HW119991   0.297   5.669   1.931 -0.5679 -0.5365  0.3922
 3104SOL    HW219992   0.151   5.681   1.858 -0.1737 -0.1462 -0.3449
 3105SOL     OW19993   0.561   2.384   4.264  0.1939 -0.2689 -0.3236
 3105SOL    HW119994   0.511   2.310   4.307 -0.2468  1.1626  1.7051
 3105SOL    HW219995   0.522   2.404   4.174 -0.7705 -1.3408 -0.1451
 3106SOL     OW19996   8.291   2.188   2.545  0.0276 -0.1892  0.3540
 3106SOL    HW119997   8.193   2.188   2.526  0.3782 -1.1318 -1.5618
 3106SOL    HW219998   8.339   2.237   2.473  1.1996 -1.9690 -0.1176
 3107SOL     OW19999   1.077   9.972   4.150 -0.7376  0.1994 -0.6915
 3107SOL    HW120000   1.071   9.976   4.249  0.0569 -1.8067 -0.5281
 3107SOL    HW220001   1.154  10.027   4.118  0.1844 -0.6716 -0.0087
 3108SOL     OW20002   6.386   0.760   1.199 -0.3194  0.0857  0.2452
 3108SOL    HW120003   6.402   0.716   1.111 -1.2874  1.8675 -0.8449
 3108SOL    HW220004   6.468   0.811   1.227 -0.4621  0.5989 -0.2678
 3109SOL     OW20005   0.458   2.832   1.704 -0.1420  0.3538  0.3981
 3109SOL    HW120006   0.482   2.754   1.646 -4.0245 -1.4199  1.0078
 3109SOL    HW220007   0.447   2.914   1.647  1.7044 -0.0137 -0.5453
 3110SOL     OW20008   2.875   1.776   0.168 -0.0864 -0.0584 -0.0274
 3110SOL    HW120009   2.804   1.816   0.227  0.7162  0.9596  0.2591
 3110SOL    HW220010   2.851   1.791   0.072 -1.3576 -1.6496  0.0138
 3111SOL     OW20011   5.457   7.113   1.972 -0.7760 -0.4454  0.3737
 3111SOL    HW120012   5.400   7.142   1.895 -1.3638 -0.1680  0.9127
 3111SOL    HW220013   5.461   7.185   2.041  2.5888  0.7044 -0.9327
 3112SOL     OW20014   1.840   3.434   4.230  0.0372 -0.2652  0.0273
 3112SOL    HW120015   1.842   3.522   4.276  1.8230  0.5427 -1.4975
 3112SOL    HW220016   1.878   3.364   4.290 -0.1540  0.2596  0.7597
 3113SOL     OW20017   6.900   0.175   0.802  0.2340  0.1108  0.5391
 3113SOL    HW120018   6.987   0.197   0.758 -0.3011 -0.1704 -0.6673
 3113SOL    HW220019   6.906   0.195   0.900  1.8333 -0.4411  0.5508
 3114SOL     OW20020   0.405   5.853   1.018  0.1525 -0.2798 -0.1877
 3114SOL    HW120021   0.398   5.814   1.110  1.2592 -0.3574 -0.1270
 3114SOL    HW220022   0.319   5.897   0.993 -0.2999 -0.6525  0.7056
 3115SOL     OW20023   0.119   1.404   4.902  0.4830  0.4685  0.1475
 3115SOL    HW120024   0.125   1.503   4.892  0.8583  0.4198 -0.1090
 3115SOL    HW220025   0.110   1.381   4.999  2.1995  0.6695  0.3766
 3116SOL     OW20026   2.130   5.282   0.479  0.0622  0.2065 -0.0515
 3116SOL    HW120027   2.106   5.225   0.558  1.7170  0.7536  0.8563
 3116SOL    HW220028   2.143   5.224   0.399  0.7453 -0.6082  0.6361
 3117SOL     OW20029   6.883   0.357   4.642  0.0579 -0.3299 -0.1054
 3117SOL    HW120030   6.797   0.354   4.693 -0.1168  0.0523 -0.3668
 3117SOL    HW220031   6.935   0.273   4.658 -1.2976 -1.4967 -1.5457
 3118SOL     OW20032   6.464   9.970   1.810  0.4942 -0.5273 -0.2491
 3118SOL    HW120033   6.445   9.984   1.712  0.6044 -1.1462 -0.3582
 3118SOL    HW220034   6.410   9.894   1.844  1.9310 -1.5778 -0.2899
 3119SOL     OW20035   4.786   4.266   0.746  0.0660 -0.0910  0.1713
 3119SOL    HW120036   4.747   4.198   0.683 -1.4544  1.9325 -1.1408
 3119SOL    HW220037   4.722   4.281   0.821  0.6243 -0.4564  0.7230
 3120SOL     OW20038   3.247   3.606   5.595 -0.6400  0.2841  0.5670
 3120SOL    HW120039   3.205   3.692   5.624 -0.4896  0.3325  0.6404
 3120SOL    HW220040   3.178   3.534   5.590 -0.7459  0.3845  0.6076
 3121SOL     OW20041   7.003   7.617   1.463  0.4691  0.2769 -0.4470
 3121SOL    HW120042   6.927   7.633   1.526 -2.3291  1.0222 -3.9063
 3121SOL    HW220043   7.048   7.530   1.487 -1.8106 -0.4659  1.2979
 3122SOL     OW20044   2.752   2.438   1.013  0.8606 -0.0716  0.3493
 3122SOL    HW120045   2.763   2.530   1.049 -0.8948  0.7562 -1.1438
 3122SOL    HW220046   2.659   2.426   0.979  2.0931 -1.1498 -2.8792
 3123SOL     OW20047   0.463   4.831   2.791 -0.2195 -0.5792  0.0047
 3123SOL    HW120048   0.545   4.886   2.776 -0.1586 -0.9007 -0.9161
 3123SOL    HW220049   0.486   4.751   2.847 -0.2747  0.2275  1.1987
 3124SOL     OW20050   9.159   7.143   1.165  0.4547 -0.9485 -0.1170
 3124SOL    HW120051   9.184   7.239   1.151  0.3231 -1.0562 -1.0952
 3124SOL    HW220052   9.074   7.123   1.117 -0.9014 -0.9083  2.1847
 3125SOL     OW20053   3.170   8.184   3.517  0.5573  0.2703  0.3521
 3125SOL    HW120054   3.265   8.191   3.487  0.1263 -2.4791 -1.8197
 3125SOL    HW220055   3.115   8.251   3.467  0.9902  0.4018  0.0422
 3126SOL     OW20056   9.762   9.853   4.964  0.3233 -0.4063 -0.0030
 3126SOL    HW120057   9.798   9.862   5.057 -2.0449 -1.3803  1.0459
 3126SOL    HW220058   9.710   9.935   4.940 -0.6390 -0.9512  0.2315
 3127SOL     OW20059   9.199   2.088   3.746  0.1990 -0.7058  0.2078
 3127SOL    HW120060   9.234   1.997   3.725 -0.0825 -0.4660 -1.3599
 3127SOL    HW220061   9.118   2.081   3.804 -0.6623 -1.5111 -1.0854
 3128SOL     OW20062   9.026   7.481   0.921  0.0438  0.2514 -0.1377
 3128SOL    HW120063   8.949   7.544   0.916 -0.3104 -0.1490  0.3062
 3128SOL    HW220064   9.110   7.530   0.896 -0.5646  0.2942 -2.2489
 3129SOL     OW20065   4.351   8.994   4.615 -0.6146  0.2960 -0.5238
 3129SOL    HW120066   4.269   8.948   4.649 -0.4951  0.6524  0.2327
 3129SOL    HW220067   4.394   9.046   4.688  1.2971 -1.3423 -0.4400
 3130SOL     OW20068   8.957   3.830   2.315  0.2379  0.3518  0.2803
 3130SOL    HW120069   8.883   3.774   2.352 -0.2355  0.4116 -0.5633
 3130SOL    HW220070   8.964   3.915   2.367 -0.4538  0.4622  0.1947
 3131SOL     OW20071   4.118   3.133   1.751  0.3459  0.0116 -0.2238
 3131SOL    HW120072   4.174   3.209   1.719 -1.6644  1.9648  0.7374
 3131SOL    HW220073   4.106   3.067   1.677  1.3675  1.0670 -1.3637
 3132SOL     OW20074   3.058   4.306   1.461 -0.5458 -0.4535  0.9061
 3132SOL    HW120075   3.086   4.359   1.381 -0.6354  1.0820  1.8800
 3132SOL    HW220076   3.009   4.365   1.525  0.6501 -1.3261  2.6875
 3133SOL     OW20077   1.722   3.411   5.397  0.2863  0.0376 -0.2042
 3133SOL    HW120078   1.690   3.322   5.364  0.0185  0.4092 -0.9426
 3133SOL    HW220079   1.698   3.482   5.331 -0.0278  0.7500  0.6712
 3134SOL     OW20080   9.614   9.874   2.416 -0.4222 -0.1166  0.0957
 3134SOL    HW120081   9.525   9.893   2.375  0.4734  2.1269 -0.8701
 3134SOL    HW220082   9.614   9.781   2.454 -2.7670 -0.5698 -0.9286
 3135SOL     OW20083   9.506   1.218   2.269 -0.3411  0.3678  0.3355
 3135SOL    HW120084   9.473   1.219   2.174 -1.2337 -2.0229  0.5707
 3135SOL    HW220085   9.520   1.311   2.301  1.4586  1.1745 -2.6450
 3136SOL     OW20086   4.107   3.085   5.615  0.5525  0.1747  0.2265
 3136SOL    HW120087   4.009   3.070   5.624  0.4463  0.6662 -0.1084
 3136SOL    HW220088   4.129   3.180   5.636  1.3865 -0.7034  3.5851
 3137SOL     OW20089   0.176   4.192   1.511 -0.7886 -1.0703 -0.2976
 3137SOL    HW120090   0.250   4.256   1.534  0.2305 -2.5829  0.7556
 3137SOL    HW220091   0.192   4.105   1.558 -2.4008 -1.9490 -1.3431
 3138SOL     OW20092   2.282   9.376   4.508  0.3024 -0.0637 -0.1320
 3138SOL    HW120093   2.365   9.429   4.523  0.0275 -0.1316  1.6828
 3138SOL    HW220094   2.202   9.434   4.520  0.0411 -0.5247  0.3857
 3139SOL     OW20095   8.672   0.993   5.551  0.2832 -0.0238  0.1140
 3139SOL    HW120096   8.743   0.964   5.616  0.3660 -1.6431 -0.6788
 3139SOL    HW220097   8.597   1.037   5.601  1.0775  0.1865  1.1348
 3140SOL     OW20098   1.137   8.061   3.877 -0.0234  0.0522 -0.6527
 3140SOL    HW120099   1.153   8.158   3.859 -1.0631  0.3679  0.1427
 3140SOL    HW220100   1.224   8.012   3.872  0.6090  1.1342 -0.4026
 3141SOL     OW20101   8.339   4.954   2.492  0.3168  0.3463 -0.5529
 3141SOL    HW120102   8.307   5.049   2.486  1.6621  0.8866  0.4796
 3141SOL    HW220103   8.355   4.930   2.588  1.9233 -0.2509 -0.9438
 3142SOL     OW20104   2.700   8.781   0.180 -0.0444  0.1297  0.1036
 3142SOL    HW120105   2.697   8.719   0.101  1.5157  0.2880 -0.0848
 3142SOL    HW220106   2.608   8.789   0.219 -0.6602 -0.6383 -1.1611
 3143SOL     OW20107   4.688   2.550   4.147 -0.0148 -0.0060 -0.1250
 3143SOL    HW120108   4.739   2.520   4.228 -0.7906  2.3111  1.2996
 3143SOL    HW220109   4.590   2.542   4.164 -0.1843 -0.7514 -1.3685
 3144SOL     OW20110   2.417   1.962   5.271 -0.2421  0.0052 -0.3676
 3144SOL    HW120111   2.363   1.959   5.355  0.3957 -2.8529 -0.0013
 3144SOL    HW220112   2.395   1.883   5.215  2.7583 -0.6632 -0.6969
 3145SOL     OW20113   9.388   0.424   0.227  0.3685 -0.0039 -0.1025
 3145SOL    HW120114   9.327   0.345   0.226  0.1438  0.1532  0.8382
 3145SOL    HW220115   9.371   0.480   0.147 -1.5994  0.6991  0.7812
 3146SOL     OW20116   0.741   8.386   1.923 -0.0206  0.2477  0.1223
 3146SOL    HW120117   0.702   8.294   1.924 -0.7344  0.5281  2.8636
 3146SOL    HW220118   0.839   8.380   1.942 -0.5356  0.1810  2.9991
 3147SOL     OW20119   2.315   6.601   2.714  0.0766 -0.0046 -0.2460
 3147SOL    HW120120   2.310   6.699   2.732  2.1455  0.1812 -0.5235
 3147SOL    HW220121   2.268   6.551   2.787 -1.6334  1.2087 -0.4941
 3148SOL     OW20122   4.858   9.386   2.142 -0.6193 -0.2102 -0.2829
 3148SOL    HW120123   4.802   9.306   2.118 -2.8073  0.7158  1.4947
 3148SOL    HW220124   4.807   9.470   2.120  0.5897  0.6750  0.2611
 3149SOL     OW20125   2.837   5.513   1.777  0.7948  0.5814  0.0436
 3149SOL    HW120126   2.758   5.477   1.727  1.5088  0.1556 -0.8027
 3149SOL    HW220127   2.855   5.455   1.856  0.1016  0.8340  0.3902
 3150SOL     OW20128   0.947   4.849   1.223 -0.3158 -0.0397  0.5039
 3150SOL    HW120129   0.895   4.885   1.145  0.4309 -0.4729 -0.1887
 3150SOL    HW220130   0.909   4.887   1.308 -0.8715  0.7455 -0.0903
 3151SOL     OW20131   6.888   9.891   3.583  0.5068  0.3809 -0.2532
 3151SOL    HW120132   6.864   9.977   3.539 -0.5958 -0.1697 -0.7408
 3151SOL    HW220133   6.831   9.817   3.548 -0.5453 -0.0517  2.2245
 3152SOL     OW20134   8.341   2.550   1.985  0.1881  0.4068  0.1536
 3152SOL    HW120135   8.430   2.552   1.940  0.9046  2.1015  1.5906
 3152SOL    HW220136   8.302   2.643   1.986 -0.4552  0.1413  1.7561
 3153SOL     OW20137   7.819   8.779   1.236  0.2272  0.0692  0.3009
 3153SOL    HW120138   7.755   8.742   1.304  1.4835 -0.9845  0.9276
 3153SOL    HW220139   7.810   8.726   1.151 -0.0531  0.2137  0.2397
 3154SOL     OW20140   3.817   7.317   1.651 -0.2673 -0.5279  0.5066
 3154SOL    HW120141   3.752   7.351   1.583  0.9861  0.1003 -0.3986
 3154SOL    HW220142   3.841   7.222   1.629  0.1248 -0.3303  0.0886
 3155SOL     OW20143   4.669   1.384   4.281 -0.1163  0.0674 -0.7032
 3155SOL    HW120144   4.628   1.397   4.191  0.4822 -0.1627 -1.0123
 3155SOL    HW220145   4.768   1.389   4.273  0.0183 -1.7265 -0.3569
 3156SOL     OW20146   4.451   8.277   2.663  0.4778  0.1727  0.2482
 3156SOL    HW120147   4.378   8.334   2.700  0.3032 -0.7019  1.2645
 3156SOL    HW220148   4.436   8.182   2.689  0.4126 -0.4401 -2.0071
 3157SOL     OW20149   3.418   8.822   3.815 -0.1992 -0.4204  0.1526
 3157SOL    HW120150   3.346   8.891   3.815 -0.4352 -0.6189 -1.8143
 3157SOL    HW220151   3.377   8.732   3.798  0.5313 -0.4902 -1.2926
 3158SOL     OW20152   2.775   4.647   0.459  0.0583  0.3262  0.1470
 3158SOL    HW120153   2.871   4.671   0.442 -0.5482  2.5601 -0.3182
 3158SOL    HW220154   2.731   4.623   0.372  0.2494 -0.8622  0.3843
 3159SOL     OW20155   9.101   7.911   3.749 -0.3050  0.0244  0.9176
 3159SOL    HW120156   9.196   7.891   3.725 -0.0319  2.6288 -0.3713
 3159SOL    HW220157   9.098   7.965   3.833 -0.6174  0.0983  0.8623
 3160SOL     OW20158   2.467   1.893   0.211  0.7319 -0.5318  0.2138
 3160SOL    HW120159   2.519   1.860   0.290  0.2428 -0.8247  0.4122
 3160SOL    HW220160   2.529   1.943   0.150  0.9224  0.4692  1.2188
 3161SOL     OW20161   4.819   8.480   2.860  0.1183  0.3651  0.4351
 3161SOL    HW120162   4.729   8.521   2.843 -0.4689 -0.6204  1.0779
 3161SOL    HW220163   4.821   8.441   2.952  1.9037  2.1439  1.1711
 3162SOL     OW20164   3.604   4.226   3.974 -0.1497 -0.1513 -0.5229
 3162SOL    HW120165   3.580   4.317   4.006 -1.9292 -0.2237 -1.5723
 3162SOL    HW220166   3.690   4.197   4.017  0.0721  1.7133  0.3502
 3163SOL     OW20167   5.506   0.634   1.476  0.2771  0.4747 -0.1509
 3163SOL    HW120168   5.595   0.662   1.513  0.0052  0.2120  0.7178
 3163SOL    HW220169   5.497   0.666   1.382  0.8718  1.3883  0.1001
 3164SOL     OW20170   7.220   7.972   3.392 -0.4781 -0.0482  0.6969
 3164SOL    HW120171   7.277   8.004   3.316 -0.7481 -0.9244  0.1111
 3164SOL    HW220172   7.176   8.049   3.436  0.0175  0.5115  0.2235
 3165SOL     OW20173   2.707   3.361   2.282  0.2754  0.0856  0.2080
 3165SOL    HW120174   2.786   3.300   2.284 -0.1212 -0.4133  1.2431
 3165SOL    HW220175   2.717   3.427   2.208  1.9978  0.4597  0.7547
 3166SOL     OW20176   9.552   8.278   3.557  0.7052  0.0502 -0.6840
 3166SOL    HW120177   9.489   8.201   3.572  0.2424  0.5243 -0.1493
 3166SOL    HW220178   9.630   8.269   3.619  0.0873  0.6064  0.1978
 3167SOL     OW20179   1.940   0.226   5.625 -0.0145 -0.1817  0.0053
 3167SOL    HW120180   1.958   0.149   5.686  3.2566 -0.9138 -1.8136
 3167SOL    HW220181   1.842   0.228   5.602 -0.3022 -3.2390  0.7802
 3168SOL     OW20182   9.780   9.444   3.099 -0.3898 -0.3379 -0.3398
 3168SOL    HW120183   9.805   9.419   3.006 -1.0317  2.3189 -1.2626
 3168SOL    HW220184   9.745   9.538   3.101 -0.7797 -0.4790  2.5085
 3169SOL     OW20185   4.010   2.134   1.220  0.0335  0.0916  0.0388
 3169SOL    HW120186   4.083   2.073   1.252  2.3074  2.8356  0.3157
 3169SOL    HW220187   3.964   2.174   1.298 -0.4669 -0.1245 -0.1445
 3170SOL     OW20188   3.129   6.717   3.373  0.0801 -0.4815 -0.0181
 3170SOL    HW120189   3.116   6.777   3.294  1.0919  0.7068  0.6969
 3170SOL    HW220190   3.048   6.661   3.386 -0.7464  0.4805 -0.9141
 3171SOL     OW20191   0.429   3.013   3.556 -0.2028 -0.2125  0.3046
 3171SOL    HW120192   0.514   3.008   3.609 -0.0747 -1.6042 -0.0266
 3171SOL    HW220193   0.352   3.031   3.618  0.3947  1.6808  0.5351
 3172SOL     OW20194   1.532   7.016   3.458 -0.3153 -0.0067 -0.1983
 3172SOL    HW120195   1.608   6.951   3.459  0.4981  0.9423  0.0701
 3172SOL    HW220196   1.449   6.971   3.491  0.1356 -1.0343 -0.4545
 3173SOL     OW20197   9.860   8.973   5.330  0.3668 -0.6019 -0.0693
 3173SOL    HW120198   9.930   8.991   5.399 -0.1186  1.8356 -0.1385
 3173SOL    HW220199   9.773   8.951   5.374  0.7311 -1.8348  0.0433
 3174SOL     OW20200   6.986   0.126   1.925 -0.6535 -0.0527 -0.4002
 3174SOL    HW120201   7.026   0.093   1.839 -0.8486 -1.0198 -0.1304
 3174SOL    HW220202   6.983   0.050   1.991  0.6680  0.9691  0.8925
 3175SOL     OW20203   6.760   7.122   2.883 -0.3554  0.0302  0.7068
 3175SOL    HW120204   6.685   7.188   2.869  0.4292  0.5002 -1.4126
 3175SOL    HW220205   6.722   7.034   2.911 -1.6234  0.5209  0.5607
 3176SOL     OW20206   1.197   5.929   1.439 -0.6113  0.5375  0.4090
 3176SOL    HW120207   1.166   5.871   1.364  0.7114 -0.5394  0.6698
 3176SOL    HW220208   1.137   6.009   1.447 -0.1209  1.2650 -2.5238
 3177SOL     OW20209   5.488   7.979   1.326  0.4186  0.3585 -0.6262
 3177SOL    HW120210   5.572   7.934   1.294 -0.0869  0.1815 -1.7107
 3177SOL    HW220211   5.422   7.983   1.251 -1.0478 -0.6841  0.6043
 3178SOL     OW20212   7.390   7.903   2.986 -0.1772 -0.0337  0.4797
 3178SOL    HW120213   7.331   7.860   3.054 -1.7450  1.3219 -0.0020
 3178SOL    HW220214   7.421   7.992   3.020  0.8008 -0.3009  0.3111
 3179SOL     OW20215   4.211   8.386   1.643 -0.6868 -0.2544  0.4932
 3179SOL    HW120216   4.176   8.457   1.583 -0.4165  0.3140  1.0096
 3179SOL    HW220217   4.309   8.376   1.629 -1.1636 -2.5081 -1.6518
 3180SOL     OW20218   2.952   5.726   1.662  0.0032  0.8559  0.2950
 3180SOL    HW120219   2.970   5.722   1.563  1.0786  2.0294  0.4357
 3180SOL    HW220220   2.912   5.640   1.692 -0.0739  0.3871 -1.1206
 3181SOL     OW20221   0.303   9.491   0.897 -0.1338 -0.3631 -0.3431
 3181SOL    HW120222   0.235   9.559   0.869  0.3461  0.2678  0.0151
 3181SOL    HW220223   0.387   9.537   0.926  0.9330 -1.1618 -2.0233
 3182SOL     OW20224   3.017   8.073   5.411 -0.4565  0.6843 -0.1345
 3182SOL    HW120225   2.977   8.044   5.498  0.2511 -1.5360 -0.5237
 3182SOL    HW220226   2.948   8.070   5.339  0.0831 -2.0841 -0.5839
 3183SOL     OW20227   2.080   5.058   0.669 -0.2271 -0.3521  0.1110
 3183SOL    HW120228   2.012   5.112   0.718 -0.4308 -1.1255  0.6870
 3183SOL    HW220229   2.097   4.972   0.718  0.9670 -0.2819 -0.1660
 3184SOL     OW20230   0.874   8.593   4.089 -0.5676 -0.2877  0.1243
 3184SOL    HW120231   0.850   8.505   4.129 -0.2727  0.1597  1.3152
 3184SOL    HW220232   0.812   8.613   4.013 -1.4712 -0.9341  0.6780
 3185SOL     OW20233   9.096   2.888   1.146 -0.1861 -0.0536  0.6213
 3185SOL    HW120234   9.019   2.855   1.091 -1.2207  0.7715  1.5483
 3185SOL    HW220235   9.076   2.981   1.179  1.5094  0.4401  0.2989
 3186SOL     OW20236   6.362   0.545   2.332  0.6685 -0.5566  0.1685
 3186SOL    HW120237   6.338   0.549   2.429  0.8395  0.2473  0.1805
 3186SOL    HW220238   6.332   0.458   2.294  0.3799 -0.7751  0.8841
 3187SOL     OW20239   1.037   9.482   0.382 -0.1882 -0.0822  0.7870
 3187SOL    HW120240   1.095   9.496   0.463  1.3802  0.9021 -0.4540
 3187SOL    HW220241   0.996   9.570   0.355 -1.4549 -0.5850  1.0568
 3188SOL     OW20242   3.836   3.472   5.162  0.3318 -0.0105  0.7262
 3188SOL    HW120243   3.761   3.496   5.100  1.6083  0.1952 -0.7578
 3188SOL    HW220244   3.800   3.418   5.238 -1.1008 -1.1144 -0.6957
 3189SOL     OW20245   3.830   6.957   5.025  0.0984 -0.0400 -0.5214
 3189SOL    HW120246   3.856   6.925   4.934  0.2302 -0.7355 -0.2403
 3189SOL    HW220247   3.870   7.047   5.041  0.3311 -0.0517 -1.0355
 3190SOL     OW20248   7.669   6.677   3.157  0.1139 -0.0688 -0.0142
 3190SOL    HW120249   7.626   6.766   3.146 -0.3331 -0.4023 -1.0553
 3190SOL    HW220250   7.725   6.676   3.240 -0.7424  0.8252  0.5772
 3191SOL     OW20251   1.733   7.469   0.985 -0.2398 -0.2574 -0.0816
 3191SOL    HW120252   1.799   7.545   0.985  0.0874 -0.5347 -0.9755
 3191SOL    HW220253   1.696   7.458   1.077 -0.8905  1.5011 -0.0970
 3192SOL     OW20254   5.769   8.313   3.480 -0.2136 -0.0599  0.7594
 3192SOL    HW120255   5.863   8.295   3.453 -1.0923 -0.4269 -2.2299
 3192SOL    HW220256   5.714   8.231   3.466 -1.5024  0.9161  0.0322
 3193SOL     OW20257   0.371   5.279   2.812  0.5356 -0.4226  0.4680
 3193SOL    HW120258   0.449   5.316   2.761 -0.2761  0.5179 -0.0945
 3193SOL    HW220259   0.384   5.297   2.910  2.0936 -2.2327  0.6347
 3194SOL     OW20260   3.278   7.011   0.569 -0.3220  0.0529  0.1439
 3194SOL    HW120261   3.365   6.990   0.612  0.7742  2.2787 -0.9040
 3194SOL    HW220262   3.204   7.005   0.637  0.8005 -0.6225  1.3157
 3195SOL     OW20263   4.602   8.550   2.548 -0.2042  0.6143 -0.3592
 3195SOL    HW120264   4.541   8.494   2.491 -1.6389 -0.1436  1.8556
 3195SOL    HW220265   4.557   8.636   2.570  0.5768  1.1473 -0.8169
 3196SOL     OW20266   3.816   9.324   4.979  0.3111  0.3403  0.3750
 3196SOL    HW120267   3.762   9.307   4.897  2.8084 -0.5802 -1.1490
 3196SOL    HW220268   3.828   9.422   4.992  0.1534  0.4864 -0.5415
 3197SOL     OW20269   0.646   8.059   0.227 -0.2384  0.0631 -0.7557
 3197SOL    HW120270   0.726   8.050   0.168  0.3601 -1.4916  0.2461
 3197SOL    HW220271   0.675   8.060   0.323 -1.3263  0.6826 -0.4233
 3198SOL     OW20272   3.787   6.422   1.896  0.4177 -0.0700  1.4888
 3198SOL    HW120273   3.861   6.429   1.829 -0.4379  2.3145  0.7404
 3198SOL    HW220274   3.711   6.370   1.856  0.6085 -0.1822  1.2690
 3199SOL     OW20275   3.433   3.042   5.572 -0.0365  0.1428  0.3140
 3199SOL    HW120276   3.345   3.033   5.526  0.2792  0.5322 -0.3759
 3199SOL    HW220277   3.463   2.953   5.606 -1.4792  0.2923  2.0106
 3200SOL     OW20278   3.509   2.530   1.357  0.1011 -0.4216 -0.6588
 3200SOL    HW120279   3.472   2.463   1.293 -2.6459  1.6401 -1.3126
 3200SOL    HW220280   3.495   2.498   1.451  0.7255 -1.7109 -0.9993
 3201SOL     OW20281   9.893   1.845   1.581 -0.5879 -0.3802 -0.2604
 3201SOL    HW120282   9.859   1.758   1.546 -0.2434 -0.7970  0.4328
 3201SOL    HW220283   9.982   1.831   1.624 -0.7403  0.2335  0.2619
 3202SOL     OW20284   2.606   8.774   1.410  0.4324  0.0996  0.4050
 3202SOL    HW120285   2.601   8.740   1.316  2.2166  2.2098 -0.4944
 3202SOL    HW220286   2.532   8.840   1.425  0.6429  0.3756  0.2287
 3203SOL     OW20287   2.081   8.965   4.622 -0.5873 -0.3077  0.8437
 3203SOL    HW120288   2.061   8.915   4.707 -0.4765  0.7561  1.4998
 3203SOL    HW220289   2.001   8.962   4.563 -1.4342  0.7711  1.9016
 3204SOL     OW20290   9.611   3.704   1.974  0.6375  0.3733  0.0571
 3204SOL    HW120291   9.625   3.637   2.046  1.6174  0.3436 -0.1546
 3204SOL    HW220292   9.514   3.731   1.971  0.5271  0.1075  1.1332
 3205SOL     OW20293   9.598   0.568   3.814 -0.5102 -0.1061  0.4020
 3205SOL    HW120294   9.647   0.650   3.845 -1.1946  0.5809 -0.3038
 3205SOL    HW220295   9.519   0.552   3.873  0.7531 -1.4497  1.7931
 3206SOL     OW20296   5.698   0.193   2.436 -0.2461 -0.1124  0.3724
 3206SOL    HW120297   5.640   0.112   2.431 -1.1364  0.6123 -1.6928
 3206SOL    HW220298   5.714   0.228   2.343  0.7989  1.5863  1.1740
 3207SOL     OW20299   7.411   8.896   4.471  0.4472  0.3836  0.3739
 3207SOL    HW120300   7.459   8.905   4.384  1.0845  2.0162  0.8765
 3207SOL    HW220301   7.478   8.895   4.546 -0.2133  1.2130  0.9839
 3208SOL     OW20302   3.479   2.806   2.956  0.3756  0.4423  0.0815
 3208SOL    HW120303   3.485   2.800   2.856 -0.4914 -1.8709  0.1625
 3208SOL    HW220304   3.419   2.882   2.981 -0.0347  0.5408 -1.1688
 3209SOL     OW20305   8.696   6.761   2.345 -0.0719 -0.0018 -0.6978
 3209SOL    HW120306   8.784   6.715   2.362 -0.0962  0.4304  0.6322
 3209SOL    HW220307   8.621   6.699   2.371 -0.1034  0.8369  1.3127
 3210SOL     OW20308   2.942   3.591   5.525  0.4834  0.5160 -0.3842
 3210SOL    HW120309   2.863   3.532   5.542  0.1856  0.2850 -2.5436
 3210SOL    HW220310   2.940   3.624   5.431  1.7369  2.3622  0.1959
 3211SOL     OW20311   9.773   0.754   1.797 -0.1737  0.4175 -0.6522
 3211SOL    HW120312   9.698   0.821   1.805 -0.7107 -0.4689  2.7946
 3211SOL    HW220313   9.859   0.803   1.784 -0.4923  1.9219  2.2740
 3212SOL     OW20314   9.228   8.283   3.426  0.2318  0.2603 -0.1498
 3212SOL    HW120315   9.296   8.217   3.457 -0.5039  0.0620  1.0734
 3212SOL    HW220316   9.233   8.292   3.326  2.9763  1.2788  0.0447
 3213SOL     OW20317   6.168   0.028   3.266 -0.7221 -0.3193  0.4643
 3213SOL    HW120318   6.218   0.055   3.348 -1.5637 -1.5200  1.3730
 3213SOL    HW220319   6.093   0.093   3.250 -0.4977 -0.0295  0.5933
 3214SOL     OW20320   2.107   7.763   5.631  0.3222  0.0533 -0.1346
 3214SOL    HW120321   2.072   7.807   5.713  0.7006 -1.4505  0.8544
 3214SOL    HW220322   2.073   7.669   5.626  2.4544 -0.7534 -0.2439
 3215SOL     OW20323   3.599   0.382   1.025 -0.6236 -0.1745 -0.2027
 3215SOL    HW120324   3.563   0.311   1.085  0.5514 -0.7534 -0.1679
 3215SOL    HW220325   3.625   0.462   1.080 -0.7973 -0.1893 -0.0980
 3216SOL     OW20326   3.483   8.025   4.643  0.2725 -0.0937  0.1319
 3216SOL    HW120327   3.512   7.930   4.658 -0.1414 -0.2424  0.0045
 3216SOL    HW220328   3.450   8.035   4.549 -0.9004 -0.1474  0.5224
 3217SOL     OW20329   7.466   9.061   1.351 -0.5017 -0.3723  0.0960
 3217SOL    HW120330   7.495   9.150   1.318 -0.7125  0.4789  2.1348
 3217SOL    HW220331   7.507   9.043   1.440 -2.0233 -1.4611  0.6034
 3218SOL     OW20332   3.179   4.658   0.850 -0.9648  0.5151 -0.4823
 3218SOL    HW120333   3.245   4.628   0.782  1.3112 -0.2326  1.9563
 3218SOL    HW220334   3.217   4.735   0.902 -1.3875 -0.7627  1.8300
 3219SOL     OW20335   0.051   2.710   3.437  0.3661 -0.1826  0.7648
 3219SOL    HW120336  -0.016   2.671   3.500  0.6480  0.7655  1.6665
 3219SOL    HW220337   0.004   2.745   3.356 -0.1853  0.0756  1.1921
 3220SOL     OW20338   2.475   3.385   3.751  0.3839  0.6521  0.4942
 3220SOL    HW120339   2.533   3.329   3.691 -2.1356 -1.9639  0.3867
 3220SOL    HW220340   2.492   3.482   3.733  1.9998 -0.0740 -2.1481
 3221SOL     OW20341   9.106   1.207   1.368  0.3400 -0.2427  0.2719
 3221SOL    HW120342   9.032   1.201   1.434  0.2959  1.9346  0.4323
 3221SOL    HW220343   9.070   1.193   1.276  0.1789 -1.8576  0.5578
 3222SOL     OW20344   9.773   7.867   4.180 -0.5882  0.3568 -0.2842
 3222SOL    HW120345   9.805   7.946   4.128 -1.8406  0.7259 -0.4970
 3222SOL    HW220346   9.745   7.795   4.117 -0.2058  0.0472 -0.1002
 3223SOL     OW20347   3.505   1.924   4.506  0.3773 -0.4441 -0.5285
 3223SOL    HW120348   3.523   1.842   4.451 -0.8067 -1.9896  1.3075
 3223SOL    HW220349   3.408   1.948   4.499  0.1970 -0.6938  0.8677
 3224SOL     OW20350   9.982   6.346   3.514 -0.9542 -0.4084 -0.5875
 3224SOL    HW120351   9.920   6.339   3.436 -1.4335 -0.1968 -0.2292
 3224SOL    HW220352   9.939   6.400   3.586 -0.1810  0.0910 -0.5021
 3225SOL     OW20353   4.759   2.689   0.809  0.0199  0.1540 -0.3918
 3225SOL    HW120354   4.804   2.690   0.719 -1.4809 -0.9101 -1.1857
 3225SOL    HW220355   4.693   2.764   0.814 -0.6913 -0.4483 -0.6144
 3226SOL     OW20356   8.554   6.647   1.287  0.1137  0.2718 -0.3079
 3226SOL    HW120357   8.571   6.642   1.188 -1.4890  1.3438 -0.6675
 3226SOL    HW220358   8.548   6.743   1.314 -0.8565 -0.0344  0.5731
 3227SOL     OW20359   2.325   2.863   1.413 -0.5010 -0.3415  0.5959
 3227SOL    HW120360   2.365   2.936   1.468 -1.5064  0.7109 -0.0586
 3227SOL    HW220361   2.249   2.820   1.463 -0.7322 -0.0899  0.4610
 3228SOL     OW20362   8.117   1.453   4.563  0.0813  0.0720  0.2023
 3228SOL    HW120363   8.205   1.485   4.529  0.9064 -1.9026  0.4114
 3228SOL    HW220364   8.083   1.516   4.633  0.5837  1.6551 -0.9431
 3229SOL     OW20365   3.399   4.079   5.378  0.1764  1.1267  0.8361
 3229SOL    HW120366   3.445   4.017   5.442  1.3039  1.1670  0.0799
 3229SOL    HW220367   3.315   4.113   5.419 -0.5732 -1.0949  1.1866
 3230SOL     OW20368   4.711   0.639   2.598 -0.3402  0.5699  0.4546
 3230SOL    HW120369   4.726   0.652   2.696  2.0212 -0.4989  0.2825
 3230SOL    HW220370   4.786   0.585   2.560 -0.8013  1.6507 -2.1071
 3231SOL     OW20371   5.858   7.592   3.768  0.0130  0.2219  0.4489
 3231SOL    HW120372   5.937   7.563   3.822 -1.5901 -1.4211  1.9861
 3231SOL    HW220373   5.775   7.585   3.823 -1.4129  0.4289 -1.5983
 3232SOL     OW20374   2.891   2.615   5.043  0.7470 -0.1962 -0.0872
 3232SOL    HW120375   2.810   2.642   5.095  0.6563  0.3695 -0.5150
 3232SOL    HW220376   2.959   2.578   5.106  0.6692  0.5489  0.4546
 3233SOL     OW20377   2.563   9.361   3.310 -0.1445 -0.4962 -0.1284
 3233SOL    HW120378   2.517   9.447   3.335 -1.5699 -1.3362  0.2136
 3233SOL    HW220379   2.657   9.380   3.283  0.8058  0.7680  3.6779
 3234SOL     OW20380   3.719   9.670   0.594 -0.3708  0.4049  0.5022
 3234SOL    HW120381   3.635   9.725   0.599 -0.7815 -0.2285  0.7080
 3234SOL    HW220382   3.749   9.664   0.498 -0.3229  0.9919  0.4830
 3235SOL     OW20383   4.076   6.697   2.072  0.0037 -0.2186  0.1413
 3235SOL    HW120384   4.062   6.603   2.101 -0.9260  0.3407  1.5881
 3235SOL    HW220385   4.004   6.755   2.110  0.3263  1.0087 -1.0735
 3236SOL     OW20386   0.162   0.663   1.470  0.2656  0.0544  0.0365
 3236SOL    HW120387   0.149   0.698   1.377 -0.1601  1.2915  0.5493
 3236SOL    HW220388   0.232   0.591   1.469  1.0970  0.8511 -1.0672
 3237SOL     OW20389   2.860   2.637   0.337  0.7268  0.0495  0.3449
 3237SOL    HW120390   2.926   2.681   0.275  0.5342 -0.5977 -0.3287
 3237SOL    HW220391   2.843   2.697   0.415  1.5830  0.5273  0.1727
 3238SOL     OW20392   1.643   3.812   0.302  0.2501  0.2553 -0.2395
 3238SOL    HW120393   1.623   3.722   0.339 -0.1041  0.5660  0.3318
 3238SOL    HW220394   1.707   3.860   0.363  1.1877  0.0222 -1.0335
 3239SOL     OW20395   3.526   0.807   5.523  0.3376  0.0377 -0.3180
 3239SOL    HW120396   3.617   0.777   5.494  0.2324  0.6258 -1.2774
 3239SOL    HW220397   3.500   0.889   5.472 -0.2053  0.6121  0.8518
 3240SOL     OW20398   1.453   7.805   1.062  0.1920 -0.2019  0.3179
 3240SOL    HW120399   1.421   7.712   1.041  0.2134 -0.1439  0.0290
 3240SOL    HW220400   1.519   7.801   1.137 -1.4208 -0.2071  1.7914
 3241SOL     OW20401   3.892   4.930   0.696  0.3860  0.1503  0.4183
 3241SOL    HW120402   3.973   4.880   0.666 -0.2859 -0.0519 -1.0753
 3241SOL    HW220403   3.822   4.865   0.726  0.6639  0.3139  1.4267
 3242SOL     OW20404   1.374   2.276   2.428  0.4218 -0.3294 -0.0927
 3242SOL    HW120405   1.362   2.195   2.485 -0.5493  0.8915  1.4793
 3242SOL    HW220406   1.287   2.326   2.422  0.4870 -0.4687 -2.7048
 3243SOL     OW20407   5.231   9.719   1.095 -0.4294  0.0275 -0.1030
 3243SOL    HW120408   5.313   9.744   1.146 -0.0592 -0.1612 -0.6117
 3243SOL    HW220409   5.220   9.781   1.017 -0.9580  0.2697  0.1563
 3244SOL     OW20410   1.703   6.705   2.251 -0.0354  0.1880 -0.2337
 3244SOL    HW120411   1.726   6.621   2.202 -1.6358 -0.5448  0.2349
 3244SOL    HW220412   1.718   6.784   2.191  0.1820 -0.5304 -1.1344
 3245SOL     OW20413   9.130   9.343   2.877 -0.2941 -0.1499  0.3489
 3245SOL    HW120414   9.110   9.273   2.809 -0.3645  1.9418 -1.8433
 3245SOL    HW220415   9.205   9.312   2.935 -0.7151 -2.2688 -0.2022
 3246SOL     OW20416   1.838   5.096   0.969 -0.0598 -1.0657 -0.1527
 3246SOL    HW120417   1.798   5.023   1.025 -0.2131 -0.1647  0.9349
 3246SOL    HW220418   1.915   5.136   1.018 -0.0414 -0.4389 -0.6991
 3247SOL     OW20419   7.881   8.191   4.614  0.2273  0.3667 -0.0000
 3247SOL    HW120420   7.878   8.101   4.658  1.6910  0.9954  1.4419
 3247SOL    HW220421   7.971   8.205   4.572 -0.3462  0.7547 -1.1274
 3248SOL     OW20422   7.959   7.636   1.429  0.0884 -0.6346 -0.4148
 3248SOL    HW120423   8.043   7.632   1.375  0.4603 -1.4396  0.2114
 3248SOL    HW220424   7.980   7.618   1.525 -0.0048  4.3099  0.6645
 3249SOL     OW20425   8.399   0.417   0.416 -0.2108 -0.0270  0.0433
 3249SOL    HW120426   8.326   0.399   0.350  0.0925  1.1046 -0.6148
 3249SOL    HW220427   8.367   0.393   0.508 -1.4045  0.4361 -0.2423
 3250SOL     OW20428   2.717   9.613   4.576  0.1875 -0.1914  0.2907
 3250SOL    HW120429   2.746   9.518   4.588  0.6368 -0.2720 -1.3471
 3250SOL    HW220430   2.784   9.673   4.621  1.3698 -0.5219 -0.9976
 3251SOL     OW20431   1.307   7.667   1.412  0.1349 -0.2728 -0.6681
 3251SOL    HW120432   1.242   7.671   1.336  1.2946  1.9575 -1.5748
 3251SOL    HW220433   1.277   7.729   1.484  0.0925 -0.8987 -0.1478
 3252SOL     OW20434   7.808   7.858   1.536 -0.3813  0.2616 -0.5145
 3252SOL    HW120435   7.845   7.769   1.509  0.3746  0.5532 -0.4558
 3252SOL    HW220436   7.860   7.931   1.492 -0.4278  0.6914  0.1247
 3253SOL     OW20437   1.258   8.644   0.028  0.2745 -0.1315  0.1277
 3253SOL    HW120438   1.330   8.610  -0.032  0.9099 -1.6093  1.6915
 3253SOL    HW220439   1.221   8.568   0.082 -0.2481  1.1807  1.6385
 3254SOL     OW20440   3.861   0.324   1.189  0.2274 -0.1298  0.6751
 3254SOL    HW120441   3.820   0.243   1.147 -0.3831 -0.3890  1.7429
 3254SOL    HW220442   3.916   0.296   1.268  1.1586  0.3722  0.2152
 3255SOL     OW20443   4.528   9.702   3.261  0.5087 -0.0925  0.0054
 3255SOL    HW120444   4.571   9.765   3.326  0.4622  0.4112 -0.4436
 3255SOL    HW220445   4.484   9.628   3.311  0.4920  0.2790  0.5477
 3256SOL     OW20446   7.992   9.202   3.814 -0.7221  0.5868  0.2085
 3256SOL    HW120447   7.974   9.173   3.908  0.2826 -1.0479 -0.0884
 3256SOL    HW220448   8.013   9.300   3.813 -0.7294  0.6118  1.6930
 3257SOL     OW20449   7.642   9.678   4.065  0.0788  0.0923  0.4040
 3257SOL    HW120450   7.545   9.656   4.076  0.1817 -0.5040  0.1096
 3257SOL    HW220451   7.696   9.595   4.070  0.2515 -0.0747 -3.1776
 3258SOL     OW20452   0.747   7.612   4.613 -0.1393 -0.5855  0.4363
 3258SOL    HW120453   0.779   7.685   4.552  1.4235  0.5306  2.5059
 3258SOL    HW220454   0.819   7.591   4.680 -1.1285 -3.0448  0.7703
 3259SOL     OW20455   5.123   7.515   4.124  0.0884 -0.0577  0.1594
 3259SOL    HW120456   5.199   7.455   4.099  0.7442  0.7950  0.0950
 3259SOL    HW220457   5.067   7.533   4.044  0.0493 -0.3519  0.1185
 3260SOL     OW20458   2.300   1.843   4.282  0.1538  0.5728 -0.4391
 3260SOL    HW120459   2.386   1.893   4.271  0.5070  0.0977  0.1310
 3260SOL    HW220460   2.306   1.784   4.362 -1.7518  2.6807  1.2966
 3261SOL     OW20461   8.172   9.847   2.680  0.2077  0.3848 -0.4584
 3261SOL    HW120462   8.193   9.873   2.774 -2.8827 -0.4421  0.5195
 3261SOL    HW220463   8.124   9.922   2.635 -3.7544 -1.3639  0.6190
 3262SOL     OW20464   3.983   3.419   1.573 -0.6167  0.1035  0.7694
 3262SOL    HW120465   3.957   3.496   1.632 -0.1625  0.7333  0.1511
 3262SOL    HW220466   4.075   3.389   1.596 -0.3669  0.4754  0.2422
 3263SOL     OW20467   7.827   0.663   2.237 -0.2457  0.4621  0.1445
 3263SOL    HW120468   7.794   0.625   2.323 -1.1015  2.6011  0.7963
 3263SOL    HW220469   7.922   0.693   2.248  0.2708 -1.0045 -0.2295
 3264SOL     OW20470   5.039   0.457   3.426 -0.2295 -0.0988  0.0250
 3264SOL    HW120471   5.056   0.409   3.340 -1.2687  1.3528 -1.0059
 3264SOL    HW220472   4.964   0.411   3.476 -1.5531  0.7303 -1.1832
 3265SOL     OW20473   1.764   9.243   1.676 -0.3987 -0.3046 -0.0454
 3265SOL    HW120474   1.671   9.265   1.646  0.1743  0.4837 -1.3048
 3265SOL    HW220475   1.790   9.304   1.751 -1.5421 -1.7478  1.5810
 3266SOL     OW20476   2.719   0.374   0.226 -0.1258 -0.4047  0.5926
 3266SOL    HW120477   2.741   0.396   0.321 -0.3912  1.8184  0.1576
 3266SOL    HW220478   2.772   0.432   0.164  1.2474 -2.9209 -0.6930
 3267SOL     OW20479   4.766   2.376   2.181 -0.2553 -0.0558  0.3586
 3267SOL    HW120480   4.837   2.446   2.182 -0.3023 -0.0081  1.5741
 3267SOL    HW220481   4.809   2.286   2.168 -0.1747  0.1694 -0.9700
 3268SOL     OW20482   0.837   2.709   2.331  0.0375 -0.0358  0.3661
 3268SOL    HW120483   0.894   2.637   2.293 -0.3212  0.4152 -1.0791
 3268SOL    HW220484   0.795   2.678   2.416 -0.0509 -1.4970 -0.1949
 3269SOL     OW20485   1.887   1.179   4.666  0.7144 -0.0861 -0.0994
 3269SOL    HW120486   1.883   1.238   4.747 -1.5199  1.8919 -1.5810
 3269SOL    HW220487   1.980   1.178   4.630  1.4630 -0.0058  1.7607
 3270SOL     OW20488   3.059   6.064   1.517 -0.4348 -0.1266  0.3145
 3270SOL    HW120489   2.979   6.034   1.569 -0.1776 -0.2919  0.6217
 3270SOL    HW220490   3.035   6.074   1.421 -1.1201  0.9114  0.5791
 3271SOL     OW20491   1.434   9.925   4.419  0.2696  0.8561 -0.1845
 3271SOL    HW120492   1.479   9.938   4.508 -1.4997  1.3823  0.6499
 3271SOL    HW220493   1.398   9.832   4.414  1.1843  0.5215 -0.7494
 3272SOL     OW20494   2.925   9.852   0.660 -0.1650  0.7363  0.6940
 3272SOL    HW120495   2.896   9.776   0.602  1.5718  0.2399  0.4428
 3272SOL    HW220496   2.895   9.938   0.619  1.7933  0.4449 -1.4412
 3273SOL     OW20497   5.018   7.035   2.351 -0.1336  0.3706  0.2633
 3273SOL    HW120498   4.929   6.991   2.342  0.2176 -0.2824 -0.0511
 3273SOL    HW220499   5.085   6.969   2.384  0.9201 -0.0023 -2.4432
 3274SOL     OW20500   3.367   2.512   2.798  0.5583 -0.2586  0.2105
 3274SOL    HW120501   3.459   2.477   2.785 -0.1180 -2.4700  1.0621
 3274SOL    HW220502   3.303   2.459   2.741 -0.2237  1.0670 -0.1668
 3275SOL     OW20503   1.365   4.611   0.785  0.3345  0.1932 -0.3295
 3275SOL    HW120504   1.316   4.621   0.699 -1.1505 -1.5874  0.2776
 3275SOL    HW220505   1.337   4.684   0.848  0.6672  0.8991 -0.9962
 3276SOL     OW20506   8.951   5.004   2.070  0.2532 -0.0635 -0.2269
 3276SOL    HW120507   8.933   4.927   2.009  0.7307  0.4903 -1.0717
 3276SOL    HW220508   9.042   5.041   2.053 -1.1686  2.7206 -2.0925
 3277SOL     OW20509   1.333   0.183   0.527  0.1861 -0.0493 -0.2962
 3277SOL    HW120510   1.310   0.244   0.451  1.0922  0.4431 -0.1783
 3277SOL    HW220511   1.404   0.119   0.497  3.5790  2.8142  1.3383
 3278SOL     OW20512   0.807   7.599   1.204 -0.0733 -0.0342 -0.4772
 3278SOL    HW120513   0.740   7.669   1.181 -0.2308 -1.0199 -3.2152
 3278SOL    HW220514   0.899   7.638   1.205 -0.4264  0.8025  0.9347
 3279SOL     OW20515   6.920   1.445   3.921 -0.1012  0.1595  0.1881
 3279SOL    HW120516   6.836   1.422   3.871  0.0312 -0.7629  0.3823
 3279SOL    HW220517   6.899   1.453   4.018  0.0947 -0.3786  0.2752
 3280SOL     OW20518   8.822   3.509   2.707  0.7975 -0.0506  0.0170
 3280SOL    HW120519   8.754   3.457   2.655  1.0973 -1.0624  0.6290
 3280SOL    HW220520   8.858   3.582   2.650 -0.3384  0.0954 -0.5290
 3281SOL     OW20521   1.476   3.301   0.872 -0.4448 -0.4107 -0.1751
 3281SOL    HW120522   1.399   3.285   0.933  0.8832 -0.4380  1.5071
 3281SOL    HW220523   1.504   3.214   0.830 -0.4827 -0.6256  0.2405
 3282SOL     OW20524   2.711   5.045   3.327  0.2078 -0.3449 -0.1310
 3282SOL    HW120525   2.679   5.046   3.422  1.5914  0.0451  0.3539
 3282SOL    HW220526   2.683   4.959   3.283 -0.8893 -0.3019  0.4621
 3283SOL     OW20527   2.230   7.858   2.420 -0.3091  0.2970 -0.2826
 3283SOL    HW120528   2.146   7.858   2.365  0.0031  1.5086 -0.7872
 3283SOL    HW220529   2.246   7.950   2.456  1.5680  0.4376 -1.3935
 3284SOL     OW20530   9.835   2.038   5.151  0.5048 -0.3039 -0.6189
 3284SOL    HW120531   9.892   1.957   5.142  1.8842  0.6414 -0.5993
 3284SOL    HW220532   9.893   2.117   5.170 -1.0591  0.2399  2.0689
 3285SOL     OW20533   0.239   6.225   1.648 -0.1112  0.5463 -0.5504
 3285SOL    HW120534   0.207   6.315   1.618 -0.0043  0.7674 -0.0081
 3285SOL    HW220535   0.337   6.217   1.627 -0.3426  0.1538 -1.5361
 3286SOL     OW20536   4.550   1.983   1.694 -0.0661  0.1919 -0.0098
 3286SOL    HW120537   4.601   2.034   1.764 -0.4640  0.6071 -0.0215
 3286SOL    HW220538   4.454   2.009   1.698  0.0266  0.7147 -1.1700
 3287SOL     OW20539   6.720   0.186   2.230  0.1720  0.5668 -0.1062
 3287SOL    HW120540   6.778   0.265   2.208 -1.2186  1.2300 -1.4779
 3287SOL    HW220541   6.650   0.214   2.296 -1.5409  1.0191 -2.0645
 3288SOL     OW20542   1.242   7.054   0.216  0.5271  0.6541  0.4138
 3288SOL    HW120543   1.174   7.117   0.179  0.2964  0.2492  0.1594
 3288SOL    HW220544   1.218   7.031   0.310  0.6562  1.0122  0.5352
 3289SOL     OW20545   5.310   0.751   1.010  0.5750  0.6101  0.9086
 3289SOL    HW120546   5.215   0.784   1.013  1.4396  3.1432  1.8579
 3289SOL    HW220547   5.351   0.759   1.101  1.8345 -0.1158  0.4174
 3290SOL     OW20548   1.457   3.945   2.192  0.3221  0.0133 -0.2811
 3290SOL    HW120549   1.404   4.026   2.217 -1.4423 -1.6619  1.5846
 3290SOL    HW220550   1.469   3.943   2.093 -1.5204  1.4033 -0.5718
 3291SOL     OW20551   4.887   7.437   3.200  0.4944  0.1150  0.1563
 3291SOL    HW120552   4.852   7.355   3.155  0.4724  0.1121  0.1794
 3291SOL    HW220553   4.894   7.421   3.299  0.3346  0.1963  0.1810
 3292SOL     OW20554   1.528   2.573   4.662  0.0804  0.2264 -0.0151
 3292SOL    HW120555   1.432   2.598   4.675 -0.1970 -0.3884 -0.8493
 3292SOL    HW220556   1.582   2.608   4.738 -0.6724  1.3027  0.0277
 3293SOL     OW20557   6.387   8.706   1.715  0.2458  0.2098  0.5655
 3293SOL    HW120558   6.430   8.720   1.626 -0.5903 -1.6062 -0.1506
 3293SOL    HW220559   6.426   8.624   1.758 -2.3473 -1.4436 -0.0711
 3294SOL     OW20560   3.059   7.660   1.552 -0.4250 -0.1312 -0.3915
 3294SOL    HW120561   3.025   7.566   1.544  0.2911 -0.3809 -0.5350
 3294SOL    HW220562   3.119   7.666   1.632 -1.9411  0.6542  0.7136
 3295SOL     OW20563   2.073   7.587   1.288 -0.2548  0.4442 -0.2114
 3295SOL    HW120564   2.033   7.497   1.270 -0.4848  0.7706 -1.3974
 3295SOL    HW220565   2.116   7.587   1.378 -2.5936 -0.0462  0.9538
 3296SOL     OW20566   2.138   7.431   2.558  0.3064  0.4480 -0.8281
 3296SOL    HW120567   2.040   7.447   2.576  0.6686  1.4431  0.3343
 3296SOL    HW220568   2.190   7.509   2.592  1.5756 -0.3852 -0.8629
 3297SOL     OW20569   6.227   9.373   3.918 -0.1028  0.3273 -0.6711
 3297SOL    HW120570   6.155   9.344   3.855  1.1260  1.2377 -2.5402
 3297SOL    HW220571   6.313   9.326   3.895  0.1122 -0.1631  1.0404
 3298SOL     OW20572   9.285   3.361   2.610 -0.3131 -0.5367 -0.5181
 3298SOL    HW120573   9.186   3.368   2.622 -0.2107  0.1340 -0.0274
 3298SOL    HW220574   9.313   3.266   2.619 -0.5637 -0.4073  2.1575
 3299SOL     OW20575   9.675   3.694   2.564  0.4467  0.0724 -0.5315
 3299SOL    HW120576   9.605   3.626   2.543  1.8397 -1.0770 -1.6235
 3299SOL    HW220577   9.706   3.681   2.659  1.1177 -1.2438 -0.9087
 3300SOL     OW20578   1.317   6.505   3.278 -0.1227  0.1640  0.2066
 3300SOL    HW120579   1.278   6.474   3.364  0.1896  0.1142  0.3303
 3300SOL    HW220580   1.317   6.605   3.276 -0.6296  0.1609  0.0358
 3301SOL     OW20581   2.817   8.128   0.293  0.2272 -0.1315 -0.0218
 3301SOL    HW120582   2.870   8.186   0.355  0.9079  0.1253 -0.8230
 3301SOL    HW220583   2.868   8.044   0.275 -0.8202 -1.0535  1.2493
 3302SOL     OW20584   8.149   7.926   3.920  0.0709  0.4596 -0.3703
 3302SOL    HW120585   8.053   7.903   3.904 -0.0427  0.6218  0.0702
 3302SOL    HW220586   8.204   7.891   3.844 -0.3256  0.3039 -0.5905
 3303SOL     OW20587   9.542   2.335   1.912 -0.2494  0.2215 -0.2119
 3303SOL    HW120588   9.481   2.267   1.951  1.1140 -2.1327 -2.0549
 3303SOL    HW220589   9.489   2.416   1.885 -2.0663 -0.5742  0.8905
 3304SOL     OW20590   0.685   4.186   1.057 -0.1457  0.0479 -0.2456
 3304SOL    HW120591   0.749   4.263   1.069 -1.0543  0.9267 -0.9618
 3304SOL    HW220592   0.688   4.156   0.962 -2.3880  1.5179 -0.8002
 3305SOL     OW20593   9.257   9.474   1.355 -1.0352 -0.2061  0.4561
 3305SOL    HW120594   9.204   9.558   1.342 -0.5422 -0.0702 -0.6938
 3305SOL    HW220595   9.246   9.414   1.275  0.2074 -0.3599  0.3882
 3306SOL     OW20596   7.342   1.322   4.222 -0.2064  0.3881  0.0316
 3306SOL    HW120597   7.345   1.298   4.125 -0.8095 -2.1399  0.5948
 3306SOL    HW220598   7.250   1.308   4.257  0.2183  0.3787  1.1776
 3307SOL     OW20599   5.284   9.725   1.504 -0.2591 -0.1955 -0.4127
 3307SOL    HW120600   5.229   9.652   1.463 -0.2100 -1.2666  1.3249
 3307SOL    HW220601   5.356   9.684   1.561  1.6851  1.1999 -1.8165
 3308SOL     OW20602   4.668   3.487   5.401 -0.2152 -0.3347 -0.2119
 3308SOL    HW120603   4.668   3.579   5.440 -2.9684 -0.5916  0.4886
 3308SOL    HW220604   4.611   3.486   5.319  0.6206 -1.2031 -0.7956
 3309SOL     OW20605   3.662   9.768   3.687  0.4895  0.5687 -0.0776
 3309SOL    HW120606   3.684   9.675   3.717  0.0133  1.0354  1.8368
 3309SOL    HW220607   3.707   9.787   3.600  2.5225 -0.6525  0.6696
 3310SOL     OW20608   7.350   0.953   3.867 -0.1268  0.3055  0.6861
 3310SOL    HW120609   7.259   0.920   3.846 -0.2854  1.3497 -0.3647
 3310SOL    HW220610   7.371   0.938   3.964 -0.9807 -0.9222  0.6769
 3311SOL     OW20611   7.381   0.897   0.349 -0.7389 -0.0580  0.0379
 3311SOL    HW120612   7.406   0.898   0.252 -0.9027 -1.5592 -0.0284
 3311SOL    HW220613   7.299   0.952   0.363  1.7141  3.8208  0.0461
 3312SOL     OW20614   1.605   7.188   5.291 -0.9239 -0.0705 -0.4112
 3312SOL    HW120615   1.620   7.094   5.260 -2.3629  0.4894 -2.9560
 3312SOL    HW220616   1.693   7.233   5.305 -0.1765 -2.2886  2.5818
 3313SOL     OW20617   9.007   6.723   3.712 -0.7151  0.0378 -0.2677
 3313SOL    HW120618   8.939   6.699   3.781 -1.0691 -0.4127 -0.7625
 3313SOL    HW220619   8.965   6.720   3.621 -0.0559 -0.1704 -0.5727
 3314SOL     OW20620   9.707   2.040   1.705 -0.4213 -0.0592 -0.2432
 3314SOL    HW120621   9.742   2.134   1.703  0.3095 -0.2861  1.0206
 3314SOL    HW220622   9.782   1.977   1.686 -0.1030 -0.5521  2.4794
 3315SOL     OW20623   2.794   5.176   4.125  0.2827 -0.0854 -0.1012
 3315SOL    HW120624   2.744   5.167   4.039 -0.8933 -0.4281  0.6004
 3315SOL    HW220625   2.892   5.175   4.107  0.0660 -1.3549 -1.3310
 3316SOL     OW20626   9.731   7.143   1.387 -0.4402  0.2867  0.5100
 3316SOL    HW120627   9.727   7.220   1.323 -1.9811  2.4286  3.0856
 3316SOL    HW220628   9.804   7.158   1.453 -1.5740  0.1922  1.8068
 3317SOL     OW20629   1.224   4.403   0.313  0.3654 -0.0889  0.0113
 3317SOL    HW120630   1.303   4.431   0.260  1.1283 -1.2571  0.4875
 3317SOL    HW220631   1.181   4.324   0.270  1.5784 -1.6746  1.5846
 3318SOL     OW20632   8.184   0.130   2.860  0.4164 -0.0433 -0.3958
 3318SOL    HW120633   8.142   0.129   2.769  0.4111  1.1450 -0.4115
 3318SOL    HW220634   8.162   0.215   2.906  1.5971 -0.0282  0.1681
 3319SOL     OW20635   8.889   9.015   0.381 -0.5405 -0.0161 -0.2552
 3319SOL    HW120636   8.877   8.947   0.453  1.6172  0.6761  0.8134
 3319SOL    HW220637   8.809   9.075   0.376 -1.5482 -1.3251  0.2014
 3320SOL     OW20638   8.091   0.235   2.341 -0.1631 -0.2326  0.4203
 3320SOL    HW120639   8.157   0.285   2.396  0.2103  0.1230 -0.3467
 3320SOL    HW220640   8.134   0.152   2.304 -0.0357  0.1902 -0.3815
 3321SOL     OW20641   4.334   8.393   4.687 -0.5184 -0.0835 -0.0112
 3321SOL    HW120642   4.312   8.449   4.607  1.9661 -1.9539 -2.1199
 3321SOL    HW220643   4.431   8.404   4.710 -0.7867 -0.9594  1.6288
 3322SOL     OW20644   2.022   9.222   3.030  0.3806  0.7008 -0.4069
 3322SOL    HW120645   2.090   9.233   2.958  0.6560 -0.5339 -0.3562
 3322SOL    HW220646   2.063   9.241   3.119  0.2110  1.5889 -0.5132
 3323SOL     OW20647   8.938   1.137   1.571  0.1263  0.1428 -0.3249
 3323SOL    HW120648   8.968   1.222   1.615 -0.8901  0.9389 -1.1241
 3323SOL    HW220649   8.895   1.078   1.639  0.4135  0.4804  0.1510
 3324SOL     OW20650   5.839   7.357   2.063 -0.0149  0.5747  0.3845
 3324SOL    HW120651   5.805   7.263   2.072 -0.7915  0.6517 -1.5060
 3324SOL    HW220652   5.762   7.419   2.048  0.6569  1.2327 -0.3878
 3325SOL     OW20653   3.462   7.093   1.630 -0.3687 -0.2955 -0.1680
 3325SOL    HW120654   3.409   7.121   1.711 -1.4831  0.1307 -1.0282
 3325SOL    HW220655   3.415   7.018   1.584  1.0794 -1.6104  0.4451
 3326SOL     OW20656   1.174   7.459   0.624 -0.0806 -0.0882  0.3343
 3326SOL    HW120657   1.180   7.359   0.628  0.0188 -0.1634 -1.3474
 3326SOL    HW220658   1.205   7.498   0.711 -1.1350 -1.5528  1.3927
 3327SOL     OW20659   1.584   5.306   2.826  0.0622 -0.2064  0.3341
 3327SOL    HW120660   1.585   5.326   2.728  0.6516  0.2616  0.4313
 3327SOL    HW220661   1.503   5.346   2.868 -0.8764 -1.5253 -0.1887
 3328SOL     OW20662   3.460   8.232   3.493  0.6747 -0.0571  0.3655
 3328SOL    HW120663   3.476   8.330   3.506  1.2567  0.0302 -0.9665
 3328SOL    HW220664   3.534   8.180   3.537  0.9465  0.1406  0.1490
 3329SOL     OW20665   0.323   4.290   2.328 -0.5714  0.1188  0.3819
 3329SOL    HW120666   0.306   4.242   2.413 -1.0442 -0.8187 -0.2379
 3329SOL    HW220667   0.395   4.243   2.276 -1.1218 -0.0040 -0.2802
 3330SOL     OW20668   1.976   2.693   0.765 -0.3451  0.2802 -0.0568
 3330SOL    HW120669   2.021   2.606   0.787 -0.6528  0.0070 -0.5092
 3330SOL    HW220670   1.938   2.733   0.848  1.9681  1.2114  0.5900
 3331SOL     OW20671   4.206   2.471   2.610  0.3065 -0.4518  0.0317
 3331SOL    HW120672   4.235   2.488   2.704  0.1329 -1.3868  0.2606
 3331SOL    HW220673   4.206   2.373   2.593 -0.4690 -0.3269 -0.6937
 3332SOL     OW20674   3.465   8.151   4.317  0.1152  0.9894 -0.2584
 3332SOL    HW120675   3.396   8.102   4.370 -1.1706  1.7533 -1.2074
 3332SOL    HW220676   3.453   8.131   4.220  1.5854  0.7008 -0.3986
 3333SOL     OW20677   0.735   1.412   3.594  0.0669  0.2287  0.4590
 3333SOL    HW120678   0.704   1.339   3.533  0.1738  1.6767 -1.3619
 3333SOL    HW220679   0.656   1.467   3.622  0.0855 -0.1509  1.2720
 3334SOL     OW20680   0.279   8.053   5.471 -0.0116  0.2031 -0.1878
 3334SOL    HW120681   0.210   8.084   5.405 -1.4436 -2.1436  0.1549
 3334SOL    HW220682   0.333   7.979   5.431  1.2689  0.9533  0.1278
 3335SOL     OW20683   0.400   5.672   2.068  0.6066 -0.0711  0.0824
 3335SOL    HW120684   0.405   5.721   2.155  0.1482 -2.6494  1.6012
 3335SOL    HW220685   0.488   5.628   2.049  0.4211 -0.2905 -0.2802
 3336SOL     OW20686   0.878   3.765   2.407 -0.1249  0.3166 -0.5146
 3336SOL    HW120687   0.794   3.710   2.400  0.0636  0.0192 -0.4326
 3336SOL    HW220688   0.955   3.713   2.371  0.1790  0.2487  0.2168
 3337SOL     OW20689   1.916   0.682   4.451  0.4227 -0.2067 -0.3896
 3337SOL    HW120690   2.016   0.676   4.456  0.5739  0.7570 -1.8223
 3337SOL    HW220691   1.878   0.684   4.543  1.5894 -2.5171  0.1791
 3338SOL     OW20692   0.061   7.867   4.437  0.0537 -0.7626  0.3901
 3338SOL    HW120693  -0.034   7.870   4.406  0.1337  0.8641  0.2779
 3338SOL    HW220694   0.064   7.887   4.535  0.3445 -0.0492  0.2390
 3339SOL     OW20695   0.813   8.443   3.812 -0.6084  0.2835  0.1394
 3339SOL    HW120696   0.818   8.446   3.712 -0.8032 -0.0636  0.1174
 3339SOL    HW220697   0.735   8.498   3.843 -0.5359  0.4068  0.1034
 3340SOL     OW20698   2.217   2.373   3.377  0.2020  0.4415 -0.0463
 3340SOL    HW120699   2.301   2.422   3.401 -0.2392  0.9340  0.5023
 3340SOL    HW220700   2.237   2.305   3.307  1.4140 -0.7224  1.4025
 3341SOL     OW20701   4.683   2.738   2.140 -0.5236 -0.1501  0.5961
 3341SOL    HW120702   4.708   2.760   2.046 -2.7500 -0.3818 -0.0720
 3341SOL    HW220703   4.584   2.732   2.148 -0.3489 -0.5308  2.8802
 3342SOL     OW20704   0.642   7.722   2.294 -0.4959 -0.1911 -0.1858
 3342SOL    HW120705   0.737   7.753   2.284 -0.1881 -1.3260 -0.8842
 3342SOL    HW220706   0.641   7.630   2.333 -1.3538  0.2070  0.7585
 3343SOL     OW20707   8.895   4.004   3.057 -0.2348 -0.0279  0.3328
 3343SOL    HW120708   8.914   3.907   3.073  0.5659 -0.2351 -1.6777
 3343SOL    HW220709   8.975   4.059   3.083  1.0721 -0.3651 -2.6838
 3344SOL     OW20710   3.167   4.882   5.328  0.1405  0.3016 -0.2198
 3344SOL    HW120711   3.154   4.947   5.403 -1.2780 -1.6165  1.2524
 3344SOL    HW220712   3.083   4.876   5.274  0.7014  0.6365 -1.1590
 3345SOL     OW20713   2.724   9.001   5.322 -0.4580  0.1589  0.2276
 3345SOL    HW120714   2.718   9.001   5.222  0.3224 -0.3005  0.1700
 3345SOL    HW220715   2.819   9.016   5.349 -0.6564  0.2255  0.8977
 3346SOL     OW20716   4.757   8.481   3.509  0.5054  0.3187  0.3927
 3346SOL    HW120717   4.822   8.551   3.479 -0.1546  0.6762 -0.2507
 3346SOL    HW220718   4.717   8.436   3.429 -1.2983  1.2957  0.7067
 3347SOL     OW20719   4.619   7.179   3.787  0.0169 -0.5929 -0.5303
 3347SOL    HW120720   4.654   7.261   3.833 -0.2705 -0.8410  0.1197
 3347SOL    HW220721   4.612   7.197   3.689  1.6431 -0.4146 -0.6332
 3348SOL     OW20722   6.384   7.879   2.723 -0.6205 -0.0574 -0.2937
 3348SOL    HW120723   6.404   7.781   2.722 -0.8528 -0.0998 -0.8796
 3348SOL    HW220724   6.361   7.908   2.816  0.8471 -0.2701  0.1518
 3349SOL     OW20725   9.953   1.458   2.190  0.2418  0.2452 -0.4108
 3349SOL    HW120726   9.939   1.366   2.227 -0.0404  0.6009  0.3781
 3349SOL    HW220727   9.922   1.460   2.095  0.8982 -0.6549 -0.6556
 3350SOL     OW20728   1.316   2.510   3.934  0.1783 -0.3351 -0.3112
 3350SOL    HW120729   1.264   2.549   3.859 -0.6303 -0.1494  0.3402
 3350SOL    HW220730   1.385   2.448   3.898 -0.6734 -0.7971 -1.1644
 3351SOL     OW20731   6.678   8.989   3.896 -0.1560 -0.2786  0.1820
 3351SOL    HW120732   6.700   8.926   3.822  0.4226  1.3321 -1.0279
 3351SOL    HW220733   6.600   9.046   3.870  0.7778  1.0945  0.3138
 3352SOL     OW20734   2.884   4.275   2.499  0.2893  0.0446 -0.4252
 3352SOL    HW120735   2.903   4.287   2.596  0.9156  0.6299 -0.6178
 3352SOL    HW220736   2.862   4.179   2.481  0.8005 -0.1900  0.1887
 3353SOL     OW20737   0.524   9.905   2.323  0.6055  0.3639  0.1976
 3353SOL    HW120738   0.504   9.977   2.391 -0.2342 -0.9926  1.4111
 3353SOL    HW220739   0.442   9.887   2.269  0.6115 -0.1556  0.3583
 3354SOL     OW20740   9.985   0.517   2.261  0.0097 -0.9858 -0.1281
 3354SOL    HW120741   9.994   0.559   2.171  0.7901 -0.3740  0.2277
 3354SOL    HW220742   9.892   0.483   2.273 -1.3088  2.5834  0.4216
 3355SOL     OW20743   1.220   0.436   2.093 -0.5639  0.0317 -0.2000
 3355SOL    HW120744   1.184   0.474   2.007 -1.3701  3.0389  1.4044
 3355SOL    HW220745   1.153   0.374   2.133 -0.5108 -0.7591 -1.2926
 3356SOL     OW20746   7.506   9.694   2.273  0.0683  0.2616 -0.4593
 3356SOL    HW120747   7.593   9.664   2.313 -0.4456 -0.7798 -0.1011
 3356SOL    HW220748   7.465   9.763   2.332 -1.1358 -1.9354  1.3703
 3357SOL     OW20749   5.925   0.574   2.118 -0.4102  0.6519  0.4677
 3357SOL    HW120750   5.991   0.500   2.107  1.4375  2.2309  0.7364
 3357SOL    HW220751   5.884   0.596   2.029  1.4159  1.4646 -0.1860
 3358SOL     OW20752   2.713   2.499   1.859  1.0052  0.3317 -0.1463
 3358SOL    HW120753   2.634   2.553   1.829 -0.1033 -0.5473  1.1358
 3358SOL    HW220754   2.797   2.551   1.841 -0.0632  2.8945  1.8688
 3359SOL     OW20755   0.625   3.156   3.738 -0.6260 -0.2131  0.0655
 3359SOL    HW120756   0.530   3.164   3.766  0.1079 -0.4909  2.7301
 3359SOL    HW220757   0.659   3.065   3.760  1.2921  1.0435  2.5286
 3360SOL     OW20758   0.227   8.371   1.835 -0.3376  0.4434  0.5819
 3360SOL    HW120759   0.234   8.289   1.892 -2.0356 -0.0535  0.1066
 3360SOL    HW220760   0.286   8.442   1.871 -0.3034 -0.3496  2.1142
 3361SOL     OW20761   1.960   9.488   2.061  0.9802  0.2067 -0.8346
 3361SOL    HW120762   2.050   9.457   2.030  0.5441 -1.2696 -0.6412
 3361SOL    HW220763   1.935   9.441   2.145  0.1500  0.8251 -0.7280
 3362SOL     OW20764   0.626   4.778   1.580 -0.3106  0.2531  0.4602
 3362SOL    HW120765   0.577   4.732   1.507  1.4622 -1.2539  0.1958
 3362SOL    HW220766   0.716   4.736   1.593 -0.4517  0.6882  3.2895
 3363SOL     OW20767   5.223   0.659   0.401  0.1298  0.0024 -0.6910
 3363SOL    HW120768   5.323   0.657   0.406  0.0401 -0.9951  1.3169
 3363SOL    HW220769   5.189   0.733   0.458 -0.3557 -1.5714  1.1493
 3364SOL     OW20770   5.655   8.171   3.173 -0.1847 -0.6880  0.1419
 3364SOL    HW120771   5.746   8.213   3.183 -0.7817  0.3569  1.3727
 3364SOL    HW220772   5.594   8.236   3.128  0.1899 -2.1587 -2.5936
 3365SOL     OW20773   3.259   9.907   5.443  0.7563  0.3371  0.5503
 3365SOL    HW120774   3.261   9.890   5.541 -0.3154 -0.3091  0.4676
 3365SOL    HW220775   3.255   9.820   5.394  1.0404  0.6596 -0.0601
 3366SOL     OW20776   1.845   7.521   4.758  0.1133  0.0803  0.5027
 3366SOL    HW120777   1.928   7.568   4.729  0.2662 -0.2320  0.4256
 3366SOL    HW220778   1.769   7.585   4.762  0.5605  0.5604  1.4566
 3367SOL     OW20779   3.820   1.666   4.711  0.1007  0.5883 -0.2096
 3367SOL    HW120780   3.888   1.738   4.724  0.8947 -0.0896 -0.5383
 3367SOL    HW220781   3.754   1.670   4.785  0.9595  0.7578  0.5656
 3368SOL     OW20782   7.952   1.629   1.665  0.0374 -0.0930  0.0068
 3368SOL    HW120783   7.884   1.603   1.734  1.2863  0.6161  1.5396
 3368SOL    HW220784   7.905   1.664   1.583 -1.4561 -0.4915  0.6758
 3369SOL     OW20785   0.082   1.638   2.352 -0.6056  0.1732  0.4662
 3369SOL    HW120786  -0.007   1.682   2.365 -0.3590  0.4937  1.1063
 3369SOL    HW220787   0.072   1.560   2.291 -1.0083  1.2540 -0.8711
 3370SOL     OW20788   9.293   2.845   0.579  0.0422  0.0295  0.2154
 3370SOL    HW120789   9.382   2.823   0.538  0.0721 -0.1505  0.3722
 3370SOL    HW220790   9.272   2.777   0.650  0.0283  0.3784  0.5468
 3371SOL     OW20791   0.090   6.856   2.649 -0.2472  0.3439 -0.0487
 3371SOL    HW120792  -0.003   6.820   2.660 -0.2816  0.7085  0.9270
 3371SOL    HW220793   0.136   6.856   2.738  1.5459 -2.1385 -0.9139
 3372SOL     OW20794   3.660   9.201   1.823  0.0800  0.0843 -0.2494
 3372SOL    HW120795   3.735   9.254   1.784  0.6214 -0.2670  0.3158
 3372SOL    HW220796   3.648   9.116   1.771  1.4809 -0.8775  0.9806
 3373SOL     OW20797   1.206   1.373   5.252  0.4294 -0.0994 -0.4307
 3373SOL    HW120798   1.141   1.405   5.321 -0.3856 -0.8775 -0.8296
 3373SOL    HW220799   1.203   1.434   5.173 -2.2211 -1.9656 -1.8214
 3374SOL     OW20800   9.057   1.591   5.623 -0.1837  0.0009  0.1384
 3374SOL    HW120801   9.059   1.611   5.525  1.1590  2.3159  0.5914
 3374SOL    HW220802   8.962   1.586   5.654 -0.6052  1.5720 -0.8516
 3375SOL     OW20803   3.289   8.749   2.031  0.2316  0.0844 -0.6279
 3375SOL    HW120804   3.212   8.800   2.068 -0.0018 -0.7299  0.0380
 3375SOL    HW220805   3.374   8.798   2.048 -0.1438  1.0325 -1.4492
 3376SOL     OW20806   3.439   1.008   5.397 -0.0979  0.3823  0.3622
 3376SOL    HW120807   3.435   0.986   5.299 -0.7193  0.1824  0.4310
 3376SOL    HW220808   3.467   1.103   5.408 -0.3976  0.5220 -0.0307
 3377SOL     OW20809   7.821   7.798   2.466 -0.4872 -0.2767 -0.4014
 3377SOL    HW120810   7.889   7.782   2.395 -1.1169 -0.5527 -0.9527
 3377SOL    HW220811   7.745   7.734   2.454 -1.0712  0.3504 -0.0897
 3378SOL     OW20812   0.502   2.871   0.514  0.0612  0.1032 -0.1931
 3378SOL    HW120813   0.480   2.779   0.548 -0.9463  1.0072  1.7201
 3378SOL    HW220814   0.484   2.876   0.416 -0.0835 -1.6796 -0.2769
 3379SOL     OW20815   1.175   0.666   4.113 -0.0827  0.4776 -0.8603
 3379SOL    HW120816   1.161   0.612   4.030  2.2727  0.2848 -1.1602
 3379SOL    HW220817   1.258   0.721   4.104  0.5792 -0.0407  1.6172
 3380SOL     OW20818   1.557   8.357   4.473  0.0279 -0.0956  0.5076
 3380SOL    HW120819   1.471   8.335   4.518 -1.7099  1.5605 -1.8447
 3380SOL    HW220820   1.593   8.443   4.508 -1.1431  1.0142 -0.9328
 3381SOL     OW20821   1.886   4.578   0.721 -0.5935 -0.0191 -0.2797
 3381SOL    HW120822   1.867   4.661   0.669 -0.5922  0.1408 -0.0251
 3381SOL    HW220823   1.971   4.537   0.688 -0.2056  0.4809  0.0925
 3382SOL     OW20824   3.365   4.607   1.141 -0.4071 -0.0459  0.1873
 3382SOL    HW120825   3.348   4.610   1.239 -0.2450 -2.6744  0.3237
 3382SOL    HW220826   3.295   4.551   1.097  0.0013  0.4265 -1.0840
 3383SOL     OW20827   7.715   2.602   3.115  0.2639  0.5199  0.2720
 3383SOL    HW120828   7.694   2.695   3.145 -0.1731  0.1005  1.2831
 3383SOL    HW220829   7.709   2.597   3.015 -0.3461  1.4133  0.2576
 3384SOL     OW20830   4.957   8.753   2.651 -0.4612  0.9616  0.5021
 3384SOL    HW120831   5.033   8.757   2.715  0.3688 -1.6816 -0.2479
 3384SOL    HW220832   4.911   8.665   2.659 -0.9836  0.9909 -1.8141
 3385SOL     OW20833   8.062   8.109   1.651  0.0829  0.2683  0.4844
 3385SOL    HW120834   8.025   8.067   1.734  2.7505  1.7946  2.5391
 3385SOL    HW220835   8.108   8.040   1.595  2.5425  0.0091  2.7470
 3386SOL     OW20836   1.246   2.980   5.377 -0.1264 -0.4189 -0.1265
 3386SOL    HW120837   1.288   3.043   5.312 -4.9162 -0.1300 -3.1690
 3386SOL    HW220838   1.276   2.887   5.358 -0.1929 -0.1305 -1.7047
 3387SOL     OW20839   5.133   3.230   1.055  0.4796 -0.1847  0.1560
 3387SOL    HW120840   5.034   3.235   1.044  0.4449  2.1188  1.1661
 3387SOL    HW220841   5.155   3.210   1.151  0.9961 -1.2469 -0.1772
 3388SOL     OW20842   2.257   7.832   2.883  0.1121  0.2036 -0.2185
 3388SOL    HW120843   2.181   7.894   2.902 -0.6156 -0.4595 -0.9399
 3388SOL    HW220844   2.245   7.791   2.793 -0.0118 -1.8732  0.7122
 3389SOL     OW20845   8.324   0.335   0.658 -0.6346 -0.3501 -0.1619
 3389SOL    HW120846   8.316   0.251   0.711 -0.6124  0.2832  0.8669
 3389SOL    HW220847   8.256   0.402   0.691  0.2916  0.5295 -0.0082
 3390SOL     OW20848   4.721   0.841   1.508 -0.1481 -0.0502  0.6956
 3390SOL    HW120849   4.700   0.883   1.596 -2.2252 -0.2968  0.3387
 3390SOL    HW220850   4.739   0.744   1.521  0.2718  0.0581  0.9361
 3391SOL     OW20851   1.605   9.376   3.067 -0.3694 -0.0158  0.0963
 3391SOL    HW120852   1.521   9.425   3.087 -0.5523 -0.0815 -0.4914
 3391SOL    HW220853   1.668   9.384   3.144  0.2673  2.5460 -0.6417
 3392SOL     OW20854   2.085   5.066   0.292 -0.2822  0.4032  0.0876
 3392SOL    HW120855   2.138   5.088   0.210  1.0520  1.4832  1.2134
 3392SOL    HW220856   2.042   4.976   0.281  0.7693  0.0661 -1.3603
 3393SOL     OW20857   2.074   6.721   2.028 -0.8331 -0.6209  0.2171
 3393SOL    HW120858   1.986   6.674   2.017 -1.2712 -0.0715  1.3328
 3393SOL    HW220859   2.070   6.782   2.107  1.1873 -2.0759  1.4935
 3394SOL     OW20860   8.556   7.690   2.791  0.2428  0.0597 -0.0388
 3394SOL    HW120861   8.490   7.710   2.863  1.8098  3.1749  0.5932
 3394SOL    HW220862   8.616   7.616   2.821 -0.4543 -0.1115  0.9754
 3395SOL     OW20863   7.694   1.365   1.574  0.0478 -0.5777 -0.5327
 3395SOL    HW120864   7.666   1.405   1.487  3.6603 -0.9474 -1.9590
 3395SOL    HW220865   7.731   1.436   1.633  1.1374 -0.8847 -0.8270
 3396SOL     OW20866   2.136   0.792   5.010  0.4365 -0.1513 -0.6722
 3396SOL    HW120867   2.099   0.701   4.989  3.1566 -0.9043 -2.4859
 3396SOL    HW220868   2.230   0.783   5.042 -0.1769  1.8616  1.8721
 3397SOL     OW20869   2.192   8.820   0.333  0.2835  0.5159  0.1357
 3397SOL    HW120870   2.163   8.727   0.355 -0.4320  0.4382 -1.0664
 3397SOL    HW220871   2.115   8.870   0.291  1.1656  1.0949 -0.8259
 3398SOL     OW20872   9.307   2.331   3.847 -0.4113 -0.1058  0.0564
 3398SOL    HW120873   9.372   2.365   3.779 -0.9018 -0.1803 -0.4443
 3398SOL    HW220874   9.273   2.242   3.820 -1.4364  0.3374 -0.1505
 3399SOL     OW20875   2.344   5.508   1.746 -0.5828 -0.7207 -0.1782
 3399SOL    HW120876   2.315   5.518   1.841  1.8332  1.1777  0.4157
 3399SOL    HW220877   2.269   5.535   1.686 -1.6075 -0.3818  1.2095
 3400SOL     OW20878   4.256   3.009   5.123  0.0225  0.0464  0.1881
 3400SOL    HW120879   4.182   3.019   5.190 -1.6713 -0.0391 -1.6187
 3400SOL    HW220880   4.292   2.916   5.126 -0.0572  0.0351  0.9407
 3401SOL     OW20881   3.397   0.257   1.565 -0.0403 -0.2695  0.2980
 3401SOL    HW120882   3.465   0.225   1.631 -0.8486 -0.1953  1.1807
 3401SOL    HW220883   3.318   0.196   1.567  0.6734 -1.3597 -1.9485
 3402SOL     OW20884   0.687   6.610   1.782 -0.6802  0.3042 -0.0100
 3402SOL    HW120885   0.679   6.681   1.852 -3.0703 -0.4931  0.5925
 3402SOL    HW220886   0.735   6.531   1.820  1.3685  1.2807 -0.4725
 3403SOL     OW20887   5.524   9.923   3.166 -0.2398  0.0724 -0.0973
 3403SOL    HW120888   5.559   9.945   3.257  1.0747 -1.0011 -0.3215
 3403SOL    HW220889   5.596   9.878   3.113 -2.0246 -2.4162 -0.4955
 3404SOL     OW20890   9.134   7.542   3.454 -0.9214 -0.6800 -0.2980
 3404SOL    HW120891   9.180   7.458   3.483 -0.8083 -0.4559  0.1782
 3404SOL    HW220892   9.079   7.578   3.530  0.1592  0.4522 -0.0310
 3405SOL     OW20893   1.900   2.365   2.882 -0.0782 -0.0303 -0.3568
 3405SOL    HW120894   1.956   2.441   2.916 -0.7532  0.3310 -0.0280
 3405SOL    HW220895   1.940   2.328   2.798 -0.0802  1.0972 -0.8634
 3406SOL     OW20896   2.743   1.587   4.433  0.1685 -0.6266  0.0818
 3406SOL    HW120897   2.787   1.608   4.521  0.0529 -0.2881  0.0566
 3406SOL    HW220898   2.680   1.510   4.445  1.9631 -2.2099 -0.2137
 3407SOL     OW20899   2.596   8.966   4.197 -0.5839  0.2912 -0.0056
 3407SOL    HW120900   2.553   8.894   4.142 -0.6126  0.9283 -0.8305
 3407SOL    HW220901   2.587   8.943   4.294 -3.1639  0.6122 -0.1241
 3408SOL     OW20902   9.773   9.310   0.833 -0.5955 -0.3046  0.0362
 3408SOL    HW120903   9.789   9.390   0.775 -0.2685  0.8390  1.6646
 3408SOL    HW220904   9.843   9.241   0.815  0.0982  0.4526 -0.1913
 3409SOL     OW20905   6.344   9.665   3.655 -0.1101  0.2414  0.0143
 3409SOL    HW120906   6.276   9.626   3.594 -0.4672 -1.7921  1.6763
 3409SOL    HW220907   6.303   9.684   3.744  1.4955 -1.2403  1.1146
 3410SOL     OW20908   9.816   8.725   3.036  0.8767 -0.0164 -0.4287
 3410SOL    HW120909   9.765   8.701   3.118  0.8723 -0.6346 -0.6074
 3410SOL    HW220910   9.841   8.822   3.039  1.3079 -0.1517  0.5281
 3411SOL     OW20911   8.722   9.160   0.223 -0.7679 -0.6627 -0.3802
 3411SOL    HW120912   8.655   9.098   0.182 -0.8888 -0.8568  0.1128
 3411SOL    HW220913   8.677   9.245   0.250 -0.9024 -0.9794  0.3809
 3412SOL     OW20914   2.223   7.644   1.541 -0.3025  0.3899 -0.0538
 3412SOL    HW120915   2.312   7.679   1.510 -0.3344  1.7996  1.4094
 3412SOL    HW220916   2.171   7.717   1.585 -2.4202 -0.2877 -1.3389
 3413SOL     OW20917   0.388   9.140   1.574  0.4207  0.2568  0.4034
 3413SOL    HW120918   0.426   9.230   1.597 -0.9970  0.6895  1.1539
 3413SOL    HW220919   0.301   9.128   1.622 -1.1345 -0.0815 -2.3789
 3414SOL     OW20920   9.920   0.504   3.533  0.0402  0.4853 -1.0622
 3414SOL    HW120921   9.979   0.436   3.578 -0.2974  1.3213  0.6903
 3414SOL    HW220922   9.975   0.560   3.472  1.2102  1.5667  0.9068
 3415SOL     OW20923   6.101   9.078   1.856  0.0969  0.0082 -0.2186
 3415SOL    HW120924   6.028   9.012   1.837 -0.8692  0.6300  1.2408
 3415SOL    HW220925   6.080   9.164   1.809 -0.0363  0.1377  0.0758
 3416SOL     OW20926   1.300   6.306   0.770 -0.2851  0.5165  0.4611
 3416SOL    HW120927   1.220   6.339   0.821 -0.3520 -0.0676  0.7382
 3416SOL    HW220928   1.308   6.356   0.684 -1.6606 -0.2740 -0.1423
 3417SOL     OW20929   1.957   4.663   3.765 -0.5327  0.6058  0.4105
 3417SOL    HW120930   1.968   4.759   3.791 -2.5873  0.7987  0.6544
 3417SOL    HW220931   2.003   4.647   3.678  1.5719  1.3024  1.3591
 3418SOL     OW20932   9.698   7.661   0.293  0.1607 -0.4229  0.4178
 3418SOL    HW120933   9.647   7.581   0.324 -1.5995 -0.5731 -2.6868
 3418SOL    HW220934   9.656   7.744   0.329 -0.4116 -0.7060  0.4012
 3419SOL     OW20935   5.753   9.173   2.715  0.4053  0.5154  0.3927
 3419SOL    HW120936   5.676   9.190   2.653  0.2146  1.5323  0.9040
 3419SOL    HW220937   5.727   9.102   2.781 -0.4364  1.5361  1.1665
 3420SOL     OW20938   7.136   9.196   2.394 -0.3733  0.0927 -0.2393
 3420SOL    HW120939   7.168   9.271   2.451  0.0977 -0.7355  0.6035
 3420SOL    HW220940   7.171   9.207   2.301 -0.6082  1.1048 -0.2086
 3421SOL     OW20941   2.980   9.446   1.272  0.3061  0.3838 -0.4245
 3421SOL    HW120942   3.005   9.398   1.188  0.4456 -1.1450  0.4808
 3421SOL    HW220943   3.063   9.469   1.323  0.0912 -1.0396  0.5789
 3422SOL     OW20944   4.741   1.931   0.459  0.0463 -0.2140  0.2729
 3422SOL    HW120945   4.772   1.865   0.527  0.8906  1.1893  1.2575
 3422SOL    HW220946   4.660   1.978   0.493  0.1539  0.1155  0.0701
 3423SOL     OW20947   5.782   9.800   3.104  0.6986 -0.0543  0.0168
 3423SOL    HW120948   5.858   9.849   3.062  0.5174 -0.1761 -0.4623
 3423SOL    HW220949   5.816   9.742   3.179  1.1979 -0.7531 -0.7423
 3424SOL     OW20950   1.490   1.368   4.230  0.2074 -0.1862  0.0687
 3424SOL    HW120951   1.564   1.432   4.252  1.7433 -2.3843  1.4776
 3424SOL    HW220952   1.494   1.344   4.133  0.1605  1.1512 -0.2707
 3425SOL     OW20953   2.401   1.473   3.143  0.0965 -0.0259  0.3406
 3425SOL    HW120954   2.393   1.482   3.044 -0.8900 -1.4777  0.2727
 3425SOL    HW220955   2.352   1.549   3.187 -1.0968 -0.4182 -0.2740
 3426SOL     OW20956   9.762   1.212   1.214  0.0765 -0.7089 -0.0459
 3426SOL    HW120957   9.797   1.221   1.307 -0.5412 -1.5658  0.2763
 3426SOL    HW220958   9.782   1.296   1.162 -0.8049  0.3275  1.2635
 3427SOL     OW20959   9.821   7.466   4.019 -0.0257  0.2919  0.3929
 3427SOL    HW120960   9.763   7.401   3.969 -0.3439 -0.4719  1.7275
 3427SOL    HW220961   9.769   7.549   4.038 -0.8550 -0.5743  1.9939
 3428SOL     OW20962   5.591   6.702   3.590 -0.3907  0.2476  0.2798
 3428SOL    HW120963   5.571   6.784   3.644  1.0335  0.1679  0.9561
 3428SOL    HW220964   5.684   6.670   3.612 -0.3102 -0.5648 -1.2230
 3429SOL     OW20965   8.100   1.067   5.173  0.3438 -0.7319 -0.4161
 3429SOL    HW120966   8.014   1.015   5.175  1.6357 -2.9030  0.2632
 3429SOL    HW220967   8.165   1.022   5.112  0.7622  1.3460 -1.5490
 3430SOL     OW20968   7.098   8.329   3.850 -0.3078  0.4027 -0.4063
 3430SOL    HW120969   7.076   8.306   3.945 -0.9992 -1.1266 -0.9281
 3430SOL    HW220970   7.159   8.409   3.849 -0.7169  0.7662  1.2947
 3431SOL     OW20971   3.913   1.970   0.334  0.2943  0.3597 -0.0125
 3431SOL    HW120972   3.934   1.914   0.414  1.4787  0.9829  0.1139
 3431SOL    HW220973   3.832   1.933   0.288 -0.6414  0.2517  1.6995
 3432SOL     OW20974   3.984   8.786   3.116 -0.0132  0.2512 -0.2743
 3432SOL    HW120975   4.025   8.774   3.206  1.0264 -0.3699 -0.8234
 3432SOL    HW220976   4.055   8.784   3.046 -0.9288 -0.4110 -1.2077
 3433SOL     OW20977   0.823   1.714   3.817 -0.8822  0.1147 -0.2447
 3433SOL    HW120978   0.838   1.690   3.721  1.4776 -2.2182  0.6467
 3433SOL    HW220979   0.759   1.649   3.858 -2.3107  1.4335 -0.3438
 3434SOL     OW20980   0.892   2.323   2.814  0.2408 -0.1640  0.2964
 3434SOL    HW120981   0.926   2.236   2.851 -0.4089  0.4177  2.3038
 3434SOL    HW220982   0.920   2.331   2.718  2.4647 -1.4464  0.7953
 3435SOL     OW20983   0.413   9.665   2.470  0.2967  0.2344  0.1636
 3435SOL    HW120984   0.420   9.566   2.455  2.0933  0.4235 -0.4370
 3435SOL    HW220985   0.407   9.711   2.381  0.8400  0.7418  0.3927
 3436SOL     OW20986   9.272   9.641   2.745  0.3498  0.4995  0.2546
 3436SOL    HW120987   9.234   9.576   2.679 -1.8211  0.6796  1.2637
 3436SOL    HW220988   9.347   9.598   2.796 -1.4077 -1.4395  1.2775
 3437SOL     OW20989   2.736   3.968   2.772 -0.0922  0.5415  0.1316
 3437SOL    HW120990   2.659   4.032   2.763  0.0260  0.5948 -0.5020
 3437SOL    HW220991   2.779   3.981   2.861 -0.8815  0.4426  0.5346
 3438SOL     OW20992   2.396   9.181   3.216  0.2063 -0.0854  0.3892
 3438SOL    HW120993   2.459   9.248   3.254 -0.9424  0.9449  0.4965
 3438SOL    HW220994   2.309   9.225   3.193  0.5878 -0.8450 -2.7024
 3439SOL     OW20995   9.455   8.373   1.495  0.0805  0.7789  0.3524
 3439SOL    HW120996   9.498   8.458   1.526  0.1745  0.3911  1.3091
 3439SOL    HW220997   9.518   8.323   1.436  1.1529 -0.0160  2.1195
 3440SOL     OW20998   1.510   1.137   3.462  0.4530 -0.1828 -0.0205
 3440SOL    HW120999   1.434   1.201   3.466  0.5672 -0.0805  0.5080
 3440SOL    HW221000   1.475   1.044   3.473  0.1604 -0.3067 -1.8371
 3441SOL     OW21001   2.047   3.529   0.689  0.1509  0.4888 -0.0987
 3441SOL    HW121002   2.009   3.575   0.610  0.8182  0.2166 -0.5809
 3441SOL    HW221003   2.045   3.430   0.674  1.0869  0.4710 -0.1550
 3442SOL     OW21004   2.794   6.925   1.737 -0.1825  0.0740  0.1783
 3442SOL    HW121005   2.878   6.909   1.686 -1.0568 -1.1418 -0.9051
 3442SOL    HW221006   2.722   6.863   1.705 -1.1388  0.1944  1.9759
 3443SOL     OW21007   2.976   7.900   0.000 -0.2317 -0.3286 -0.0146
 3443SOL    HW121008   2.981   7.942   0.091 -1.7067 -0.7954  0.3044
 3443SOL    HW221009   3.054   7.839  -0.013  1.4735  1.8381 -0.1615
 3444SOL     OW21010   5.417   0.745   2.565  0.1167  0.2264  0.4233
 3444SOL    HW121011   5.389   0.835   2.530  1.6540  0.2237 -0.8790
 3444SOL    HW221012   5.514   0.747   2.587  0.4198 -1.4423 -0.7054
 3445SOL     OW21013   2.649   0.520   1.124 -0.5017  0.3421 -0.2459
 3445SOL    HW121014   2.602   0.558   1.045  2.3771 -1.9557 -3.1555
 3445SOL    HW221015   2.601   0.438   1.155 -0.9925  0.6216 -0.2505
 3446SOL     OW21016   2.805   1.108   3.144 -0.0324  0.0329 -0.5791
 3446SOL    HW121017   2.739   1.094   3.070 -0.6302 -1.5759  0.2181
 3446SOL    HW221018   2.868   1.182   3.120  0.6793 -1.3912 -3.3029
 3447SOL     OW21019   1.942   0.649   3.362 -0.2973  0.8855 -0.4799
 3447SOL    HW121020   1.858   0.596   3.377 -0.5992  1.8030  1.1978
 3447SOL    HW221021   2.021   0.588   3.370 -0.6938  0.4570  0.2837
 3448SOL     OW21022   9.067   1.521   4.025  0.2656 -0.3648  0.0726
 3448SOL    HW121023   9.130   1.458   3.980 -0.9296 -2.0466  0.6685
 3448SOL    HW221024   9.014   1.471   4.094 -0.7072  1.3133  0.5775
 3449SOL     OW21025   2.827   8.513   0.449 -0.0409 -0.2770 -0.7222
 3449SOL    HW121026   2.838   8.612   0.446  1.5108 -0.4084  0.1978
 3449SOL    HW221027   2.786   8.487   0.536 -0.7563 -0.4239 -1.0986
 3450SOL     OW21028   7.451   0.637   3.479  0.1881  0.0684  0.2287
 3450SOL    HW121029   7.392   0.713   3.505  0.3260  0.2458  0.0317
 3450SOL    HW221030   7.539   0.645   3.527  0.0950 -0.1280  0.4301
 3451SOL     OW21031   0.675   2.948   4.573 -0.3054 -0.2100  0.4705
 3451SOL    HW121032   0.738   3.025   4.581 -1.0528  0.4285  0.2328
 3451SOL    HW221033   0.581   2.982   4.570 -0.5836 -1.0565 -0.7455
 3452SOL     OW21034   2.944   0.698   4.651  0.0245 -0.8383  0.2741
 3452SOL    HW121035   2.915   0.793   4.638  0.5374 -0.4677  1.7801
 3452SOL    HW221036   3.043   0.696   4.665 -0.0145 -1.5906  0.4274
 3453SOL     OW21037   1.840   6.729   0.379 -0.1579 -0.4209  0.0270
 3453SOL    HW121038   1.743   6.746   0.360  0.1299  0.8447 -0.3370
 3453SOL    HW221039   1.896   6.777   0.312  0.7412 -0.7865  0.5094
 3454SOL     OW21040   4.041   9.270   1.005 -0.3908 -0.3262 -0.6471
 3454SOL    HW121041   4.039   9.347   0.940  0.8639  0.1029 -0.1891
 3454SOL    HW221042   4.009   9.187   0.959 -1.7136  0.4533 -1.1603
 3455SOL     OW21043   0.037   2.279   3.927  0.1146  0.1464  0.1427
 3455SOL    HW121044  -0.012   2.229   3.999 -0.7506 -0.4107 -0.8290
 3455SOL    HW221045   0.085   2.357   3.968 -0.8988  0.2157  1.2287
 3456SOL     OW21046   9.872   6.218   1.699  0.4876 -0.5902 -0.0532
 3456SOL    HW121047   9.920   6.208   1.611  1.5875 -0.9398  0.5737
 3456SOL    HW221048   9.813   6.139   1.714 -0.3897 -0.1097 -0.8781
 3457SOL     OW21049   1.341   7.755   4.329  0.3645 -0.0000  0.1851
 3457SOL    HW121050   1.255   7.745   4.381  0.7273 -1.4885  0.5369
 3457SOL    HW221051   1.322   7.743   4.232  0.0343  0.5401  0.1802
 3458SOL     OW21052   5.467   9.594   2.913  0.2971 -0.1506  0.2151
 3458SOL    HW121053   5.401   9.520   2.902  0.2381  0.2088 -2.2122
 3458SOL    HW221054   5.535   9.569   2.982 -1.6814 -1.0171  1.8992
 3459SOL     OW21055   1.478   7.405   2.780  0.6910 -0.3295 -0.1843
 3459SOL    HW121056   1.549   7.444   2.722  0.4204  0.6754  0.1597
 3459SOL    HW221057   1.411   7.358   2.723  0.0139  1.3053 -0.7497
 3460SOL     OW21058   8.370   0.990   0.292 -0.2227 -0.6122 -0.2204
 3460SOL    HW121059   8.280   0.956   0.264 -0.5956 -1.0825  1.5027
 3460SOL    HW221060   8.406   0.933   0.366  0.2215  1.2664  1.0633
 3461SOL     OW21061   7.772   0.003   4.377 -0.5893 -0.1775  0.6172
 3461SOL    HW121062   7.761   0.016   4.476  0.9427  0.2237  0.7578
 3461SOL    HW221063   7.818  -0.084   4.360 -0.7420 -0.1896  0.2649
 3462SOL     OW21064   9.187   0.896   0.352  0.0366 -0.3288 -0.4506
 3462SOL    HW121065   9.192   0.872   0.449  0.8442  0.5713 -0.2591
 3462SOL    HW221066   9.258   0.963   0.330 -2.3008  2.0763 -0.8854
 3463SOL     OW21067   9.408   9.509   2.121  0.1222  0.0224 -0.1344
 3463SOL    HW121068   9.485   9.446   2.129  0.0791  0.3138  3.7389
 3463SOL    HW221069   9.434   9.588   2.066  2.4890 -0.0890  0.7759
 3464SOL     OW21070   3.948   0.691   0.435  0.2253  0.7714 -0.3445
 3464SOL    HW121071   4.047   0.691   0.423  0.2861 -0.5610  0.0943
 3464SOL    HW221072   3.926   0.689   0.533 -0.2297  0.3177 -0.4510
 3465SOL     OW21073   7.187   5.890   2.383 -0.6152  0.1548 -0.5077
 3465SOL    HW121074   7.186   5.794   2.354 -0.0142  0.4482 -1.5287
 3465SOL    HW221075   7.280   5.915   2.411 -1.1245 -0.0280  1.3555
 3466SOL     OW21076   1.110   8.689   1.486 -0.1543 -0.6531 -0.1836
 3466SOL    HW121077   1.067   8.729   1.567 -1.2591 -0.6951 -0.7323
 3466SOL    HW221078   1.150   8.601   1.510  0.1676 -0.3324  0.4797
 3467SOL     OW21079   2.523   8.755   3.782  0.6075  0.5486 -0.2428
 3467SOL    HW121080   2.444   8.701   3.811  0.3227  0.0035 -1.9762
 3467SOL    HW221081   2.501   8.852   3.790 -0.0503  0.4004 -0.1793
 3468SOL     OW21082   8.819   6.126   2.427 -0.0733 -0.5976  0.0810
 3468SOL    HW121083   8.829   6.210   2.481 -1.2719 -0.8751  0.7268
 3468SOL    HW221084   8.910   6.091   2.405  0.4305  0.1703  0.8910
 3469SOL     OW21085   0.396   0.713   2.214 -0.3660  0.3733  0.2164
 3469SOL    HW121086   0.488   0.736   2.245  0.4926 -2.3521 -0.1689
 3469SOL    HW221087   0.378   0.617   2.234 -3.1545  0.8793  0.2986
 3470SOL     OW21088   0.447   3.459   1.264 -0.3118 -0.1564  0.1118
 3470SOL    HW121089   0.439   3.397   1.187 -1.5094  0.7655 -0.5275
 3470SOL    HW221090   0.503   3.417   1.336  1.4466 -0.7031 -1.5514
 3471SOL     OW21091   2.063   2.654   3.441 -0.5443  0.1426  0.3270
 3471SOL    HW121092   2.125   2.598   3.495 -2.3133 -1.5281  0.6826
 3471SOL    HW221093   2.015   2.719   3.500  0.0821  0.6957  0.2234
 3472SOL     OW21094   9.487   5.993   1.375  0.1736  0.0429  0.0223
 3472SOL    HW121095   9.585   5.975   1.361 -0.1598 -0.7947 -1.3675
 3472SOL    HW221096   9.435   5.909   1.363 -0.7163  0.4509  0.9261
 3473SOL     OW21097   8.234   9.027   1.914  0.2442  0.7250 -0.5420
 3473SOL    HW121098   8.317   8.971   1.908  0.9274  1.6119  0.3630
 3473SOL    HW221099   8.253   9.108   1.970 -1.3459  0.7307  0.0114
 3474SOL     OW21100   4.567   9.556   5.441  0.6153 -0.1854  1.1305
 3474SOL    HW121101   4.541   9.649   5.416 -3.2277 -1.7116 -0.9439
 3474SOL    HW221102   4.639   9.523   5.380  1.4950  1.1775  1.4274
 3475SOL     OW21103   2.378   8.504   4.453 -0.2346 -0.3532  0.0632
 3475SOL    HW121104   2.332   8.564   4.387 -0.5707  0.0274  0.6382
 3475SOL    HW221105   2.321   8.423   4.468 -0.8044  0.1892  0.8904
 3476SOL     OW21106   2.511   0.183   5.541 -0.1429 -0.0559 -0.0067
 3476SOL    HW121107   2.421   0.149   5.513 -0.6911  2.4015 -1.4426
 3476SOL    HW221108   2.582   0.118   5.513 -1.0878  0.2569 -3.3404
 3477SOL     OW21109   3.752   1.452   1.310 -0.5284 -0.1765 -0.2447
 3477SOL    HW121110   3.667   1.497   1.336 -1.0835 -1.8877  1.0194
 3477SOL    HW221111   3.736   1.353   1.301  1.8832 -0.9031  2.6705
 3478SOL     OW21112   4.191   0.852   4.949  0.0710 -0.0086  0.3205
 3478SOL    HW121113   4.273   0.908   4.961 -0.5601  1.1678 -0.7242
 3478SOL    HW221114   4.151   0.832   5.039 -0.4506  2.3963  0.6651
 3479SOL     OW21115   2.274   8.485   0.176  0.1936 -0.1939 -0.1154
 3479SOL    HW121116   2.373   8.495   0.163  0.5665 -1.7858  1.2863
 3479SOL    HW221117   2.238   8.424   0.106  0.6003 -1.3745  0.6882
 3480SOL     OW21118   1.932   9.661   4.888  0.6381 -0.0671 -0.1405
 3480SOL    HW121119   2.009   9.599   4.874  0.4138 -0.7310  1.4491
 3480SOL    HW221120   1.961   9.755   4.867  1.8419 -0.3345  0.2857
 3481SOL     OW21121   1.288   3.433   4.176  0.3330 -0.3546  0.4576
 3481SOL    HW121122   1.222   3.508   4.176  0.0544 -0.5946  0.2703
 3481SOL    HW221123   1.373   3.462   4.219 -0.2218 -0.3308  1.5543
 3482SOL     OW21124   3.439   1.078   4.567 -0.2893 -0.3593  0.0543
 3482SOL    HW121125   3.359   1.020   4.550 -0.9330  0.2643  0.8907
 3482SOL    HW221126   3.409   1.166   4.605  0.7229  0.2827 -0.5945
 3483SOL     OW21127   9.541   2.719   0.449 -0.3447 -0.2026  0.2506
 3483SOL    HW121128   9.489   2.648   0.496  0.7567 -1.1007  0.1159
 3483SOL    HW221129   9.585   2.681   0.368  0.0589  0.6879  0.0388
 3484SOL     OW21130   5.038   7.904   2.079  0.5054  0.6403 -0.3421
 3484SOL    HW121131   5.131   7.940   2.083  0.1193  1.4930  1.7296
 3484SOL    HW221132   5.030   7.826   2.141  0.0472  0.0724 -1.1085
 3485SOL     OW21133   1.103   1.207   3.274  0.4300 -0.1662 -0.4952
 3485SOL    HW121134   1.097   1.147   3.354  0.3388 -1.2570 -1.3144
 3485SOL    HW221135   1.011   1.231   3.243  0.4502  1.4969  0.6185
 3486SOL     OW21136   3.660   6.253   3.159 -0.2742 -0.1212 -0.3587
 3486SOL    HW121137   3.608   6.210   3.233 -0.2905  0.4557 -0.0281
 3486SOL    HW221138   3.597   6.301   3.098 -0.1610  0.3115 -0.1369
 3487SOL     OW21139   3.227   4.758   2.317  0.0655  0.0226 -0.5229
 3487SOL    HW121140   3.236   4.695   2.239 -2.3202 -0.9121 -0.0962
 3487SOL    HW221141   3.261   4.714   2.400  1.0960  0.4056 -0.7356
 3488SOL     OW21142   0.010   6.027   2.357  0.0333  0.1265  0.0952
 3488SOL    HW121143   0.082   6.087   2.323 -0.9444  0.3283 -1.6550
 3488SOL    HW221144   0.024   5.935   2.322 -1.0134  0.3508 -0.9475
 3489SOL     OW21145   1.418   4.229   1.380  0.0677 -0.2132  0.6924
 3489SOL    HW121146   1.368   4.285   1.446 -0.5305  0.8861 -0.6771
 3489SOL    HW221147   1.355   4.171   1.329  0.7095 -2.3445  2.2673
 3490SOL     OW21148   9.931   8.408   4.604 -0.0099  0.0461 -0.5777
 3490SOL    HW121149  10.021   8.385   4.642  0.4889  0.6771 -1.3595
 3490SOL    HW221150   9.860   8.363   4.658  0.7016  0.6326  0.8695
 3491SOL     OW21151   1.150   0.581   1.472 -0.4871 -0.2942  0.5277
 3491SOL    HW121152   1.145   0.676   1.440  1.0996 -0.4710 -0.3424
 3491SOL    HW221153   1.223   0.573   1.540 -0.6546 -0.8761  0.6388
 3492SOL     OW21154   4.089   9.120   3.266  0.4306 -0.1337  0.2751
 3492SOL    HW121155   4.171   9.130   3.323  1.1794  0.0945 -0.8179
 3492SOL    HW221156   4.020   9.068   3.315  1.1015 -0.0157  1.3540
 3493SOL     OW21157   2.926   7.689   0.750 -0.3650  0.2728  0.1453
 3493SOL    HW121158   2.860   7.636   0.803  0.4592  0.6741  1.5967
 3493SOL    HW221159   3.014   7.690   0.797  0.4085  0.6008 -1.2629
 3494SOL     OW21160   5.415   7.440   3.144 -0.3639 -0.1999 -0.3529
 3494SOL    HW121161   5.381   7.500   3.071 -0.6846  0.3013  0.1997
 3494SOL    HW221162   5.343   7.375   3.169 -0.5832  0.2173  0.1306
 3495SOL     OW21163   5.287   8.381   3.370 -0.3648 -0.0886  0.6198
 3495SOL    HW121164   5.295   8.335   3.459  1.0753 -0.3855  0.3383
 3495SOL    HW221165   5.230   8.462   3.380  1.6495  1.1411  2.3086
 3496SOL     OW21166   0.551   9.361   5.310  0.6603  0.8498 -0.0578
 3496SOL    HW121167   0.487   9.295   5.270  0.3425  1.1369 -0.0304
 3496SOL    HW221168   0.544   9.359   5.410  0.1887  1.3755 -0.0763
 3497SOL     OW21169   5.456   7.968   3.892 -0.8049  0.1126 -0.1938
 3497SOL    HW121170   5.542   7.921   3.872 -1.8900 -1.5645 -1.0473
 3497SOL    HW221171   5.462   8.063   3.861  0.8908  0.1528  0.1933
 3498SOL     OW21172   2.800   6.723   3.467 -0.2986 -0.5616 -0.0534
 3498SOL    HW121173   2.778   6.774   3.550 -1.3532 -0.5665 -0.3184
 3498SOL    HW221174   2.828   6.786   3.395  0.1932 -0.5204  0.1741
 3499SOL     OW21175   9.720   5.935   2.985  0.4716  0.0308  0.1707
 3499SOL    HW121176   9.636   5.880   2.982  0.8543 -0.5548  0.0503
 3499SOL    HW221177   9.749   5.946   3.080  0.3085  0.1566  0.2060
 3500SOL     OW21178   2.080   3.107   0.075 -0.4781 -0.2645  0.9233
 3500SOL    HW121179   2.126   3.125   0.162 -2.9900  0.5023  2.1493
 3500SOL    HW221180   2.002   3.169   0.066  0.6581  0.7825 -2.6373
 3501SOL     OW21181   9.858   8.333   0.345  0.3026 -0.2952 -0.1411
 3501SOL    HW121182   9.812   8.421   0.334 -2.8705 -1.8407  0.0924
 3501SOL    HW221183   9.872   8.314   0.442 -0.2389 -0.6336 -0.1268
 3502SOL     OW21184   0.680   0.562   0.646  0.1273  0.6094 -0.2941
 3502SOL    HW121185   0.724   0.584   0.559  0.8053  0.3442 -0.0123
 3502SOL    HW221186   0.731   0.491   0.694  0.5755  1.7526  0.9828
 3503SOL     OW21187   1.981   8.278   5.128 -0.3847 -0.3113 -0.1079
 3503SOL    HW121188   2.063   8.304   5.179 -0.5110 -0.7791  0.3396
 3503SOL    HW221189   1.982   8.321   5.038 -0.2808  0.7250  0.3818
 3504SOL     OW21190   0.878   7.730   0.293  0.0506 -0.8215  0.3854
 3504SOL    HW121191   0.931   7.678   0.226  2.6632  2.4799 -0.2812
 3504SOL    HW221192   0.803   7.778   0.248  1.1765  0.5630 -0.0658
 3505SOL     OW21193   9.535   8.627   0.156 -0.3723  0.3211 -0.1688
 3505SOL    HW121194   9.441   8.596   0.147  0.1320 -0.8085 -1.7064
 3505SOL    HW221195   9.559   8.684   0.077  0.8043 -0.9347 -0.7320
 3506SOL     OW21196   1.758   1.648   3.021  0.1316  0.1756 -0.5794
 3506SOL    HW121197   1.678   1.606   3.065  0.7461 -0.2666  0.1368
 3506SOL    HW221198   1.767   1.742   3.053  0.9668 -0.3528  0.7945
 3507SOL     OW21199   3.770   7.340   1.034  0.0727 -0.1515 -1.3570
 3507SOL    HW121200   3.778   7.290   1.120  0.3566 -0.9987 -1.8689
 3507SOL    HW221201   3.860   7.377   1.009  0.1803 -0.6552 -1.7294
 3508SOL     OW21202   1.821   4.604   3.429 -0.6467  0.3296 -0.4228
 3508SOL    HW121203   1.836   4.562   3.340 -0.4716 -1.3749  0.3880
 3508SOL    HW221204   1.771   4.540   3.488 -0.6206  1.3699  0.7568
 3509SOL     OW21205   2.619   9.557   4.978 -0.2639  0.0345 -0.3230
 3509SOL    HW121206   2.597   9.476   4.924  0.3935  0.2889 -0.9688
 3509SOL    HW221207   2.561   9.634   4.950  0.6203  0.3844 -1.2226
 3510SOL     OW21208   8.354   3.814   2.671 -0.5686 -0.4105 -0.8182
 3510SOL    HW121209   8.321   3.769   2.588  1.7645  0.6108 -2.3517
 3510SOL    HW221210   8.439   3.770   2.701  0.3405  1.2765 -0.8413
 3511SOL     OW21211   3.894   3.751   0.318 -0.2627  0.8021  0.0484
 3511SOL    HW121212   3.940   3.782   0.402 -1.7103  2.0984  0.3824
 3511SOL    HW221213   3.835   3.673   0.340  1.2008 -0.4090 -0.2455
 3512SOL     OW21214   4.721   7.777   3.612  0.3900 -0.2771 -0.4169
 3512SOL    HW121215   4.674   7.764   3.525 -0.8158  1.0881  0.0065
 3512SOL    HW221216   4.731   7.689   3.658 -0.9124 -0.7188 -0.9565
 3513SOL     OW21217   7.324   9.459   2.357 -0.4973  0.2348 -0.3116
 3513SOL    HW121218   7.289   9.439   2.449  0.0475 -0.1793 -0.1947
 3513SOL    HW221219   7.387   9.536   2.362 -0.4269  0.1785 -0.3328
 3514SOL     OW21220   2.857   5.350   3.556  0.3102 -1.1825  0.6343
 3514SOL    HW121221   2.788   5.299   3.607  0.1982  0.5249  2.2417
 3514SOL    HW221222   2.874   5.437   3.602 -0.0887  0.6005 -2.4847
 3515SOL     OW21223   8.073   9.470   5.550  0.5444  0.4408  0.5513
 3515SOL    HW121224   8.077   9.567   5.524 -0.5799  0.2278 -0.4749
 3515SOL    HW221225   8.066   9.414   5.468 -1.1243 -0.3632  1.2160
 3516SOL     OW21226   5.189   0.599   2.627 -0.6206 -0.1948 -0.2846
 3516SOL    HW121227   5.267   0.643   2.583 -1.2302  0.1488 -1.0270
 3516SOL    HW221228   5.222   0.525   2.686  0.2503 -0.1941 -0.7553
 3517SOL     OW21229   1.162   7.854   0.468  0.2983  0.6630 -0.4284
 3517SOL    HW121230   1.081   7.891   0.423 -0.5004  0.4665  0.8205
 3517SOL    HW221231   1.136   7.776   0.525  1.7109 -0.8295 -1.7477
 3518SOL     OW21232   7.979   8.890   0.127  0.3386  0.2159  0.0221
 3518SOL    HW121233   8.069   8.933   0.125  0.4767 -0.0022  1.4063
 3518SOL    HW221234   7.971   8.832   0.207 -0.2862 -1.4148 -1.1829
 3519SOL     OW21235   8.352   4.427   1.467 -0.7278  0.4162  0.0212
 3519SOL    HW121236   8.281   4.418   1.397 -0.4892  0.2479 -0.2009
 3519SOL    HW221237   8.401   4.340   1.477  0.0310  0.7819 -0.4554
 3520SOL     OW21238   4.788   4.778   0.184 -0.0307 -0.3541  0.5403
 3520SOL    HW121239   4.734   4.697   0.209 -0.0267 -0.0803  1.4207
 3520SOL    HW221240   4.788   4.843   0.259 -0.3708  0.6518 -0.3204
 3521SOL     OW21241   9.731   9.367   4.148 -0.6704 -0.5813 -0.1029
 3521SOL    HW121242   9.761   9.385   4.242 -0.9846  0.2981 -0.1689
 3521SOL    HW221243   9.719   9.453   4.100 -1.6651 -0.9865 -0.5949
 3522SOL     OW21244   2.728   6.631   2.632  0.6526 -0.2541  0.5160
 3522SOL    HW121245   2.754   6.596   2.542 -0.9595 -0.7006  0.2151
 3522SOL    HW221246   2.640   6.678   2.626 -1.0271 -2.9403  2.3998
 3523SOL     OW21247   2.648   6.370   3.684  0.1477  0.1649 -0.2340
 3523SOL    HW121248   2.559   6.333   3.711  0.0605 -0.5246 -1.4279
 3523SOL    HW221249   2.667   6.452   3.738 -0.6737 -0.3495  0.8586
 3524SOL     OW21250   3.044   8.777   4.233 -0.0190  0.0451 -0.6217
 3524SOL    HW121251   3.066   8.776   4.136  1.0466 -0.5155 -0.3836
 3524SOL    HW221252   3.111   8.724   4.283 -1.9297 -1.7196  0.1491
 3525SOL     OW21253   9.448   9.470   2.894  0.4169  0.5246 -0.2611
 3525SOL    HW121254   9.471   9.420   2.978  2.0137  0.4528 -0.7233
 3525SOL    HW221255   9.444   9.406   2.817  0.9077  0.8866 -0.5870
 3526SOL     OW21256   5.062   0.373   1.219  0.4497  0.1749 -0.2560
 3526SOL    HW121257   5.096   0.459   1.258 -0.3464  0.7026 -0.7083
 3526SOL    HW221258   4.973   0.389   1.176 -0.0797 -1.0618  0.3738
 3527SOL     OW21259   2.756   4.699   2.526 -0.2656  0.4166 -0.1585
 3527SOL    HW121260   2.773   4.758   2.605 -0.7716  0.3537  0.0027
 3527SOL    HW221261   2.670   4.725   2.483 -0.9835 -0.8128  0.4967
 3528SOL     OW21262   4.279   1.353   2.051  0.1379  0.3104 -0.1611
 3528SOL    HW121263   4.268   1.414   1.973  1.0589  0.7444  0.0401
 3528SOL    HW221264   4.215   1.276   2.043 -0.7780  1.1133 -0.5974
 3529SOL     OW21265   3.965   0.965   4.800  0.0427 -0.1658  0.0782
 3529SOL    HW121266   4.030   0.935   4.870 -0.8820  0.9921  1.4439
 3529SOL    HW221267   3.969   0.901   4.722  0.4670 -1.9275  1.5051
 3530SOL     OW21268   2.808   0.596   2.888 -0.3678 -0.2311  0.0973
 3530SOL    HW121269   2.853   0.678   2.924  0.9795 -0.3380 -1.3185
 3530SOL    HW221270   2.714   0.618   2.864  0.1547  1.0737 -0.8202
 3531SOL     OW21271   2.197   1.636   2.868 -0.1745  0.5912 -0.1807
 3531SOL    HW121272   2.156   1.708   2.924 -0.4566 -0.1098  0.5306
 3531SOL    HW221273   2.154   1.548   2.890  0.9488  0.0215 -0.2195
 3532SOL     OW21274   4.827   6.634   3.628  0.0424  0.5557  0.4070
 3532SOL    HW121275   4.754   6.576   3.590 -0.7570  0.8067  1.5656
 3532SOL    HW221276   4.804   6.730   3.614  0.9109  0.6191 -0.6431
 3533SOL     OW21277   4.695   3.742   5.517 -0.4056 -0.6721 -0.3823
 3533SOL    HW121278   4.632   3.790   5.456 -1.2351 -1.4177 -0.1308
 3533SOL    HW221279   4.690   3.782   5.609 -2.3431 -2.2682  0.2506
 3534SOL     OW21280   3.528   8.655   0.651 -0.5754  0.0073  0.1019
 3534SOL    HW121281   3.530   8.558   0.672  0.0958  0.0482  0.2377
 3534SOL    HW221282   3.482   8.670   0.563 -2.8002 -0.2278  1.1799
 3535SOL     OW21283   9.962   0.803   5.247 -0.8495 -0.0620  0.1974
 3535SOL    HW121284   9.938   0.739   5.320 -0.3363 -0.5745 -0.0768
 3535SOL    HW221285  10.058   0.791   5.223 -0.0117  2.5975  1.9387
 3536SOL     OW21286   1.924   3.698   2.106  0.2292 -0.0020 -0.3320
 3536SOL    HW121287   1.865   3.766   2.064 -1.9126 -1.1474  0.7504
 3536SOL    HW221288   1.897   3.606   2.076  0.5466 -0.6331  1.2642
 3537SOL     OW21289   9.588   9.567   1.167  0.4306 -0.1399 -0.0647
 3537SOL    HW121290   9.597   9.635   1.240  1.0200  0.5792 -0.7947
 3537SOL    HW221291   9.677   9.526   1.149 -0.3012 -2.6942  1.8538
 3538SOL     OW21292   6.035   1.022   3.641 -0.4292  0.5223 -0.4582
 3538SOL    HW121293   5.983   1.008   3.557  0.7022 -0.2571 -1.0447
 3538SOL    HW221294   5.982   0.988   3.719 -1.1068  0.4103 -0.9644
 3539SOL     OW21295   0.536   3.370   2.743 -0.1251 -0.1904  0.6505
 3539SOL    HW121296   0.475   3.335   2.672  0.1020  0.5265  0.0966
 3539SOL    HW221297   0.620   3.315   2.745  0.1178  0.1536 -0.0363
 3540SOL     OW21298   8.982   9.523   3.570 -0.0836  0.0309  0.1816
 3540SOL    HW121299   9.009   9.507   3.665 -3.0507  0.7932  1.2179
 3540SOL    HW221300   9.048   9.585   3.527  1.4873 -0.6067  1.6155
 3541SOL     OW21301   9.339   7.486   0.954  0.3499  0.1986 -0.1767
 3541SOL    HW121302   9.304   7.470   1.047  2.3507  0.7701  0.7061
 3541SOL    HW221303   9.338   7.400   0.903 -0.4892 -0.1774  0.4476
 3542SOL     OW21304   3.125   3.317   4.315 -0.3963 -0.2802  0.1682
 3542SOL    HW121305   3.155   3.385   4.249 -1.1735  0.8301  0.9542
 3542SOL    HW221306   3.186   3.237   4.310 -1.9629 -1.3690 -3.7003
 3543SOL     OW21307   3.854   6.892   4.738  0.0757  0.6482 -0.3955
 3543SOL    HW121308   3.875   6.961   4.668  1.6276  0.0968 -0.4902
 3543SOL    HW221309   3.799   6.819   4.697  1.7301 -0.1232 -1.2797
 3544SOL     OW21310   8.176   6.605   3.446  0.3136 -0.2226  0.0383
 3544SOL    HW121311   8.112   6.602   3.524 -0.7701 -0.2138 -0.8308
 3544SOL    HW221312   8.203   6.699   3.428 -0.4104 -0.0883 -0.3676
 3545SOL     OW21313   1.297   5.827   0.539 -0.3019  0.0097  0.7539
 3545SOL    HW121314   1.323   5.820   0.442  0.9811  3.6465  0.7649
 3545SOL    HW221315   1.367   5.783   0.595 -0.2197 -0.6696  0.1233
 3546SOL     OW21316   2.767   1.672   1.026  0.6109 -0.2631  0.0728
 3546SOL    HW121317   2.766   1.661   0.926  1.6379 -0.4149  0.0740
 3546SOL    HW221318   2.673   1.670   1.060  0.0852  2.1976 -1.1399
 3547SOL     OW21319   8.224   1.867   1.119  0.0143 -0.1615  0.0634
 3547SOL    HW121320   8.258   1.885   1.027 -0.8543  1.2825  0.0044
 3547SOL    HW221321   8.129   1.897   1.126  0.2129  0.1858  1.5743
 3548SOL     OW21322   7.013   9.352   2.839  0.0825  0.6598  0.2272
 3548SOL    HW121323   7.053   9.392   2.921  1.1283 -0.4909  0.2920
 3548SOL    HW221324   6.976   9.261   2.860  0.3646  0.3543 -0.5729
 3549SOL     OW21325   5.922   6.772   3.079  0.1540 -0.2159  0.1944
 3549SOL    HW121326   5.879   6.859   3.103  0.7628 -0.1808  1.2139
 3549SOL    HW221327   5.947   6.771   2.982 -0.4937  0.4652  0.0221
 3550SOL     OW21328   6.492   8.122   2.631 -0.2628 -0.0188 -0.1736
 3550SOL    HW121329   6.472   8.183   2.708 -0.7767  0.6762 -0.8496
 3550SOL    HW221330   6.459   8.030   2.652 -0.7928  0.2722  0.2629
 3551SOL     OW21331   8.571   1.343   1.480 -0.1562 -0.6051 -0.2009
 3551SOL    HW121332   8.634   1.266   1.480  1.2378  0.4945  1.6491
 3551SOL    HW221333   8.498   1.326   1.546 -0.0654 -0.5247 -0.0777
 3552SOL     OW21334   0.011   9.141   2.400 -0.3645  0.0649  0.3797
 3552SOL    HW121335  -0.067   9.102   2.352  0.4219 -1.6320  0.4523
 3552SOL    HW221336  -0.022   9.198   2.475 -1.5647 -2.9587  2.2519
 3553SOL     OW21337   4.830   3.161   2.219  0.0748  0.0142 -0.2775
 3553SOL    HW121338   4.849   3.251   2.257  1.7776 -1.5812  2.8782
 3553SOL    HW221339   4.851   3.161   2.121 -0.5272  3.1674 -0.4493
 3554SOL     OW21340   0.259   2.967   0.884 -0.1242  0.0053 -0.5985
 3554SOL    HW121341   0.209   2.894   0.837 -1.5387 -0.6331  1.8248
 3554SOL    HW221342   0.288   2.935   0.974  0.4795  1.9815 -0.0753
 3555SOL     OW21343   8.115   8.682   2.188 -0.1042 -0.2066 -0.5181
 3555SOL    HW121344   8.176   8.722   2.256 -0.8373 -0.0960  0.0819
 3555SOL    HW221345   8.058   8.612   2.230  0.2976 -1.0127 -1.2922
 3556SOL     OW21346   3.970   7.036   1.622  0.2358  0.2226 -0.3048
 3556SOL    HW121347   4.067   7.063   1.629  0.8276 -1.6310 -1.0642
 3556SOL    HW221348   3.936   7.013   1.713  1.2410 -1.4968 -0.3358
 3557SOL     OW21349   7.462   0.317   4.562 -0.0777  0.1076  0.2780
 3557SOL    HW121350   7.417   0.406   4.567  1.7033  1.0231  0.4434
 3557SOL    HW221351   7.544   0.318   4.619  0.6254 -1.2428 -0.6844
 3558SOL     OW21352   4.312   2.507   3.295 -0.5164 -0.4214 -0.1038
 3558SOL    HW121353   4.299   2.408   3.302 -3.1807 -0.1485 -0.6396
 3558SOL    HW221354   4.232   2.548   3.251  0.8937  1.8955 -0.6011
 3559SOL     OW21355   3.699   8.086   3.573 -0.2981  0.0238 -0.3773
 3559SOL    HW121356   3.760   8.151   3.528 -1.2678  0.7806 -0.6145
 3559SOL    HW221357   3.731   8.069   3.666 -0.3706  1.2936 -0.1144
 3560SOL     OW21358   3.984   0.792   2.532  0.5623  0.3238  0.3874
 3560SOL    HW121359   4.059   0.831   2.585 -0.2792  3.4697 -0.6390
 3560SOL    HW221360   3.896   0.818   2.573 -0.0980  2.7684 -2.3630
 3561SOL     OW21361   3.700   0.388   0.742  0.0168  0.8129  0.1943
 3561SOL    HW121362   3.654   0.327   0.677  0.9668 -1.2387  1.3831
 3561SOL    HW221363   3.649   0.390   0.828  0.5864  0.8026  0.5390
 3562SOL     OW21364   3.276   1.721   0.130  0.0339 -0.1051  0.3704
 3562SOL    HW121365   3.297   1.738   0.226  2.5243 -0.1333 -0.1488
 3562SOL    HW221366   3.220   1.638   0.123  0.7679 -0.7310  1.7133
 3563SOL     OW21367   2.479   7.018   1.637 -0.7379  0.0701 -0.1444
 3563SOL    HW121368   2.464   7.046   1.542  1.2748  1.0428 -0.1942
 3563SOL    HW221369   2.541   6.940   1.639  0.6281  1.1537  0.4378
 3564SOL     OW21370   9.678   1.124   2.957 -0.7786 -0.7068 -0.3503
 3564SOL    HW121371   9.678   1.102   2.860  0.4683 -2.7393  0.0730
 3564SOL    HW221372   9.697   1.042   3.010 -0.1099  0.6214  1.5515
 3565SOL     OW21373   9.487   7.906   3.954  0.0308 -0.1865  0.1273
 3565SOL    HW121374   9.431   7.929   4.034 -0.0137 -0.3125  0.1317
 3565SOL    HW221375   9.528   7.990   3.918 -2.8237  0.4068 -1.9070
 3566SOL     OW21376   6.012   7.834   3.759  0.5825  0.3986  0.1444
 3566SOL    HW121377   6.100   7.816   3.804  1.0882  2.9582  0.2363
 3566SOL    HW221378   5.952   7.756   3.773  2.5988 -1.1105  0.6679
 3567SOL     OW21379   2.197   8.420   0.680 -0.2043  0.1715 -0.1497
 3567SOL    HW121380   2.290   8.453   0.694  0.7347 -2.3945 -0.1239
 3567SOL    HW221381   2.160   8.387   0.766 -1.6343  2.3338  0.0999
 3568SOL     OW21382   7.531   1.165   1.350  0.5947  0.0665 -0.0973
 3568SOL    HW121383   7.618   1.133   1.388  0.1893  0.6882  1.4167
 3568SOL    HW221384   7.530   1.265   1.349  0.3313  0.0558 -1.1464
 3569SOL     OW21385   0.167   0.717   3.166 -0.4301  0.1347  0.3261
 3569SOL    HW121386   0.139   0.682   3.077 -2.0787 -0.5279  1.0873
 3569SOL    HW221387   0.134   0.810   3.179  1.1161  0.8009 -0.3499
 3570SOL     OW21388   0.985   1.318   3.706 -0.2846  0.1615 -0.6225
 3570SOL    HW121389   0.941   1.239   3.749  0.1272 -0.9682 -2.2488
 3570SOL    HW221390   0.915   1.379   3.669 -0.6186  0.8024  1.0394
 3571SOL     OW21391   3.234   9.023   3.779  0.2729  0.0993  0.9521
 3571SOL    HW121392   3.264   9.062   3.866  1.8990 -0.7088  0.7608
 3571SOL    HW221393   3.280   9.069   3.703  1.5705 -1.5639  0.6889
 3572SOL     OW21394   0.980   6.912   0.970  0.1839  0.1273 -0.0462
 3572SOL    HW121395   1.053   6.970   1.009 -0.9373  1.9583 -0.6073
 3572SOL    HW221396   0.996   6.817   0.995  1.9384  0.7102  1.1256
 3573SOL     OW21397   4.502   2.240   0.790  0.5454 -0.1942  0.6915
 3573SOL    HW121398   4.521   2.164   0.726  1.5591  0.5075  0.1441
 3573SOL    HW221399   4.458   2.315   0.740  0.9277  0.1813  0.9232
 3574SOL     OW21400   3.103   0.568   1.603  0.2885 -0.9964 -0.1862
 3574SOL    HW121401   3.131   0.571   1.699 -0.8036 -0.4329  0.1274
 3574SOL    HW221402   3.167   0.512   1.551 -0.0112 -2.6308  1.1673
 3575SOL     OW21403   3.145   4.818   0.189  0.3829  0.4808  0.5239
 3575SOL    HW121404   3.106   4.759   0.260  1.2066 -1.3853 -0.5422
 3575SOL    HW221405   3.221   4.870   0.227  1.1795 -0.9249  0.9079
 3576SOL     OW21406   1.807   2.060   2.929 -0.0480  0.2155  0.0727
 3576SOL    HW121407   1.822   2.008   3.013 -3.1079  1.7941  1.6763
 3576SOL    HW221408   1.822   2.157   2.947  1.8866  0.3439 -1.9492
 3577SOL     OW21409   1.268   1.078   1.866  0.6008 -0.3675  0.9793
 3577SOL    HW121410   1.248   1.115   1.957  0.8839  0.4617  0.7088
 3577SOL    HW221411   1.368   1.073   1.853  0.5911  1.3031  0.0179
 3578SOL     OW21412   6.380   7.897   3.261  0.0866  0.6622  0.4129
 3578SOL    HW121413   6.395   7.915   3.358  0.4953 -0.8503  0.6421
 3578SOL    HW221414   6.302   7.836   3.249  2.5985 -2.6344  0.1089
 3579SOL     OW21415   3.972   8.196   0.563  0.9927 -0.0027 -0.2796
 3579SOL    HW121416   3.970   8.116   0.624  1.6913 -1.0289 -1.5629
 3579SOL    HW221417   3.889   8.249   0.576 -0.4826 -2.0787 -0.8702
 3580SOL     OW21418   5.251   9.927   1.826 -0.0862 -0.1547  0.0557
 3580SOL    HW121419   5.279   9.976   1.909 -0.5696  0.7154 -0.2885
 3580SOL    HW221420   5.228   9.833   1.850  1.1310 -0.3075  0.6782
 3581SOL     OW21421   4.820   1.557   2.041  0.0652  0.0878 -0.3625
 3581SOL    HW121422   4.768   1.500   1.977  1.8419 -0.1647 -1.5897
 3581SOL    HW221423   4.859   1.635   1.993  0.9983  0.1630  0.5039
 3582SOL     OW21424   3.866   6.932   1.896 -0.3111 -0.0350 -0.1889
 3582SOL    HW121425   3.957   6.891   1.900  0.0782  0.8343  0.1258
 3582SOL    HW221426   3.807   6.889   1.963  0.1704  0.1086  0.3326
 3583SOL     OW21427   1.964   8.020   0.012 -0.1122 -0.3818  0.1966
 3583SOL    HW121428   1.971   8.089   0.085 -0.1877 -0.3456  0.1682
 3583SOL    HW221429   1.883   7.964   0.026 -0.3686 -0.0874 -0.1105
 3584SOL     OW21430   4.172   1.346   5.224  0.0612 -0.5431  0.2267
 3584SOL    HW121431   4.087   1.397   5.222  0.1099 -0.4118  1.2132
 3584SOL    HW221432   4.250   1.409   5.218  0.1434 -0.3871  2.5323
 3585SOL     OW21433   8.079   0.596   3.738 -0.5068  0.0154 -0.2923
 3585SOL    HW121434   8.115   0.561   3.651 -1.5538 -0.2084 -0.6345
 3585SOL    HW221435   7.988   0.635   3.723 -0.8336 -0.3331  0.7772
 3586SOL     OW21436   4.275   6.782   2.743 -0.2974 -0.4838  0.1691
 3586SOL    HW121437   4.311   6.720   2.812 -1.5651 -1.8116 -0.3118
 3586SOL    HW221438   4.348   6.807   2.679  0.2176 -1.5742  0.3130
 3587SOL     OW21439   2.023   6.801   4.470 -0.2958  0.2957 -0.2880
 3587SOL    HW121440   2.093   6.731   4.484  2.2518  1.5997 -5.4421
 3587SOL    HW221441   1.933   6.756   4.463  0.8463 -2.0961 -0.1805
 3588SOL     OW21442   3.816   3.092   1.308  0.4265  0.4486 -0.4675
 3588SOL    HW121443   3.744   3.028   1.280  1.0062 -0.3154 -0.2081
 3588SOL    HW221444   3.882   3.101   1.233  0.1815  0.9851 -0.6218
 3589SOL     OW21445   0.241   7.197   2.271  0.2288 -0.3190 -0.4238
 3589SOL    HW121446   0.174   7.246   2.215 -1.8356  1.0239  3.0946
 3589SOL    HW221447   0.203   7.108   2.298 -0.3751  0.6258  1.9372
 3590SOL     OW21448   9.539   9.793   0.120 -0.9957 -0.5979  0.5716
 3590SOL    HW121449   9.622   9.751   0.085 -0.8513 -0.4905  0.7874
 3590SOL    HW221450   9.550   9.816   0.216 -0.4889  1.4250  0.0606
 3591SOL     OW21451   6.953   9.872   2.759  0.2028  0.3422  0.1816
 3591SOL    HW121452   6.900   9.956   2.748 -0.0212 -0.0619 -2.2492
 3591SOL    HW221453   7.050   9.893   2.755  0.1813  0.7033  1.4612
 3592SOL     OW21454   8.454   1.320   5.347 -0.1139  0.1178  0.3564
 3592SOL    HW121455   8.394   1.299   5.423 -1.3820  2.7337  0.1417
 3592SOL    HW221456   8.534   1.371   5.380  1.0445 -1.6551  0.3676
 3593SOL     OW21457   3.499   9.124   0.568  0.1694  0.1458 -0.3017
 3593SOL    HW121458   3.430   9.054   0.589  0.2486  0.1605  0.0039
 3593SOL    HW221459   3.466   9.213   0.599 -0.3978  0.4187 -1.6464
 3594SOL     OW21460   9.275   9.040   3.677  0.1364 -0.4652  0.7385
 3594SOL    HW121461   9.261   8.969   3.746  0.4578 -0.0906  1.1955
 3594SOL    HW221462   9.355   9.095   3.701  1.0786 -1.1868 -0.6595
 3595SOL     OW21463   3.950   1.776   0.938  0.0008  0.1707 -0.6037
 3595SOL    HW121464   3.868   1.749   0.990 -0.4168  0.3540 -1.1628
 3595SOL    HW221465   4.006   1.696   0.920  0.7723  0.2734  1.1967
 3596SOL     OW21466   3.383   9.760   0.062  0.6372 -0.0844 -0.4699
 3596SOL    HW121467   3.457   9.723   0.006  0.5436  0.6674 -1.0901
 3596SOL    HW221468   3.332   9.684   0.103  2.6533 -0.6171  1.1725
 3597SOL     OW21469   2.089   8.330   0.950  0.2792 -0.2825 -0.2637
 3597SOL    HW121470   2.068   8.241   0.990  1.4134 -0.0572  0.8809
 3597SOL    HW221471   2.005   8.384   0.941 -0.1923 -0.8729  0.5155
 3598SOL     OW21472   7.410   2.317   2.821 -0.1246 -0.5091  0.3019
 3598SOL    HW121473   7.482   2.262   2.779 -0.9264  0.0879 -1.9241
 3598SOL    HW221474   7.340   2.256   2.859  1.0838 -1.0705  1.6706
 3599SOL     OW21475   0.051   0.020   3.639 -0.6301 -0.0685 -0.5379
 3599SOL    HW121476   0.111  -0.057   3.662 -0.0545  0.6092  0.2641
 3599SOL    HW221477  -0.038   0.007   3.681 -0.5547 -0.3297 -0.4574
 3600SOL     OW21478   1.944   3.987   3.057 -0.3574  0.1021  0.0084
 3600SOL    HW121479   2.036   3.958   3.084  0.0175  0.7999 -0.5143
 3600SOL    HW221480   1.880   3.910   3.068  0.9270 -1.4569 -3.0255
 3601SOL     OW21481   6.459   9.654   0.995 -0.2808  0.5409 -0.2298
 3601SOL    HW121482   6.396   9.578   0.975 -0.7045  0.9714 -0.5393
 3601SOL    HW221483   6.518   9.670   0.916  0.2543  0.1039  0.0787
 3602SOL     OW21484   3.241   2.107   4.277 -0.0079 -0.3684  0.3115
 3602SOL    HW121485   3.227   2.030   4.339 -0.2530 -0.6611 -0.1048
 3602SOL    HW221486   3.269   2.187   4.330 -0.7748 -0.4574  0.8629
 3603SOL     OW21487   3.336   2.871   2.507  0.2062 -0.0180  0.6162
 3603SOL    HW121488   3.301   2.822   2.587 -1.2668  0.3949  0.2437
 3603SOL    HW221489   3.280   2.849   2.428  1.8665 -0.6901 -0.4050
 3604SOL     OW21490   7.744   1.647   2.453 -0.1196 -0.1871  1.0112
 3604SOL    HW121491   7.747   1.746   2.443 -1.7550 -0.1049  1.2835
 3604SOL    HW221492   7.813   1.605   2.394  0.5650  1.1035  0.8828
 3605SOL     OW21493   9.572   0.729   0.427 -0.5820 -0.4998 -0.1475
 3605SOL    HW121494   9.594   0.725   0.329  0.4603  0.9758  0.0152
 3605SOL    HW221495   9.526   0.644   0.454  0.6229 -1.6358 -1.5485
 3606SOL     OW21496   7.929   1.176   3.339  0.0235 -0.1055  0.0793
 3606SOL    HW121497   7.832   1.191   3.362  0.1491  0.6392  0.1490
 3606SOL    HW221498   7.935   1.115   3.261 -0.4695 -1.0689  0.7711
 3607SOL     OW21499   2.646   6.131   1.254  0.2143  0.0959 -0.0320
 3607SOL    HW121500   2.732   6.158   1.212 -0.8456 -1.1553 -3.1871
 3607SOL    HW221501   2.625   6.036   1.229 -2.6700  0.7735 -0.3941
 3608SOL     OW21502   0.493   9.736   5.113  0.5054  0.3887  0.5161
 3608SOL    HW121503   0.397   9.745   5.085  0.6933 -0.1924 -0.3356
 3608SOL    HW221504   0.534   9.826   5.124  0.2148  0.6216 -0.3535
 3609SOL     OW21505   0.303   2.754   3.489 -0.3189 -0.0523 -0.4197
 3609SOL    HW121506   0.221   2.722   3.443 -0.0475 -0.1231 -0.8518
 3609SOL    HW221507   0.331   2.843   3.451  0.1214 -0.2905 -0.6626
 3610SOL     OW21508   0.280   4.923   1.332 -0.5130  0.0122 -0.4180
 3610SOL    HW121509   0.288   4.845   1.393  1.7207 -1.3168 -2.3527
 3610SOL    HW221510   0.183   4.939   1.311 -1.1391 -0.7955  1.7722
 3611SOL     OW21511   7.160   0.140   1.043  0.1206 -0.5303  0.4364
 3611SOL    HW121512   7.070   0.183   1.053  0.4579  0.1670  0.4673
 3611SOL    HW221513   7.232   0.208   1.055  0.6869 -1.3123  1.5956
 3612SOL     OW21514   0.813   7.643   2.814 -0.6445  0.6131 -0.5530
 3612SOL    HW121515   0.870   7.596   2.747 -0.7916  0.9659 -0.9332
 3612SOL    HW221516   0.813   7.741   2.794  1.5653  1.0981  1.6519
 3613SOL     OW21517   4.516   0.496   1.888  0.4709  0.1712 -0.0340
 3613SOL    HW121518   4.585   0.507   1.816 -0.3594  0.4230 -0.7888
 3613SOL    HW221519   4.482   0.585   1.915  0.9078  0.0920  0.8129
 3614SOL     OW21520   3.732   9.778   4.006 -0.3905 -0.7405 -0.2946
 3614SOL    HW121521   3.787   9.756   3.926 -0.7268 -0.1786 -0.6868
 3614SOL    HW221522   3.635   9.764   3.985 -0.4614 -0.8392  0.0964
 3615SOL     OW21523   0.554   2.655   1.520 -0.7264 -0.2748 -0.0800
 3615SOL    HW121524   0.563   2.559   1.545 -0.4104 -0.0940  0.5179
 3615SOL    HW221525   0.503   2.663   1.434 -0.1015 -1.0106 -0.5164
 3616SOL     OW21526   1.564   4.832   3.321  0.0090  0.0804 -0.4495
 3616SOL    HW121527   1.619   4.764   3.370  0.4702 -0.4585 -1.7027
 3616SOL    HW221528   1.533   4.901   3.386  2.4881  0.6166  0.2490
 3617SOL     OW21529   2.695   5.426   3.319 -0.0561 -0.1805  0.3142
 3617SOL    HW121530   2.677   5.403   3.223 -0.6289 -0.1266  0.4074
 3617SOL    HW221531   2.777   5.378   3.350 -0.0091 -0.3919 -0.1299
 3618SOL     OW21532   6.398   0.521   2.597 -0.1254  0.0174  0.4267
 3618SOL    HW121533   6.344   0.491   2.676  1.0402 -0.3459  1.0942
 3618SOL    HW221534   6.447   0.604   2.619 -0.0952  0.1303 -0.0527
 3619SOL     OW21535   3.144   8.806   0.082  0.0577  0.1302  0.3583
 3619SOL    HW121536   3.135   8.792   0.181 -1.4015  1.2674  0.4094
 3619SOL    HW221537   3.082   8.744   0.034  0.1905  0.1216  0.1996
 3620SOL     OW21538   4.682   2.004   2.637  0.8125 -0.7360  0.2424
 3620SOL    HW121539   4.677   2.054   2.550  1.5271 -2.4059 -0.7819
 3620SOL    HW221540   4.755   2.042   2.693  1.5682 -0.8428 -0.6614
 3621SOL     OW21541   0.694   3.594   0.237  0.4111 -0.7105 -0.5702
 3621SOL    HW121542   0.662   3.502   0.212  0.3403 -0.4544 -1.4401
 3621SOL    HW221543   0.721   3.643   0.154  0.1919  0.1486 -0.1365
 3622SOL     OW21544   9.018   5.400   2.080 -0.0264 -0.0011  0.3845
 3622SOL    HW121545   8.946   5.443   2.135 -1.3462 -2.1416  0.4111
 3622SOL    HW221546   9.040   5.458   2.002 -2.3226  0.3785 -0.0175
 3623SOL     OW21547   4.690   3.781   2.633  0.1820 -0.1356 -0.2104
 3623SOL    HW121548   4.621   3.782   2.705 -0.0352 -2.1472 -0.3422
 3623SOL    HW221549   4.768   3.725   2.661  0.0914 -0.9559 -1.5137
 3624SOL     OW21550   4.427   3.211   3.198  0.0024 -0.0972 -0.2723
 3624SOL    HW121551   4.459   3.116   3.196 -0.2629 -0.1614 -1.4039
 3624SOL    HW221552   4.406   3.242   3.106 -0.2034  0.9732  0.1213
 3625SOL     OW21553   4.213   8.828   4.387 -0.1680  0.3382  0.1578
 3625SOL    HW121554   4.136   8.846   4.325 -0.6610  1.9184  1.2128
 3625SOL    HW221555   4.244   8.914   4.427  0.1089 -0.6812  2.1611
 3626SOL     OW21556   0.440   0.676   4.526 -0.3968  0.0656  0.7346
 3626SOL    HW121557   0.435   0.630   4.615  3.2793  0.9189  1.4945
 3626SOL    HW221558   0.420   0.611   4.453 -1.0932 -1.2485  2.0721
 3627SOL     OW21559   0.829   9.116   3.884 -0.4567 -0.0214  0.3968
 3627SOL    HW121560   0.737   9.121   3.845 -0.0265  0.1223 -0.6153
 3627SOL    HW221561   0.895   9.102   3.811  0.0551 -3.3684  1.3788
 3628SOL     OW21562   2.168   3.672   2.715 -0.4982 -0.1497  0.2690
 3628SOL    HW121563   2.104   3.632   2.781  0.7452  0.6394  1.9827
 3628SOL    HW221564   2.135   3.654   2.623 -2.3713 -1.1237  1.0884
 3629SOL     OW21565   0.491   2.693   3.883  0.3966 -0.8312  0.2458
 3629SOL    HW121566   0.467   2.610   3.934 -0.7579 -0.2679  0.6332
 3629SOL    HW221567   0.422   2.709   3.812  0.8267 -0.4073 -0.0771
 3630SOL     OW21568   2.144   0.665   5.612 -0.7290  0.6968 -0.5667
 3630SOL    HW121569   2.122   0.575   5.649 -0.7198  0.6844 -0.5910
 3630SOL    HW221570   2.159   0.730   5.686  2.6365 -0.1020 -0.4513
 3631SOL     OW21571   1.852   7.414   0.145 -0.5417  0.3270 -0.2973
 3631SOL    HW121572   1.899   7.362   0.073  0.7387  0.3146  0.5392
 3631SOL    HW221573   1.794   7.352   0.197  2.1009 -0.6123  1.6351
 3632SOL     OW21574   2.531   8.388   5.259  0.4315 -0.1220  0.2723
 3632SOL    HW121575   2.631   8.384   5.251  0.4188  0.6906 -0.3538
 3632SOL    HW221576   2.507   8.450   5.333  0.4013 -0.9699  0.9793
 3633SOL     OW21577   2.019   0.507   2.341 -0.1530 -0.4042  0.1267
 3633SOL    HW121578   2.032   0.508   2.242 -1.1502 -0.8920 -0.0208
 3633SOL    HW221579   1.929   0.544   2.363  0.2770  0.2078  0.8955
 3634SOL     OW21580   8.632   8.113   1.795 -0.0936 -0.0663  0.7651
 3634SOL    HW121581   8.702   8.095   1.864 -0.2740  2.0838  1.5400
 3634SOL    HW221582   8.585   8.199   1.816 -0.7732  0.1665 -1.5436
 3635SOL     OW21583   9.200   9.101   1.608  0.6789  0.1549 -0.0707
 3635SOL    HW121584   9.287   9.092   1.559  1.3727 -0.7859  1.3217
 3635SOL    HW221585   9.136   9.031   1.576  1.1690 -0.5280  0.4407
 3636SOL     OW21586   9.057   8.756   2.399  0.1528 -0.2965 -0.0233
 3636SOL    HW121587   9.045   8.742   2.301  2.0847  0.8983 -0.4476
 3636SOL    HW221588   9.046   8.668   2.446 -1.8600 -0.6999 -1.1581
 3637SOL     OW21589   7.690   2.988   0.657 -0.2718 -0.3710 -0.2373
 3637SOL    HW121590   7.752   2.989   0.578  0.5634  1.2674  0.4133
 3637SOL    HW221591   7.652   3.079   0.671 -2.5232 -1.2662 -0.3516
 3638SOL     OW21592   1.557   2.676   3.169  0.6252 -0.5850  0.3677
 3638SOL    HW121593   1.561   2.761   3.117  0.3838 -0.0494  1.2031
 3638SOL    HW221594   1.615   2.608   3.127  0.1568 -0.2708 -0.7986
 3639SOL     OW21595   2.969   3.667   2.709  0.1491 -0.0562  0.0291
 3639SOL    HW121596   2.981   3.759   2.670 -0.5951 -0.0311 -0.1497
 3639SOL    HW221597   2.874   3.656   2.739 -0.3857 -1.5767 -2.0861
 3640SOL     OW21598   3.838   0.612   0.672 -0.2482  0.1664  0.6590
 3640SOL    HW121599   3.787   0.527   0.683 -0.5854  0.3757  0.7246
 3640SOL    HW221600   3.867   0.645   0.761 -3.2280  2.0153  1.0239
 3641SOL     OW21601   9.541   1.790   1.558 -0.0881  0.3890 -0.4647
 3641SOL    HW121602   9.556   1.706   1.507  0.5737  0.2070  0.0189
 3641SOL    HW221603   9.617   1.852   1.544  0.4439  0.0554  0.8414
 3642SOL     OW21604   6.058   0.331   2.104 -0.6102  0.0627  0.1408
 3642SOL    HW121605   6.145   0.342   2.152  0.3956  0.8142 -1.7717
 3642SOL    HW221606   6.027   0.237   2.113  1.1480 -0.5925 -0.3367
 3643SOL     OW21607   6.400   7.485   3.068 -0.5720 -0.2026 -0.1458
 3643SOL    HW121608   6.440   7.554   3.007 -3.5553 -0.8268 -2.9523
 3643SOL    HW221609   6.376   7.527   3.155  0.1222  1.6652 -0.8207
 3644SOL     OW21610   1.898   5.237   0.748  0.3210  0.2480  0.5050
 3644SOL    HW121611   1.948   5.302   0.805 -1.0916  0.7508  1.1867
 3644SOL    HW221612   1.826   5.194   0.802  0.8011 -1.3847 -0.1334
 3645SOL     OW21613   4.289   9.800   1.607  0.1853 -0.0565 -0.0381
 3645SOL    HW121614   4.233   9.816   1.688  0.5236 -0.9064  0.3697
 3645SOL    HW221615   4.378   9.844   1.618 -0.2217  0.9033 -0.4927
 3646SOL     OW21616   1.684   5.875   0.956 -0.2977  0.1070  0.0605
 3646SOL    HW121617   1.659   5.965   0.992  2.5312  0.0457  2.3324
 3646SOL    HW221618   1.603   5.817   0.953 -1.5036  1.6207  2.0089
 3647SOL     OW21619   4.574   4.991   1.946 -0.9032  0.1924  0.4694
 3647SOL    HW121620   4.562   5.015   1.850  1.0149  1.0654  0.4286
 3647SOL    HW221621   4.515   5.048   2.003 -1.5774  0.0989 -0.1339
 3648SOL     OW21622   0.322   1.328   1.356 -0.0209  0.2393  0.6712
 3648SOL    HW121623   0.382   1.248   1.357 -1.3046 -0.7410  0.9230
 3648SOL    HW221624   0.332   1.377   1.269  0.4230 -0.4491  0.3310
 3649SOL     OW21625   3.215   3.537   4.155 -0.5157  0.0519  0.0751
 3649SOL    HW121626   3.286   3.546   4.224  1.0556  0.2586 -1.5331
 3649SOL    HW221627   3.246   3.577   4.069 -2.1995 -0.7157 -0.9256
 3650SOL     OW21628   8.704   4.426   2.864 -0.0023  0.2278 -0.3260
 3650SOL    HW121629   8.791   4.387   2.895  0.4523  0.4696 -1.2478
 3650SOL    HW221630   8.651   4.457   2.943  0.2091 -1.0430  0.3191
 3651SOL     OW21631   3.852   1.325   0.716 -0.3719 -0.4151  0.3299
 3651SOL    HW121632   3.857   1.263   0.794  0.3819 -0.1262  0.5214
 3651SOL    HW221633   3.782   1.394   0.733 -0.6421 -0.7198  0.4752
 3652SOL     OW21634   0.414   5.173   1.302 -0.2990 -0.1079 -0.3411
 3652SOL    HW121635   0.467   5.177   1.386  2.2208 -2.0987 -1.7708
 3652SOL    HW221636   0.374   5.082   1.291 -2.0838  0.6585 -0.4789
 3653SOL     OW21637   9.636   8.836   5.422 -0.2730  0.3050 -0.0046
 3653SOL    HW121638   9.659   8.835   5.519  0.6471  1.0601 -0.2004
 3653SOL    HW221639   9.538   8.818   5.410 -0.8743  2.5239  1.2266
 3654SOL     OW21640   3.573   3.503   2.595 -0.8594 -0.1390  0.5726
 3654SOL    HW121641   3.489   3.503   2.540  0.0536 -2.0115 -0.8958
 3654SOL    HW221642   3.638   3.568   2.555 -0.5855 -0.7382  0.0262
 3655SOL     OW21643   3.082   9.794   2.888  0.2247 -0.3309 -0.2233
 3655SOL    HW121644   3.097   9.812   2.791  0.0027  1.2190  0.0186
 3655SOL    HW221645   2.984   9.798   2.908  0.2841 -0.4672  0.1037
 3656SOL     OW21646   2.359   1.271   2.291  0.4017 -0.4992  0.2595
 3656SOL    HW121647   2.307   1.236   2.369 -1.3676  1.5815  0.0723
 3656SOL    HW221648   2.309   1.347   2.249  2.3558 -0.1814 -1.5873
 3657SOL     OW21649   0.395   3.637   1.692 -0.4591  0.4941  0.5550
 3657SOL    HW121650   0.318   3.686   1.651 -1.2595 -0.4521  0.9188
 3657SOL    HW221651   0.385   3.638   1.791  0.1853  0.6589  0.6190
 3658SOL     OW21652   2.717   1.809   5.076 -0.1065 -0.4570  0.3927
 3658SOL    HW121653   2.619   1.820   5.055  0.0022  3.3116  1.4657
 3658SOL    HW221654   2.768   1.801   4.991 -1.1642 -0.5727 -0.2498
 3659SOL     OW21655   1.465   2.392   5.469  0.0904 -0.5025 -0.0985
 3659SOL    HW121656   1.554   2.347   5.469  0.6131  0.4833 -1.7563
 3659SOL    HW221657   1.473   2.481   5.516 -0.3188 -0.9485  0.8315
 3660SOL     OW21658   2.103   3.571   2.370  0.4360  0.7508  0.2986
 3660SOL    HW121659   2.058   3.529   2.291 -1.4861  1.7398  0.8412
 3660SOL    HW221660   2.200   3.582   2.351  0.7708 -2.7421 -0.3778
 3661SOL     OW21661   6.577   0.584   0.757 -0.2711  0.1789 -0.1361
 3661SOL    HW121662   6.642   0.659   0.773  0.0146 -0.0930 -0.0275
 3661SOL    HW221663   6.554   0.541   0.844  1.6885 -1.6401 -0.4938
 3662SOL     OW21664   6.130   9.499   1.545  0.0347 -0.3122  0.2231
 3662SOL    HW121665   6.133   9.599   1.537  1.7504 -0.2866  0.8958
 3662SOL    HW221666   6.105   9.459   1.457  1.8365  0.6342 -0.7625
 3663SOL     OW21667   1.479   9.050   4.392  0.1506  0.5598  0.3377
 3663SOL    HW121668   1.571   9.079   4.415  0.6520 -1.1721  0.5859
 3663SOL    HW221669   1.462   9.066   4.295  0.8109  0.6488  0.2360
 3664SOL     OW21670   8.951   2.504   3.781 -0.1526 -0.2296 -0.0997
 3664SOL    HW121671   8.983   2.432   3.720  1.7440  0.3552  0.1512
 3664SOL    HW221672   8.972   2.479   3.876  0.9526  0.8306 -0.0439
 3665SOL     OW21673   1.560   8.946   5.057 -0.3211 -0.0521  0.1487
 3665SOL    HW121674   1.611   8.900   5.129 -0.1836  0.3071  0.2780
 3665SOL    HW221675   1.497   8.880   5.014 -1.4259  0.0912  1.5400
 3666SOL     OW21676   9.461   7.971   4.872 -0.0053  0.1715 -0.0532
 3666SOL    HW121677   9.439   8.061   4.907  0.1566  0.4163 -0.5744
 3666SOL    HW221678   9.494   7.978   4.778  0.1749 -0.4102 -0.0406
 3667SOL     OW21679   7.527   1.201   0.785  0.3984 -0.0740  0.0883
 3667SOL    HW121680   7.468   1.241   0.855 -0.5709 -0.4836 -0.4865
 3667SOL    HW221681   7.483   1.119   0.747  1.3719 -0.4285 -0.2930
 3668SOL     OW21682   2.892   3.228   5.244 -0.1600 -0.0246 -0.6965
 3668SOL    HW121683   2.821   3.283   5.200  0.3167  1.0736 -0.1014
 3668SOL    HW221684   2.979   3.242   5.196 -0.0555 -0.3296 -0.5959
 3669SOL     OW21685   4.415   4.257   5.238  0.4924  0.2483 -0.0198
 3669SOL    HW121686   4.426   4.337   5.297 -0.7468 -0.1278  0.7412
 3669SOL    HW221687   4.504   4.214   5.223  0.9664  0.9545  0.7239
 3670SOL     OW21688   6.077   0.759   2.854  0.5213 -0.1738  0.5035
 3670SOL    HW121689   6.019   0.819   2.909  0.3705  0.3142 -0.1955
 3670SOL    HW221690   6.048   0.761   2.759  0.6158 -1.2280  0.4368
 3671SOL     OW21691   3.572   1.826   0.430  0.3329  0.4450  0.1243
 3671SOL    HW121692   3.622   1.833   0.344  1.2101 -0.7122  0.5320
 3671SOL    HW221693   3.474   1.837   0.412  0.5386  0.5691 -0.9638
 3672SOL     OW21694   2.916   7.483   0.381  0.0519  0.1396 -0.6808
 3672SOL    HW121695   2.968   7.455   0.461  0.5493 -0.7491 -1.3047
 3672SOL    HW221696   2.970   7.546   0.326  0.6307 -1.0506 -1.5082
 3673SOL     OW21697   5.749   9.393   1.543 -0.2018  0.6727 -0.0562
 3673SOL    HW121698   5.695   9.476   1.528 -0.9405  0.2681  0.3201
 3673SOL    HW221699   5.771   9.351   1.455 -0.1535  1.0660 -0.2309
 3674SOL     OW21700   5.114   1.548   2.371  0.0461 -0.0361 -0.2286
 3674SOL    HW121701   5.016   1.531   2.379  0.0245  0.3413  0.2876
 3674SOL    HW221702   5.141   1.622   2.432  0.0995  1.9491 -2.5628
 3675SOL     OW21703   2.308   1.473   5.241  0.2577 -0.1142  0.3216
 3675SOL    HW121704   2.377   1.534   5.278 -0.9241  0.3308  1.8340
 3675SOL    HW221705   2.217   1.510   5.260 -0.4121 -0.5621 -1.8521
 3676SOL     OW21706   1.369   4.646   3.601  0.0382 -0.3968  0.1093
 3676SOL    HW121707   1.312   4.609   3.528  1.4231  2.7368 -2.6789
 3676SOL    HW221708   1.459   4.604   3.598  0.4781  0.5879 -0.7931
 3677SOL     OW21709   2.647   5.678   3.697 -0.4389  0.4701  0.3185
 3677SOL    HW121710   2.556   5.636   3.707  0.2070 -0.5704  2.0648
 3677SOL    HW221711   2.638   5.766   3.651 -2.3417  0.4323  0.5712
 3678SOL     OW21712   1.416   1.339   1.800  0.0972  0.5440 -0.2805
 3678SOL    HW121713   1.440   1.317   1.705  0.2346  1.0132 -0.3573
 3678SOL    HW221714   1.320   1.366   1.805 -0.5335 -1.6829  0.0841
 3679SOL     OW21715   0.555   2.105   2.096  0.2985 -0.3864 -0.5831
 3679SOL    HW121716   0.485   2.054   2.046 -0.9984 -2.6089  3.3336
 3679SOL    HW221717   0.517   2.191   2.130 -0.1053 -0.8917  0.2531
 3680SOL     OW21718   3.767   9.299   0.506  0.1983 -0.0196  0.3788
 3680SOL    HW121719   3.852   9.250   0.485 -0.2454 -0.6105 -0.0707
 3680SOL    HW221720   3.692   9.257   0.456 -0.3982  0.3629  0.9459
 3681SOL     OW21721   7.112   9.998   2.493  0.1374 -0.0290 -0.0735
 3681SOL    HW121722   7.061   9.932   2.550 -1.0150 -1.3002 -2.4997
 3681SOL    HW221723   7.051  10.036   2.424  1.8931  0.3054 -1.4753
 3682SOL     OW21724   7.915   0.684   3.086 -0.6037 -0.1265 -0.4223
 3682SOL    HW121725   7.861   0.767   3.070  0.7382  1.0169  0.9072
 3682SOL    HW221726   7.975   0.669   3.007  0.6313  1.3327  0.2155
 3683SOL     OW21727   3.995   4.435   0.054  0.4497 -0.1447 -0.1794
 3683SOL    HW121728   3.958   4.404   0.142 -1.3282  1.2526 -0.4137
 3683SOL    HW221729   3.927   4.422  -0.018  1.7741 -0.9739 -1.3115
 3684SOL     OW21730   3.915   1.212   3.053  0.0147  0.3309  0.4695
 3684SOL    HW121731   3.940   1.272   2.977  1.7973 -2.6308 -1.3886
 3684SOL    HW221732   3.832   1.161   3.029 -0.4436  0.7135  1.2561
 3685SOL     OW21733   1.963   2.811   4.616  0.5391  0.0453 -0.4132
 3685SOL    HW121734   2.061   2.811   4.600  0.3571 -1.5532 -1.6786
 3685SOL    HW221735   1.931   2.717   4.629 -0.8992  0.4893 -0.6464
 3686SOL     OW21736   3.899   8.703   3.594  0.4645  0.7458  0.5921
 3686SOL    HW121737   3.944   8.746   3.517 -0.9119  0.7417 -0.2351
 3686SOL    HW221738   3.800   8.714   3.586 -0.0854 -3.8476 -0.4710
 3687SOL     OW21739   1.693   8.465   5.281  0.0043 -0.1653  0.6258
 3687SOL    HW121740   1.761   8.467   5.354 -0.0758  2.1442  0.6861
 3687SOL    HW221741   1.603   8.444   5.320 -0.0871  1.3339  1.2668
 3688SOL     OW21742   5.815   0.654   1.869 -0.0337 -0.3185 -0.6070
 3688SOL    HW121743   5.720   0.662   1.838  0.2263 -0.3024 -1.3849
 3688SOL    HW221744   5.850   0.744   1.893 -1.7395 -0.7714  4.2232
 3689SOL     OW21745   9.608   0.471   2.855 -0.6650  0.3126 -0.3778
 3689SOL    HW121746   9.586   0.409   2.779 -2.2779 -3.5530  3.0222
 3689SOL    HW221747   9.525   0.518   2.884 -0.3236  0.7937 -0.1796
 3690SOL     OW21748   6.841   0.016   1.141  0.2094  0.0405 -0.1100
 3690SOL    HW121749   6.748  -0.016   1.120  0.5721 -1.8475  1.0222
 3690SOL    HW221750   6.899  -0.063   1.163  2.1531  1.1691 -1.0143
 3691SOL     OW21751   8.800   8.757   0.486 -0.1325  0.1744 -0.5728
 3691SOL    HW121752   8.750   8.752   0.573  0.6906  1.9469  0.0245
 3691SOL    HW221753   8.780   8.676   0.431  1.4170 -2.3395  2.3979
 3692SOL     OW21754   2.476   9.844   2.578  0.0888  0.5906  0.3289
 3692SOL    HW121755   2.471   9.767   2.514  1.8780 -0.0623  0.9431
 3692SOL    HW221756   2.567   9.886   2.573 -0.8720  2.6924 -0.0093
 3693SOL     OW21757   3.347   2.488   3.402  0.3479 -0.3883 -0.0616
 3693SOL    HW121758   3.310   2.574   3.364 -0.9993 -0.5590  0.8304
 3693SOL    HW221759   3.385   2.433   3.327 -0.1910  0.3008 -0.8607
 3694SOL     OW21760   2.229   7.286   0.580 -0.5039 -0.2457 -0.0430
 3694SOL    HW121761   2.243   7.194   0.616  1.0315  0.0119  0.0443
 3694SOL    HW221762   2.131   7.305   0.575 -0.8359 -1.9020 -0.1266
 3695SOL     OW21763   5.045   0.821   0.970 -0.1499 -0.3244 -0.1978
 3695SOL    HW121764   5.044   0.916   0.938 -1.2017 -0.4678 -0.6074
 3695SOL    HW221765   5.007   0.816   1.062  0.3297 -0.2915  0.0046
 3696SOL     OW21766   0.964   2.957   3.165  0.1899  0.4759  0.1424
 3696SOL    HW121767   1.009   2.913   3.087  0.1149 -1.1613  0.9980
 3696SOL    HW221768   0.867   2.972   3.145 -0.2736 -1.7359  0.6349
 3697SOL     OW21769   0.796   8.369   3.533  0.0410  0.1122 -0.0378
 3697SOL    HW121770   0.742   8.423   3.469  0.5989  1.2358  0.4115
 3697SOL    HW221771   0.772   8.272   3.525  1.4293 -0.0110 -3.2723
 3698SOL     OW21772   4.248   2.204   2.343  0.2837 -0.0934 -0.4744
 3698SOL    HW121773   4.310   2.143   2.293  0.6533  0.4771 -0.7141
 3698SOL    HW221774   4.256   2.187   2.441  1.6913  0.7872 -0.4285
 3699SOL     OW21775   5.539   8.547   3.305  0.0673 -0.5115  0.2669
 3699SOL    HW121776   5.593   8.535   3.388 -0.4642  0.9213  0.8472
 3699SOL    HW221777   5.453   8.498   3.313  0.4617 -1.2325  0.1238
 3700SOL     OW21778   0.399   8.172   4.022  0.4588  0.5046 -0.3360
 3700SOL    HW121779   0.349   8.251   3.985 -1.0393  0.0010  0.5733
 3700SOL    HW221780   0.348   8.133   4.099  2.0265 -0.3246  0.3092
 3701SOL     OW21781   0.489   7.409   4.324 -0.6413  0.3958 -0.0799
 3701SOL    HW121782   0.571   7.353   4.333 -1.3500 -0.7451 -0.5074
 3701SOL    HW221783   0.439   7.380   4.242 -1.8291  0.5895  0.5733
 3702SOL     OW21784   3.085   8.317   0.038 -0.0716  0.3265  0.1986
 3702SOL    HW121785   3.007   8.274  -0.008 -0.5701  0.0244  1.3081
 3702SOL    HW221786   3.164   8.257   0.033 -0.0149  0.4610 -0.5887
 3703SOL     OW21787   1.202   9.641   4.622 -0.1540  0.0229  0.5561
 3703SOL    HW121788   1.171   9.564   4.679 -0.9561  0.3024  0.4991
 3703SOL    HW221789   1.288   9.677   4.660  1.5019 -2.3859 -0.7677
 3704SOL     OW21790   1.314   9.949   3.346  0.3295 -0.1041 -0.0337
 3704SOL    HW121791   1.245   9.907   3.287 -0.3021 -1.1226  1.4042
 3704SOL    HW221792   1.387   9.882   3.364 -0.1813 -0.2605  1.4708
 3705SOL     OW21793   3.185   1.181   0.937 -0.1941  0.3048  0.2468
 3705SOL    HW121794   3.096   1.148   0.970 -1.3286  1.4576 -1.5746
 3705SOL    HW221795   3.199   1.151   0.843  1.9289 -0.9121  0.9202
 3706SOL     OW21796   9.722   0.582   4.359  0.2733 -0.1043  0.7582
 3706SOL    HW121797   9.820   0.599   4.346  0.4816 -0.1389  2.1857
 3706SOL    HW221798   9.709   0.491   4.397 -0.3084 -0.0344  0.7285
 3707SOL     OW21799   7.706   9.056   2.854  0.1703 -0.4144 -0.5799
 3707SOL    HW121800   7.696   9.143   2.903 -0.2284  0.2171 -1.7723
 3707SOL    HW221801   7.778   9.002   2.897 -1.0086 -0.4030  1.4576
 3708SOL     OW21802   1.736   6.539   1.289 -0.0260 -0.1746  0.3057
 3708SOL    HW121803   1.706   6.445   1.271  1.2794 -0.0312 -3.0064
 3708SOL    HW221804   1.826   6.537   1.333  0.6757 -0.4903 -1.1156
 3709SOL     OW21805   2.393   2.990   1.680 -0.0652  0.0913  0.4597
 3709SOL    HW121806   2.299   2.996   1.714 -0.0544 -2.1689  0.9684
 3709SOL    HW221807   2.446   2.930   1.740  1.7186  1.3487  0.1683
 3710SOL     OW21808   1.237   1.721   0.704  0.5660 -0.3574  0.0078
 3710SOL    HW121809   1.265   1.647   0.765 -2.7785 -0.8851  1.0164
 3710SOL    HW221810   1.189   1.681   0.625 -2.4392  0.6940  1.2086
 3711SOL     OW21811   2.463   9.150   0.078 -0.5239 -0.6023 -0.0651
 3711SOL    HW121812   2.476   9.249   0.075  0.7294 -0.7227  0.9948
 3711SOL    HW221813   2.420   9.124   0.164 -0.3807 -1.0397 -0.1220
 3712SOL     OW21814   9.754   7.475   3.415  0.2729 -0.0376  0.2396
 3712SOL    HW121815   9.767   7.429   3.503  0.2630 -1.2866 -0.4097
 3712SOL    HW221816   9.709   7.413   3.351 -0.6789  1.2192 -0.3296
 3713SOL     OW21817   4.250   8.007   2.501  0.1857  0.0636 -0.3378
 3713SOL    HW121818   4.200   7.992   2.586 -1.4038 -1.9401 -1.5787
 3713SOL    HW221819   4.186   8.034   2.429  1.1760 -0.4985 -1.4496
 3714SOL     OW21820   4.470   2.874   2.575  0.2066  0.0542 -0.2482
 3714SOL    HW121821   4.499   2.896   2.668 -0.9688 -2.1047  0.6617
 3714SOL    HW221822   4.539   2.817   2.531  0.1511 -0.0276 -0.2294
 3715SOL     OW21823   9.091   6.766   1.046 -0.4137  0.3385  0.4536
 3715SOL    HW121824   9.096   6.793   1.142 -0.0744  1.4894  0.1139
 3715SOL    HW221825   9.067   6.845   0.990 -0.4647 -0.2956 -0.4341
 3716SOL     OW21826   2.584   1.209   3.944 -0.2037  0.9203  0.1255
 3716SOL    HW121827   2.485   1.222   3.946 -0.1331  1.5934 -0.4678
 3716SOL    HW221828   2.628   1.273   4.007 -0.1859  0.1538  0.9043
 3717SOL     OW21829   9.885   6.569   3.690  0.2803 -0.0775 -0.7307
 3717SOL    HW121830   9.949   6.645   3.706 -0.9861  0.2219  3.5684
 3717SOL    HW221831   9.800   6.605   3.651  0.3948  0.4847 -0.4731
 3718SOL     OW21832   9.613   0.137   4.993  0.2996  0.5813 -0.2694
 3718SOL    HW121833   9.553   0.170   4.920 -1.0743 -1.0061  0.1186
 3718SOL    HW221834   9.675   0.210   5.020 -2.8646  2.9831  0.8008
 3719SOL     OW21835   9.983   7.905   1.774  0.1377 -0.1476  0.4740
 3719SOL    HW121836  10.079   7.898   1.746  0.3347  0.2567  1.0368
 3719SOL    HW221837   9.940   7.981   1.725 -0.2441 -1.1223 -0.7323
 3720SOL     OW21838   4.744   8.518   4.567  0.7596 -0.1702 -0.3386
 3720SOL    HW121839   4.731   8.527   4.468  0.7029  0.0615 -0.3109
 3720SOL    HW221840   4.723   8.605   4.611 -1.5579 -0.9391  0.1212
 3721SOL     OW21841   2.900   0.230   1.261 -0.2324  0.2635  0.2935
 3721SOL    HW121842   2.984   0.176   1.252  0.0698  0.3816  2.1515
 3721SOL    HW221843   2.822   0.174   1.234  0.3987  0.0628 -1.1930
 3722SOL     OW21844   7.357   9.870   2.451 -0.1148 -0.0354 -0.1714
 3722SOL    HW121845   7.284   9.934   2.471  1.2274  1.7111 -0.7484
 3722SOL    HW221846   7.400   9.839   2.536  0.7179  1.6087  0.0253
 3723SOL     OW21847   3.289   0.890   2.146  0.1571 -0.4455  0.3420
 3723SOL    HW121848   3.235   0.817   2.103 -0.5937  0.7446 -0.8028
 3723SOL    HW221849   3.371   0.906   2.092  1.1534 -1.5568  1.5156
 3724SOL     OW21850   3.711   9.668   4.453 -0.6240  0.3632  0.3490
 3724SOL    HW121851   3.796   9.615   4.453 -0.8259 -0.0108 -1.4993
 3724SOL    HW221852   3.634   9.607   4.472 -0.7879  0.0898 -1.1225
 3725SOL     OW21853   3.151   4.079   3.836  0.1049 -0.4919  0.2886
 3725SOL    HW121854   3.195   4.103   3.749 -0.9139  0.4523  0.0203
 3725SOL    HW221855   3.178   4.145   3.906 -1.1093  0.2896  0.0433
 3726SOL     OW21856   2.393   2.048   3.889  0.6839 -0.1756 -0.5111
 3726SOL    HW121857   2.453   2.032   3.810  0.3301 -1.4682 -0.5304
 3726SOL    HW221858   2.325   1.975   3.894  0.8308 -0.2089  1.1166
 3727SOL     OW21859   1.608   3.423   0.633  0.2460  0.4682 -0.1037
 3727SOL    HW121860   1.590   3.348   0.570 -0.5075  1.5385 -1.1776
 3727SOL    HW221861   1.557   3.409   0.717  1.1842 -0.9194  0.2599
 3728SOL     OW21862   9.284   1.890   3.361  0.4632  0.1859  1.0075
 3728SOL    HW121863   9.330   1.802   3.369  1.3011  0.5468  0.3320
 3728SOL    HW221864   9.234   1.894   3.274  1.3412  0.7850  0.5217
 3729SOL     OW21865   1.735   9.881   3.595  0.2435  0.2368  0.3506
 3729SOL    HW121866   1.708   9.877   3.691  2.9202 -0.2124  1.1494
 3729SOL    HW221867   1.758   9.975   3.571 -0.7580  0.4053  0.0420
 3730SOL     OW21868   8.567   1.395   5.115  0.0150  0.1844  0.2453
 3730SOL    HW121869   8.501   1.364   5.183  0.8690  0.1407  1.0772
 3730SOL    HW221870   8.648   1.336   5.118  0.3997  0.6794 -0.2369
 3731SOL     OW21871   1.819   0.248   0.848  0.1475  0.3346 -0.3397
 3731SOL    HW121872   1.885   0.265   0.775  0.5540 -0.3875 -0.1437
 3731SOL    HW221873   1.863   0.197   0.922 -0.3372  0.8186  0.2894
 3732SOL     OW21874   3.599   7.598   5.321  0.3025  0.2130 -0.0693
 3732SOL    HW121875   3.557   7.689   5.322  0.5459  0.3237  0.3486
 3732SOL    HW221876   3.694   7.605   5.290  0.0014 -0.0459 -1.0979
 3733SOL     OW21877   3.486   4.138   4.598 -0.3272  0.0478 -0.2363
 3733SOL    HW121878   3.581   4.126   4.626 -0.1444  0.2402 -0.7688
 3733SOL    HW221879   3.448   4.220   4.641 -0.0865  0.2774 -0.4694
 3734SOL     OW21880   1.169   2.607   0.771 -0.5086  0.4421  0.0026
 3734SOL    HW121881   1.165   2.672   0.695  0.8563  0.0592 -0.4160
 3734SOL    HW221882   1.214   2.523   0.740 -1.1650 -0.2369  0.8739
 3735SOL     OW21883   4.465   4.085   3.286 -0.3620 -0.1693 -0.4010
 3735SOL    HW121884   4.519   4.155   3.240 -1.7046  0.1785 -1.4932
 3735SOL    HW221885   4.510   3.996   3.276  0.5170  0.2766 -0.4206
 3736SOL     OW21886   5.246   8.149   3.221 -0.2523 -0.4527  0.7922
 3736SOL    HW121887   5.298   8.234   3.233  1.8188 -1.4175 -0.8734
 3736SOL    HW221888   5.268   8.086   3.295  1.0237 -0.8656  0.0812
 3737SOL     OW21889   1.339   7.026   5.601 -0.4137  0.6984  0.0909
 3737SOL    HW121890   1.351   7.103   5.538 -0.8931  1.2110  0.6185
 3737SOL    HW221891   1.312   7.060   5.691 -1.2536 -0.1243  0.1623
 3738SOL     OW21892   1.754   4.649   1.177  0.3375  0.3589  0.5262
 3738SOL    HW121893   1.797   4.619   1.092 -0.7583 -0.8952  0.4217
 3738SOL    HW221894   1.658   4.622   1.178  0.4145  0.1098  2.2869
 3739SOL     OW21895   4.592   1.148   1.192  0.1810 -0.2949 -0.2208
 3739SOL    HW121896   4.607   1.050   1.207 -1.0068 -0.4798 -0.1377
 3739SOL    HW221897   4.677   1.198   1.208  0.0767 -0.9795  2.7628
 3740SOL     OW21898   2.768   8.276   2.978  0.7448  0.1275  0.3262
 3740SOL    HW121899   2.752   8.195   3.035 -2.3585  1.8388  2.0067
 3740SOL    HW221900   2.741   8.358   3.028  1.8152  2.0620 -2.1506
 3741SOL     OW21901   9.341   6.677   2.329  0.0337  0.2720  0.0945
 3741SOL    HW121902   9.284   6.663   2.248 -0.3544  2.7597 -0.0786
 3741SOL    HW221903   9.310   6.617   2.403 -0.4583 -1.0397 -1.1580
 3742SOL     OW21904   1.495   0.263   3.306  0.3574 -0.4676 -0.3048
 3742SOL    HW121905   1.497   0.358   3.273  1.0507  0.3061  1.9062
 3742SOL    HW221906   1.533   0.203   3.235  1.2877  1.0770 -1.1436
 3743SOL     OW21907   0.344   2.107   2.977 -0.1177  0.2202  0.2660
 3743SOL    HW121908   0.321   2.169   2.902 -0.0545 -2.0594 -1.6993
 3743SOL    HW221909   0.392   2.027   2.941  1.4785 -0.1082  2.9782
 3744SOL     OW21910   4.665   6.653   1.175  0.4161 -0.1649 -0.2745
 3744SOL    HW121911   4.750   6.704   1.159 -0.0919  0.3405 -1.4632
 3744SOL    HW221912   4.685   6.556   1.181  0.9225 -0.1811 -1.9268
 3745SOL     OW21913   9.046   1.451   4.966 -0.4437  0.4769  0.4059
 3745SOL    HW121914   9.050   1.404   4.878 -0.1876 -0.4245  0.8948
 3745SOL    HW221915   8.951   1.476   4.986 -0.3208  1.9357 -0.7691
 3746SOL     OW21916   2.307   3.136   5.541 -0.3763  0.0477  0.1365
 3746SOL    HW121917   2.250   3.170   5.465 -1.3175  1.8402  1.6114
 3746SOL    HW221918   2.250   3.125   5.622  0.7721 -1.2287  0.7749
 3747SOL     OW21919   5.078   0.917   1.439  0.7168  0.4435  0.5661
 3747SOL    HW121920   5.122   1.007   1.432 -0.3848  0.8620 -1.1373
 3747SOL    HW221921   5.139   0.855   1.487  2.3429  1.5588  0.0030
 3748SOL     OW21922   8.442   3.660   1.770 -0.0739  0.3208 -0.3762
 3748SOL    HW121923   8.509   3.589   1.792 -0.2066  0.5488  0.7713
 3748SOL    HW221924   8.402   3.642   1.680  0.6009 -0.5153 -0.5101
 3749SOL     OW21925   3.703   3.115   0.481 -0.4046  0.0313 -0.1634
 3749SOL    HW121926   3.697   3.103   0.580  1.2434  1.7285  0.1611
 3749SOL    HW221927   3.768   3.188   0.460 -1.0260 -0.0511 -2.4887
 3750SOL     OW21928   9.674   0.585   3.520  0.5150  0.4050 -0.3910
 3750SOL    HW121929   9.773   0.570   3.522  0.3351 -0.9522 -1.3016
 3750SOL    HW221930   9.631   0.538   3.598  0.2694 -1.5310 -1.6606
 3751SOL     OW21931   1.959   3.016   5.266  0.2759 -0.2422 -0.0968
 3751SOL    HW121932   1.868   3.026   5.304  1.2626 -1.6592  2.7983
 3751SOL    HW221933   1.969   2.925   5.226  0.6389 -0.3481  0.2320
 3752SOL     OW21934   7.444   2.592   3.242  0.6553 -0.6448  0.2104
 3752SOL    HW121935   7.365   2.608   3.184  0.8612 -0.7475 -0.1020
 3752SOL    HW221936   7.507   2.530   3.196  0.9948 -0.4367  0.3886
 3753SOL     OW21937   9.089   8.085   4.968 -0.0067  0.1950 -0.0232
 3753SOL    HW121938   9.017   8.144   4.932  0.2483  0.7981  0.4327
 3753SOL    HW221939   9.094   8.001   4.914 -1.8408 -0.3861  0.6704
 3754SOL     OW21940   9.135   9.737   1.273  0.0951 -0.5429  0.0642
 3754SOL    HW121941   9.111   9.781   1.360 -2.0321 -1.1990 -0.1423
 3754SOL    HW221942   9.200   9.794   1.223 -0.1308  0.7785  1.2351
 3755SOL     OW21943   2.274   7.188   0.173 -0.5921 -0.2484  0.2508
 3755SOL    HW121944   2.179   7.178   0.202 -0.3923 -0.8942  0.6910
 3755SOL    HW221945   2.283   7.158   0.078 -0.7724 -0.4831  0.3066
 3756SOL     OW21946   1.581   3.772   0.035  0.4518  0.0345  0.3316
 3756SOL    HW121947   1.492   3.729   0.020  0.0765  1.1243 -0.6380
 3756SOL    HW221948   1.604   3.767   0.132  0.6096 -2.6854  0.2096
 3757SOL     OW21949   2.267   6.894   5.438 -0.0884  0.2110  0.0830
 3757SOL    HW121950   2.263   6.928   5.344  0.6151 -0.7285 -0.2985
 3757SOL    HW221951   2.272   6.794   5.437  2.9963  0.2928  0.9990
 3758SOL     OW21952   0.412   4.461   1.666 -0.4227  0.7461 -0.2052
 3758SOL    HW121953   0.482   4.532   1.668  0.9633 -0.5838 -0.7688
 3758SOL    HW221954   0.421   4.403   1.747 -0.2090 -0.0384 -0.7845
 3759SOL     OW21955   1.160   9.161   4.590 -0.6392  0.2831 -0.1968
 3759SOL    HW121956   1.147   9.184   4.493  1.2133  1.8311 -0.1167
 3759SOL    HW221957   1.238   9.098   4.599  1.0049  2.3575  0.4956
 3760SOL     OW21958   7.351   8.014   1.587  0.2294  0.7327 -0.6119
 3760SOL    HW121959   7.265   7.987   1.544  0.2065 -1.0525  0.4933
 3760SOL    HW221960   7.348   8.111   1.610 -3.9646 -0.4515  4.8374
 3761SOL     OW21961   3.340   1.658   3.149 -0.4002  0.3151  0.0128
 3761SOL    HW121962   3.391   1.665   3.235 -0.0388 -2.8586  0.1108
 3761SOL    HW221963   3.243   1.674   3.167 -0.0867  1.5137  0.6827
 3762SOL     OW21964   7.469   0.979   0.612 -0.3964 -0.6627 -0.4880
 3762SOL    HW121965   7.447   0.919   0.689 -0.5530  0.5415  0.4335
 3762SOL    HW221966   7.425   0.946   0.529 -2.5341 -0.4335  0.5349
 3763SOL     OW21967   2.832   2.974   0.948  0.3411 -0.1100  0.0534
 3763SOL    HW121968   2.797   3.054   0.900 -1.6358 -0.5949  0.6522
 3763SOL    HW221969   2.882   2.915   0.883 -0.8349  0.0870 -1.0457
 3764SOL     OW21970   9.403   6.452   1.707  0.3550 -0.2453  0.1895
 3764SOL    HW121971   9.417   6.380   1.774 -0.8117 -1.4045 -0.7878
 3764SOL    HW221972   9.310   6.447   1.672  0.2908  1.6915  0.0431
 3765SOL     OW21973   3.829   3.395   3.500 -0.3243 -0.5431  0.0187
 3765SOL    HW121974   3.759   3.443   3.553  0.9694  2.2955 -0.7537
 3765SOL    HW221975   3.834   3.433   3.408  0.3279 -2.6331 -0.8464
 3766SOL     OW21976   1.174   0.834   1.052 -0.4179 -0.4561 -0.4086
 3766SOL    HW121977   1.078   0.810   1.070 -1.1616  2.8100  0.2860
 3766SOL    HW221978   1.191   0.829   0.953 -2.0123  1.2931 -0.8016
 3767SOL     OW21979   7.170   0.174   4.791 -0.1950 -0.2632  0.1879
 3767SOL    HW121980   7.135   0.104   4.853  1.2106 -0.8048  0.3963
 3767SOL    HW221981   7.138   0.156   4.698 -0.5776 -0.6686  0.4016
 3768SOL     OW21982   6.037   7.761   1.679  0.0515  0.2833  0.0171
 3768SOL    HW121983   5.995   7.807   1.601 -0.8765  1.3856  1.1390
 3768SOL    HW221984   6.034   7.662   1.666 -1.5338  0.4127 -0.6082
 3769SOL     OW21985   5.430   0.186   0.810  0.0664  0.2921 -0.9470
 3769SOL    HW121986   5.371   0.122   0.761 -1.4928  0.9565  0.0130
 3769SOL    HW221987   5.376   0.237   0.877  1.0862  3.1885 -2.2375
 3770SOL     OW21988   2.809   4.936   0.521  0.0083  0.0198 -0.1069
 3770SOL    HW121989   2.783   4.840   0.527  1.1441 -0.2374  0.9120
 3770SOL    HW221990   2.813   4.976   0.613  1.6019  0.4555 -0.3367
 3771SOL     OW21991   2.664   5.380   3.057 -0.3402  0.5869  0.6430
 3771SOL    HW121992   2.742   5.409   3.002  0.3552  0.4791  1.5420
 3771SOL    HW221993   2.634   5.290   3.026 -0.1919  0.6877  0.2016
 3772SOL     OW21994   1.328   1.329   1.167  0.4209 -0.4259 -0.0692
 3772SOL    HW121995   1.318   1.327   1.266 -0.2692 -1.5371 -0.1561
 3772SOL    HW221996   1.349   1.238   1.133  0.9819  0.0090 -0.9139
 3773SOL     OW21997   4.597   1.618   3.217  0.4937 -0.3063 -0.3923
 3773SOL    HW121998   4.504   1.587   3.196  0.4576 -2.1084  2.1655
 3773SOL    HW221999   4.644   1.640   3.132 -2.3223  0.8539 -1.7335
 3774SOL     OW22000   8.174   3.276   0.674  0.0370  0.9836 -0.0693
 3774SOL    HW122001   8.084   3.319   0.665  0.3235  1.4120 -0.9102
 3774SOL    HW222002   8.181   3.234   0.765 -1.0443  0.8594 -0.0313
 3775SOL     OW22003   3.562   3.175   2.068 -0.1368 -0.1803 -0.2834
 3775SOL    HW122004   3.542   3.209   1.976  0.2194 -1.3280 -0.7899
 3775SOL    HW222005   3.483   3.192   2.127 -0.0240  1.3740 -0.5626
 3776SOL     OW22006   0.347   0.238   1.270 -0.3075  0.5124 -0.1439
 3776SOL    HW122007   0.298   0.275   1.191  0.9820  0.0560 -1.1696
 3776SOL    HW222008   0.434   0.286   1.281  1.4326 -2.2307 -1.5273
 3777SOL     OW22009   3.263   6.618   1.208 -0.4359 -0.0206  0.0454
 3777SOL    HW122010   3.288   6.643   1.114 -0.2824 -1.0671 -0.2067
 3777SOL    HW222011   3.166   6.594   1.211 -0.2000 -1.0388 -0.0885
 3778SOL     OW22012   1.015   4.553   1.241  0.2290  0.5129 -0.5154
 3778SOL    HW122013   0.984   4.647   1.245  0.8740  0.7672 -1.3225
 3778SOL    HW222014   1.111   4.551   1.213  0.5919 -0.3146  0.7373
 3779SOL     OW22015   2.369   0.017   4.647  0.3667  1.1885  0.5172
 3779SOL    HW122016   2.330  -0.017   4.562  1.2526  0.4688  0.3854
 3779SOL    HW222017   2.454   0.066   4.627  1.8483 -1.0479  1.1919
 3780SOL     OW22018   4.783   1.201   1.874  0.3020  0.0978 -0.1949
 3780SOL    HW122019   4.882   1.205   1.882  0.3800 -0.9711 -0.4856
 3780SOL    HW222020   4.742   1.195   1.965  0.5610 -0.4260 -0.1084
 3781SOL     OW22021   8.673   9.876   2.769  0.5434  0.0001 -0.6761
 3781SOL    HW122022   8.709   9.960   2.811  1.9540 -2.1546  2.6871
 3781SOL    HW222023   8.748   9.812   2.753 -0.5984 -0.8861 -2.6642
 3782SOL     OW22024   8.064   9.458   0.440 -0.0567  0.2805 -0.2227
 3782SOL    HW122025   8.024   9.367   0.435  0.0433  0.1806  0.7562
 3782SOL    HW222026   8.018   9.518   0.374  0.0236 -0.5242 -1.0202
 3783SOL     OW22027   1.480   8.935   2.511 -0.4920  0.2556  0.9704
 3783SOL    HW122028   1.448   8.914   2.604 -1.1493 -0.4764  0.5812
 3783SOL    HW222029   1.558   8.876   2.489 -1.6198 -1.0007  0.3029
 3784SOL     OW22030   3.290   5.417   1.658 -0.0188  0.1940 -0.6713
 3784SOL    HW122031   3.215   5.355   1.634 -0.2063  0.1023  0.1356
 3784SOL    HW222032   3.252   5.504   1.691  0.2380  0.4714 -1.1036
 3785SOL     OW22033   2.753   9.082   3.014 -0.0057  0.3659  0.5185
 3785SOL    HW122034   2.828   9.121   3.067 -0.3972  1.9433 -0.0798
 3785SOL    HW222035   2.676   9.063   3.075  1.1049 -1.9488  1.2690
 3786SOL     OW22036   6.741   0.430   1.117 -0.3762 -0.0150  0.1087
 3786SOL    HW122037   6.783   0.483   1.191 -1.6637 -0.8354  1.4721
 3786SOL    HW222038   6.641   0.434   1.126 -0.5463 -0.3624 -1.4353
 3787SOL     OW22039   2.895   3.169   0.471  0.8717 -0.2118  0.0083
 3787SOL    HW122040   2.952   3.148   0.551 -0.7658 -0.6643  1.0631
 3787SOL    HW222041   2.855   3.260   0.482  0.7462 -0.2224 -0.3539
 3788SOL     OW22042   1.992   8.091   4.038 -0.0714  0.2256  0.1203
 3788SOL    HW122043   2.061   8.136   4.095  0.6908 -0.2449 -0.4195
 3788SOL    HW222044   1.913   8.067   4.095  0.7283 -0.3405  1.0161
 3789SOL     OW22045   9.191   8.517   1.370 -0.1479 -0.3906  0.5457
 3789SOL    HW122046   9.223   8.584   1.438  0.8881  2.2242 -2.3723
 3789SOL    HW222047   9.266   8.455   1.346  0.3004  0.4072 -0.1498
 3790SOL     OW22048   3.531   3.748   3.822 -0.3704  0.0497  0.4387
 3790SOL    HW122049   3.441   3.779   3.791 -1.0136 -2.1702 -0.0250
 3790SOL    HW222050   3.527   3.724   3.919  0.0304  1.0503  0.7073
 3791SOL     OW22051   0.814   0.212   2.321  0.0778  0.1943 -0.4063
 3791SOL    HW122052   0.740   0.275   2.294  0.0538  1.3646  2.2965
 3791SOL    HW222053   0.801   0.184   2.415  2.2749 -0.8010 -0.3736
 3792SOL     OW22054   3.797   2.071   2.681 -0.2137  0.0622 -0.2132
 3792SOL    HW122055   3.732   2.026   2.742  0.6105 -0.0808  0.5588
 3792SOL    HW222056   3.890   2.054   2.712  0.2896 -1.1797 -2.2935
 3793SOL     OW22057   3.300   3.139   0.829 -0.8138  0.5657  0.0932
 3793SOL    HW122058   3.312   3.051   0.875  2.4484  2.6900  3.6378
 3793SOL    HW222059   3.226   3.190   0.873 -0.5077  0.9180  0.2002
 3794SOL     OW22060   5.337   7.655   2.972 -0.1185  0.0090  0.5144
 3794SOL    HW122061   5.291   7.667   2.885 -0.1944 -0.5902  0.4697
 3794SOL    HW222062   5.400   7.731   2.988  0.2289 -0.1127 -0.2693
 3795SOL     OW22063   6.504   9.207   1.989 -0.4398 -0.0223  0.4437
 3795SOL    HW122064   6.483   9.238   1.897  2.1689 -0.7683 -0.4427
 3795SOL    HW222065   6.494   9.107   1.994 -4.4554  0.3649  2.0843
 3796SOL     OW22066   7.916   5.940   2.673  0.2370 -0.1476 -0.0202
 3796SOL    HW122067   7.941   5.849   2.706 -1.1937 -1.1630 -1.6904
 3796SOL    HW222068   7.995   5.982   2.629  0.8562 -0.6219  0.6111
 3797SOL     OW22069   7.521   9.931   5.343 -0.0419 -0.0511 -0.5506
 3797SOL    HW122070   7.575   9.976   5.414  0.4999 -1.5912  0.0213
 3797SOL    HW222071   7.445   9.991   5.317 -0.8638  0.1136  2.0518
 3798SOL     OW22072   7.590   9.808   4.901 -0.6145 -0.1992 -0.0833
 3798SOL    HW122073   7.567   9.881   4.837 -2.0024 -0.0051  0.5977
 3798SOL    HW222074   7.654   9.744   4.859  1.4056  1.9468 -0.3380
 3799SOL     OW22075   8.122   4.773   1.739 -0.8631  0.2767  0.3807
 3799SOL    HW122076   8.138   4.782   1.837 -0.9005  1.7408  0.2542
 3799SOL    HW222077   8.198   4.813   1.689 -0.3779 -1.3258 -0.2072
 3800SOL     OW22078   6.878   7.471   2.999  0.5354  0.1701  0.4478
 3800SOL    HW122079   6.868   7.552   2.941 -4.4474  0.3420  1.3787
 3800SOL    HW222080   6.925   7.497   3.084  0.6805  1.6352 -0.0641
 3801SOL     OW22081   8.327   9.180   2.366  0.2439  0.1279 -0.1859
 3801SOL    HW122082   8.407   9.121   2.359 -1.1630 -1.8905  0.3089
 3801SOL    HW222083   8.305   9.196   2.463  0.3221  1.0605 -0.3166
 3802SOL     OW22084   2.477   7.648   3.259  0.4687 -0.0141 -0.2260
 3802SOL    HW122085   2.551   7.707   3.291  1.6491 -1.3156 -0.5422
 3802SOL    HW222086   2.446   7.679   3.169  0.9698  0.2298 -0.3167
 3803SOL     OW22087   1.833   6.615   1.923  0.3931 -0.0759 -0.2644
 3803SOL    HW122088   1.914   6.619   1.865  0.2026  1.7914 -0.4357
 3803SOL    HW222089   1.758   6.570   1.874  0.9193 -0.5836 -0.5993
 3804SOL     OW22090   7.940   1.371   1.423 -0.0803  0.5062  0.2364
 3804SOL    HW122091   7.868   1.345   1.488  1.2658 -1.5147  0.9593
 3804SOL    HW222092   8.019   1.407   1.473  0.4498  0.2006 -0.3736
 3805SOL     OW22093   2.695   7.020   1.980 -0.2489  0.2312  0.8497
 3805SOL    HW122094   2.714   6.967   1.897  0.4161 -0.2515  1.3065
 3805SOL    HW222095   2.773   7.078   2.001 -0.3673  0.2609  1.2140
 3806SOL     OW22096   5.416   1.313   3.887  0.2637  0.4065  0.7830
 3806SOL    HW122097   5.376   1.378   3.952 -1.3803  0.2438 -0.0548
 3806SOL    HW222098   5.454   1.235   3.938 -0.8676  0.3541  1.5678
 3807SOL     OW22099   9.130   3.916   2.092 -0.0326 -0.1370  0.6407
 3807SOL    HW122100   9.052   3.878   2.142  0.5571 -0.8416  1.0315
 3807SOL    HW222101   9.103   4.002   2.049 -1.6420 -1.4079 -0.9603
 3808SOL     OW22102   0.125   4.498   2.337 -0.0539  0.2013  0.4743
 3808SOL    HW122103   0.051   4.438   2.365  1.0250 -2.3957 -2.0641
 3808SOL    HW222104   0.211   4.447   2.336  0.4486  0.9515 -4.5422
 3809SOL     OW22105   0.896   1.868   0.912  0.0881 -0.3360 -0.5410
 3809SOL    HW122106   0.866   1.919   0.992 -0.7265 -0.5080 -0.7321
 3809SOL    HW222107   0.940   1.783   0.940  1.4208  0.4427 -0.2226
 3810SOL     OW22108   8.362   9.633   0.772  0.1234  0.2479  0.4129
 3810SOL    HW122109   8.396   9.694   0.701  3.2644 -0.8911  0.8586
 3810SOL    HW222110   8.342   9.543   0.733  0.4103  0.0573  0.7071
 3811SOL     OW22111   6.772   0.761   4.289  0.0665  0.0445 -0.2845
 3811SOL    HW122112   6.788   0.824   4.365  0.3970 -0.9989  0.5228
 3811SOL    HW222113   6.818   0.674   4.307  0.6265 -0.0305 -1.9421
 3812SOL     OW22114   7.970   7.753   2.681  0.0165 -0.3823 -0.2932
 3812SOL    HW122115   7.910   7.763   2.602 -0.7929  0.1942  0.3810
 3812SOL    HW222116   7.921   7.781   2.764  1.4512  0.8434  0.1765
 3813SOL     OW22117   9.143   1.556   4.564  0.2097 -0.2225 -0.0327
 3813SOL    HW122118   9.144   1.593   4.471 -1.8526  2.7546  1.0846
 3813SOL    HW222119   9.052   1.522   4.585  1.0700 -2.3532  0.3995
 3814SOL     OW22120   1.909   0.992   3.462 -0.2022 -0.6137  0.1637
 3814SOL    HW122121   1.997   0.973   3.418  0.1383 -0.3355  0.7181
 3814SOL    HW222122   1.866   0.905   3.487  0.5111 -0.7270  1.0465
 3815SOL     OW22123   1.732   2.578   4.955 -0.1402 -0.4497 -0.0428
 3815SOL    HW122124   1.662   2.648   4.948 -0.6115 -0.9169 -0.0249
 3815SOL    HW222125   1.818   2.613   4.918  0.4733  1.2606  2.7870
 3816SOL     OW22126   6.476   8.512   3.626 -0.5842 -0.2084 -0.5378
 3816SOL    HW122127   6.482   8.471   3.535  1.8750 -2.7570  0.6862
 3816SOL    HW222128   6.420   8.454   3.685  0.4093 -0.2662  0.3773
 3817SOL     OW22129   1.643   5.394   1.701  0.1482  0.0773  0.1322
 3817SOL    HW122130   1.629   5.455   1.623 -1.6080  0.7858  0.9613
 3817SOL    HW222131   1.693   5.442   1.773  0.9360 -0.2721 -0.1745
 3818SOL     OW22132   0.465   8.883   1.611  0.1861 -0.0215 -0.1800
 3818SOL    HW122133   0.419   8.835   1.686 -0.7424 -1.4167 -1.5905
 3818SOL    HW222134   0.436   8.978   1.609  1.5703  0.5168  2.2878
 3819SOL     OW22135   3.604   0.735   0.640  0.3673  0.0089  0.3847
 3819SOL    HW122136   3.549   0.734   0.723  0.0715  1.1830  0.2189
 3819SOL    HW222137   3.696   0.701   0.660 -0.2931 -1.5651  0.7545
 3820SOL     OW22138   2.482   2.713   3.808  0.5048 -0.4213  0.8866
 3820SOL    HW122139   2.448   2.804   3.785  1.2541  0.1964  2.1830
 3820SOL    HW222140   2.578   2.719   3.837  0.9669 -1.7938 -0.2487
 3821SOL     OW22141   3.829   9.518   5.503 -0.1854  0.7660  0.1629
 3821SOL    HW122142   3.860   9.607   5.535 -3.0612  1.3208  1.5254
 3821SOL    HW222143   3.745   9.529   5.449  1.5330 -0.7402 -2.9577
 3822SOL     OW22144   9.120   7.484   2.989 -0.4486 -0.4758  0.2175
 3822SOL    HW122145   9.170   7.421   2.929  0.0598  0.3651 -0.2614
 3822SOL    HW222146   9.040   7.438   3.027  0.6192 -1.7957  0.8883
 3823SOL     OW22147   1.756   6.486   3.138  0.2255 -0.4587  0.4604
 3823SOL    HW122148   1.688   6.488   3.065  1.7026 -0.1281 -0.9416
 3823SOL    HW222149   1.817   6.408   3.124 -0.2319 -1.1317  2.0711
 3824SOL     OW22150   3.614   9.021   4.067  0.0779 -0.1001  0.2064
 3824SOL    HW122151   3.634   8.943   4.008  1.1876  1.6509 -1.7814
 3824SOL    HW222152   3.667   9.014   4.151 -0.2836 -1.7680  0.3257
 3825SOL     OW22153   0.288   8.785   2.883  0.3402 -0.4880 -0.2078
 3825SOL    HW122154   0.217   8.732   2.836  1.0450 -1.8174  0.2056
 3825SOL    HW222155   0.347   8.828   2.815 -0.2464 -0.2160 -0.5486
 3826SOL     OW22156   0.583   2.229   4.704 -0.0081  0.3101 -0.4777
 3826SOL    HW122157   0.540   2.274   4.783 -1.3362  0.9948 -1.5682
 3826SOL    HW222158   0.620   2.297   4.642 -0.3253 -0.1536 -1.1924
 3827SOL     OW22159   1.969   7.010   2.634  0.1129  0.0520 -0.2545
 3827SOL    HW122160   1.933   7.103   2.642  0.2269  0.1883 -1.2266
 3827SOL    HW222161   1.897   6.944   2.653  0.2537  0.3382  1.3232
 3828SOL     OW22162   9.494   0.855   1.668  0.1091 -0.7624 -0.1176
 3828SOL    HW122163   9.423   0.916   1.631  1.6530  1.3822  0.3703
 3828SOL    HW222164   9.550   0.821   1.593 -1.1563 -2.1188 -0.4602
 3829SOL     OW22165   0.320   8.095   2.658 -0.0135  0.5549 -0.0722
 3829SOL    HW122166   0.257   8.111   2.734  0.0927  2.0922 -0.2826
 3829SOL    HW222167   0.383   8.173   2.650 -1.0346  1.1652 -2.7035
 3830SOL     OW22168   4.683   1.167   4.041 -0.4966 -0.2563  0.0321
 3830SOL    HW122169   4.731   1.251   4.017 -1.6740  0.7241  1.0822
 3830SOL    HW222170   4.740   1.112   4.102  0.9338 -0.9908 -1.9103
 3831SOL     OW22171   2.498   9.419   1.600 -0.1736  0.0347 -0.1854
 3831SOL    HW122172   2.561   9.385   1.530 -0.4345 -1.5693  0.3388
 3831SOL    HW222173   2.417   9.457   1.556 -0.3584 -1.0167 -0.7740
 3832SOL     OW22174   9.309   2.559   2.211 -0.4092 -0.3919  0.1246
 3832SOL    HW122175   9.245   2.602   2.146  0.9445  0.4832 -0.6631
 3832SOL    HW222176   9.309   2.611   2.296  0.0264  0.2408 -0.2532
 3833SOL     OW22177   3.303   9.439   2.874  0.2179 -0.6824  0.8408
 3833SOL    HW122178   3.205   9.434   2.854 -0.3024 -0.6441  3.2100
 3833SOL    HW222179   3.319   9.507   2.946  2.2024  0.5144 -0.6796
 3834SOL     OW22180   8.718   1.618   3.797  0.0347 -0.1843  0.0363
 3834SOL    HW122181   8.622   1.614   3.770  0.0045 -1.5498  0.3017
 3834SOL    HW222182   8.763   1.695   3.751 -0.5092 -1.2449 -2.3556
 3835SOL     OW22183   6.717   8.901   1.696  0.4084  0.0749 -0.0721
 3835SOL    HW122184   6.800   8.851   1.722  1.7925  2.2891 -0.0605
 3835SOL    HW222185   6.742   8.993   1.665 -1.7651 -0.2849 -3.1491
 3836SOL     OW22186   5.730   9.594   1.797  0.0783 -0.1950  0.8533
 3836SOL    HW122187   5.641   9.550   1.804  0.0933 -0.2698  0.5725
 3836SOL    HW222188   5.718   9.692   1.782  0.0207 -0.6860 -2.5368
 3837SOL     OW22189   3.190   9.382   4.089  0.1418 -0.3456  0.5060
 3837SOL    HW122190   3.126   9.393   4.012  0.2177 -1.0045  0.3435
 3837SOL    HW222191   3.227   9.472   4.114  0.2637 -0.1461 -0.3549
 3838SOL     OW22192   9.657   1.154   0.933 -0.0328 -0.9129 -0.0852
 3838SOL    HW122193   9.725   1.159   0.860  1.1761 -1.5690  0.9739
 3838SOL    HW222194   9.703   1.148   1.022 -1.4767 -0.5710  0.7136
 3839SOL     OW22195   0.804   5.134   0.830  0.3816  0.4203 -0.6210
 3839SOL    HW122196   0.789   5.182   0.743  0.3094  2.0696  0.2793
 3839SOL    HW222197   0.789   5.197   0.906  0.0687 -1.1084  0.6144
 3840SOL     OW22198   7.396   1.245   3.952  0.2188 -0.0454  0.3255
 3840SOL    HW122199   7.347   1.159   3.963 -2.5987  1.5725  0.7080
 3840SOL    HW222200   7.493   1.226   3.937 -0.1070 -3.2302  1.8326
 3841SOL     OW22201   1.739   9.274   0.276 -0.3494  0.7384 -0.4181
 3841SOL    HW122202   1.778   9.251   0.364 -2.2377  1.6632  0.6966
 3841SOL    HW222203   1.686   9.358   0.284  0.3931  1.4598 -2.7042
 3842SOL     OW22204   3.397   7.205   2.013  0.0798 -0.7509 -0.0693
 3842SOL    HW122205   3.368   7.131   1.953 -1.9525 -0.9983  1.1765
 3842SOL    HW222206   3.457   7.170   2.085  0.5198 -0.8706 -0.4917
 3843SOL     OW22207   4.400   1.656   1.444 -0.4714 -0.3062  0.3508
 3843SOL    HW122208   4.332   1.678   1.514 -0.0549  2.6660 -0.1100
 3843SOL    HW222209   4.446   1.740   1.415  0.4533 -1.7023 -2.3702
 3844SOL     OW22210   1.095   0.585   1.893 -0.0314  0.0865  0.1508
 3844SOL    HW122211   1.137   0.567   1.804  0.7748 -0.9343  0.7249
 3844SOL    HW222212   1.110   0.680   1.919 -0.7950  0.5511 -1.0751
 3845SOL     OW22213   9.462   0.045   3.274 -0.2311 -1.1923 -0.0242
 3845SOL    HW122214   9.388  -0.007   3.316 -1.3926 -0.1851 -0.7975
 3845SOL    HW222215   9.458   0.140   3.305  0.5559 -1.0602 -0.3167
 3846SOL     OW22216   3.459   0.348   1.931  0.5024  0.7435 -0.0053
 3846SOL    HW122217   3.477   0.446   1.945  0.0300  1.0607 -1.4914
 3846SOL    HW222218   3.500   0.319   1.844  0.1685 -0.2501  0.1655
 3847SOL     OW22219   2.764   6.984   5.069  0.5234  0.1586 -0.0286
 3847SOL    HW122220   2.856   7.021   5.068  1.1254 -1.0253  3.3339
 3847SOL    HW222221   2.767   6.885   5.052 -0.3135  0.4222 -1.7498
 3848SOL     OW22222   2.746   6.913   4.498  0.1875 -0.6643 -0.5524
 3848SOL    HW122223   2.748   6.855   4.416 -1.0895 -1.3356 -0.1170
 3848SOL    HW222224   2.705   6.862   4.573  0.7846  0.1726  0.3465
 3849SOL     OW22225   0.414   7.968   0.544 -0.3546  0.0881 -0.4555
 3849SOL    HW122226   0.344   8.028   0.582  0.5898  0.7095  0.3139
 3849SOL    HW222227   0.388   7.942   0.451 -1.4585  0.5515 -0.2841
 3850SOL     OW22228   4.014   3.943   0.096  0.0655  0.1163  0.1580
 3850SOL    HW122229   3.953   3.877   0.052  0.7675 -1.5317  1.6103
 3850SOL    HW222230   4.084   3.895   0.148  1.7893  1.9887 -0.3260
 3851SOL     OW22231   7.129   9.910   1.171 -0.3964 -0.5903  0.3277
 3851SOL    HW122232   7.146   9.992   1.118  0.1387  0.5693  2.2624
 3851SOL    HW222233   7.214   9.858   1.182 -0.0368  0.3221  1.9339
 3852SOL     OW22234   1.842   6.782   1.128  0.7939  0.7715 -0.0098
 3852SOL    HW122235   1.794   6.702   1.164 -1.2679  1.3521 -1.3366
 3852SOL    HW222236   1.797   6.865   1.161  2.5953  1.3784  0.9341
 3853SOL     OW22237   9.748   5.993   2.267 -0.3029 -0.1437 -0.3312
 3853SOL    HW122238   9.840   6.003   2.306 -0.4781 -0.2585  0.1151
 3853SOL    HW222239   9.748   6.029   2.174  0.3139 -0.5686 -0.4996
 3854SOL     OW22240   7.554   9.470   0.260 -0.0931 -0.4125 -0.4878
 3854SOL    HW122241   7.529   9.530   0.337  0.8699  1.1144 -1.3433
 3854SOL    HW222242   7.488   9.483   0.186  0.6506  0.2849 -1.0297
 3855SOL     OW22243   3.877   0.602   0.186 -0.2460  0.0906 -0.0402
 3855SOL    HW122244   3.782   0.609   0.154  0.2814  1.7692 -1.3202
 3855SOL    HW222245   3.885   0.645   0.276 -1.3802 -3.1166  1.6826
 3856SOL     OW22246   8.164   0.480   4.573  0.1577 -0.5226 -0.7870
 3856SOL    HW122247   8.110   0.427   4.507 -0.6288 -1.3765  0.5150
 3856SOL    HW222248   8.124   0.572   4.582 -1.8522 -1.5359  1.0553
 3857SOL     OW22249   1.788   1.246   1.245 -0.1465  0.7340 -0.7700
 3857SOL    HW122250   1.746   1.319   1.191  2.4944  1.2214 -2.2738
 3857SOL    HW222251   1.844   1.188   1.185  0.9188 -0.1567  1.0367
 3858SOL     OW22252   0.750   2.741   4.971  0.4938  0.0702  0.2754
 3858SOL    HW122253   0.782   2.772   5.061  0.9231 -0.9803  0.4861
 3858SOL    HW222254   0.702   2.816   4.925  0.1292  0.5673  1.4529
 3859SOL     OW22255   5.360   8.878   3.806  0.0655  0.1994 -0.0064
 3859SOL    HW122256   5.339   8.788   3.846  1.4178 -0.7417 -1.3475
 3859SOL    HW222257   5.453   8.904   3.832  0.2745  0.4448 -0.9950
 3860SOL     OW22258   3.511   8.138   2.124 -0.3627  0.1340  0.2789
 3860SOL    HW122259   3.502   8.214   2.059  1.9459  1.2107  1.1691
 3860SOL    HW222260   3.422   8.094   2.135 -1.1995  1.0714 -2.2059
 3861SOL     OW22261   3.007   3.546   2.385 -0.0648  0.4377  0.0399
 3861SOL    HW122262   2.921   3.572   2.428 -1.8013 -0.9782 -2.5133
 3861SOL    HW222263   3.062   3.494   2.450 -1.7730  0.0269  1.1832
 3862SOL     OW22264   2.557   0.240   3.439 -0.2297  0.9169  0.4602
 3862SOL    HW122265   2.504   0.199   3.365 -1.8632  1.0908  1.5051
 3862SOL    HW222266   2.652   0.208   3.434 -0.7055 -0.3801 -0.6901
 3863SOL     OW22267   3.337   7.538   2.695 -0.1743 -0.2516 -0.2915
 3863SOL    HW122268   3.241   7.514   2.679 -0.6707  1.2288  0.4014
 3863SOL    HW222269   3.357   7.531   2.793  0.2580  0.0351 -0.3577
 3864SOL     OW22270   0.406   9.849   3.225 -0.3800 -0.5377 -0.0345
 3864SOL    HW122271   0.399   9.824   3.322  1.0571  0.8579  0.4533
 3864SOL    HW222272   0.315   9.873   3.190 -1.0905 -2.1311  0.6443
 3865SOL     OW22273   0.278   2.086   5.181 -0.0900 -0.3492 -0.6854
 3865SOL    HW122274   0.257   2.182   5.197  0.1856 -0.2741 -0.7729
 3865SOL    HW222275   0.376   2.071   5.191 -0.1680 -0.6776 -0.3876
 3866SOL     OW22276   0.245   2.320   5.317 -0.9227  0.1537 -0.0729
 3866SOL    HW122277   0.271   2.276   5.403  0.8533  0.6912 -0.3108
 3866SOL    HW222278   0.235   2.418   5.331 -1.1516  0.1719 -0.3590
 3867SOL     OW22279   2.079   8.496   3.294 -0.6753  0.7899  0.5681
 3867SOL    HW122280   2.143   8.533   3.362  0.3688 -0.1269  0.1114
 3867SOL    HW222281   1.985   8.505   3.328 -0.1017 -0.7337  2.6731
 3868SOL     OW22282   3.787   7.721   0.703  0.2228 -0.1449 -0.3115
 3868SOL    HW122283   3.765   7.636   0.750 -0.1714 -0.4303 -1.0042
 3868SOL    HW222284   3.884   7.743   0.718  1.1104 -2.2399 -2.4428
 3869SOL     OW22285   6.163   8.499   3.499 -0.2910  0.3779 -0.4179
 3869SOL    HW122286   6.144   8.409   3.540  1.8412  0.3806  0.6531
 3869SOL    HW222287   6.241   8.491   3.438 -0.3357  1.4313 -0.6164
 3870SOL     OW22288   9.743   7.884   4.426  0.8117  0.2174 -0.3619
 3870SOL    HW122289   9.773   7.877   4.332  0.6813  1.0053 -0.4679
 3870SOL    HW222290   9.759   7.977   4.460 -1.8517  0.7876 -0.5643
 3871SOL     OW22291   2.126   3.581   3.099 -0.5698  0.4083  0.5246
 3871SOL    HW122292   2.079   3.506   3.146  1.1160  0.2099  1.9124
 3871SOL    HW222293   2.225   3.571   3.109 -0.2726  1.9026 -0.7093
 3872SOL     OW22294   6.690   7.324   3.125 -0.2753  0.0083  0.0371
 3872SOL    HW122295   6.608   7.310   3.069  0.8041 -2.8373 -0.8868
 3872SOL    HW222296   6.751   7.389   3.078  0.0827 -1.4492 -1.5877
 3873SOL     OW22297   4.112   4.396   0.771  0.2184 -0.3127 -0.2923
 3873SOL    HW122298   4.032   4.366   0.721  0.1661 -0.2643 -0.2381
 3873SOL    HW222299   4.091   4.403   0.868 -1.0407  3.9781 -0.7618
 3874SOL     OW22300   2.586   6.898   2.700  0.3260  0.0384 -0.3439
 3874SOL    HW122301   2.612   6.988   2.736 -0.3016  0.3199 -0.5761
 3874SOL    HW222302   2.512   6.909   2.634 -1.2490 -0.8541  1.2339
 3875SOL     OW22303   5.123   3.262   0.748  0.0052  0.2766  0.3451
 3875SOL    HW122304   5.155   3.233   0.839 -0.3857 -0.5190  0.2322
 3875SOL    HW222305   5.098   3.359   0.751 -0.6018  0.0957  1.2507
 3876SOL     OW22306   5.200   8.598   3.721  0.1470 -0.5251 -0.9989
 3876SOL    HW122307   5.112   8.635   3.750  0.5473 -0.3091 -0.0553
 3876SOL    HW222308   5.186   8.532   3.647 -0.4971  2.4807 -3.6759
 3877SOL     OW22309   9.523   0.172   1.765  0.2379  0.2571  0.0156
 3877SOL    HW122310   9.577   0.094   1.797 -0.2858  0.1062  0.5283
 3877SOL    HW222311   9.441   0.139   1.718 -0.5478  0.5091  1.2075
 3878SOL     OW22312   1.172   7.023   2.709 -0.8519 -0.0789  0.3332
 3878SOL    HW122313   1.258   7.056   2.747  0.3155 -0.3052 -1.9961
 3878SOL    HW222314   1.167   6.924   2.720 -1.2809  0.0619  1.3838
 3879SOL     OW22315   5.044   8.040   1.617 -0.1205 -0.4091  0.3254
 3879SOL    HW122316   5.013   8.115   1.558  1.3275 -0.9358 -1.1590
 3879SOL    HW222317   5.062   8.075   1.709 -2.1124  0.4934  0.3991
 3880SOL     OW22318   3.791   1.849   4.015 -0.2400  0.2046 -0.1816
 3880SOL    HW122319   3.797   1.752   4.038  2.8079  0.3158 -0.3610
 3880SOL    HW222320   3.815   1.863   3.919 -2.3941  0.9769 -0.6461
 3881SOL     OW22321   1.214   4.377   2.044 -0.5090  0.4659  0.1798
 3881SOL    HW122322   1.218   4.458   2.103 -0.8772  0.5283  0.1169
 3881SOL    HW222323   1.124   4.335   2.052 -0.7161  0.7339 -0.6871
 3882SOL     OW22324   3.995   9.693   2.583  0.3915 -0.0676 -0.1944
 3882SOL    HW122325   3.902   9.655   2.583  0.0993  0.5331 -2.7689
 3882SOL    HW222326   3.995   9.781   2.629 -0.2677 -0.2137  0.0948
 3883SOL     OW22327   4.255   9.482   1.325  0.2153 -0.1654  0.2966
 3883SOL    HW122328   4.165   9.441   1.308  0.1877 -0.2395  0.6240
 3883SOL    HW222329   4.243   9.574   1.362  0.2745 -0.2128  0.4326
 3884SOL     OW22330   4.620   0.831   4.242 -0.0478 -0.4327 -0.2665
 3884SOL    HW122331   4.628   0.816   4.341 -0.7255 -1.4674 -0.3565
 3884SOL    HW222332   4.593   0.926   4.225  1.5438  0.1780  0.4699
 3885SOL     OW22333   1.349   9.664   4.372 -0.1081  0.4685 -0.2586
 3885SOL    HW122334   1.363   9.578   4.323 -0.5990  1.1214 -1.5720
 3885SOL    HW222335   1.275   9.653   4.438  0.3264 -0.3193  0.1125
 3886SOL     OW22336   9.266   2.288   2.306  0.3417  0.2437 -0.0845
 3886SOL    HW122337   9.361   2.258   2.317  0.2970 -0.9217 -2.5406
 3886SOL    HW222338   9.264   2.378   2.261  0.2833 -0.7715 -2.1938
 3887SOL     OW22339   3.682   1.060   4.424 -0.1646  0.0135 -0.1261
 3887SOL    HW122340   3.710   1.152   4.453 -1.0156  0.1089  0.4134
 3887SOL    HW222341   3.583   1.050   4.436  0.0017 -1.1512  0.2841
 3888SOL     OW22342   2.681   8.983   0.617  0.0179  0.0744  0.5023
 3888SOL    HW122343   2.715   9.020   0.530 -1.9378 -0.9619 -0.7628
 3888SOL    HW222344   2.718   8.891   0.630  0.1106  0.1332  0.6430
 3889SOL     OW22345   8.510   0.348   4.216 -0.9335 -0.0100  0.0326
 3889SOL    HW122346   8.481   0.289   4.291 -0.4719 -0.6041 -0.2560
 3889SOL    HW222347   8.455   0.432   4.217  0.7008  1.0772  2.5241
 3890SOL     OW22348   5.368   1.411   3.601  0.8464  0.2023 -0.1288
 3890SOL    HW122349   5.459   1.377   3.574  0.6815 -1.6132  1.4820
 3890SOL    HW222350   5.365   1.421   3.700 -0.9048 -0.3645 -0.1050
 3891SOL     OW22351   5.578   7.589   1.641  0.3484  0.8044  0.3630
 3891SOL    HW122352   5.482   7.575   1.663  0.7898 -0.3261  1.6511
 3891SOL    HW222353   5.611   7.673   1.684 -0.5243  2.1951 -1.6218
 3892SOL     OW22354   2.064   2.878   1.603  0.5230  0.1835 -0.0374
 3892SOL    HW122355   2.053   2.973   1.576 -0.2878  0.1825  0.3078
 3892SOL    HW222356   1.986   2.848   1.657  0.0034 -1.1513 -1.4919
 3893SOL     OW22357   4.119   0.347   4.927  0.4964  0.2466 -0.3171
 3893SOL    HW122358   4.117   0.438   4.968  3.5093  2.1961 -4.1058
 3893SOL    HW222359   4.061   0.346   4.845 -0.2316 -1.5319  0.2000
 3894SOL     OW22360   0.091   6.870   0.829 -0.2514 -0.1385 -0.1754
 3894SOL    HW122361   0.049   6.914   0.908  0.1751  1.1845 -0.6634
 3894SOL    HW222362   0.100   6.772   0.846 -0.7505  0.0343  1.1511
 3895SOL     OW22363   4.872   3.250   1.001 -0.0026 -0.7230  0.3185
 3895SOL    HW122364   4.897   3.254   0.905 -1.7319 -0.9523 -0.1679
 3895SOL    HW222365   4.825   3.164   1.020 -0.0688 -0.4892  1.2526
 3896SOL     OW22366   8.835   2.977   2.345 -0.0931 -0.7236 -0.0029
 3896SOL    HW122367   8.745   2.983   2.302  0.6034  2.1359 -1.1134
 3896SOL    HW222368   8.868   2.882   2.340 -2.6871 -1.6415 -0.2643
 3897SOL     OW22369   0.186   9.302   4.169 -0.4225 -0.0039 -0.3748
 3897SOL    HW122370   0.152   9.386   4.212  0.2352 -0.4443  1.0541
 3897SOL    HW222371   0.108   9.242   4.148 -0.8783  0.8739 -1.2218
 3898SOL     OW22372   2.471   9.019   3.845 -0.0920 -0.3519 -0.2784
 3898SOL    HW122373   2.467   9.081   3.766 -1.3401 -0.4526 -0.3098
 3898SOL    HW222374   2.416   9.058   3.919 -0.1931 -1.0129 -0.0081
 3899SOL     OW22375   1.178   0.296   1.744  0.0744  0.0661 -0.2559
 3899SOL    HW122376   1.206   0.245   1.663 -0.4886 -0.8783  0.1430
 3899SOL    HW222377   1.258   0.311   1.803  0.7953  2.0575 -1.6698
 3900SOL     OW22378   7.486   0.108   5.087 -0.0434  0.0429 -0.0201
 3900SOL    HW122379   7.442   0.133   5.174 -2.2485 -1.3329 -0.7063
 3900SOL    HW222380   7.463   0.176   5.017 -0.4541 -0.2572 -0.1804
 3901SOL     OW22381   2.344   6.978   3.872 -0.2921 -0.6359 -0.5271
 3901SOL    HW122382   2.256   6.985   3.826 -0.0914 -0.0117 -0.8227
 3901SOL    HW222383   2.330   6.957   3.969 -0.9555  3.4311  0.3594
 3902SOL     OW22384   2.419   1.205   0.164  0.6406  0.0483 -0.4569
 3902SOL    HW122385   2.410   1.141   0.088  0.6326  0.3335 -0.6970
 3902SOL    HW222386   2.378   1.165   0.246  0.1889 -0.0426 -0.7279
 3903SOL     OW22387   2.160   6.401   2.289 -0.6210  0.3088 -0.3567
 3903SOL    HW122388   2.253   6.365   2.288 -0.3391  1.0170 -0.3034
 3903SOL    HW222389   2.163   6.500   2.276 -1.3825  0.3045 -0.5689
 3904SOL     OW22390   2.242   3.079   0.315 -0.3342  0.2359 -0.2750
 3904SOL    HW122391   2.160   3.092   0.371 -0.3878 -1.1970 -0.0122
 3904SOL    HW222392   2.292   2.998   0.346  1.5347  1.4533 -0.0210
 3905SOL     OW22393   1.799   2.318   5.524 -0.7332 -0.2780  0.4123
 3905SOL    HW122394   1.883   2.298   5.474 -0.9289  0.1936 -0.1051
 3905SOL    HW222395   1.822   2.371   5.607 -0.7723  2.2424 -1.1297
 3906SOL     OW22396   0.263   7.565   3.862 -0.0049  0.0329 -0.6790
 3906SOL    HW122397   0.306   7.480   3.892 -0.6471 -0.7250 -1.8769
 3906SOL    HW222398   0.182   7.582   3.919  1.5769  1.2127  1.2572
 3907SOL     OW22399   2.486   4.071   1.208  0.3374  0.5118  0.1117
 3907SOL    HW122400   2.414   4.010   1.175 -0.2554  1.7207 -0.8658
 3907SOL    HW222401   2.510   4.046   1.302 -0.7746 -0.4297  0.1594
 3908SOL     OW22402   4.507   8.101   3.544  0.3905 -0.2847  0.2086
 3908SOL    HW122403   4.526   8.186   3.593  1.1827  0.3585 -1.1656
 3908SOL    HW222404   4.456   8.039   3.603 -1.1347  1.5626  0.8689
 3909SOL     OW22405   3.490   6.964   0.757  0.0180 -0.3200 -0.0420
 3909SOL    HW122406   3.489   6.869   0.786 -1.4392  0.1310  1.4543
 3909SOL    HW222407   3.505   7.023   0.836 -0.2026  0.7415 -0.7760
 3910SOL     OW22408   0.857   8.813   3.614  0.0261 -0.6286  0.9851
 3910SOL    HW122409   0.917   8.745   3.571 -1.5137 -0.0161 -2.2874
 3910SOL    HW222410   0.891   8.905   3.593 -0.5369 -0.3141  1.4466
 3911SOL     OW22411   0.121   1.109   5.557  0.0227  0.5149  0.3467
 3911SOL    HW122412   0.113   1.209   5.566  3.5122  1.0481 -1.5137
 3911SOL    HW222413   0.100   1.083   5.462 -3.0106 -0.8661  1.3204
 3912SOL     OW22414   2.678   0.858   2.271  0.1775  0.3299 -0.4915
 3912SOL    HW122415   2.598   0.917   2.272  0.3141  0.5231 -1.0276
 3912SOL    HW222416   2.674   0.795   2.349 -0.9694 -0.2947 -1.0375
 3913SOL     OW22417   7.906   2.526   0.691 -0.1532 -0.2105 -0.3080
 3913SOL    HW122418   7.917   2.475   0.605 -1.6773  2.0504 -1.8836
 3913SOL    HW222419   7.815   2.510   0.728  0.7569 -1.7772  1.3352
 3914SOL     OW22420   0.490   1.147   4.626 -0.7156  0.6527 -0.2322
 3914SOL    HW122421   0.481   1.077   4.554  0.2562  1.4980 -1.1940
 3914SOL    HW222422   0.399   1.179   4.653 -1.1835 -1.0157  0.2656
 3915SOL     OW22423   4.356   7.249   3.480 -0.2834  0.8497 -0.0346
 3915SOL    HW122424   4.307   7.201   3.407  3.1215 -0.7675 -1.3558
 3915SOL    HW222425   4.345   7.348   3.467 -0.5300  0.5721 -2.2096
 3916SOL     OW22426   1.142   8.516   4.500  0.3432 -0.2386  0.7254
 3916SOL    HW122427   1.224   8.495   4.447 -0.8069 -1.1110 -0.7262
 3916SOL    HW222428   1.110   8.608   4.479 -0.0966 -0.5750 -0.0909
 3917SOL     OW22429   5.577   0.372   3.649  0.1058  0.1092  0.3354
 3917SOL    HW122430   5.631   0.335   3.573  0.9708  3.6391 -0.8549
 3917SOL    HW222431   5.619   0.457   3.681 -1.8166  0.1209  2.9692
 3918SOL     OW22432   1.436   8.118   5.579  0.0916 -0.6208 -0.5085
 3918SOL    HW122433   1.503   8.064   5.528  0.7325 -1.2825  0.9867
 3918SOL    HW222434   1.343   8.088   5.555  0.4391 -2.3771  0.2750
 3919SOL     OW22435   9.813   2.060   2.224 -0.5111  0.7339 -0.5324
 3919SOL    HW122436   9.802   2.005   2.141 -2.3162  0.2945 -0.0326
 3919SOL    HW222437   9.903   2.103   2.224  0.4735 -1.2404 -1.5378
 3920SOL     OW22438   9.187   3.492   0.983 -0.1323  0.0098  0.4027
 3920SOL    HW122439   9.278   3.452   0.978 -0.5901 -1.0677  0.4924
 3920SOL    HW222440   9.119   3.422   0.964 -0.8491  1.4778 -2.8112
 3921SOL     OW22441   1.690   7.946   0.335 -0.4471 -0.8305  0.4313
 3921SOL    HW122442   1.654   7.992   0.416  0.0786  1.6324 -0.7014
 3921SOL    HW222443   1.790   7.951   0.335 -0.3203 -2.9721  0.8521
 3922SOL     OW22444   8.496   8.077   2.692 -0.5353 -1.0106 -0.0083
 3922SOL    HW122445   8.434   8.022   2.748  1.3733 -2.0441  1.1334
 3922SOL    HW222446   8.570   8.018   2.658  0.0643  0.3020 -1.0027
 3923SOL     OW22447   2.979   8.854   4.641 -0.2253 -0.4423  0.4003
 3923SOL    HW122448   3.063   8.892   4.681 -2.0089  2.7464  1.2491
 3923SOL    HW222449   2.940   8.786   4.703  1.3404 -1.4581  0.3058
 3924SOL     OW22450   9.226   9.090   5.431 -0.1507  0.0522 -0.5530
 3924SOL    HW122451   9.191   9.049   5.515 -0.9016  2.0202  0.1243
 3924SOL    HW222452   9.150   9.123   5.375  0.4075  0.1322 -1.2794
 3925SOL     OW22453   2.559   1.838   4.490  0.5331  0.3869  0.0909
 3925SOL    HW122454   2.644   1.891   4.492  0.4139  0.7495 -2.4150
 3925SOL    HW222455   2.567   1.765   4.422 -1.2226  0.5791 -0.3461
 3926SOL     OW22456   2.136   1.679   5.368 -0.3700  0.3159 -0.2967
 3926SOL    HW122457   2.192   1.750   5.411 -0.0645 -0.1730  0.1152
 3926SOL    HW222458   2.111   1.708   5.276  1.2926  0.1641 -0.8140
 3927SOL     OW22459   8.103   0.077   2.573  0.5999 -0.1429  0.5812
 3927SOL    HW122460   8.189   0.120   2.546 -0.0051 -0.1455 -1.4485
 3927SOL    HW222461   8.030   0.146   2.571  0.3664 -0.3620  1.3294
 3928SOL     OW22462   0.654   1.680   5.619  0.2409  0.3263  0.0971
 3928SOL    HW122463   0.691   1.736   5.693 -0.5317  0.4945  0.3659
 3928SOL    HW222464   0.571   1.634   5.651  0.4472 -0.3618 -0.3665
 3929SOL     OW22465   3.790   8.268   4.707 -0.1064  0.3107 -0.3139
 3929SOL    HW122466   3.888   8.287   4.718 -0.3427  0.1801  2.1968
 3929SOL    HW222467   3.759   8.207   4.780 -2.3170  1.3038 -0.3869
 3930SOL     OW22468   2.847   7.250   5.494  0.3159  0.1290 -0.6049
 3930SOL    HW122469   2.828   7.236   5.592 -3.2685  3.1578 -0.7804
 3930SOL    HW222470   2.893   7.338   5.482 -2.9452  1.7297 -1.9208
 3931SOL     OW22471   3.488   1.780   3.813 -0.2820  0.1608  0.4345
 3931SOL    HW122472   3.547   1.813   3.887 -0.6743  1.0525  0.3560
 3931SOL    HW222473   3.462   1.857   3.755  1.7826 -0.8394 -1.9100
 3932SOL     OW22474   8.803   3.036   0.989  0.1253  0.0610  0.0787
 3932SOL    HW122475   8.841   2.946   0.969 -0.1694  0.0170 -0.2787
 3932SOL    HW222476   8.704   3.030   0.997  0.2619  0.0028  1.9558
 3933SOL     OW22477   2.438   7.494   4.367 -0.0157 -0.6580  0.3499
 3933SOL    HW122478   2.449   7.583   4.323  0.1536 -0.4726  0.7562
 3933SOL    HW222479   2.430   7.423   4.298  0.2381 -0.3726  0.0267
 3934SOL     OW22480   3.058   6.686   5.094 -0.4888 -0.0516 -0.7401
 3934SOL    HW122481   3.110   6.633   5.161 -0.1934 -1.3572 -1.9786
 3934SOL    HW222482   3.099   6.674   5.004 -0.7550  1.8653 -1.1289
 3935SOL     OW22483   5.494   8.752   1.849  0.6030 -0.3461 -0.0134
 3935SOL    HW122484   5.501   8.761   1.750  1.7751 -1.0430 -0.0003
 3935SOL    HW222485   5.404   8.716   1.873  0.7721 -1.3953 -0.9074
 3936SOL     OW22486   3.063   6.707   3.890  0.0079 -0.1883 -0.0075
 3936SOL    HW122487   2.993   6.744   3.828  0.5180 -1.8050 -1.5893
 3936SOL    HW222488   3.118   6.782   3.926 -0.9735  0.8799 -0.6853
 3937SOL     OW22489   2.507   5.733   2.269 -0.3855  0.1493  0.1811
 3937SOL    HW122490   2.480   5.711   2.176 -1.2826  1.7759  0.0348
 3937SOL    HW222491   2.435   5.788   2.313  0.6146  0.5474  1.3673
 3938SOL     OW22492   0.229   8.122   1.303 -0.3783  0.0786  0.4729
 3938SOL    HW122493   0.274   8.032   1.304 -1.4091 -0.4517 -0.2827
 3938SOL    HW222494   0.228   8.159   1.396  1.9976  0.3048  0.4349
 3939SOL     OW22495   5.827   0.363   4.178  0.4551 -0.2874  0.2693
 3939SOL    HW122496   5.729   0.369   4.158  1.1220  1.4016 -3.0160
 3939SOL    HW222497   5.869   0.296   4.117  1.8477  1.5824 -0.9173
 3940SOL     OW22498   0.151   1.787   1.735 -0.2224  0.2190  0.0673
 3940SOL    HW122499   0.213   1.841   1.792  1.5727 -2.3935  0.6893
 3940SOL    HW222500   0.198   1.705   1.703 -2.6769 -0.6844 -1.3642
 3941SOL     OW22501   4.239   9.577   2.603  0.3589  0.2331 -0.5707
 3941SOL    HW122502   4.274   9.548   2.514  0.2268 -0.7567 -0.3157
 3941SOL    HW222503   4.151   9.623   2.591  0.7293  0.8309 -1.0199
 3942SOL     OW22504   1.329   2.716   0.162  0.2203 -0.4178 -0.2447
 3942SOL    HW122505   1.335   2.811   0.192  0.4066 -0.0425 -1.4277
 3942SOL    HW222506   1.238   2.698   0.124  0.8156 -0.1400 -1.8547
 3943SOL     OW22507   1.917   7.510   2.700 -0.0364  0.1149 -0.1864
 3943SOL    HW122508   1.969   7.530   2.783 -0.0058  0.8777 -0.3848
 3943SOL    HW222509   1.840   7.572   2.693  0.1200  0.2379 -0.8718
 3944SOL     OW22510   3.150   4.428   0.582 -0.0494 -0.1163  0.2303
 3944SOL    HW122511   3.229   4.456   0.636  1.4171 -1.7840 -0.9832
 3944SOL    HW222512   3.161   4.334   0.552 -2.7404 -0.5399  0.4121
 3945SOL     OW22513   4.832   2.842   2.659  0.7235  0.5543 -0.6218
 3945SOL    HW122514   4.861   2.902   2.584  2.9847 -0.4643 -0.6150
 3945SOL    HW222515   4.908   2.782   2.684 -0.8291 -0.8652  0.7848
 3946SOL     OW22516   1.390   4.460   1.024 -0.3673 -0.9260  0.4497
 3946SOL    HW122517   1.375   4.483   0.928 -2.0900 -1.6914  0.5205
 3946SOL    HW222518   1.467   4.396   1.032  0.7082  0.2455 -0.2648
 3947SOL     OW22519   3.784   8.040   5.331  0.3799 -0.2045  0.1148
 3947SOL    HW122520   3.752   8.088   5.249 -1.1768  3.5389  2.7699
 3947SOL    HW222521   3.861   8.090   5.371 -1.0163 -0.0122  2.7223
 3948SOL     OW22522   7.022   7.982   3.937  0.4443 -0.2845  0.8216
 3948SOL    HW122523   7.009   7.883   3.949  1.6908 -0.3945  1.3886
 3948SOL    HW222524   6.934   8.028   3.940 -0.1134 -1.3384  0.9477
 3949SOL     OW22525   4.079   9.456   0.773  0.5594  0.2327 -0.2464
 3949SOL    HW122526   3.982   9.433   0.769  0.3188  1.5640 -3.3102
 3949SOL    HW222527   4.092   9.539   0.827 -0.0016  0.0713  0.1400
 3950SOL     OW22528   9.888   9.111   2.962 -0.3411  0.9089  0.2108
 3950SOL    HW122529   9.980   9.075   2.976  0.0990  1.2631 -1.6669
 3950SOL    HW222530   9.841   9.117   3.050  1.1474 -0.0135  1.0893
 3951SOL     OW22531   6.685   0.797   3.431  0.1939 -0.3835 -0.1550
 3951SOL    HW122532   6.752   0.768   3.362  0.1975 -0.5125 -0.0965
 3951SOL    HW222533   6.666   0.721   3.492 -1.2757 -0.8655 -1.1807
 3952SOL     OW22534   8.607   2.871   2.214  0.3320 -0.2367 -1.3814
 3952SOL    HW122535   8.541   2.870   2.138 -0.4496 -1.1074 -0.7012
 3952SOL    HW222536   8.623   2.778   2.245 -0.8785  0.2694  0.8372
 3953SOL     OW22537   8.623   0.160   4.755 -0.0143 -0.0942  0.6170
 3953SOL    HW122538   8.536   0.120   4.726 -0.3819 -1.5031  3.5023
 3953SOL    HW222539   8.687   0.087   4.778  0.8726  0.9507  1.4985
 3954SOL     OW22540   4.113   8.583   5.175  0.0339 -0.0830  0.5615
 3954SOL    HW122541   4.189   8.639   5.207 -0.2292  1.0237 -0.7042
 3954SOL    HW222542   4.032   8.601   5.231 -0.0796  0.9017  0.0905
 3955SOL     OW22543   1.087   9.336   2.021  0.3437  1.3016  0.6112
 3955SOL    HW122544   1.167   9.286   1.986 -1.4488 -0.6937 -0.7649
 3955SOL    HW222545   1.069   9.415   1.962  1.3596  1.8493  1.0104
 3956SOL     OW22546   1.219   4.518   2.942 -0.2726  0.1039  0.1586
 3956SOL    HW122547   1.217   4.464   2.858  0.6466  0.1336  0.1173
 3956SOL    HW222548   1.313   4.526   2.974 -0.5523  0.6251  0.8510
 3957SOL     OW22549   2.819   2.990   4.742  0.1432  0.0547 -0.7736
 3957SOL    HW122550   2.758   2.932   4.688  0.1685 -0.5574 -0.1560
 3957SOL    HW222551   2.911   2.951   4.741 -0.1327 -0.6606  0.7552
 3958SOL     OW22552   6.625   7.952   1.962 -0.5783  0.0413  0.0629
 3958SOL    HW122553   6.575   7.866   1.977 -0.1346 -0.1157  0.7013
 3958SOL    HW222554   6.704   7.935   1.904 -0.3017 -0.0537  0.4632
 3959SOL     OW22555   4.672   4.475   1.101  0.0315  0.4468  0.1528
 3959SOL    HW122556   4.696   4.451   1.195 -0.0639  0.8976  0.2948
 3959SOL    HW222557   4.708   4.565   1.079 -0.5834  0.6625  0.0061
 3960SOL     OW22558   4.019   9.797   4.800 -0.0038  0.4187  0.1682
 3960SOL    HW122559   4.010   9.769   4.895 -0.3444 -0.5279 -0.1341
 3960SOL    HW222560   3.928   9.814   4.761  0.2016  2.0600  0.3739
 3961SOL     OW22561   4.597   8.081   1.022  0.6085 -0.5901 -0.1792
 3961SOL    HW122562   4.594   8.041   0.931 -0.0638 -0.8312 -0.0520
 3961SOL    HW222563   4.681   8.135   1.032  0.9275 -0.9779 -0.7608
 3962SOL     OW22564   7.405   0.908   0.928  0.5441 -0.0625 -0.0825
 3962SOL    HW122565   7.305   0.914   0.922  0.6313  0.5189 -0.9703
 3962SOL    HW222566   7.439   0.976   0.993  0.6751  2.3887 -2.6308
 3963SOL     OW22567   4.819   5.681   1.757 -0.0080 -0.0360  0.4793
 3963SOL    HW122568   4.810   5.638   1.667  1.0114 -0.4093  0.5487
 3963SOL    HW222569   4.748   5.751   1.767  1.0111  1.2940 -1.3450
 3964SOL     OW22570   9.422   2.579   1.863  0.0283  0.1157  0.1887
 3964SOL    HW122571   9.372   2.581   1.777 -0.4110 -1.2254  0.3964
 3964SOL    HW222572   9.489   2.653   1.865  0.1081  0.0959 -1.3357
 3965SOL     OW22573   3.521   1.461   0.588 -0.2426  0.1435 -0.1288
 3965SOL    HW122574   3.569   1.420   0.511 -0.9510 -0.8579 -0.0445
 3965SOL    HW222575   3.581   1.464   0.668 -0.8376 -2.6849  0.4753
 3966SOL     OW22576   7.712   6.445   2.509  0.4361 -0.2797  0.4564
 3966SOL    HW122577   7.643   6.463   2.439 -0.0893 -0.1096  1.0111
 3966SOL    HW222578   7.684   6.489   2.595 -0.3125 -2.7829  1.5299
 3967SOL     OW22579   6.480   6.738   3.582  0.3724  0.5316  0.0620
 3967SOL    HW122580   6.512   6.738   3.487  0.5836 -1.5389  0.1139
 3967SOL    HW222581   6.382   6.753   3.584  0.0353 -1.3675 -0.6410
 3968SOL     OW22582   9.225   0.769   4.248  0.1590  0.3893  0.0577
 3968SOL    HW122583   9.213   0.868   4.250  2.0132  0.7416 -2.7465
 3968SOL    HW222584   9.323   0.747   4.250 -0.2617 -1.4581  1.9200
 3969SOL     OW22585   5.570   1.431   1.567  0.3528  0.1893 -0.1197
 3969SOL    HW122586   5.584   1.421   1.665  0.4746  2.6404  0.1435
 3969SOL    HW222587   5.488   1.486   1.550  0.7867  0.4649 -1.3674
 3970SOL     OW22588   2.705   8.397   1.150 -0.0117 -0.2135  0.2158
 3970SOL    HW122589   2.667   8.316   1.105 -0.5393 -0.2979  0.8060
 3970SOL    HW222590   2.678   8.397   1.246 -0.3460  0.8666  0.1287
 3971SOL     OW22591   0.381   9.195   5.145  0.1941 -0.3002 -0.5872
 3971SOL    HW122592   0.466   9.146   5.125  0.5001 -0.2457  0.5728
 3971SOL    HW222593   0.315   9.177   5.072  0.9533 -0.9039 -1.1412
 3972SOL     OW22594   0.483   6.892   1.126  0.0613  0.8573  0.2688
 3972SOL    HW122595   0.415   6.937   1.184 -1.5385  0.7008 -1.4517
 3972SOL    HW222596   0.536   6.961   1.077 -0.2678  0.9450  0.0318
 3973SOL     OW22597   1.099   9.207   0.699  0.3687 -0.3316  0.4146
 3973SOL    HW122598   1.163   9.284   0.700  1.0998 -0.8720 -1.8308
 3973SOL    HW222599   1.120   9.146   0.775  2.9077 -0.7717 -0.5897
 3974SOL     OW22600   0.740   9.714   2.351  0.0311 -0.1388 -0.4304
 3974SOL    HW122601   0.678   9.793   2.352  0.5796  0.2945  0.7486
 3974SOL    HW222602   0.774   9.698   2.443  0.4979 -1.3115 -0.8045
 3975SOL     OW22603   7.168   0.097   3.801 -0.3282 -0.4496  0.6003
 3975SOL    HW122604   7.147  -0.000   3.793 -2.8351  0.0792  0.4378
 3975SOL    HW222605   7.250   0.118   3.747  0.0786 -2.4045  0.4259
 3976SOL     OW22606   5.505   9.211   3.637 -0.2670  0.0403  0.3962
 3976SOL    HW122607   5.545   9.137   3.691  1.2153  0.3704 -0.2063
 3976SOL    HW222608   5.460   9.174   3.556 -0.6319 -0.2923  0.7515
 3977SOL     OW22609   8.175   0.693   2.061  0.0961  0.4257 -0.0083
 3977SOL    HW122610   8.091   0.641   2.049  0.2205  0.2516 -0.1240
 3977SOL    HW222611   8.248   0.632   2.091  0.2851  0.4971 -0.3144
 3978SOL     OW22612   1.823   3.284   0.855 -0.0606  0.0416  0.2391
 3978SOL    HW122613   1.890   3.256   0.786 -0.6740  0.0195 -0.3537
 3978SOL    HW222614   1.754   3.342   0.812 -1.1583 -1.0123  0.5687
 3979SOL     OW22615   6.579   6.980   2.286 -0.0290 -0.2671  0.1416
 3979SOL    HW122616   6.608   7.036   2.363  1.1450 -1.4736  0.5873
 3979SOL    HW222617   6.492   6.937   2.307 -0.1603  0.1308  0.4194
 3980SOL     OW22618   8.963   2.392   1.691  0.1465 -0.5492 -0.0045
 3980SOL    HW122619   9.002   2.387   1.599 -0.6455  0.5771 -0.4044
 3980SOL    HW222620   8.973   2.303   1.736 -1.2124 -1.6662 -1.8805
 3981SOL     OW22621   5.803   1.235   1.894  0.0775  0.0355 -0.2286
 3981SOL    HW122622   5.807   1.193   1.803 -1.2371  1.5431 -1.0180
 3981SOL    HW222623   5.759   1.172   1.958  3.6424 -2.2262  0.1089
 3982SOL     OW22624   3.711   4.392   5.103  0.6826  0.9370  0.6549
 3982SOL    HW122625   3.725   4.485   5.138  2.1116  0.7390  0.6323
 3982SOL    HW222626   3.786   4.333   5.134 -1.2418 -0.7187  2.4126
 3983SOL     OW22627   0.361   1.348   2.635  0.4607  0.5339  0.0995
 3983SOL    HW122628   0.316   1.365   2.722  1.0699  1.0859  0.3178
 3983SOL    HW222629   0.420   1.268   2.643  0.7694  0.7794  0.2948
 3984SOL     OW22630   2.136   3.085   2.961  0.2247 -0.5250 -0.3124
 3984SOL    HW122631   2.182   3.020   3.022 -0.5052  0.0948  0.9355
 3984SOL    HW222632   2.098   3.036   2.882  1.7623 -1.2438 -0.6118
 3985SOL     OW22633   9.147   9.573   3.304  0.3357  0.7963 -0.3458
 3985SOL    HW122634   9.182   9.491   3.348  0.8341  0.7780 -0.7772
 3985SOL    HW222635   9.146   9.561   3.205 -0.3730  1.0018 -0.3687
 3986SOL     OW22636   8.416   0.212   3.242  0.1586 -0.2015 -0.5014
 3986SOL    HW122637   8.516   0.216   3.231  0.2622 -1.0630  0.0914
 3986SOL    HW222638   8.381   0.132   3.194 -0.1237 -0.4849  0.1738
 3987SOL     OW22639   4.746   6.679   1.644 -0.4893 -0.5596  0.1964
 3987SOL    HW122640   4.698   6.720   1.567  0.2436  0.2940  0.1861
 3987SOL    HW222641   4.784   6.751   1.702  0.6988 -1.2209  0.2548
 3988SOL     OW22642   0.076   9.359   0.922  0.6735  0.6176  0.1858
 3988SOL    HW122643   0.035   9.310   0.846 -0.4106 -0.8941  1.7090
 3988SOL    HW222644   0.156   9.410   0.890  1.2752 -1.4036 -1.6045
 3989SOL     OW22645   3.626   3.863   4.978 -0.2431 -0.9599  0.3808
 3989SOL    HW122646   3.561   3.914   5.034 -0.7196  0.4815 -1.4448
 3989SOL    HW222647   3.670   3.793   5.034 -0.3437  0.7463  2.6691
 3990SOL     OW22648   2.670   1.282   2.631  0.7286 -0.1865 -0.2483
 3990SOL    HW122649   2.703   1.199   2.585  1.1634 -0.1842  0.0490
 3990SOL    HW222650   2.725   1.360   2.602  0.6918 -0.1024 -0.0920
 3991SOL     OW22651   1.783   4.737   1.739  0.4195  0.1391 -0.1605
 3991SOL    HW122652   1.701   4.785   1.770 -0.3243 -2.0560  1.3993
 3991SOL    HW222653   1.787   4.737   1.639 -0.5298  1.8007 -0.2021
 3992SOL     OW22654   0.126   7.474   4.294 -0.0454  0.0871 -0.4928
 3992SOL    HW122655   0.200   7.445   4.355  0.4681 -0.8581 -1.5469
 3992SOL    HW222656   0.039   7.470   4.342  0.5006  0.4588  0.5253
 3993SOL     OW22657   9.479   1.999   3.069 -0.9514  0.0979  0.1649
 3993SOL    HW122658   9.507   2.017   2.974 -1.5139  2.3080  0.3799
 3993SOL    HW222659   9.481   1.901   3.086 -2.0490 -0.4474 -2.5274
 3994SOL     OW22660   2.850   4.582   0.966  0.2212 -0.2219  0.2301
 3994SOL    HW122661   2.766   4.563   1.016  0.2102  1.7277  1.0029
 3994SOL    HW222662   2.876   4.678   0.979  3.2928 -1.1117  1.1361
 3995SOL     OW22663   0.942   0.431   1.569 -0.2273 -0.7819  0.3470
 3995SOL    HW122664   1.002   0.375   1.626  0.9164  1.4522  1.4191
 3995SOL    HW222665   0.997   0.498   1.519 -1.6817  0.2130  0.0438
 3996SOL     OW22666   2.688   0.943   3.344  0.4648  0.0683 -0.3616
 3996SOL    HW122667   2.729   1.015   3.289 -0.1699 -0.9594 -2.2254
 3996SOL    HW222668   2.597   0.972   3.376 -0.2757 -0.3401 -2.0746
 3997SOL     OW22669   8.750   7.613   0.904  0.4404 -0.1060  0.6637
 3997SOL    HW122670   8.735   7.526   0.951  1.7741  0.4325  2.1002
 3997SOL    HW222671   8.713   7.688   0.958 -1.0786  0.2235 -0.7683
 3998SOL     OW22672   3.043   8.196   1.213  0.2148 -0.1794 -0.5533
 3998SOL    HW122673   3.094   8.182   1.129  0.5860 -0.7616 -0.2357
 3998SOL    HW222674   3.023   8.293   1.225  2.6241  0.2509  0.1265
 3999SOL     OW22675   9.666   6.979   3.517  0.8248  0.1179 -0.5899
 3999SOL    HW122676   9.745   6.953   3.461  0.4142  0.2752 -1.2531
 3999SOL    HW222677   9.633   7.069   3.488  0.2236 -0.0763 -0.5151
 4000SOL     OW22678   7.739   2.606   2.828 -0.6265 -0.6031 -0.1393
 4000SOL    HW122679   7.763   2.539   2.759  0.9293  0.2546 -0.4620
 4000SOL    HW222680   7.662   2.661   2.796 -0.9043 -1.2160 -0.5293
 4001SOL     OW22681   8.883   9.753   2.692  0.4638  0.4737 -0.0259
 4001SOL    HW122682   8.889   9.662   2.652  0.1445  0.4310  0.0232
 4001SOL    HW222683   8.922   9.751   2.785 -0.8853  0.0455  0.5470
 4002SOL     OW22684   7.111   0.672   3.982  0.1875  0.0586  0.2630
 4002SOL    HW122685   7.164   0.686   4.066 -0.5555 -0.2331  0.7827
 4002SOL    HW222686   7.165   0.620   3.916  1.0347  0.8811  0.2922
 4003SOL     OW22687   3.003   9.709   4.527  0.1006  0.2200  0.1428
 4003SOL    HW122688   2.958   9.757   4.602  0.0087 -0.8858  0.8126
 4003SOL    HW222689   3.054   9.631   4.563  0.9211  0.2926 -0.8355
 4004SOL     OW22690   8.463   3.144   2.877 -0.1576 -0.3792  0.4687
 4004SOL    HW122691   8.447   3.047   2.898 -0.7495 -0.2488  0.6354
 4004SOL    HW222692   8.470   3.195   2.962 -1.7542  0.0245  0.3794
 4005SOL     OW22693   1.915   0.252   1.472 -0.1382 -0.7081  0.2718
 4005SOL    HW122694   1.975   0.217   1.543 -0.7996  0.9635  1.6992
 4005SOL    HW222695   1.969   0.306   1.407  0.0488  0.0670  1.0605
 4006SOL     OW22696   2.213   4.584   3.861  0.3196  0.5077 -0.3456
 4006SOL    HW122697   2.144   4.612   3.794  0.0997  0.5300 -0.1137
 4006SOL    HW222698   2.170   4.528   3.932  0.9064 -1.0266 -1.1891
 4007SOL     OW22699   6.039   0.830   3.266 -0.3865 -0.1661  0.0942
 4007SOL    HW122700   6.116   0.881   3.304  0.0945 -0.0576 -0.9956
 4007SOL    HW222701   6.047   0.733   3.292 -0.9580  0.1898  1.6309
 4008SOL     OW22702   0.960   8.322   1.622  0.0820 -0.3996 -0.3060
 4008SOL    HW122703   0.899   8.270   1.682  0.8230 -0.7827  0.1268
 4008SOL    HW222704   1.055   8.309   1.652  0.4351 -0.3349 -1.3681
 4009SOL     OW22705   0.747   6.401   3.833 -0.7857  0.3906 -0.4708
 4009SOL    HW122706   0.827   6.438   3.880 -0.1892  0.3951 -1.4662
 4009SOL    HW222707   0.688   6.476   3.803 -0.5438  0.4575 -0.7927
 4010SOL     OW22708   3.935   7.439   3.597  0.3507 -0.0131 -0.8325
 4010SOL    HW122709   3.866   7.428   3.668  1.7490  0.5032  0.6467
 4010SOL    HW222710   3.942   7.354   3.545 -1.6107  0.0415 -1.2174
 4011SOL     OW22711   3.363   3.799   1.390  0.5201  0.0895 -0.7228
 4011SOL    HW122712   3.331   3.806   1.485  0.0558  4.3231 -1.0584
 4011SOL    HW222713   3.291   3.761   1.333  0.9808 -2.9665  0.6694
 4012SOL     OW22714   6.254   6.824   3.988 -0.0403  0.2960 -0.3007
 4012SOL    HW122715   6.160   6.827   3.954 -0.0735 -1.2656 -0.3632
 4012SOL    HW222716   6.309   6.764   3.931  0.8523  0.6964  0.1197
 4013SOL     OW22717   0.421   0.140   2.439  0.0299  0.4009  0.0174
 4013SOL    HW122718   0.459   0.195   2.364  2.3919 -0.6119  0.4159
 4013SOL    HW222719   0.448   0.179   2.527 -1.6480  0.8535  0.3404
 4014SOL     OW22720   3.577   2.980   1.245  0.2671 -0.3329 -0.2871
 4014SOL    HW122721   3.515   2.908   1.278  1.6895 -1.3176  0.2950
 4014SOL    HW222722   3.569   3.060   1.305 -2.4604  0.6139 -1.8449
 4015SOL     OW22723   9.762   9.477   0.345  0.2811  0.4340 -0.3749
 4015SOL    HW122724   9.671   9.482   0.385 -0.2373 -0.0053 -1.4675
 4015SOL    HW222725   9.779   9.557   0.288  0.2188  0.0756 -0.9034
 4016SOL     OW22726   5.961   0.757   1.018  0.0515  0.2467  0.9039
 4016SOL    HW122727   6.038   0.695   1.034 -1.8640 -3.4130 -2.8524
 4016SOL    HW222728   5.988   0.828   0.954  0.8694  0.1207  1.1066
 4017SOL     OW22729   3.615   9.799   3.111  0.1451  0.4881 -0.2725
 4017SOL    HW122730   3.597   9.871   3.178 -1.4572  0.0125 -0.1600
 4017SOL    HW222731   3.534   9.786   3.054  0.1876 -1.6383  0.1088
 4018SOL     OW22732   2.703   4.942   0.781  0.0727 -0.4831  0.0702
 4018SOL    HW122733   2.755   4.909   0.859  1.2209 -0.0783 -0.5167
 4018SOL    HW222734   2.617   4.890   0.774  0.1922 -0.8716  1.2770
 4019SOL     OW22735   3.538   5.523   1.979  0.5018 -0.1923  0.2193
 4019SOL    HW122736   3.611   5.570   1.930  2.3020 -0.7763  2.2608
 4019SOL    HW222737   3.474   5.591   2.017  1.5624  0.4749  0.8324
 4020SOL     OW22738   3.527   0.319   4.260  0.0858  0.3878  0.3018
 4020SOL    HW122739   3.620   0.290   4.283  0.0712  0.2049  0.1339
 4020SOL    HW222740   3.495   0.267   4.181 -0.3903  0.0129  0.7409
 4021SOL     OW22741   3.270   9.163   5.048  0.2891  0.2538 -0.2178
 4021SOL    HW122742   3.350   9.190   5.104 -0.3988 -1.8467  1.8523
 4021SOL    HW222743   3.199   9.233   5.058  0.2310 -0.0065  1.4799
 4022SOL     OW22744   3.353   8.974   1.742 -0.0338 -0.0991 -0.1045
 4022SOL    HW122745   3.279   8.931   1.794 -0.3767  2.1466  1.3648
 4022SOL    HW222746   3.441   8.946   1.780 -0.2473  0.1812  0.6172
 4023SOL     OW22747   5.588   0.824   4.093  0.7620 -0.4261 -0.5561
 4023SOL    HW122748   5.619   0.888   4.163  1.1254  0.2443 -1.3228
 4023SOL    HW222749   5.666   0.773   4.057  0.8136  0.4255 -1.6530
 4024SOL     OW22750   8.843   0.918   3.055 -0.1397  0.1353 -0.6357
 4024SOL    HW122751   8.751   0.956   3.054  0.2754  1.1366 -1.3498
 4024SOL    HW222752   8.871   0.896   2.962  0.3719 -0.1091 -0.4281
 4025SOL     OW22753   3.706   6.419   2.162  0.7175 -0.1312  0.4371
 4025SOL    HW122754   3.767   6.485   2.208  0.4948  1.1766 -1.0804
 4025SOL    HW222755   3.704   6.439   2.064 -2.6477  0.2596  0.5221
 4026SOL     OW22756   1.182   2.657   4.819  0.1083  0.1584 -0.4535
 4026SOL    HW122757   1.209   2.635   4.725 -0.0903 -0.1559 -0.4387
 4026SOL    HW222758   1.084   2.676   4.821 -0.0820 -0.8243 -0.1366
 4027SOL     OW22759   6.194   9.311   3.301  0.3042  0.5646 -0.1209
 4027SOL    HW122760   6.148   9.309   3.212 -0.4928  0.8491  0.2714
 4027SOL    HW222761   6.136   9.266   3.369  0.9365  0.2930  0.2384
 4028SOL     OW22762   3.040   7.619   2.656 -0.3265  0.0711  0.2737
 4028SOL    HW122763   3.036   7.704   2.604  0.3753  0.1497  0.3414
 4028SOL    HW222764   2.988   7.548   2.608 -0.3018  0.3446 -0.1577
 4029SOL     OW22765   0.001   9.034   4.431 -0.3956 -0.0687  0.0202
 4029SOL    HW122766  -0.016   9.000   4.339 -1.7591  0.8660 -0.0751
 4029SOL    HW222767   0.094   9.072   4.436  0.0340 -1.0055 -0.6869
 4030SOL     OW22768   0.892   6.057   3.573  0.2451  0.0677 -0.3374
 4030SOL    HW122769   0.910   5.960   3.591  0.0919  0.1425  0.1981
 4030SOL    HW222770   0.975   6.110   3.591  0.4650 -0.0138 -1.0592
 4031SOL     OW22771   7.560   8.608   2.353 -0.4484  0.0640  0.8246
 4031SOL    HW122772   7.471   8.604   2.398  0.6039 -2.0963  2.7932
 4031SOL    HW222773   7.579   8.520   2.308  0.1195  0.9640 -0.7531
 4032SOL     OW22774   1.669   7.388   1.273 -0.1689  0.4080  0.1451
 4032SOL    HW122775   1.629   7.450   1.341 -0.2953  1.1133 -0.5628
 4032SOL    HW222776   1.597   7.342   1.222 -0.1649  2.4306 -1.8187
 4033SOL     OW22777   2.851   8.345   4.460  0.3607  0.1549 -0.2138
 4033SOL    HW122778   2.850   8.281   4.383  0.7968 -0.5458  0.3665
 4033SOL    HW222779   2.946   8.361   4.489  0.1093 -0.5656  1.0039
 4034SOL     OW22780   2.324   0.280   0.378 -0.2121 -0.1244  0.7361
 4034SOL    HW122781   2.241   0.230   0.354 -0.4440 -0.3876  2.0788
 4034SOL    HW222782   2.377   0.298   0.295 -1.9160  0.6176 -0.2105
 4035SOL     OW22783   3.910   6.233   2.319 -0.1447  0.0645  0.2195
 4035SOL    HW122784   3.827   6.183   2.343 -0.5685  0.4146 -0.5067
 4035SOL    HW222785   3.897   6.330   2.337  0.4504 -0.0019  1.0194
 4036SOL     OW22786   8.470   7.734   1.418 -0.0135 -0.4065  0.0606
 4036SOL    HW122787   8.463   7.810   1.353 -2.8710 -0.3161  0.4140
 4036SOL    HW222788   8.506   7.768   1.505  2.0462 -0.1704 -0.8470
 4037SOL     OW22789   4.303   9.940   1.142  0.5393 -0.0794  0.2828
 4037SOL    HW122790   4.347   9.986   1.219 -2.3051 -0.3672  2.1498
 4037SOL    HW222791   4.243  10.005   1.095 -1.6511 -1.1733  1.4753
 4038SOL     OW22792   2.166   4.025   5.319  0.2955  0.2037  0.2904
 4038SOL    HW122793   2.198   3.974   5.240  1.7133  0.7832  0.4778
 4038SOL    HW222794   2.146   3.962   5.394 -2.6642 -0.5154 -1.0296
 4039SOL     OW22795   9.862   1.548   5.169  0.0895 -0.4772 -0.1426
 4039SOL    HW122796   9.917   1.627   5.141  1.0419 -1.1565 -0.2023
 4039SOL    HW222797   9.845   1.490   5.089  0.9167 -1.2605  0.2459
 4040SOL     OW22798   1.945   9.293   1.454  0.6240 -0.6275 -0.3128
 4040SOL    HW122799   1.878   9.280   1.527  1.7655  1.2007  1.1229
 4040SOL    HW222800   1.923   9.376   1.403  1.7685  0.0187  0.2052
 4041SOL     OW22801   1.596   2.564   0.880  0.0018  0.2509  0.3528
 4041SOL    HW122802   1.522   2.630   0.870 -0.3377 -0.4383 -2.0432
 4041SOL    HW222803   1.560   2.479   0.919 -0.2861  0.2383  0.0592
 4042SOL     OW22804   7.447   9.139   1.813  0.5131 -0.2955  0.2101
 4042SOL    HW122805   7.432   9.215   1.749  0.3520  0.2575  0.8917
 4042SOL    HW222806   7.455   9.176   1.906 -0.3035 -1.1821  0.6413
 4043SOL     OW22807   2.274   7.337   4.926  0.2525  1.2576  0.6705
 4043SOL    HW122808   2.310   7.428   4.904  1.6494  0.3936 -0.7776
 4043SOL    HW222809   2.246   7.291   4.842 -1.2312  0.6535  1.4776
 4044SOL     OW22810   0.748   8.373   2.334 -0.5891 -0.1240 -0.4892
 4044SOL    HW122811   0.817   8.407   2.271 -1.5069  1.1574 -0.8214
 4044SOL    HW222812   0.761   8.417   2.424  0.2472 -1.3784  0.0202
 4045SOL     OW22813   6.212   0.282   2.600 -0.0292  0.2201 -0.4165
 4045SOL    HW122814   6.268   0.203   2.625 -0.3941 -0.3572 -1.4054
 4045SOL    HW222815   6.119   0.252   2.581 -0.9484  1.2943  2.1792
 4046SOL     OW22816   2.675   7.580   1.373 -0.1236  0.3008 -0.1900
 4046SOL    HW122817   2.621   7.664   1.385 -0.9419 -0.1080 -0.9206
 4046SOL    HW222818   2.625   7.503   1.411  0.4675  0.0808  0.1505
 4047SOL     OW22819   2.614   9.353   0.301 -0.2263 -0.5860  0.1558
 4047SOL    HW122820   2.548   9.278   0.295 -0.3331 -0.4668 -0.1789
 4047SOL    HW222821   2.596   9.419   0.228  0.1021 -0.4233  0.2193
 4048SOL     OW22822   1.930   1.498   3.741 -0.2494  0.6281 -0.3465
 4048SOL    HW122823   1.920   1.457   3.650  0.1524 -1.8358  0.6755
 4048SOL    HW222824   1.859   1.567   3.755  0.6945  2.2489 -3.1438
 4049SOL     OW22825   2.919   5.433   2.377  0.7917  0.0117  0.1433
 4049SOL    HW122826   2.889   5.348   2.333  0.1761 -0.5875  1.7193
 4049SOL    HW222827   2.879   5.511   2.329 -0.6082 -0.6657  0.2060
 4050SOL     OW22828   2.544   9.468   1.216  0.4281 -0.5266  0.7497
 4050SOL    HW122829   2.455   9.479   1.171 -0.0399  0.8985  1.9701
 4050SOL    HW222830   2.586   9.382   1.186 -0.5010 -0.2978 -1.2821
 4051SOL     OW22831   2.270   4.108   2.650 -0.3485  0.1703  0.4791
 4051SOL    HW122832   2.268   4.028   2.710  0.2089 -0.3060 -0.1392
 4051SOL    HW222833   2.178   4.128   2.617 -0.3311 -0.8026 -0.1495
 4052SOL     OW22834   0.036   1.842   5.164  0.0113 -0.0785 -0.1755
 4052SOL    HW122835   0.101   1.875   5.095  1.1372 -2.3335 -0.2444
 4052SOL    HW222836   0.084   1.782   5.229 -1.6024 -0.1514  0.9756
 4053SOL     OW22837   9.432   4.765   2.496 -0.1311 -0.0926  0.2617
 4053SOL    HW122838   9.452   4.754   2.593 -0.0917 -0.7217  0.1831
 4053SOL    HW222839   9.516   4.787   2.446  0.3464 -2.4333 -0.0245
 4054SOL     OW22840   9.054   1.766   0.544  0.2873  0.1055 -0.2623
 4054SOL    HW122841   9.020   1.712   0.621  1.0150 -0.2723 -0.1972
 4054SOL    HW222842   9.150   1.743   0.527  0.3653  0.7715 -0.7691
 4055SOL     OW22843   7.378   9.243   5.062  0.1018 -0.1170 -0.1051
 4055SOL    HW122844   7.458   9.296   5.089  1.9354 -2.0242 -1.6259
 4055SOL    HW222845   7.343   9.192   5.141  0.2983  0.7948  0.5790
 4056SOL     OW22846   4.761   4.091   5.456  0.1311  0.3213 -0.4040
 4056SOL    HW122847   4.689   4.021   5.461 -2.1842  2.7622  2.4795
 4056SOL    HW222848   4.808   4.097   5.544 -0.0078  2.6440 -0.4590
 4057SOL     OW22849   8.890   1.198   0.254  0.0471  0.5573 -0.2341
 4057SOL    HW122850   8.838   1.168   0.334 -0.1203  2.1751  0.2618
 4057SOL    HW222851   8.983   1.224   0.282  0.3919 -0.0724 -0.7634
 4058SOL     OW22852   3.775   1.532   0.083  0.0078 -0.2164 -0.2942
 4058SOL    HW122853   3.827   1.447   0.076  2.3001  1.0673  0.6233
 4058SOL    HW222854   3.714   1.540   0.004  0.7125 -2.0697 -1.0627
 4059SOL     OW22855   5.093   9.252   2.779 -0.4128  0.3127 -0.5613
 4059SOL    HW122856   5.141   9.248   2.691  0.8275 -2.3691  0.1835
 4059SOL    HW222857   5.022   9.181   2.781 -0.7287  0.6509  0.4244
 4060SOL     OW22858   2.886   8.380   2.339 -0.3046 -0.5011  0.7437
 4060SOL    HW122859   2.870   8.335   2.251  0.3137  2.1503 -0.7716
 4060SOL    HW222860   2.970   8.434   2.334 -1.7533  1.9585  1.9987
 4061SOL     OW22861   0.783   0.688   4.380 -0.4157 -0.1909  0.3313
 4061SOL    HW122862   0.704   0.644   4.338 -0.8882 -0.3256  1.3487
 4061SOL    HW222863   0.854   0.703   4.311 -1.3438 -0.0290 -0.5898
 4062SOL     OW22864   5.472   0.115   4.122 -0.1489 -0.0348 -0.5485
 4062SOL    HW122865   5.517   0.079   4.203 -1.1567 -0.9275 -0.3805
 4062SOL    HW222866   5.496   0.060   4.042 -0.4138 -0.1084 -0.5781
 4063SOL     OW22867   2.468   2.103   4.149  0.0383 -0.0590 -0.2166
 4063SOL    HW122868   2.423   2.186   4.183 -0.4317 -0.2799 -0.3028
 4063SOL    HW222869   2.436   2.083   4.057  0.3497 -0.1882 -0.2966
 4064SOL     OW22870   0.784   6.878   4.590  0.2131  0.0183 -0.1607
 4064SOL    HW122871   0.761   6.904   4.683  1.3665  1.3650 -0.2353
 4064SOL    HW222872   0.729   6.931   4.525 -0.8508 -1.1793 -0.2493
 4065SOL     OW22873   4.402   2.767   3.031  0.7282  0.0074 -0.1753
 4065SOL    HW122874   4.449   2.827   2.966  0.7842  1.8853  1.5367
 4065SOL    HW222875   4.468   2.727   3.094  0.5995 -1.3158 -0.8677
 4066SOL     OW22876   5.248   8.068   2.155 -0.4833 -0.1481 -0.0670
 4066SOL    HW122877   5.234   8.051   2.252  0.7812  0.4368  0.2262
 4066SOL    HW222878   5.269   8.165   2.140  1.5557 -0.6572 -0.6505
 4067SOL     OW22879   9.662   9.925   3.660  0.4446 -0.2608  0.1454
 4067SOL    HW122880   9.578   9.969   3.691  0.7776 -0.1584  0.9204
 4067SOL    HW222881   9.667   9.929   3.560 -1.1139 -1.4152 -0.0061
 4068SOL     OW22882   4.055   8.466   2.229 -0.7026 -0.0799 -0.7202
 4068SOL    HW122883   4.133   8.498   2.283 -1.8027 -0.4940  1.1638
 4068SOL    HW222884   3.970   8.485   2.279 -1.5968 -2.6292 -1.2152
 4069SOL     OW22885   1.769   7.060   1.476 -0.0370  0.1046  0.1497
 4069SOL    HW122886   1.762   7.002   1.557 -2.0750 -0.2416 -0.2418
 4069SOL    HW222887   1.749   7.155   1.502  0.7815  0.2358  0.3166
 4070SOL     OW22888   8.086   0.333   3.006 -0.1978 -0.3280 -0.2854
 4070SOL    HW122889   7.989   0.345   3.027 -0.2796  0.2789 -1.0080
 4070SOL    HW222890   8.134   0.419   3.020  0.2662 -0.6546  0.1715
 4071SOL     OW22891   4.565   6.827   3.372  0.1488  0.5408  0.0326
 4071SOL    HW122892   4.616   6.903   3.332  1.3236  0.2283  0.9014
 4071SOL    HW222893   4.513   6.859   3.451  1.5192  0.2280  1.0695
 4072SOL     OW22894   0.555   0.157   4.689  0.5903 -0.2847  0.1648
 4072SOL    HW122895   0.563   0.218   4.610 -0.5036  0.3802  0.5589
 4072SOL    HW222896   0.476   0.184   4.744 -0.2322 -2.3647  0.0677
 4073SOL     OW22897   8.063   0.484   0.947  0.3535  0.2167  0.4438
 4073SOL    HW122898   7.987   0.422   0.930  0.4987  0.6047 -1.7338
 4073SOL    HW222899   8.145   0.431   0.967  0.3813 -0.3152 -0.9855
 4074SOL     OW22900   4.917   6.757   2.471 -0.2287  0.3715  0.4382
 4074SOL    HW122901   4.927   6.822   2.546  2.0868  0.1036  0.3999
 4074SOL    HW222902   4.850   6.792   2.405  0.0039  2.0845  1.0818
 4075SOL     OW22903   1.100   2.573   1.034  0.5783  0.0842 -0.0593
 4075SOL    HW122904   1.174   2.614   1.087 -0.1759  0.9235  0.3610
 4075SOL    HW222905   1.112   2.595   0.937 -0.7552  2.8224  0.3458
 4076SOL     OW22906   4.999   8.747   3.817  0.2386 -0.3756 -0.2560
 4076SOL    HW122907   5.031   8.826   3.765  1.2070 -1.3219 -1.1178
 4076SOL    HW222908   4.905   8.764   3.848  0.5383  1.2258 -0.1716
 4077SOL     OW22909   3.572   6.902   1.145 -0.4084  0.7728  0.0812
 4077SOL    HW122910   3.629   6.824   1.170  0.5103  1.3946 -0.0356
 4077SOL    HW222911   3.580   6.973   1.215 -0.7978  0.9935 -0.0916
 4078SOL     OW22912   0.939   1.827   4.706 -0.0623  0.7913 -0.3304
 4078SOL    HW122913   0.908   1.854   4.615 -0.1622  0.8758 -0.2711
 4078SOL    HW222914   0.924   1.902   4.770  1.7218  1.4284 -0.6227
 4079SOL     OW22915   1.954   5.529   0.312 -0.1938  0.1133  0.0599
 4079SOL    HW122916   2.013   5.460   0.354  2.1932  1.3849 -1.0940
 4079SOL    HW222917   1.894   5.486   0.245  0.6138 -0.9760  0.0294
 4080SOL     OW22918   4.048   9.466   0.453  0.2318 -0.1724 -1.0829
 4080SOL    HW122919   3.961   9.437   0.492  0.7849 -0.0972  0.2490
 4080SOL    HW222920   4.096   9.387   0.414  0.5027 -0.5893  0.0757
 4081SOL     OW22921   7.819   0.800   0.949 -0.6428  0.2272  0.2962
 4081SOL    HW122922   7.829   0.867   1.022  0.1658  0.0635  0.3481
 4081SOL    HW222923   7.772   0.719   0.985 -0.4310  0.2295  0.5859
 4082SOL     OW22924   2.812   8.284   3.728 -0.2256 -0.7656  0.1527
 4082SOL    HW122925   2.871   8.364   3.721 -2.2879  0.7986  0.2251
 4082SOL    HW222926   2.790   8.267   3.824 -0.6056 -0.8236  0.0558
 4083SOL     OW22927   9.580   8.273   0.419 -0.2896  0.8534  0.6609
 4083SOL    HW122928   9.561   8.208   0.346 -0.9559 -0.8376  2.2974
 4083SOL    HW222929   9.667   8.319   0.401  0.3770 -0.7682 -0.3468
 4084SOL     OW22930   4.240   8.298   1.101  0.6640 -0.3051  0.1890
 4084SOL    HW122931   4.176   8.233   1.141  0.1059  0.7795  1.0933
 4084SOL    HW222932   4.295   8.340   1.174  0.0350  1.2661 -0.2133
 4085SOL     OW22933   4.527   3.261   0.378 -0.1698  0.1082  0.6847
 4085SOL    HW122934   4.620   3.229   0.359 -0.9672 -0.4421 -2.6019
 4085SOL    HW222935   4.522   3.360   0.360 -0.4970 -0.0935 -0.3876
 4086SOL     OW22936   0.550   8.675   5.613 -0.8359 -0.0212 -0.3280
 4086SOL    HW122937   0.580   8.750   5.554  0.3638 -1.4149 -1.5593
 4086SOL    HW222938   0.542   8.591   5.559  3.6397 -2.1621  2.0013
 4087SOL     OW22939   4.363   3.047   0.139 -0.0502 -0.3495  0.6329
 4087SOL    HW122940   4.295   3.085   0.077 -0.5883  0.0792  1.4669
 4087SOL    HW222941   4.426   2.988   0.089 -0.3936  0.1031 -0.3320
 4088SOL     OW22942   3.006   6.534   1.210 -0.1553  0.0091  0.4432
 4088SOL    HW122943   3.008   6.465   1.138 -1.8720 -2.0034  2.2598
 4088SOL    HW222944   2.916   6.578   1.212  0.5263  1.4626  0.0974
 4089SOL     OW22945   5.376   9.020   1.685 -0.2113 -0.2176 -0.4003
 4089SOL    HW122946   5.367   9.035   1.784 -0.0625 -0.8355 -0.2868
 4089SOL    HW222947   5.351   9.103   1.636  1.8674  0.8354  0.2379
 4090SOL     OW22948   2.447   7.049   0.324 -0.4258 -0.2149  0.6732
 4090SOL    HW122949   2.370   7.093   0.279 -0.5706 -0.8701  0.2776
 4090SOL    HW222950   2.532   7.079   0.281 -0.5287 -0.3935  0.3481
 4091SOL     OW22951   3.059   0.661   1.953 -0.9436  0.0765 -0.5479
 4091SOL    HW122952   3.077   0.610   2.037 -1.0337  0.9980  0.0425
 4091SOL    HW222953   2.997   0.609   1.895 -0.3587 -0.8623 -0.3396
 4092SOL     OW22954   2.411   1.518   1.910 -0.1284  0.2051  0.2027
 4092SOL    HW122955   2.460   1.522   1.997  0.0694 -0.7032  0.1423
 4092SOL    HW222956   2.460   1.456   1.848  0.9179  2.4549 -1.2959
 4093SOL     OW22957   1.811   2.029   4.536  0.3138  0.1117  0.2424
 4093SOL    HW122958   1.839   1.981   4.620  1.9956 -0.5940 -0.6879
 4093SOL    HW222959   1.815   1.966   4.459 -0.1058  1.0541 -0.5570
 4094SOL     OW22960   2.789   6.697   0.156 -0.4295 -0.0415  0.7224
 4094SOL    HW122961   2.753   6.621   0.103  0.6180 -0.9597  1.3035
 4094SOL    HW222962   2.771   6.783   0.109 -1.8904 -0.6162  0.2053
 4095SOL     OW22963   0.096   9.247   0.103  0.1362  0.1523  0.1228
 4095SOL    HW122964   0.118   9.345   0.101 -0.9698  0.3976 -0.4304
 4095SOL    HW222965   0.023   9.231   0.169 -0.7837 -0.0770 -0.9554
 4096SOL     OW22966   3.753   7.944   2.211 -0.5477  0.0823  0.1231
 4096SOL    HW122967   3.670   7.970   2.161  0.3775 -1.1787 -2.1575
 4096SOL    HW222968   3.765   8.005   2.289 -2.6633  1.3943 -0.5239
 4097SOL     OW22969   2.191   2.215   0.561  0.2036  0.2017 -0.1296
 4097SOL    HW122970   2.175   2.180   0.654 -0.7484  0.9816  0.0145
 4097SOL    HW222971   2.233   2.143   0.505 -1.0229 -0.9360  0.3733
 4098SOL     OW22972   6.325   0.027   3.515  0.1660 -0.5129  0.0336
 4098SOL    HW122973   6.361   0.054   3.605  0.7638 -0.8919 -0.0908
 4098SOL    HW222974   6.385  -0.041   3.474 -0.8430 -1.3663 -0.0590
 4099SOL     OW22975   4.645   0.946   3.870 -0.3059  0.0393  0.0722
 4099SOL    HW122976   4.670   0.965   3.775 -0.3276 -1.5121 -0.2692
 4099SOL    HW222977   4.656   1.029   3.925  1.7505  0.4279 -0.8578
 4100SOL     OW22978   4.733   2.234   4.294 -0.5085 -0.1637 -0.6336
 4100SOL    HW122979   4.824   2.193   4.304 -1.3781 -2.2240 -0.9758
 4100SOL    HW222980   4.677   2.211   4.374 -0.5623  1.5705 -0.1618
 4101SOL     OW22981   1.228   6.604   4.251  0.2767  0.2572 -0.4595
 4101SOL    HW122982   1.150   6.577   4.308 -0.1856  0.9142 -0.7734
 4101SOL    HW222983   1.260   6.694   4.279  0.1560  0.5075 -1.1224
 4102SOL     OW22984   9.891   0.104   2.863 -0.1978  0.2518 -0.5286
 4102SOL    HW122985   9.810   0.060   2.826  0.4099 -1.1612 -0.2007
 4102SOL    HW222986   9.948   0.138   2.788 -0.2912 -0.2016 -0.8035
 4103SOL     OW22987   3.673   8.353   3.275  0.0906  0.5272 -0.1057
 4103SOL    HW122988   3.728   8.432   3.247 -0.4921  1.2373  0.7478
 4103SOL    HW222989   3.586   8.384   3.313 -0.0573 -0.5154  0.4243
 4104SOL     OW22990   8.270   9.970   2.239  0.2789 -0.1672 -0.0300
 4104SOL    HW122991   8.285   9.910   2.317 -1.0584 -0.9724 -0.3819
 4104SOL    HW222992   8.233   9.918   2.163  0.8680  0.7546 -0.9615
 4105SOL     OW22993   3.566   1.852   1.544  0.0077 -1.0149 -0.2702
 4105SOL    HW122994   3.467   1.841   1.538  0.1256 -1.0738 -2.6243
 4105SOL    HW222995   3.590   1.898   1.629 -2.1132 -0.1701 -0.1144
 4106SOL     OW22996   8.616   4.676   3.031 -0.6743  0.0078 -0.4369
 4106SOL    HW122997   8.523   4.693   3.065 -0.9451  0.6474 -1.4680
 4106SOL    HW222998   8.627   4.720   2.942  1.2458  1.5133  0.5119
 4107SOL     OW22999   0.359   9.265   5.598 -0.1712  0.0300 -0.1396
 4107SOL    HW123000   0.440   9.259   5.656 -0.7386 -0.4655  0.6156
 4107SOL    HW223001   0.277   9.253   5.654 -0.6541 -2.6293 -1.3315
 4108SOL     OW23002   5.559   0.934   0.616 -0.0120  0.0780  0.4414
 4108SOL    HW123003   5.499   0.944   0.695  1.2463 -0.9549  1.5485
 4108SOL    HW223004   5.594   0.840   0.612  1.8003  0.7568  0.0292
 4109SOL     OW23005   1.218   6.135   3.073 -0.5757 -0.3700  0.6275
 4109SOL    HW123006   1.305   6.095   3.046 -0.4713  0.1977  0.1015
 4109SOL    HW223007   1.154   6.130   2.996 -0.5379  0.5307  0.5276
 4110SOL     OW23008   3.974   8.268   3.812  0.1563  0.3140  0.2411
 4110SOL    HW123009   4.012   8.293   3.901  2.0362  1.0109 -0.7445
 4110SOL    HW223010   3.997   8.337   3.744 -0.2579 -0.7982 -1.0622
 4111SOL     OW23011   2.941   4.385   4.928  0.4093  0.0932 -0.0984
 4111SOL    HW123012   3.006   4.441   4.979 -0.7601  1.1300  0.2698
 4111SOL    HW223013   2.859   4.370   4.983 -0.0572 -0.4245 -0.9149
 4112SOL     OW23014   4.969   9.326   0.930 -0.1467 -0.1678 -0.3048
 4112SOL    HW123015   5.053   9.368   0.895 -0.1787  1.1853  1.1765
 4112SOL    HW223016   4.908   9.397   0.964 -1.0357 -1.2898  0.4857
 4113SOL     OW23017   5.186   8.808   3.138  0.1676 -0.2634 -0.1555
 4113SOL    HW123018   5.284   8.793   3.125  0.0472 -0.0620 -1.4345
 4113SOL    HW223019   5.170   8.904   3.162  0.1586  0.1568 -1.7477
 4114SOL     OW23020   8.447   9.761   0.523 -0.2151  0.4331 -0.6237
 4114SOL    HW123021   8.546   9.769   0.540 -0.3020  0.8035 -0.2619
 4114SOL    HW223022   8.428   9.679   0.469  0.1078 -0.6043  0.8103
 4115SOL     OW23023   9.754   0.283   1.401  0.2132  0.0978 -0.5004
 4115SOL    HW123024   9.669   0.290   1.349 -0.6882 -2.9645  0.4421
 4115SOL    HW223025   9.830   0.261   1.340 -0.0057  1.0043 -1.1005
 4116SOL     OW23026   7.574   0.448   0.006  0.0058  0.2321 -0.4759
 4116SOL    HW123027   7.577   0.469  -0.092  0.8978  1.9200 -0.0975
 4116SOL    HW223028   7.663   0.466   0.047 -0.6058  0.3827  0.8224
 4117SOL     OW23029   9.713   3.200   2.546 -0.0680 -0.4110  0.5121
 4117SOL    HW123030   9.750   3.107   2.554 -1.1561 -0.9561 -0.5275
 4117SOL    HW223031   9.674   3.228   2.634  0.3766 -0.8916  0.8655
 4118SOL     OW23032   3.344   0.726   3.493  0.0802 -0.4215 -0.8837
 4118SOL    HW123033   3.265   0.678   3.531  0.4930 -0.2221  0.2241
 4118SOL    HW223034   3.349   0.818   3.532 -0.2096  0.2259 -2.3506
 4119SOL     OW23035   9.716   9.267   2.824 -0.1403  0.1127  0.1942
 4119SOL    HW123036   9.642   9.207   2.794 -0.7391  0.9025  0.0467
 4119SOL    HW223037   9.780   9.216   2.882 -0.3801 -0.7718 -0.3201
 4120SOL     OW23038   2.403   6.336   3.399 -0.3050  0.0807  0.1709
 4120SOL    HW123039   2.362   6.335   3.308  0.8924 -1.7614 -0.3752
 4120SOL    HW223040   2.476   6.404   3.402  0.9504 -1.1720 -0.8748
 4121SOL     OW23041   7.767   6.585   2.738 -0.2140 -0.4501 -0.6876
 4121SOL    HW123042   7.861   6.573   2.770 -0.7945 -2.5212  0.3688
 4121SOL    HW223043   7.726   6.662   2.786  0.3972 -0.6478  0.1872
 4122SOL     OW23044   1.249   3.763   2.513  0.0143  0.0240  0.1031
 4122SOL    HW123045   1.215   3.724   2.427  1.2344 -1.2441  0.1728
 4122SOL    HW223046   1.321   3.829   2.492  1.2169 -1.2352  0.1873
 4123SOL     OW23047   1.158   6.053   2.595 -0.2730  0.1990  0.2287
 4123SOL    HW123048   1.089   6.125   2.605  0.0055  0.8128 -1.9342
 4123SOL    HW223049   1.134   5.994   2.518  0.5620 -0.8301  0.7346
 4124SOL     OW23050   8.531   3.262   0.972 -0.0225 -0.4442 -0.0734
 4124SOL    HW123051   8.559   3.250   0.877  0.3139 -1.4780  0.1496
 4124SOL    HW223052   8.612   3.273   1.030 -0.1564 -1.1212  0.2573
 4125SOL     OW23053   8.353   6.640   2.099  0.2464 -0.3612  0.4540
 4125SOL    HW123054   8.266   6.594   2.110 -0.6584  0.9512 -1.0124
 4125SOL    HW223055   8.422   6.597   2.158 -1.2692 -1.6746  1.2826
 4126SOL     OW23056   8.197   7.129   2.240 -0.3635  0.2383 -0.1199
 4126SOL    HW123057   8.273   7.067   2.256  0.0198  0.5489 -0.7067
 4126SOL    HW223058   8.127   7.115   2.309 -0.1854 -0.7042 -0.1217
 4127SOL     OW23059   2.768   4.156   3.236  0.3824 -0.7260  0.0816
 4127SOL    HW123060   2.744   4.059   3.243 -0.9919 -0.6402 -2.7480
 4127SOL    HW223061   2.825   4.171   3.156  1.5188  0.6605  1.1227
 4128SOL     OW23062   9.148   0.679   4.523  0.0213  0.9609 -0.4063
 4128SOL    HW123063   9.165   0.755   4.460  0.4851 -0.2931 -1.8157
 4128SOL    HW223064   9.053   0.681   4.553  0.4623  3.1319  0.9777
 4129SOL     OW23065   2.315   0.399   4.506  0.0720 -0.6563  0.4576
 4129SOL    HW123066   2.344   0.408   4.601  0.6933 -1.8888  0.3820
 4129SOL    HW223067   2.240   0.334   4.500 -0.3314 -0.1736  0.1630
 4130SOL     OW23068   9.200   7.303   2.793 -0.3732  0.0962 -0.4558
 4130SOL    HW123069   9.136   7.235   2.759 -1.0403  0.1510  0.6681
 4130SOL    HW223070   9.216   7.372   2.723 -0.6985 -0.5090 -1.1284
 4131SOL     OW23071   4.895   7.494   2.800 -0.0166 -0.5780 -0.2687
 4131SOL    HW123072   4.912   7.566   2.867  0.3423  0.1460 -1.1300
 4131SOL    HW223073   4.824   7.523   2.736  0.8786 -0.5367 -1.2741
 4132SOL     OW23074   3.512   4.559   5.250  0.1592  0.1078  0.3841
 4132SOL    HW123075   3.517   4.477   5.307  2.3019 -0.0194  0.0730
 4132SOL    HW223076   3.577   4.627   5.284 -0.4516  1.0496 -0.3151
 4133SOL     OW23077   4.008   0.369   4.015  0.0522 -0.7460  0.7080
 4133SOL    HW123078   4.098   0.352   4.055  0.8598 -1.5271 -1.3999
 4133SOL    HW223079   3.999   0.466   3.993  0.6340 -0.7720  0.3458
 4134SOL     OW23080   1.329   2.976   1.154 -0.4089 -0.4586 -0.0940
 4134SOL    HW123081   1.263   3.037   1.110 -0.5435  0.9527  2.0113
 4134SOL    HW223082   1.317   2.883   1.119 -1.1878  0.4347 -2.2588
 4135SOL     OW23083   0.983   8.601   3.529 -0.2017  0.2720 -0.2432
 4135SOL    HW123084   0.909   8.533   3.532  0.5033 -0.5691 -1.5473
 4135SOL    HW223085   1.062   8.567   3.580  0.3059 -0.0659 -1.2608
 4136SOL     OW23086   9.909   1.414   4.584  0.4106 -0.2109  0.1804
 4136SOL    HW123087   9.879   1.356   4.660  1.0863 -3.5326 -2.0388
 4136SOL    HW223088   9.842   1.410   4.510  1.4184  0.3324 -0.7794
 4137SOL     OW23089   9.469   1.730   4.240 -0.4573  0.0749 -0.3211
 4137SOL    HW123090   9.441   1.812   4.190 -2.1293 -0.2353  0.0659
 4137SOL    HW223091   9.458   1.746   4.338 -2.3493 -1.1239 -0.2998
 4138SOL     OW23092   2.143   6.100   2.416 -0.2339 -0.0281 -0.6759
 4138SOL    HW123093   2.064   6.140   2.463 -1.0928 -0.4506 -1.7419
 4138SOL    HW223094   2.196   6.172   2.372  0.2299  0.3056  0.4004
 4139SOL     OW23095   3.892   8.890   4.575  0.6430 -0.3185  0.4389
 4139SOL    HW123096   3.800   8.910   4.608  0.0603 -2.8147  0.4177
 4139SOL    HW223097   3.926   8.968   4.522 -1.7569  0.3480 -0.1893
 4140SOL     OW23098   1.334   1.174   2.490 -0.2960 -0.5822 -0.0438
 4140SOL    HW123099   1.270   1.137   2.423  0.3003 -0.9336 -0.4295
 4140SOL    HW223100   1.424   1.130   2.478  0.6957  1.6896 -1.1286
 4141SOL     OW23101   0.309   3.229   2.635  0.2760  0.6533  0.5267
 4141SOL    HW123102   0.328   3.165   2.709 -1.8195 -1.4808 -0.7325
 4141SOL    HW223103   0.216   3.263   2.642  0.2389  0.8703 -0.8130
 4142SOL     OW23104   1.890   0.574   0.182 -0.3184  0.5376  0.0317
 4142SOL    HW123105   1.971   0.528   0.147 -1.3609 -1.8621  0.6640
 4142SOL    HW223106   1.843   0.622   0.108 -0.8028 -1.8785 -1.2787
 4143SOL     OW23107   8.765   0.966   0.891 -0.4479 -0.6372  0.0626
 4143SOL    HW123108   8.813   1.052   0.871  0.8727 -0.7483  2.5225
 4143SOL    HW223109   8.806   0.892   0.838 -0.5006 -0.0392 -0.8231
 4144SOL     OW23110   2.901   9.045   2.272  0.5952  0.2043  0.2308
 4144SOL    HW123111   2.903   8.979   2.347 -0.1304  0.4368  0.4586
 4144SOL    HW223112   2.828   9.112   2.288  0.2999  0.1303 -0.7835
 4145SOL     OW23113   0.238   7.643   1.439 -0.1007  0.4962  0.0033
 4145SOL    HW123114   0.322   7.656   1.386  0.4074  0.6927  0.8440
 4145SOL    HW223115   0.261   7.634   1.536 -0.9121 -0.9991  0.0736
 4146SOL     OW23116   4.562   7.565   1.339  0.0535  0.1689  0.2538
 4146SOL    HW123117   4.541   7.650   1.387  0.5390 -0.0496  0.8587
 4146SOL    HW223118   4.623   7.510   1.394  0.4657 -0.1764 -0.5366
 4147SOL     OW23119   1.531   4.797   1.807 -0.5077  0.4070  0.2672
 4147SOL    HW123120   1.496   4.854   1.733  0.8902 -1.2378 -1.7161
 4147SOL    HW223121   1.469   4.720   1.822 -0.9057  0.8634  0.9590
 4148SOL     OW23122   8.114   6.242   3.172  0.1284  0.1040 -0.0341
 4148SOL    HW123123   8.193   6.217   3.229  0.6662 -1.1164 -1.3038
 4148SOL    HW223124   8.040   6.176   3.187  0.6189 -0.7840 -1.4491
 4149SOL     OW23125   7.869   8.949   2.664  0.1073 -0.0211 -0.5750
 4149SOL    HW123126   7.963   8.950   2.697  0.1088  1.0693 -0.6059
 4149SOL    HW223127   7.810   8.996   2.730 -0.6899 -2.1270  0.2428
 4150SOL     OW23128   5.423   7.556   3.825 -0.2412 -0.4678  0.1416
 4150SOL    HW123129   5.388   7.649   3.834 -1.6406 -1.0907  1.2207
 4150SOL    HW223130   5.437   7.535   3.728 -0.1703  0.7697 -0.1216
 4151SOL     OW23131   8.702   5.002   2.724 -0.1262  0.3350  0.1363
 4151SOL    HW123132   8.692   5.101   2.734  0.1832  0.3781  0.0314
 4151SOL    HW223133   8.777   4.970   2.782 -0.1307  0.1835  0.0597
 4152SOL     OW23134   1.070   1.702   5.445 -0.1376 -0.0323 -0.0077
 4152SOL    HW123135   1.040   1.608   5.435  0.9749 -0.5709  1.4857
 4152SOL    HW223136   0.997   1.756   5.487 -0.4222 -0.4546  0.0449
 4153SOL     OW23137   0.360   0.527   5.050  0.0685  0.1402  0.4547
 4153SOL    HW123138   0.432   0.580   5.094  1.7532 -1.4334 -0.3651
 4153SOL    HW223139   0.317   0.466   5.116  0.6355 -0.1477  0.5533
 4154SOL     OW23140   9.680   9.546   4.992  0.6222  0.0390 -0.4442
 4154SOL    HW123141   9.618   9.535   4.914 -1.6552 -0.3170  1.3715
 4154SOL    HW223142   9.705   9.642   5.001 -0.5763  0.3754 -0.5376
 4155SOL     OW23143   3.675   9.262   3.493 -0.2366 -0.0955  0.4404
 4155SOL    HW123144   3.676   9.190   3.562  0.8703 -0.9865 -0.4680
 4155SOL    HW223145   3.589   9.258   3.442  0.4000 -1.7513 -0.5611
 4156SOL     OW23146   1.565   0.817   1.134 -0.1545  0.0538  0.7309
 4156SOL    HW123147   1.522   0.824   1.044  0.1569  1.7574  0.6964
 4156SOL    HW223148   1.584   0.721   1.154 -1.9831 -0.5088 -0.1740
 4157SOL     OW23149   2.828   8.189   2.066  0.2453 -0.0731 -0.9182
 4157SOL    HW123150   2.849   8.124   1.993  0.7046 -0.6456 -0.2889
 4157SOL    HW223151   2.744   8.237   2.044  0.4400 -0.1569 -1.8786
 4158SOL     OW23152   0.786   8.272   5.251  0.4612  0.3208  0.8234
 4158SOL    HW123153   0.805   8.311   5.161  0.1237 -0.5820  0.3582
 4158SOL    HW223154   0.713   8.324   5.296 -1.4662 -1.0570 -0.6646
 4159SOL     OW23155   2.616   3.952   1.422  0.3471 -0.2994  0.0816
 4159SOL    HW123156   2.548   3.892   1.464  1.1719 -0.1170  1.7172
 4159SOL    HW223157   2.707   3.915   1.438  0.6856 -0.2630 -1.6455
 4160SOL     OW23158   1.930   9.652   1.788 -0.0198 -0.4799 -0.2723
 4160SOL    HW123159   1.841   9.647   1.743 -0.1496 -2.0532  0.1517
 4160SOL    HW223160   1.932   9.731   1.849 -1.1209 -0.4557 -0.2602
 4161SOL     OW23161   1.601   9.876   5.335  0.0707  0.4002  0.1700
 4161SOL    HW123162   1.577   9.845   5.243 -0.5093  0.6457  0.2342
 4161SOL    HW223163   1.700   9.883   5.343  0.1444 -0.0308 -0.3033
 4162SOL     OW23164   8.910   7.267   2.054 -0.1718 -0.0187  0.0343
 4162SOL    HW123165   8.891   7.314   1.968  0.3840  1.9502  0.9556
 4162SOL    HW223166   8.899   7.331   2.130  1.4388 -1.1572  1.2576
 4163SOL     OW23167   9.433   2.512   1.056  0.1332  0.1195 -0.2111
 4163SOL    HW123168   9.528   2.533   1.079 -0.2930  2.7230 -0.6659
 4163SOL    HW223169   9.386   2.596   1.029 -2.6397 -0.9390  1.1687
 4164SOL     OW23170   8.592   1.381   2.139  0.0042 -0.0284 -0.4740
 4164SOL    HW123171   8.599   1.467   2.189 -0.1927 -0.0178 -0.4655
 4164SOL    HW223172   8.667   1.375   2.074  1.1029 -0.6876  0.8236
 4165SOL     OW23173   1.717   9.197   4.433  0.2139  0.6721 -0.5081
 4165SOL    HW123174   1.791   9.240   4.382  0.6298  0.2430 -0.2828
 4165SOL    HW223175   1.688   9.257   4.507  1.5187  0.1459  0.4672
 4166SOL     OW23176   9.588   2.019   2.818 -0.3405 -0.2619 -0.0903
 4166SOL    HW123177   9.533   1.937   2.805 -1.5775  0.2900  1.4748
 4166SOL    HW223178   9.564   2.087   2.749  0.9717 -1.3220 -1.6408
 4167SOL     OW23179   0.582   0.329   2.233 -0.1442 -0.1020 -0.5678
 4167SOL    HW123180   0.507   0.395   2.242 -1.4532 -1.5045 -0.9562
 4167SOL    HW223181   0.619   0.332   2.140 -0.7956 -0.5429 -0.8404
 4168SOL     OW23182   2.415   5.197   2.770  0.2548  0.2816 -0.4856
 4168SOL    HW123183   2.405   5.111   2.720 -1.4230 -0.5878  1.2484
 4168SOL    HW223184   2.351   5.197   2.848  3.4155  1.1501  2.1975
 4169SOL     OW23185   7.145   8.719   1.136 -0.2638 -0.5213 -0.5772
 4169SOL    HW123186   7.135   8.620   1.144 -0.3537 -0.7110 -2.7080
 4169SOL    HW223187   7.234   8.746   1.172  0.1572 -1.5174 -0.8366
 4170SOL     OW23188   3.264   1.585   3.693 -0.3693 -0.1146 -0.4689
 4170SOL    HW123189   3.175   1.628   3.680 -0.1212  1.0824  1.6139
 4170SOL    HW223190   3.323   1.645   3.746  0.7026 -2.1209  0.6896
 4171SOL     OW23191   0.966   5.521   3.139  0.2459  0.5272 -0.1499
 4171SOL    HW123192   0.896   5.468   3.091 -0.1172 -0.6300  1.6131
 4171SOL    HW223193   0.924   5.572   3.215  1.4021 -0.8002  1.4257
 4172SOL     OW23194   6.389   0.277   3.190 -0.6411  0.0231  0.0598
 4172SOL    HW123195   6.364   0.369   3.220  1.5940 -0.1759  2.7404
 4172SOL    HW223196   6.328   0.247   3.117 -1.5122  3.5571 -0.7211
 4173SOL     OW23197   9.254   5.840   1.697  0.1266 -0.1376 -0.0630
 4173SOL    HW123198   9.243   5.786   1.781 -1.0493 -0.9099 -0.7028
 4173SOL    HW223199   9.350   5.841   1.671  0.4329 -0.2945  1.0275
 4174SOL     OW23200   1.620   6.487   3.621  0.1279  0.2908 -0.3574
 4174SOL    HW123201   1.650   6.520   3.710 -2.1932  0.6874  0.3010
 4174SOL    HW223202   1.576   6.562   3.571 -2.3019 -0.9592 -0.1501
 4175SOL     OW23203   7.136   0.450   4.360  0.3780 -0.0987  0.8631
 4175SOL    HW123204   7.206   0.477   4.293  1.0203  0.2690  1.6664
 4175SOL    HW223205   7.130   0.351   4.365  0.3670 -0.1274  0.3014
 4176SOL     OW23206   4.105   8.717   3.379  0.4542 -0.2137  0.5130
 4176SOL    HW123207   4.127   8.624   3.350 -0.8206 -1.5421  3.6213
 4176SOL    HW223208   4.183   8.756   3.427  0.5972 -0.1300  0.2088
 4177SOL     OW23209   8.151   0.818   1.811 -0.2225 -0.3903 -0.2279
 4177SOL    HW123210   8.185   0.776   1.895  0.5740 -1.8436 -1.2482
 4177SOL    HW223211   8.183   0.912   1.805 -0.8914 -0.0353  1.4383
 4178SOL     OW23212   8.762   1.878   4.223 -0.1285 -0.0066 -0.6145
 4178SOL    HW123213   8.817   1.873   4.306  0.6857  0.3919 -1.1291
 4178SOL    HW223214   8.789   1.805   4.160 -1.6054 -1.1070 -0.0280
 4179SOL     OW23215   2.193   6.521   0.338  0.1624  0.3317 -0.3882
 4179SOL    HW123216   2.263   6.579   0.297 -0.3677  1.3122  0.0730
 4179SOL    HW223217   2.175   6.551   0.432 -0.4729 -0.2581 -0.3150
 4180SOL     OW23218   3.981   0.729   0.869  0.3842  0.2070 -0.7126
 4180SOL    HW123219   4.012   0.656   0.929  1.8449  0.9260 -0.5428
 4180SOL    HW223220   4.036   0.811   0.886 -0.2366  0.8933 -1.9199
 4181SOL     OW23221   9.027   0.768   3.818 -0.3509 -0.7995  0.8233
 4181SOL    HW123222   9.034   0.676   3.779  1.1974 -0.7687  0.9899
 4181SOL    HW223223   9.104   0.823   3.785 -1.8684  0.7802 -0.1556
 4182SOL     OW23224   6.980   8.964   2.459 -0.2342 -0.6680  0.7491
 4182SOL    HW123225   7.030   9.045   2.430  1.3131 -1.9266 -0.2098
 4182SOL    HW223226   6.883   8.986   2.470 -0.1292  0.8705 -1.2359
 4183SOL     OW23227   4.703   0.326   2.017  0.2586  0.3819 -0.0298
 4183SOL    HW123228   4.638   0.377   1.960  1.4168 -2.4174 -4.1178
 4183SOL    HW223229   4.784   0.383   2.033 -1.1738  2.1683  1.1039
 4184SOL     OW23230   8.923   0.847   0.365  0.2360 -0.2057 -0.0525
 4184SOL    HW123231   8.854   0.898   0.416  0.5414  1.6910 -1.4674
 4184SOL    HW223232   9.011   0.895   0.370  0.3173 -0.0621 -2.1614
 4185SOL     OW23233   2.539   7.355   1.431  0.5945 -0.3657  0.0117
 4185SOL    HW123234   2.522   7.337   1.528  1.5454 -1.4950 -0.0228
 4185SOL    HW223235   2.486   7.293   1.375  1.1271 -0.6656 -0.1658
 4186SOL     OW23236   1.625   4.903   3.054  0.1580 -0.3715 -0.0784
 4186SOL    HW123237   1.647   5.000   3.048 -1.8720  0.1308  0.1815
 4186SOL    HW223238   1.602   4.880   3.148  0.9867 -1.2068 -0.0676
 4187SOL     OW23239   6.582   0.182   0.813 -0.4770  0.1058 -0.0487
 4187SOL    HW123240   6.612   0.263   0.762 -0.1236 -0.1368 -0.2337
 4187SOL    HW223241   6.660   0.122   0.828 -0.5239  0.3174  1.0500
 4188SOL     OW23242   5.187   9.852   4.024  0.1256  0.4262  0.4772
 4188SOL    HW123243   5.199   9.779   4.091 -1.2155  1.2305  1.6482
 4188SOL    HW223244   5.154   9.814   3.938 -0.0005 -0.4259  0.8988
 4189SOL     OW23245   6.345   1.221   3.160 -0.2231 -0.8660  0.3526
 4189SOL    HW123246   6.422   1.169   3.122 -1.9223 -2.4679 -0.9426
 4189SOL    HW223247   6.333   1.195   3.256  2.9541  1.8917  1.5961
 4190SOL     OW23248   6.468   2.248   2.738 -0.5601  0.4927  0.4127
 4190SOL    HW123249   6.560   2.211   2.753 -0.9761 -0.4182  0.7463
 4190SOL    HW223250   6.472   2.348   2.737  0.7633  0.4601 -1.6000
 4191SOL     OW23251   7.139   2.280   3.290 -0.0228 -0.6350 -0.0210
 4191SOL    HW123252   7.134   2.199   3.348 -0.9065  0.1384  1.0167
 4191SOL    HW223253   7.067   2.276   3.220  0.7909 -1.3801 -0.8218
 4192SOL     OW23254   0.504   8.446   3.019  0.5731  0.0636 -0.2207
 4192SOL    HW123255   0.459   8.532   3.042 -1.4473 -1.0636  0.1474
 4192SOL    HW223256   0.548   8.408   3.100 -2.1401 -1.3180  0.6870
 4193SOL     OW23257   5.713   0.672   2.417  0.0461  0.5205  0.3008
 4193SOL    HW123258   5.743   0.576   2.410  0.7827  0.8397 -1.0363
 4193SOL    HW223259   5.770   0.719   2.485 -0.0953  0.1048  0.7149
 4194SOL     OW23260   1.294   8.546   0.781 -0.0425  0.0837  0.0507
 4194SOL    HW123261   1.305   8.605   0.701  2.9259 -1.9713 -1.1499
 4194SOL    HW223262   1.230   8.472   0.760  1.2826 -0.8747 -0.7719
 4195SOL     OW23263   3.177   1.234   1.651 -0.1900 -0.6627  0.3563
 4195SOL    HW123264   3.237   1.198   1.723  1.3331 -0.9312 -1.0131
 4195SOL    HW223265   3.182   1.334   1.651  1.4182 -0.7231 -0.6845
 4196SOL     OW23266   2.825   7.690   1.762  0.0093 -0.1514 -0.1520
 4196SOL    HW123267   2.889   7.694   1.685  0.5510 -0.9134  0.2510
 4196SOL    HW223268   2.778   7.602   1.761 -1.8873  0.8428 -1.1103
 4197SOL     OW23269   4.708   1.725   2.971 -0.1364  0.5154 -0.3109
 4197SOL    HW123270   4.628   1.775   2.938 -0.6275 -0.5982 -0.8053
 4197SOL    HW223271   4.719   1.640   2.919  1.6993  0.9336 -0.6387
 4198SOL     OW23272   1.472   4.317   3.259  0.5859  0.3065  0.3597
 4198SOL    HW123273   1.441   4.384   3.192  1.0072  0.2806  0.1414
 4198SOL    HW223274   1.563   4.284   3.235  0.5922  0.0311  0.7452
 4199SOL     OW23275   4.817   8.941   5.106 -0.0010 -0.2002  0.2181
 4199SOL    HW123276   4.857   9.013   5.049 -1.6527 -0.3688 -1.1917
 4199SOL    HW223277   4.862   8.940   5.195 -0.2182  2.8806  0.4251
 4200SOL     OW23278   2.162   4.985   2.468 -0.1332  0.4330 -0.6175
 4200SOL    HW123279   2.247   4.938   2.491 -1.3830 -1.8484 -0.5018
 4200SOL    HW223280   2.151   5.065   2.527  1.1257 -0.1982  0.4981
 4201SOL     OW23281   9.905   2.190   4.652 -0.0866 -0.3275  0.1778
 4201SOL    HW123282   9.998   2.206   4.686  0.0813 -2.7421  0.9141
 4201SOL    HW223283   9.843   2.182   4.730 -0.5933 -0.6763 -0.2628
 4202SOL     OW23284   1.040   0.332   3.830  0.2142 -0.1203 -0.7244
 4202SOL    HW123285   1.113   0.335   3.898  0.2042 -0.8717 -0.6678
 4202SOL    HW223286   1.014   0.236   3.814  1.3433 -0.0698 -2.9698
 4203SOL     OW23287   0.812   1.989   4.933  0.4205  0.0657  0.6391
 4203SOL    HW123288   0.894   1.987   4.990  0.6276  0.8511  0.3647
 4203SOL    HW223289   0.746   1.923   4.969  0.9683 -0.2021  1.1639
 4204SOL     OW23290   0.735   3.959   1.248  0.7514 -0.1903 -0.2695
 4204SOL    HW123291   0.687   3.876   1.217 -1.2453  0.6135  0.5817
 4204SOL    HW223292   0.729   4.029   1.177  3.1046 -0.9918 -1.3085
 4205SOL     OW23293   3.299   7.064   4.987 -0.4300 -0.7245 -0.2758
 4205SOL    HW123294   3.387   7.110   4.977  0.5022 -2.4654 -0.2572
 4205SOL    HW223295   3.300   7.008   5.070 -1.7345 -0.4039 -0.0183
 4206SOL     OW23296   3.367   7.524   4.035 -0.0829 -0.4072  0.2443
 4206SOL    HW123297   3.328   7.494   4.122  0.1442 -1.0680  0.1217
 4206SOL    HW223298   3.372   7.624   4.033 -1.9447 -0.3072  0.1861
 4207SOL     OW23299   3.613   4.625   2.413  1.0503  0.2929  0.3025
 4207SOL    HW123300   3.583   4.614   2.319 -0.4123  0.0927  0.7753
 4207SOL    HW223301   3.672   4.706   2.421  0.4047  0.8529 -0.5989
 4208SOL     OW23302   9.927   2.893   0.627 -0.0038 -0.5213  0.2513
 4208SOL    HW123303   9.941   2.964   0.697 -1.7521 -0.1695  0.2719
 4208SOL    HW223304   9.831   2.895   0.597  0.8788 -0.2207 -2.6482
 4209SOL     OW23305   6.580   8.311   1.404  0.3820 -0.2829 -0.1947
 4209SOL    HW123306   6.629   8.233   1.366 -0.1739 -0.4345 -0.6147
 4209SOL    HW223307   6.639   8.391   1.403  0.9066 -0.6563  0.0972
 4210SOL     OW23308   3.736   1.031   5.522  0.4274  0.6391  0.6239
 4210SOL    HW123309   3.663   1.043   5.590 -0.6836 -0.5099 -0.3472
 4210SOL    HW223310   3.749   1.117   5.472 -1.3676  0.4206 -0.2667
 4211SOL     OW23311   7.759   0.919   4.587  0.4899 -0.3085 -0.8535
 4211SOL    HW123312   7.794   0.959   4.671  1.1351 -0.9643 -0.8102
 4211SOL    HW223313   7.778   0.981   4.510  1.6095 -0.5844 -0.8074
 4212SOL     OW23314   4.324   0.134   1.713 -0.0294 -0.6880 -0.2095
 4212SOL    HW123315   4.272   0.104   1.633  0.5014 -1.8317 -0.1448
 4212SOL    HW223316   4.328   0.059   1.779  1.3183 -0.4690 -0.0328
 4213SOL     OW23317   1.319   1.545   0.897 -0.1511  0.6154  0.1289
 4213SOL    HW123318   1.283   1.568   0.988 -2.5882  1.8985 -1.1048
 4213SOL    HW223319   1.284   1.456   0.869 -0.0335  0.5671  0.1367
 4214SOL     OW23320   0.398   8.908   2.668 -0.7913 -0.0027 -0.4959
 4214SOL    HW123321   0.419   8.879   2.574  0.3128 -1.4321  0.1717
 4214SOL    HW223322   0.371   9.004   2.668  0.6543  0.4362 -2.1086
 4215SOL     OW23323   3.598   0.795   3.227  0.5265 -0.1624 -0.6572
 4215SOL    HW123324   3.684   0.846   3.239  0.0349  0.4998  0.1150
 4215SOL    HW223325   3.619   0.702   3.197  1.5595 -0.1968  0.1192
 4216SOL     OW23326   4.209   6.817   3.256  0.3450 -0.6758 -0.3338
 4216SOL    HW123327   4.253   6.768   3.181  0.8619  1.0412 -1.1869
 4216SOL    HW223328   4.112   6.832   3.234  1.0125  1.7885 -1.6963
 4217SOL     OW23329   9.396   2.287   3.102  0.3118 -0.0152  0.7453
 4217SOL    HW123330   9.481   2.304   3.054 -0.1785  1.0964  0.2461
 4217SOL    HW223331   9.376   2.189   3.103  0.1344 -0.0228 -1.6492
 4218SOL     OW23332   3.938   2.801   2.373 -0.5113  0.4008 -0.4746
 4218SOL    HW123333   3.985   2.758   2.450 -2.0547 -0.9598 -0.2520
 4218SOL    HW223334   3.875   2.735   2.332 -2.6611  2.3357 -0.3807
 4219SOL     OW23335   0.131   1.288   4.364 -0.3921 -0.1532 -0.4640
 4219SOL    HW123336   0.095   1.257   4.452  0.7896  0.8490  0.3935
 4219SOL    HW223337   0.188   1.216   4.324  0.4683  0.0081  0.4273
 4220SOL     OW23338   4.472   9.878   3.875  0.7095 -0.6978 -0.0244
 4220SOL    HW123339   4.425   9.869   3.962 -0.6194  1.4163 -0.4916
 4220SOL    HW223340   4.569   9.857   3.886  0.8992  1.2649  2.3377
 4221SOL     OW23341   7.111   9.110   3.644 -0.2529 -0.1131  0.4278
 4221SOL    HW123342   7.092   9.024   3.596 -1.8476  0.3894  0.1404
 4221SOL    HW223343   7.182   9.094   3.713  0.4094 -1.3624 -0.4999
 4222SOL     OW23344   8.760   9.791   0.544 -0.2140  0.4063  0.1670
 4222SOL    HW123345   8.764   9.748   0.454  2.2817  3.5718 -1.3540
 4222SOL    HW223346   8.843   9.768   0.595 -0.9936 -0.2719  1.1392
 4223SOL     OW23347   2.632   4.496   4.124  0.0293 -0.0147 -0.9344
 4223SOL    HW123348   2.643   4.594   4.105  1.0875 -0.0546 -0.5618
 4223SOL    HW223349   2.603   4.484   4.219  0.1096 -0.0660 -0.9158
 4224SOL     OW23350   9.417   0.860   2.765  0.7652 -0.1036 -0.1243
 4224SOL    HW123351   9.324   0.830   2.745 -0.0509 -1.1697  4.5998
 4224SOL    HW223352   9.481   0.784   2.747  0.1462 -0.8333  0.6960
 4225SOL     OW23353   1.159   5.259   3.078 -0.1635 -0.1580 -0.2861
 4225SOL    HW123354   1.064   5.287   3.085 -0.1151 -0.3994  1.4278
 4225SOL    HW223355   1.171   5.206   2.993 -1.4405  0.2400 -0.7330
 4226SOL     OW23356   2.231   0.639   3.120  0.9195 -0.7217 -0.2977
 4226SOL    HW123357   2.155   0.648   3.056  1.3794 -2.3487 -1.0903
 4226SOL    HW223358   2.298   0.711   3.102 -0.3891  0.6855  0.3688
 4227SOL     OW23359   3.348   9.897   3.490 -0.0096  0.7393 -0.0507
 4227SOL    HW123360   3.262   9.947   3.485  0.0551  0.9592  0.8464
 4227SOL    HW223361   3.400   9.929   3.569  1.6285  1.7594 -1.5189
 4228SOL     OW23362   4.460   1.579   0.831  0.2158 -0.2805 -0.1253
 4228SOL    HW123363   4.454   1.555   0.927 -0.6085 -0.4629 -0.2135
 4228SOL    HW223364   4.458   1.679   0.821 -1.2644 -0.2807 -0.0281
 4229SOL     OW23365   2.061   9.052   0.085 -0.3260  0.1600  0.1579
 4229SOL    HW123366   2.065   8.964   0.038  0.0415  0.9945 -1.3888
 4229SOL    HW223367   2.120   9.118   0.038 -1.9947  1.7350  0.2319
 4230SOL     OW23368   0.984   4.261   2.104  0.3281 -0.2555 -0.4059
 4230SOL    HW123369   0.949   4.175   2.142  0.3477 -0.0747  0.0250
 4230SOL    HW223370   0.938   4.338   2.148  1.5622 -0.0035  0.4703
 4231SOL     OW23371   6.085   7.044   2.825  0.0132 -0.1789 -0.3637
 4231SOL    HW123372   6.015   7.103   2.865  0.7412  0.9182 -0.6882
 4231SOL    HW223373   6.046   6.995   2.747 -1.0326 -1.3251  0.8630
 4232SOL     OW23374   4.900   8.701   1.691 -0.4522 -0.0768  0.3616
 4232SOL    HW123375   4.975   8.749   1.736 -1.1841  0.7234  0.7689
 4232SOL    HW223376   4.867   8.757   1.614  0.3329 -1.1094 -0.7345
 4233SOL     OW23377   7.258   8.334   2.368 -0.5403 -0.8976  0.0005
 4233SOL    HW123378   7.316   8.276   2.425 -0.9827 -1.7675 -0.4330
 4233SOL    HW223379   7.250   8.294   2.277 -0.8990 -0.1883 -0.2817
 4234SOL     OW23380   8.522   2.825   3.253  0.2365 -0.2058  0.3689
 4234SOL    HW123381   8.466   2.906   3.234  1.6302  0.7517  0.2646
 4234SOL    HW223382   8.497   2.786   3.341 -0.2352  0.5135  0.5515
 4235SOL     OW23383   6.093   0.155   3.640  0.1570 -0.6241 -0.0401
 4235SOL    HW123384   6.176   0.100   3.629  0.5783 -0.1742  0.8482
 4235SOL    HW223385   6.071   0.164   3.737 -1.8014 -2.0081 -0.3143
 4236SOL     OW23386   3.070   1.613   2.681 -0.3815 -1.0795  0.0309
 4236SOL    HW123387   3.077   1.523   2.637  1.0517 -0.4112 -1.1476
 4236SOL    HW223388   3.151   1.628   2.738 -0.1469 -0.1377 -0.5485
 4237SOL     OW23389   9.475   6.119   3.360  1.0453 -0.5926 -0.3008
 4237SOL    HW123390   9.445   6.194   3.301 -0.4200 -1.7154 -1.0083
 4237SOL    HW223391   9.416   6.115   3.441  1.4754 -0.6474  0.0126
 4238SOL     OW23392   8.524   7.246   1.655  0.1527  0.2645  0.0764
 4238SOL    HW123393   8.588   7.186   1.704  1.9614  1.5289 -0.6708
 4238SOL    HW223394   8.515   7.214   1.561  1.7480  1.5820 -0.5526
 4239SOL     OW23395   6.800   8.485   3.386  0.0174 -0.3044 -0.2618
 4239SOL    HW123396   6.775   8.572   3.428  2.6948  0.8597 -0.9893
 4239SOL    HW223397   6.838   8.502   3.295 -0.9318 -2.3809 -1.0781
 4240SOL     OW23398   3.845   1.586   3.586  0.0640 -0.4619 -0.3264
 4240SOL    HW123399   3.773   1.520   3.563 -1.3315  0.7538  0.4901
 4240SOL    HW223400   3.866   1.578   3.684 -2.2786  2.3743  0.4571
 4241SOL     OW23401   0.132   7.901   2.428 -0.2120  0.0407  0.2936
 4241SOL    HW123402   0.186   7.828   2.386  1.1221  3.1511 -3.7018
 4241SOL    HW223403   0.166   7.919   2.521 -0.1453 -3.8788  1.1008
 4242SOL     OW23404   7.107   8.868   2.218 -0.2730 -0.0403  0.2732
 4242SOL    HW123405   7.073   8.861   2.312  0.1246  3.7107  0.7802
 4242SOL    HW223406   7.202   8.839   2.214 -0.2624 -0.1147  1.0656
 4243SOL     OW23407   0.730   5.920   2.616  0.0147 -0.1245 -0.2429
 4243SOL    HW123408   0.710   6.016   2.636  0.3291 -0.1509  0.2247
 4243SOL    HW223409   0.655   5.862   2.648 -0.0469 -0.0595 -0.2707
 4244SOL     OW23410   1.362   7.324   2.306 -0.6524 -0.1793  0.3536
 4244SOL    HW123411   1.365   7.323   2.406  1.4264  0.3263  0.3269
 4244SOL    HW223412   1.448   7.362   2.271  0.0272 -3.3833 -1.6708
 4245SOL     OW23413   3.075   6.047   2.236  0.2804 -0.6143 -0.1820
 4245SOL    HW123414   3.142   6.105   2.282  0.8533 -0.5577 -1.0639
 4245SOL    HW223415   3.030   5.988   2.303  2.1635 -1.5886  0.2610
 4246SOL     OW23416   1.306   2.127   4.037  0.1270 -0.4103  0.7983
 4246SOL    HW123417   1.377   2.123   3.968  0.1275 -0.9827  0.8357
 4246SOL    HW223418   1.271   2.221   4.043 -0.1664 -0.4463 -0.2733
 4247SOL     OW23419   4.181   8.310   5.313  0.1432 -0.0075  0.2433
 4247SOL    HW123420   4.097   8.326   5.364  0.7214 -0.6088  1.4037
 4247SOL    HW223421   4.161   8.307   5.215 -0.7021  2.9260  0.2861
 4248SOL     OW23422   0.048   2.022   0.016 -0.2037 -0.0488  0.2947
 4248SOL    HW123423  -0.039   1.972   0.012 -0.2995  0.0948  0.5651
 4248SOL    HW223424   0.112   1.983  -0.050 -0.7723  0.4136 -0.5317
 4249SOL     OW23425   4.452   4.206   4.826  0.0010  0.2417 -0.4582
 4249SOL    HW123426   4.416   4.142   4.895 -0.6888  0.4897 -0.5871
 4249SOL    HW223427   4.536   4.248   4.861  1.4959 -2.0806 -1.0990
 4250SOL     OW23428   2.341   8.341   2.442 -0.8834  0.7361  0.3210
 4250SOL    HW123429   2.385   8.293   2.518 -0.9491  2.4852  1.5025
 4250SOL    HW223430   2.286   8.277   2.390  0.9935 -0.9800  0.3569
 4251SOL     OW23431   0.335   1.541   1.518  0.2168 -0.3678  0.2733
 4251SOL    HW123432   0.314   1.610   1.449  0.3916 -0.4681  0.1193
 4251SOL    HW223433   0.329   1.450   1.477 -0.7291 -0.4832  0.6583
 4252SOL     OW23434   9.343   1.785   5.444  0.3361 -0.0651 -0.3271
 4252SOL    HW123435   9.274   1.789   5.372  0.2142 -0.6392 -0.2439
 4252SOL    HW223436   9.414   1.718   5.419 -0.2482 -1.0337  0.5506
 4253SOL     OW23437   4.588   7.874   3.114  0.1274 -0.3950 -1.0107
 4253SOL    HW123438   4.657   7.827   3.060  2.3808 -0.2769  1.6688
 4253SOL    HW223439   4.503   7.821   3.114  1.8134 -3.1448 -0.1339
 4254SOL     OW23440   1.502   4.468   0.133  0.3440  0.7738  0.1453
 4254SOL    HW123441   1.478   4.558   0.098 -1.5289  0.1580 -0.1854
 4254SOL    HW223442   1.527   4.407   0.057 -0.1208  0.5002  0.2112
 4255SOL     OW23443   7.083   8.889   3.404 -0.0512  0.1174  0.1469
 4255SOL    HW123444   7.064   8.834   3.323  0.4277  0.4985 -0.2329
 4255SOL    HW223445   7.163   8.947   3.386  0.5021 -0.3160  1.1419
 4256SOL     OW23446   8.631   8.472   3.345 -0.2888  0.2504  0.6049
 4256SOL    HW123447   8.655   8.377   3.324  0.6345  0.6202 -0.0199
 4256SOL    HW223448   8.714   8.524   3.365 -0.6754  1.2236 -0.2845
 4257SOL     OW23449   2.959   1.384   4.778 -0.0750  0.2051  0.1697
 4257SOL    HW123450   3.016   1.306   4.804 -0.0495  0.2510  0.2513
 4257SOL    HW223451   2.906   1.360   4.696 -0.0458  0.1124  0.1779
 4258SOL     OW23452   7.802   8.837   0.400 -0.2581 -0.5682  0.1930
 4258SOL    HW123453   7.712   8.855   0.359 -0.2423 -1.3603 -0.1985
 4258SOL    HW223454   7.851   8.924   0.410 -0.4053 -0.3083 -1.1547
 4259SOL     OW23455   2.916   3.109   1.900  0.3640  0.4658  0.3288
 4259SOL    HW123456   2.986   3.177   1.921 -0.1108  0.7319  1.0627
 4259SOL    HW223457   2.880   3.126   1.808  2.4679 -0.7213 -0.7468
 4260SOL     OW23458   0.698   4.400   1.766 -0.2714 -0.2145 -0.7481
 4260SOL    HW123459   0.605   4.366   1.782  0.4634 -1.5678  0.9142
 4260SOL    HW223460   0.727   4.457   1.843 -0.5880  2.2461 -2.3907
 4261SOL     OW23461   9.904   7.100   1.944 -0.2093 -0.3995  0.2541
 4261SOL    HW123462   9.898   7.091   1.844 -0.1460  2.2174 -0.0200
 4261SOL    HW223463   9.996   7.128   1.970 -1.2140  2.7275  0.6731
 4262SOL     OW23464   3.330   1.964   3.658  0.1166  0.9079  0.2846
 4262SOL    HW123465   3.384   2.049   3.661  0.9674  0.4071 -0.3945
 4262SOL    HW223466   3.293   1.952   3.566 -0.5341  0.8584  0.5501
 4263SOL     OW23467   0.010   6.738   1.657 -0.5545  0.5906  0.4170
 4263SOL    HW123468  -0.063   6.743   1.588  0.1087 -1.6954 -0.5199
 4263SOL    HW223469  -0.024   6.688   1.737 -0.2734  0.2543  0.3259
 4264SOL     OW23470   9.248   0.208   2.249  0.9806 -0.6503 -0.0638
 4264SOL    HW123471   9.192   0.244   2.174  0.7474 -0.1746  0.3364
 4264SOL    HW223472   9.190   0.195   2.330  1.8984  2.0247  1.0695
 4265SOL     OW23473   9.162   7.499   4.292  0.3813 -0.1492  0.6975
 4265SOL    HW123474   9.125   7.533   4.379 -0.3402  0.1501  0.2744
 4265SOL    HW223475   9.261   7.488   4.301  0.7337  2.7110  0.6466
 4266SOL     OW23476   4.733   0.483   1.616 -0.4293 -0.0976 -0.9624
 4266SOL    HW123477   4.714   0.435   1.530 -1.3689  1.7213 -1.7987
 4266SOL    HW223478   4.832   0.489   1.629 -0.2319  1.2389 -2.8761
 4267SOL     OW23479   1.242   8.944   0.949 -0.2457 -0.0016 -0.2227
 4267SOL    HW123480   1.243   8.938   0.849 -0.2694  1.6281 -0.3330
 4267SOL    HW223481   1.249   8.852   0.988 -0.3172 -0.6568 -1.7192
 4268SOL     OW23482   8.549   0.204   2.732 -0.5255  0.4157  0.8324
 4268SOL    HW123483   8.614   0.269   2.772  1.6404 -1.0088 -0.3407
 4268SOL    HW223484   8.504   0.153   2.806 -1.6497  2.6147  1.7296
 4269SOL     OW23485   5.529   6.923   3.714  0.1248  0.2175 -0.1012
 4269SOL    HW123486   5.483   6.969   3.638  0.1082  0.7857  0.2490
 4269SOL    HW223487   5.602   6.982   3.750  0.5290 -0.2995 -0.0679
 4270SOL     OW23488   0.693   0.310   3.018  0.2738 -0.5044  0.0516
 4270SOL    HW123489   0.667   0.290   2.923  0.4531  0.4780 -0.2089
 4270SOL    HW223490   0.773   0.370   3.019 -0.0209 -0.1206  0.8307
 4271SOL     OW23491   2.299   9.737   0.504 -0.6769  0.9103  0.3005
 4271SOL    HW123492   2.323   9.826   0.465 -1.7931  2.3278  2.6966
 4271SOL    HW223493   2.283   9.747   0.602 -1.2674 -1.8728  0.5371
 4272SOL     OW23494   3.531   0.684   2.483  0.4546  0.5337  0.7301
 4272SOL    HW123495   3.450   0.741   2.466 -0.1266 -0.5847 -0.3742
 4272SOL    HW223496   3.608   0.742   2.507 -0.5534  1.6647  1.3243
 4273SOL     OW23497   6.592   8.341   3.187  0.3476 -0.1362  0.1629
 4273SOL    HW123498   6.663   8.410   3.174 -0.5717  0.8463  0.3473
 4273SOL    HW223499   6.613   8.262   3.128  2.2569 -0.3997  1.1436
 4274SOL     OW23500   8.636   1.095   2.472 -0.5501 -0.2010 -0.1622
 4274SOL    HW123501   8.606   1.014   2.521  2.2469 -0.3544  1.4129
 4274SOL    HW223502   8.730   1.082   2.440 -0.8231  1.5808 -1.8092
 4275SOL     OW23503   4.081   0.392   5.244  0.5073 -0.0248 -0.0558
 4275SOL    HW123504   4.178   0.367   5.233 -0.1691 -2.5090 -0.8427
 4275SOL    HW223505   4.054   0.453   5.170  1.1000 -0.5079 -0.6819
 4276SOL     OW23506   5.853   9.732   1.256 -0.0326 -0.2454  0.2423
 4276SOL    HW123507   5.851   9.695   1.349 -2.0028  2.7112  1.4497
 4276SOL    HW223508   5.915   9.810   1.253  0.6174 -0.7967 -1.1556
 4277SOL     OW23509   8.284   0.927   5.541 -0.2131  0.0321  0.0496
 4277SOL    HW123510   8.342   0.934   5.459 -0.2252  2.6841  0.2489
 4277SOL    HW223511   8.201   0.980   5.528 -0.0425  0.7957  1.9250
 4278SOL     OW23512   1.392   6.184   2.535 -0.0574  0.2281 -0.0464
 4278SOL    HW123513   1.325   6.118   2.565  1.5583 -0.8537  1.2551
 4278SOL    HW223514   1.385   6.267   2.590  0.0254 -0.0902  0.4438
 4279SOL     OW23515   9.122   6.931   2.152 -0.4164 -0.0508 -0.0650
 4279SOL    HW123516   9.218   6.909   2.169 -0.6449 -0.9161  0.1197
 4279SOL    HW223517   9.108   6.945   2.053 -0.6534 -2.6885 -0.4386
 4280SOL     OW23518   1.488   4.761   2.316  0.5103 -0.4590  0.3683
 4280SOL    HW123519   1.532   4.835   2.267 -0.0486 -0.0795  0.4326
 4280SOL    HW223520   1.494   4.777   2.415  3.2039 -2.1166  0.5199
 4281SOL     OW23521   2.507   0.007   4.962  0.1502  0.2696 -0.3014
 4281SOL    HW123522   2.566   0.050   4.894  0.4148  0.3488 -0.0253
 4281SOL    HW223523   2.415   0.045   4.956 -0.2969 -1.0057 -1.8222
 4282SOL     OW23524   9.912   8.406   1.043 -0.4774  0.1362  0.6951
 4282SOL    HW123525   9.963   8.470   0.986 -0.0461 -1.3448 -0.6335
 4282SOL    HW223526   9.823   8.445   1.067 -0.1005  1.3427  0.1660
 4283SOL     OW23527   1.900   2.054   0.905 -0.0406  0.9380 -0.0346
 4283SOL    HW123528   1.992   2.026   0.876 -0.0878  1.0940 -0.3267
 4283SOL    HW223529   1.839   1.975   0.899  0.3204  0.5466  1.2056
 4284SOL     OW23530   1.206   0.143   4.832  0.4799 -0.5511 -0.1049
 4284SOL    HW123531   1.128   0.093   4.793  0.3682 -0.8922  0.5544
 4284SOL    HW223532   1.214   0.122   4.929  0.5560  0.5729  0.1332
 4285SOL     OW23533   7.351   6.051   2.615 -0.3111  0.3474  0.3018
 4285SOL    HW123534   7.392   6.101   2.539 -1.7645  0.5237 -0.3900
 4285SOL    HW223535   7.363   6.104   2.700  1.0081  0.3091  0.1522
 4286SOL     OW23536   8.671   3.236   2.313  0.0124  0.7798 -0.2494
 4286SOL    HW123537   8.689   3.177   2.391  1.0076  0.8081 -0.4524
 4286SOL    HW223538   8.593   3.201   2.261 -0.7566  0.8433  0.8330
 4287SOL     OW23539   0.006   2.763   4.078 -0.6090  0.1232 -0.1831
 4287SOL    HW123540   0.102   2.787   4.096  0.4775 -1.3396 -3.5571
 4287SOL    HW223541  -0.037   2.837   4.025 -0.3337 -0.6723 -1.5406
 4288SOL     OW23542   8.229   7.706   1.701  0.7223  0.3306  0.5929
 4288SOL    HW123543   8.286   7.627   1.725 -0.2949 -0.8095 -0.6902
 4288SOL    HW223544   8.136   7.675   1.681  0.4627  1.7960 -0.5328
 4289SOL     OW23545   1.430   3.033   5.110 -0.3773  0.7045 -0.2508
 4289SOL    HW123546   1.349   2.982   5.080  1.6557 -1.2768 -2.5905
 4289SOL    HW223547   1.473   3.075   5.031  1.0302  1.5368  0.9448
 4290SOL     OW23548   1.380   2.486   3.602 -0.0130 -0.0179 -0.1317
 4290SOL    HW123549   1.348   2.574   3.637 -0.8821 -0.1295 -0.6365
 4290SOL    HW223550   1.476   2.472   3.630  0.5790  1.7012 -1.2176
 4291SOL     OW23551   4.295   9.143   1.102 -0.5087  0.1735  0.6866
 4291SOL    HW123552   4.361   9.215   1.126  0.1352  0.0883 -0.7574
 4291SOL    HW223553   4.209   9.185   1.074  0.1064  0.4233 -0.8721
 4292SOL     OW23554   2.769   0.168   3.235 -0.6670 -0.0350  0.0400
 4292SOL    HW123555   2.768   0.256   3.187 -0.6240  0.6180  1.1999
 4292SOL    HW223556   2.862   0.133   3.240 -0.6295  0.0483 -0.0814
 4293SOL     OW23557   4.777   7.250   2.855 -0.2077  0.3863  0.2170
 4293SOL    HW123558   4.754   7.168   2.802  1.9215 -0.8734  1.1937
 4293SOL    HW223559   4.813   7.320   2.793  1.4394 -0.7567 -0.1376
 4294SOL     OW23560   1.907   6.036   2.174 -0.5550 -0.0013 -0.6311
 4294SOL    HW123561   1.934   6.125   2.139  0.0631  0.1714  0.2626
 4294SOL    HW223562   1.944   6.024   2.266 -1.0907 -0.9575 -0.5342
 4295SOL     OW23563   0.625   0.496   5.430 -0.2026 -0.4950 -0.3135
 4295SOL    HW123564   0.700   0.560   5.448 -0.0249 -0.9022  0.4127
 4295SOL    HW223565   0.638   0.414   5.485 -1.2486 -0.5216 -0.0999
 4296SOL     OW23566   0.493   1.282   4.892  0.3189  0.8663 -0.0995
 4296SOL    HW123567   0.481   1.377   4.864  0.8960  1.1840  0.7063
 4296SOL    HW223568   0.529   1.229   4.815  2.2391  1.8041  0.1302
 4297SOL     OW23569   3.813   7.964   4.563  0.5707 -0.0207  0.0319
 4297SOL    HW123570   3.733   8.021   4.542  0.4091 -0.4946 -0.6503
 4297SOL    HW223571   3.896   8.015   4.543  0.4558  0.6331  1.1490
 4298SOL     OW23572   3.442   5.442   2.551 -0.0901 -0.1390 -0.0515
 4298SOL    HW123573   3.459   5.354   2.506 -0.0989 -0.2114  0.0864
 4298SOL    HW223574   3.412   5.426   2.645  0.6524  0.0351  0.2169
 4299SOL     OW23575   8.376   3.616   1.479  0.2388  0.0890  0.0259
 4299SOL    HW123576   8.310   3.688   1.459 -1.2395 -0.8940  1.2683
 4299SOL    HW223577   8.328   3.530   1.495  1.8362 -0.6661  0.8829
 4300SOL     OW23578   8.401   0.515   1.209 -0.2220 -0.0661 -0.6395
 4300SOL    HW123579   8.422   0.611   1.230 -1.5543 -0.3118  2.0231
 4300SOL    HW223580   8.480   0.458   1.231  0.3788  0.3528 -1.7027
 4301SOL     OW23581   9.860   0.920   0.930  0.3405  0.1799 -0.4602
 4301SOL    HW123582   9.956   0.931   0.957 -0.2131  2.8429  0.6345
 4301SOL    HW223583   9.844   0.968   0.844 -0.6138  2.2109  0.8182
 4302SOL     OW23584   9.111   2.028   2.052 -0.5140 -0.2316 -0.5406
 4302SOL    HW123585   9.183   2.050   2.117 -0.5212 -1.8136  0.0437
 4302SOL    HW223586   9.082   2.110   2.004  1.6152  0.4288 -0.7149
 4303SOL     OW23587   7.774   7.972   2.172  0.5895 -0.0308 -0.4227
 4303SOL    HW123588   7.695   7.910   2.166  0.7114 -0.3191  0.7767
 4303SOL    HW223589   7.832   7.944   2.248  1.8858  0.1576 -1.3234
 4304SOL     OW23590   5.959   7.993   3.028  0.0184 -0.1249  0.6486
 4304SOL    HW123591   5.975   7.992   3.127 -2.5271  1.2737  1.1160
 4304SOL    HW223592   5.928   8.084   3.001  3.0768  0.2370 -1.8625
 4305SOL     OW23593   9.905   9.039   1.179  0.0632 -0.4908  0.5015
 4305SOL    HW123594   9.990   9.076   1.141 -0.8884  0.0059 -1.2056
 4305SOL    HW223595   9.881   8.955   1.131 -0.2235 -0.8221  1.2158
 4306SOL     OW23596   2.853   3.108   4.013  0.0927 -0.0667 -0.1503
 4306SOL    HW123597   2.840   3.206   4.029  1.7060 -0.0511  1.2052
 4306SOL    HW223598   2.885   3.093   3.920 -0.2238  0.6863 -0.3846
 4307SOL     OW23599   0.813   8.390   4.252  0.4051 -0.0298 -0.4322
 4307SOL    HW123600   0.724   8.349   4.232  0.2969 -0.0904  0.1553
 4307SOL    HW223601   0.853   8.346   4.333  0.1547  1.2022  0.3876
 4308SOL     OW23602   3.235   8.576   4.216  0.7777  0.0812 -0.3232
 4308SOL    HW123603   3.266   8.650   4.156  0.0436  0.3695 -0.3522
 4308SOL    HW223604   3.314   8.533   4.258  1.2445  0.5401 -0.7153
 4309SOL     OW23605   9.746   0.920   3.121  0.1634  1.0756 -0.7157
 4309SOL    HW123606   9.807   0.847   3.153  0.8723  2.0492  0.1587
 4309SOL    HW223607   9.661   0.917   3.172 -0.3294  0.0518 -1.5714
 4310SOL     OW23608   8.665   1.496   5.404 -0.0956 -0.3702  0.0479
 4310SOL    HW123609   8.652   1.538   5.494 -0.5436  1.3671 -0.8088
 4310SOL    HW223610   8.707   1.563   5.342 -1.9410 -0.7923 -1.6754
 4311SOL     OW23611   3.360   8.352   1.252 -0.0690  0.4634  0.0520
 4311SOL    HW123612   3.365   8.338   1.153  0.8846 -1.4395  0.3411
 4311SOL    HW223613   3.451   8.378   1.287  0.0455 -0.6954  0.6624
 4312SOL     OW23614   2.344   4.705   0.035  0.1845  0.1883 -0.2509
 4312SOL    HW123615   2.409   4.659  -0.026 -1.6731 -2.2082 -0.5220
 4312SOL    HW223616   2.261   4.729  -0.017  0.8260  3.3067  0.0540
 4313SOL     OW23617   2.739   3.565   2.484  0.2272 -0.2776  0.2913
 4313SOL    HW123618   2.729   3.484   2.425 -1.6630  0.1809 -0.0519
 4313SOL    HW223619   2.732   3.538   2.580 -1.7871 -0.3625  0.1397
 4314SOL     OW23620   4.325   7.749   1.656 -0.7002  0.3064  0.2029
 4314SOL    HW123621   4.342   7.780   1.563 -0.6649 -1.4849 -0.4124
 4314SOL    HW223622   4.227   7.728   1.666 -0.8180  1.1146  0.7668
 4315SOL     OW23623   8.665   0.362   5.562 -0.1677 -0.4333 -0.4993
 4315SOL    HW123624   8.668   0.462   5.569  3.0192 -0.4219 -1.1695
 4315SOL    HW223625   8.694   0.322   5.649 -1.7426 -0.7929 -0.1323
 4316SOL     OW23626   2.384   0.760   5.163 -0.0750  0.1450 -0.3845
 4316SOL    HW123627   2.392   0.852   5.202 -1.2544  0.6824 -1.3813
 4316SOL    HW223628   2.329   0.703   5.224  2.0090 -0.4069  1.0532
 4317SOL     OW23629   2.452   4.322   1.419 -0.5971 -0.3350  0.2966
 4317SOL    HW123630   2.354   4.336   1.408 -0.5728 -0.1580  0.3016
 4317SOL    HW223631   2.497   4.329   1.330 -0.3246  1.6958  0.5693
 4318SOL     OW23632   9.889   8.035   0.598  0.3282 -0.2757 -0.0800
 4318SOL    HW123633   9.790   8.046   0.584  0.2464 -0.2840  0.4922
 4318SOL    HW223634   9.931   8.123   0.617  0.8985  0.1798 -3.1496
 4319SOL     OW23635   1.506   2.336   0.993  0.2157 -0.2432 -0.3158
 4319SOL    HW123636   1.553   2.257   0.954 -1.2635 -0.8417 -0.9185
 4319SOL    HW223637   1.426   2.305   1.044 -0.1820  0.8402 -0.2723
 4320SOL     OW23638   5.731   9.409   3.645 -0.3761  0.0366 -0.5956
 4320SOL    HW123639   5.674   9.490   3.635  0.8235  0.9498 -0.0865
 4320SOL    HW223640   5.674   9.331   3.673 -1.2905  1.0446  0.3667
 4321SOL     OW23641   3.081   7.161   3.175 -0.1311 -0.0623 -0.2588
 4321SOL    HW123642   3.048   7.201   3.090 -1.4124  0.5069  0.4825
 4321SOL    HW223643   3.136   7.229   3.225 -2.1362  0.7525  0.9035
 4322SOL     OW23644   0.722   2.787   4.219 -0.2951  1.2267  0.2637
 4322SOL    HW123645   0.711   2.885   4.204  1.5886  1.4742  0.2956
 4322SOL    HW223646   0.789   2.772   4.293 -0.0835 -0.0774 -0.1773
 4323SOL     OW23647   6.182   8.519   3.049 -0.4867  0.1919  0.2521
 4323SOL    HW123648   6.169   8.454   3.124 -0.3372  0.7877  0.7942
 4323SOL    HW223649   6.232   8.599   3.082 -0.2676  0.3773 -0.5248
 4324SOL     OW23650   4.103   3.656   4.853 -0.1815 -0.0198 -0.3805
 4324SOL    HW123651   4.044   3.603   4.792 -3.4400 -0.2791  2.8007
 4324SOL    HW223652   4.186   3.604   4.874 -1.3847 -2.0760 -0.6044
 4325SOL     OW23653   7.503   1.448   2.237 -0.4353 -0.3790  0.3194
 4325SOL    HW123654   7.520   1.459   2.335  1.0852  0.9877 -0.0857
 4325SOL    HW223655   7.411   1.482   2.215 -0.1419  0.8756  0.9888
 4326SOL     OW23656   4.077   0.988   1.240 -0.0090  0.0191 -0.5180
 4326SOL    HW123657   4.029   1.053   1.299 -1.6014 -0.8576 -0.8241
 4326SOL    HW223658   4.099   1.031   1.153 -0.2247  0.4474 -0.3604
 4327SOL     OW23659   5.273   1.227   2.124  0.0999 -0.3819 -0.4935
 4327SOL    HW123660   5.284   1.148   2.064  0.6290 -1.8063  1.4048
 4327SOL    HW223661   5.327   1.303   2.089  0.8302 -1.3603 -1.5263
 4328SOL     OW23662   8.523   9.522   0.007 -0.2079  0.1781 -0.0791
 4328SOL    HW123663   8.495   9.618   0.006  2.4270  0.9858 -0.0346
 4328SOL    HW223664   8.554   9.497   0.098  0.7476 -0.2034 -0.5002
 4329SOL     OW23665   0.374   0.068   1.508  0.5246 -0.4440 -0.1381
 4329SOL    HW123666   0.367   0.110   1.417  1.2947 -0.2351 -0.1064
 4329SOL    HW223667   0.293   0.013   1.526 -0.4788  0.9757 -0.2123
 4330SOL     OW23668   2.919   4.929   2.002  0.1033 -0.4818 -0.0187
 4330SOL    HW123669   2.914   5.026   2.026 -0.8189 -0.2497 -1.0641
 4330SOL    HW223670   2.861   4.876   2.063 -1.8711  0.0427 -1.3819
 4331SOL     OW23671   4.258   9.950   4.745  0.0811 -0.4932 -0.3173
 4331SOL    HW123672   4.172   9.932   4.794 -0.0851 -0.4761 -0.6006
 4331SOL    HW223673   4.328   9.887   4.777  0.5003  0.7733  1.3172
 4332SOL     OW23674   1.386   4.054   0.318  0.9728  0.1493  0.0226
 4332SOL    HW123675   1.302   4.109   0.325  0.6575 -0.3659  0.3671
 4332SOL    HW223676   1.465   4.114   0.308  0.3356  0.5936 -2.6278
 4333SOL     OW23677   2.721   8.606   3.104 -0.0543 -0.1560 -0.4846
 4333SOL    HW123678   2.702   8.663   3.024  0.0628 -2.8500 -2.5002
 4333SOL    HW223679   2.640   8.551   3.126  1.2778 -2.5557 -1.4305
 4334SOL     OW23680   3.402   7.981   1.150  0.3377 -0.3352 -0.2419
 4334SOL    HW123681   3.383   8.077   1.130 -1.1676 -0.0756  2.2160
 4334SOL    HW223682   3.318   7.929   1.146  1.3024 -1.7888 -2.5564
 4335SOL     OW23683   0.048   8.778   5.605 -0.2424 -0.0339 -0.0096
 4335SOL    HW123684   0.070   8.873   5.584  1.1424 -0.8791 -2.4747
 4335SOL    HW223685  -0.011   8.775   5.686  0.0186  2.8835  0.3300
 4336SOL     OW23686   4.982   1.365   2.577  0.0897  0.4625  0.2605
 4336SOL    HW123687   5.059   1.314   2.539  0.3514  1.8354 -1.0855
 4336SOL    HW223688   4.981   1.355   2.677  0.5959 -1.5041  0.0913
 4337SOL     OW23689   3.251   7.633   3.733  0.3593  0.4413 -0.2409
 4337SOL    HW123690   3.205   7.648   3.820  2.8105 -0.2434  1.2251
 4337SOL    HW223691   3.269   7.721   3.689  1.9171  1.0345  1.4831
 4338SOL     OW23692   5.296   8.097   1.119  1.0767 -0.6004  0.0635
 4338SOL    HW123693   5.264   8.166   1.184 -1.4745 -0.5175 -1.2286
 4338SOL    HW223694   5.229   8.022   1.114  2.2383 -1.5959 -0.9779
 4339SOL     OW23695   4.783   1.256   4.632  0.5680  0.8095 -0.2925
 4339SOL    HW123696   4.689   1.288   4.622  0.7949  2.0103  1.1235
 4339SOL    HW223697   4.786   1.157   4.621 -0.7237  0.8576 -1.2002
 4340SOL     OW23698   2.088   9.878   5.240  0.4286  0.0993 -0.7883
 4340SOL    HW123699   2.176   9.894   5.284 -0.8384  0.3515  1.7531
 4340SOL    HW223700   2.086   9.786   5.202  1.5763 -0.1119 -0.3565
 4341SOL     OW23701   0.679   2.603   0.215 -0.2164 -0.3467  0.1060
 4341SOL    HW123702   0.680   2.602   0.115 -0.4960  2.8002  0.0060
 4341SOL    HW223703   0.746   2.538   0.251  1.6496  0.2711 -2.1714
 4342SOL     OW23704   9.528   0.510   1.362  0.1827 -0.1570  0.0005
 4342SOL    HW123705   9.441   0.509   1.410  0.1250 -1.3433 -0.1132
 4342SOL    HW223706   9.577   0.595   1.383  0.0287 -0.5238  1.9053
 4343SOL     OW23707   4.146   1.315   1.420 -0.0871 -0.0051 -0.3944
 4343SOL    HW123708   4.222   1.250   1.420 -1.0665 -1.2414  2.6832
 4343SOL    HW223709   4.060   1.265   1.432 -0.8111  1.8829  2.5973
 4344SOL     OW23710   0.194   8.399   4.468 -0.3465 -0.6596  0.1685
 4344SOL    HW123711   0.218   8.350   4.552 -0.5247 -0.7932  0.1418
 4344SOL    HW223712   0.197   8.497   4.485 -0.7884 -0.6950  0.4405
 4345SOL     OW23713   3.392   1.139   1.337  0.0322  0.1534  0.3195
 4345SOL    HW123714   3.320   1.072   1.319 -1.3916  1.5630  0.6552
 4345SOL    HW223715   3.351   1.224   1.369  1.7949  1.2696 -0.3069
 4346SOL     OW23716   6.942   8.074   2.066 -0.4663  0.1965 -0.4552
 4346SOL    HW123717   6.984   8.133   1.996 -1.3140 -0.0178 -1.1472
 4346SOL    HW223718   7.001   7.995   2.082 -0.1330  0.3872 -0.7213
 4347SOL     OW23719   3.540   4.523   3.997  0.2423  0.3208 -0.0491
 4347SOL    HW123720   3.462   4.582   4.017 -1.2980 -1.9430  0.8511
 4347SOL    HW223721   3.543   4.504   3.898 -0.6722 -0.0222 -0.0150
 4348SOL     OW23722   7.134   8.244   1.924  0.1518  0.1759  0.0089
 4348SOL    HW123723   7.218   8.219   1.876 -0.0274  0.4501 -0.4569
 4348SOL    HW223724   7.108   8.337   1.897 -0.7894 -0.2435 -0.5441
 4349SOL     OW23725   0.166   8.064   4.202  0.2689  0.0585  0.7198
 4349SOL    HW123726   0.159   8.009   4.119  1.1306 -0.4682  0.9876
 4349SOL    HW223727   0.139   8.008   4.281 -0.9391  0.6760  0.7587
 4350SOL     OW23728   8.355   7.617   2.602  0.4226 -0.0662  0.6818
 4350SOL    HW123729   8.432   7.617   2.537  0.5875  0.7333  0.8734
 4350SOL    HW223730   8.390   7.628   2.695  0.0460  0.8386  0.7246
 4351SOL     OW23731   2.605   7.977   2.366 -0.2464  0.0846  0.2146
 4351SOL    HW123732   2.701   8.001   2.358 -0.4343  0.8377  0.2517
 4351SOL    HW223733   2.572   8.003   2.457 -1.1646  2.2188 -0.7004
 4352SOL     OW23734   3.604   0.637   0.109  0.2798 -0.1914  0.1504
 4352SOL    HW123735   3.555   0.694   0.043  0.2794  2.3486  2.2972
 4352SOL    HW223736   3.541   0.571   0.149 -0.1607 -0.4389 -0.9281
 4353SOL     OW23737   8.077   0.259   1.386 -0.0565  0.3032  0.0388
 4353SOL    HW123738   7.983   0.291   1.394  0.1021  0.8554 -0.2516
 4353SOL    HW223739   8.140   0.331   1.417  0.2207 -0.5536  1.5152
 4354SOL     OW23740   2.465   2.538   3.418  0.6228 -0.5335 -0.3338
 4354SOL    HW123741   2.417   2.548   3.505  0.5386  1.1704 -0.5459
 4354SOL    HW223742   2.548   2.593   3.419  0.7922 -0.7607 -1.2121
 4355SOL     OW23743   9.769   2.070   3.043  0.1619 -0.0124 -0.0174
 4355SOL    HW123744   9.816   1.996   2.995  0.4666  0.5959 -0.6874
 4355SOL    HW223745   9.673   2.046   3.056  1.0542 -2.1117  3.1321
 4356SOL     OW23746   2.589   3.268   1.967 -0.2321  0.2717  0.0272
 4356SOL    HW123747   2.499   3.246   2.005  0.6837 -0.7731  1.6212
 4356SOL    HW223748   2.655   3.200   1.996  1.3117  1.6106 -0.2644
 4357SOL     OW23749   1.651   1.274   5.320 -0.2675  0.2314 -0.6676
 4357SOL    HW123750   1.650   1.177   5.296  0.8783  0.5175 -1.9575
 4357SOL    HW223751   1.724   1.292   5.385  1.4235  0.7076 -2.6577
 4358SOL     OW23752   2.808   2.389   2.950  0.4811 -0.3712 -0.1926
 4358SOL    HW123753   2.808   2.310   3.012  0.4879 -1.1542 -1.1706
 4358SOL    HW223754   2.736   2.453   2.977 -0.7642 -1.6168 -0.5127
 4359SOL     OW23755   9.044   7.103   2.691 -1.1645 -1.2837 -0.0559
 4359SOL    HW123756   9.076   7.019   2.648 -1.5494 -1.4485 -0.0289
 4359SOL    HW223757   9.004   7.081   2.780 -0.3232 -0.9374  0.4083
 4360SOL     OW23758   3.410   9.551   3.140  0.0523 -0.0661  0.1701
 4360SOL    HW123759   3.502   9.530   3.172 -0.4013  0.5379  1.9326
 4360SOL    HW223760   3.349   9.473   3.157  0.2037 -0.4380 -0.9284
 4361SOL     OW23761   4.831   9.468   3.209 -0.0747 -0.1864  0.5172
 4361SOL    HW123762   4.861   9.545   3.266  1.4533 -1.2376  1.1852
 4361SOL    HW223763   4.805   9.392   3.267  2.2215 -1.5394 -0.1473
 4362SOL     OW23764   1.670   6.503   1.689  0.1621  0.0045  0.0288
 4362SOL    HW123765   1.627   6.582   1.644  2.9339  1.4812 -0.1643
 4362SOL    HW223766   1.698   6.437   1.619  1.5785  0.8218 -0.2134
 4363SOL     OW23767   5.020   9.807   3.589 -0.8965 -0.3851  0.1919
 4363SOL    HW123768   5.068   9.736   3.641  1.2332  1.6470  1.0954
 4363SOL    HW223769   5.083   9.849   3.524 -1.5196  2.0114  1.0826
 4364SOL     OW23770   2.144   0.206   4.445  0.1965 -0.4522 -0.1690
 4364SOL    HW123771   2.110   0.264   4.371  0.0094  0.2708  0.4754
 4364SOL    HW223772   2.153   0.112   4.412 -2.0477 -0.5932 -0.4903
 4365SOL     OW23773   9.216   7.338   1.943  0.1657 -0.3341  0.1653
 4365SOL    HW123774   9.289   7.346   2.011 -0.3944  0.9659  0.6311
 4365SOL    HW223775   9.164   7.255   1.960 -0.5484  0.4585  1.9091
 4366SOL     OW23776   2.853   4.131   5.218  0.3646 -0.2631  0.2495
 4366SOL    HW123777   2.944   4.130   5.176 -0.2907 -0.9812 -1.1905
 4366SOL    HW223778   2.808   4.218   5.200 -0.3210 -0.9544 -1.4617
 4367SOL     OW23779   1.791   8.946   1.693 -0.0795 -1.0752  0.2922
 4367SOL    HW123780   1.708   8.894   1.713 -1.2243 -0.0369 -1.5523
 4367SOL    HW223781   1.767   9.040   1.669  1.5063 -1.0886 -1.4917
 4368SOL     OW23782   1.078   0.550   5.292  0.4318 -0.1370  0.3923
 4368SOL    HW123783   1.126   0.587   5.212 -0.2740  0.5468  0.2772
 4368SOL    HW223784   1.009   0.484   5.263 -0.2119  0.5294  0.3852
 4369SOL     OW23785   2.113   9.571   0.268  0.1698  0.5381  0.3659
 4369SOL    HW123786   2.173   9.502   0.309  1.5523  0.3880 -1.8518
 4369SOL    HW223787   2.048   9.603   0.337  2.3613  0.2189  2.6840
 4370SOL     OW23788   2.512   6.434   0.564  0.2527 -0.6775 -0.3220
 4370SOL    HW123789   2.502   6.510   0.630 -0.6498 -0.3639 -0.8092
 4370SOL    HW223790   2.606   6.431   0.532  0.6018 -0.5567  0.6627
 4371SOL     OW23791   9.844   9.230   4.780 -0.4713 -0.0900 -0.4009
 4371SOL    HW123792   9.831   9.256   4.876 -1.1675  0.2364 -0.5825
 4371SOL    HW223793   9.758   9.198   4.742 -0.1024 -0.6178 -0.8066
 4372SOL     OW23794   8.414   6.418   1.849  0.0318 -0.2045  0.1181
 4372SOL    HW123795   8.453   6.500   1.805 -0.7355  0.2172  0.2171
 4372SOL    HW223796   8.355   6.446   1.925 -0.6281 -0.8347 -0.1588
 4373SOL     OW23797   2.250   2.948   5.110  0.3570  0.6424  0.4409
 4373SOL    HW123798   2.215   2.897   5.189  1.4593 -2.7907 -1.1661
 4373SOL    HW223799   2.350   2.954   5.117  0.3781  1.0999 -0.2638
 4374SOL     OW23800   0.540   6.252   0.840  0.3872  0.1691  0.2931
 4374SOL    HW123801   0.547   6.279   0.936 -0.4973 -0.8220  0.6514
 4374SOL    HW223802   0.586   6.164   0.826  0.4286  0.2630 -0.1678
 4375SOL     OW23803   1.926   4.148   5.367  0.6347 -0.1823 -0.0140
 4375SOL    HW123804   2.007   4.092   5.350  0.2157 -1.0754  0.8956
 4375SOL    HW223805   1.852   4.090   5.401 -0.5492  0.5466 -1.3109
 4376SOL     OW23806   3.026   2.006   0.027 -0.2482  0.0382 -0.5874
 4376SOL    HW123807   2.969   2.015   0.109  0.9774 -1.6277  0.4546
 4376SOL    HW223808   3.122   2.012   0.052  0.1205  1.0687 -2.1316
 4377SOL     OW23809   0.082   6.761   1.307  0.3015  0.0126  0.1017
 4377SOL    HW123810   0.142   6.771   1.386  0.3828 -3.1141  0.5319
 4377SOL    HW223811  -0.006   6.724   1.337  0.9763 -3.0085 -1.3889
 4378SOL     OW23812   2.986   1.592   0.571 -0.0464 -0.7458 -0.0709
 4378SOL    HW123813   3.027   1.508   0.606  0.1778 -0.0865  1.2719
 4378SOL    HW223814   2.980   1.587   0.471  1.3295 -1.7412 -0.1181
 4379SOL     OW23815   6.593   8.148   2.181  0.0713 -0.2445  0.3127
 4379SOL    HW123816   6.684   8.187   2.196 -0.0789 -0.5056  1.9945
 4379SOL    HW223817   6.599   8.071   2.117  1.1703 -0.8022  1.0804
 4380SOL     OW23818   3.430   1.449   4.082  0.2469 -0.1180  0.1509
 4380SOL    HW123819   3.430   1.356   4.046  0.6626  0.3624 -1.0951
 4380SOL    HW223820   3.481   1.509   4.021 -0.4576  1.0373  0.6750
 4381SOL     OW23821   7.530   7.709   1.869 -0.0132 -0.2762  0.0772
 4381SOL    HW123822   7.546   7.610   1.868  2.1405  0.0617 -0.8297
 4381SOL    HW223823   7.550   7.745   1.960 -1.8371 -0.8134  0.7128
 4382SOL     OW23824   8.990   3.524   2.942 -0.7756 -0.3788 -0.1686
 4382SOL    HW123825   8.945   3.475   3.017 -1.3514  0.2587 -0.0872
 4382SOL    HW223826   8.934   3.516   2.859 -1.1353  0.5436 -0.0291
 4383SOL     OW23827   6.755   7.100   3.262  0.5297 -0.2779  0.1201
 4383SOL    HW123828   6.848   7.136   3.267 -0.1660  1.5161  0.4010
 4383SOL    HW223829   6.704   7.147   3.190 -0.2382 -1.0706  0.1369
 4384SOL     OW23830   0.128   7.588   4.870  0.2359  0.4057 -0.5538
 4384SOL    HW123831   0.073   7.649   4.929 -0.1500 -0.1186 -0.3642
 4384SOL    HW223832   0.139   7.630   4.780 -0.9661  0.2682 -0.7739
 4385SOL     OW23833   8.067   0.732   5.363  0.1863  0.5072 -0.5299
 4385SOL    HW123834   8.159   0.767   5.345 -0.2379  1.5648 -0.6707
 4385SOL    HW223835   8.014   0.799   5.414 -0.5644 -0.0230 -0.5851
 4386SOL     OW23836   7.203   9.125   3.066 -0.0037 -0.4704 -0.2190
 4386SOL    HW123837   7.231   9.031   3.043 -1.2670 -0.3157 -2.6027
 4386SOL    HW223838   7.216   9.183   2.986  0.5396  1.3683  1.1778
 4387SOL     OW23839   9.952   1.373   1.918  0.0938  0.2313 -0.0161
 4387SOL    HW123840   9.983   1.286   1.956 -1.1762  0.2320  1.1048
 4387SOL    HW223841   9.879   1.356   1.852 -1.8536  0.5319  1.9837
 4388SOL     OW23842   7.627   7.457   3.022 -0.5875  0.6304  0.1646
 4388SOL    HW123843   7.631   7.523   2.947  1.6890  0.2018 -0.1524
 4388SOL    HW223844   7.665   7.370   2.991 -2.3221 -0.4434  0.9768
 4389SOL     OW23845   4.833   1.559   2.315  0.0228  0.1174 -0.3090
 4389SOL    HW123846   4.738   1.561   2.346  0.0971 -1.3368  0.0320
 4389SOL    HW223847   4.835   1.556   2.215 -0.2828  0.4334 -0.3265
 4390SOL     OW23848   6.100   9.615   3.121 -0.4173  0.0711  0.2545
 4390SOL    HW123849   6.030   9.641   3.187  0.3023 -0.4537  1.2441
 4390SOL    HW223850   6.190   9.637   3.158  0.0413 -1.0878 -0.1481
 4391SOL     OW23851   3.527   8.723   2.345  0.4004 -0.1784  0.9199
 4391SOL    HW123852   3.565   8.680   2.427 -1.6354  1.0655  2.5461
 4391SOL    HW223853   3.459   8.663   2.305  0.9622 -0.5188  0.4581
 4392SOL     OW23854   1.545   3.254   4.187 -0.0251 -0.4673  0.3154
 4392SOL    HW123855   1.556   3.332   4.125 -1.4026  0.6306  1.4299
 4392SOL    HW223856   1.529   3.171   4.133 -0.3083  0.3094 -0.8269
 4393SOL     OW23857   5.615   1.559   2.459  0.2209  0.0027 -0.6383
 4393SOL    HW123858   5.525   1.536   2.495  0.5793  0.3003  0.4610
 4393SOL    HW223859   5.686   1.520   2.517  0.8164  2.5542  0.4311
 4394SOL     OW23860   0.657   7.955   1.341 -0.4798  0.4153 -0.3039
 4394SOL    HW123861   0.695   8.048   1.340 -0.6685  0.4890 -0.7468
 4394SOL    HW223862   0.593   7.946   1.416 -0.0755  0.4892  0.0516
 4395SOL     OW23863   0.428   8.337   0.867  0.8166 -0.4178 -0.9191
 4395SOL    HW123864   0.520   8.371   0.888  0.4208  0.5300 -0.6839
 4395SOL    HW223865   0.392   8.386   0.788 -0.6053  1.2632  0.7298
 4396SOL     OW23866   6.851   0.459   0.566  0.0554 -0.2951 -0.1918
 4396SOL    HW123867   6.851   0.360   0.555  1.9519 -0.3551  0.0203
 4396SOL    HW223868   6.758   0.492   0.578 -0.6912 -1.9212 -1.3688
 4397SOL     OW23869   3.222   7.391   0.957 -0.2826 -0.2985 -0.1825
 4397SOL    HW123870   3.268   7.327   1.020 -1.1887 -0.5612  0.2235
 4397SOL    HW223871   3.275   7.398   0.873  0.6655 -0.3639  0.3946
 4398SOL     OW23872   5.578   9.481   1.119  0.4233 -0.0580 -0.4768
 4398SOL    HW123873   5.660   9.471   1.176  0.3615  0.7875 -0.2402
 4398SOL    HW223874   5.522   9.398   1.126  1.3235 -0.6941 -0.7486
 4399SOL     OW23875   7.950   0.914   0.042  0.3292 -0.2952  0.2237
 4399SOL    HW123876   7.997   0.948  -0.039 -0.4299  0.3189  0.0316
 4399SOL    HW223877   7.933   0.991   0.105 -2.5925 -0.0349 -0.8029
 4400SOL     OW23878   1.075   7.690   1.268 -0.6909 -0.1031  0.7923
 4400SOL    HW123879   1.044   7.599   1.295 -3.8378  0.2710 -1.3452
 4400SOL    HW223880   1.039   7.758   1.332 -0.4470 -0.0991  0.9277
 4401SOL     OW23881   3.304   8.299   0.975  0.1808 -0.1979 -0.2346
 4401SOL    HW123882   3.221   8.249   0.951 -0.2730 -0.1887  1.2772
 4401SOL    HW223883   3.375   8.281   0.907 -0.4192 -1.8009 -0.4443
 4402SOL     OW23884   2.597   5.844   1.184  0.1306  0.0409  0.9089
 4402SOL    HW123885   2.530   5.804   1.121  0.5810 -0.0098  0.4588
 4402SOL    HW223886   2.585   5.804   1.275  1.1393 -1.7911  0.2724
 4403SOL     OW23887   8.767   8.781   3.267  0.0136  0.4215  0.3741
 4403SOL    HW123888   8.781   8.878   3.283  1.0750  0.2973  0.2557
 4403SOL    HW223889   8.817   8.728   3.335 -0.4352 -0.0465  0.3479
 4404SOL     OW23890   8.588   7.399   2.324  0.3062  0.0439 -0.4043
 4404SOL    HW123891   8.574   7.321   2.385 -0.1580  0.4242 -0.0132
 4404SOL    HW223892   8.592   7.483   2.378  1.3325  0.2420 -0.7757
 4405SOL     OW23893   9.285   9.245   1.851 -0.0105 -0.0313  0.0071
 4405SOL    HW123894   9.242   9.208   1.769 -2.9440  2.0635  0.5055
 4405SOL    HW223895   9.303   9.343   1.838  2.0185 -0.2366  0.9094
 4406SOL     OW23896   2.278   5.701   3.110 -0.3612 -0.0470  0.2304
 4406SOL    HW123897   2.372   5.673   3.093 -0.0284  0.3876  1.2946
 4406SOL    HW223898   2.264   5.794   3.075 -0.4897 -0.2260 -0.2009
 4407SOL     OW23899   9.449   9.032   2.828 -0.8035 -0.0693  0.0316
 4407SOL    HW123900   9.509   8.960   2.795 -0.2795 -0.2738  1.3986
 4407SOL    HW223901   9.407   9.079   2.751 -1.0397 -1.7429 -0.8656
 4408SOL     OW23902   2.516   7.313   2.135  0.0812 -0.4541  0.4479
 4408SOL    HW123903   2.515   7.231   2.079  2.0890 -0.2069  0.0065
 4408SOL    HW223904   2.494   7.393   2.078  3.2518 -0.0577 -0.2850
 4409SOL     OW23905   2.692   1.027   4.752  0.1395  0.0140 -0.1491
 4409SOL    HW123906   2.744   1.026   4.838  0.4712 -0.1796 -0.3497
 4409SOL    HW223907   2.756   1.023   4.675 -0.0666  2.0521 -0.4461
 4410SOL     OW23908   0.564   3.633   2.869  0.4512  0.7053 -0.1914
 4410SOL    HW123909   0.616   3.617   2.953  0.4299 -0.8308 -0.4528
 4410SOL    HW223910   0.560   3.548   2.816 -1.7640  0.9935 -0.5053
 4411SOL     OW23911   7.142   9.832   3.700  0.0176 -0.1108  0.5835
 4411SOL    HW123912   7.052   9.844   3.659  0.8619 -0.0961 -1.3099
 4411SOL    HW223913   7.157   9.735   3.719  0.6639 -0.4661 -1.6339
 4412SOL     OW23914   7.225   9.983   2.799 -0.4417  0.8231  0.4942
 4412SOL    HW123915   7.260  10.040   2.726 -0.6248  1.8513  1.1962
 4412SOL    HW223916   7.284   9.991   2.879 -0.2364 -0.2967  0.4608
 4413SOL     OW23917   2.490   0.621   2.804  0.1550  0.2972 -0.1825
 4413SOL    HW123918   2.483   0.522   2.816  0.8012  0.0501 -1.6620
 4413SOL    HW223919   2.401   0.663   2.816 -0.2991 -0.5801 -0.4641
 4414SOL     OW23920   3.003   7.509   1.935  0.0735 -0.1828  0.0577
 4414SOL    HW123921   2.959   7.453   2.005  1.0199 -0.4673  0.4409
 4414SOL    HW223922   2.996   7.605   1.960  2.2135 -0.3894  1.6553
 4415SOL     OW23923   7.062   8.309   4.165 -0.2361 -0.0750  0.1836
 4415SOL    HW123924   7.003   8.243   4.213  0.3688 -0.7769 -0.0280
 4415SOL    HW223925   7.043   8.401   4.198 -1.0798 -0.3585  0.5010
 4416SOL     OW23926   3.368   9.526   2.115  0.4595  0.2444  0.3431
 4416SOL    HW123927   3.282   9.475   2.121  0.2602  0.7215  1.8977
 4416SOL    HW223928   3.419   9.515   2.201  0.6957  2.1258  0.4713
 4417SOL     OW23929   1.078   5.016   0.874  0.2327  0.2734 -0.4783
 4417SOL    HW123930   1.121   5.102   0.903 -1.4405 -0.1374  3.5021
 4417SOL    HW223931   0.980   5.030   0.860  0.0301 -0.8467 -0.2644
 4418SOL     OW23932   2.558   0.417   2.496 -0.2549 -0.2658  0.0640
 4418SOL    HW123933   2.651   0.420   2.533  0.1333  0.5325 -0.9500
 4418SOL    HW223934   2.514   0.331   2.521  1.1049 -1.0617 -0.2631
 4419SOL     OW23935   0.874   2.591   0.827  0.1015 -0.6463 -0.0784
 4419SOL    HW123936   0.830   2.643   0.900 -1.1581  0.2829 -1.4763
 4419SOL    HW223937   0.961   2.635   0.802  0.7111 -1.1655  1.0706
 4420SOL     OW23938   0.591   9.845   2.646 -0.0281  0.6022 -0.4179
 4420SOL    HW123939   0.565   9.779   2.576  0.1900 -0.2437  0.2971
 4420SOL    HW223940   0.518   9.913   2.656 -2.4167 -2.1869  2.1065
 4421SOL     OW23941   1.309   4.752   3.286  0.3139 -0.5439  0.4118
 4421SOL    HW123942   1.252   4.824   3.245  1.6218  0.5694  0.4944
 4421SOL    HW223943   1.405   4.781   3.285  1.0408 -2.8681 -0.7672
 4422SOL     OW23944   9.272   9.404   4.084  0.1136  0.2360 -0.7227
 4422SOL    HW123945   9.359   9.418   4.132 -0.7902 -2.4590  1.8313
 4422SOL    HW223946   9.196   9.428   4.143 -0.9749 -0.4135 -1.8316
 4423SOL     OW23947   9.165   7.167   4.059  0.1708  0.6332  0.8050
 4423SOL    HW123948   9.171   7.072   4.027 -1.0417  1.5002 -2.0673
 4423SOL    HW223949   9.070   7.197   4.055  0.9333  2.8937 -1.0612
 4424SOL     OW23950   5.438   9.392   1.374 -0.0832  0.4153  0.4461
 4424SOL    HW123951   5.399   9.395   1.282  2.6849  0.9374 -0.7711
 4424SOL    HW223952   5.469   9.299   1.394  1.2371  0.7473 -0.0139
 4425SOL     OW23953   0.697   0.349   1.964 -0.0277  0.3793  0.7478
 4425SOL    HW123954   0.639   0.346   1.882 -0.0150 -1.2214  0.7839
 4425SOL    HW223955   0.785   0.305   1.944 -0.4725 -1.1035  1.9571
 4426SOL     OW23956   7.078   0.545   1.543 -0.3178  0.0830  0.3569
 4426SOL    HW123957   7.165   0.580   1.510 -0.7764 -1.0768 -2.2175
 4426SOL    HW223958   7.092   0.456   1.586 -0.2014  0.0219  0.1916
 4427SOL     OW23959   2.217   0.473   2.786 -0.0994  0.2644  0.0788
 4427SOL    HW123960   2.265   0.498   2.702  3.6381  0.4961  2.1384
 4427SOL    HW223961   2.197   0.375   2.785  1.8061 -0.1408 -0.2176
 4428SOL     OW23962   8.515   6.657   1.757 -0.2385 -0.3182 -0.0242
 4428SOL    HW123963   8.492   6.754   1.753 -0.1348 -0.3366 -0.9510
 4428SOL    HW223964   8.548   6.626   1.668  0.6911 -0.9679  0.5428
 4429SOL     OW23965   2.749   2.812   4.538  0.0321 -0.1555  0.3302
 4429SOL    HW123966   2.846   2.816   4.516  0.2643  0.2677  1.4012
 4429SOL    HW223967   2.695   2.838   4.457  0.7678 -1.3834 -0.5722
 4430SOL     OW23968   0.506   9.533   3.142 -0.3415  0.2321 -0.5631
 4430SOL    HW123969   0.539   9.500   3.230  1.6177  0.5812 -1.1596
 4430SOL    HW223970   0.526   9.630   3.132  0.5414 -0.0688 -1.8814
 4431SOL     OW23971   4.241   0.259   2.887  0.3196 -0.2026 -0.0377
 4431SOL    HW123972   4.304   0.204   2.833  2.5307  2.0587  0.1436
 4431SOL    HW223973   4.238   0.224   2.981  2.4295  0.5231  0.3220
 4432SOL     OW23974   3.490   5.512   1.478  0.3220  0.1160  0.2925
 4432SOL    HW123975   3.461   5.458   1.557 -1.1093  1.1731  0.5190
 4432SOL    HW223976   3.588   5.501   1.463  1.0841  1.6985  3.6353
 4433SOL     OW23977   2.489   1.438   1.249 -0.5751 -0.2024 -0.5070
 4433SOL    HW123978   2.527   1.453   1.340 -3.1482  0.8043  0.4473
 4433SOL    HW223979   2.460   1.342   1.241 -2.9758  0.3641  0.8227
 4434SOL     OW23980   3.019   3.518   3.089  0.4713 -0.2334 -0.3760
 4434SOL    HW123981   3.051   3.425   3.072  0.7855 -0.1132 -0.4439
 4434SOL    HW223982   2.968   3.551   3.009 -0.5162 -0.7204  0.0495
 4435SOL     OW23983   4.413   1.443   5.565  0.4579 -0.2761  0.1798
 4435SOL    HW123984   4.394   1.493   5.481 -0.6694 -0.8337  0.0791
 4435SOL    HW223985   4.326   1.424   5.612  1.0005 -0.7648  0.9975
 4436SOL     OW23986   3.357   3.537   3.890 -0.0070 -0.1055  0.3500
 4436SOL    HW123987   3.348   3.597   3.810  0.7456  1.8926  1.7370
 4436SOL    HW223988   3.449   3.499   3.892 -0.8624 -2.4264 -1.2446
 4437SOL     OW23989   3.582   7.861   5.318  0.4570 -1.2896  0.1862
 4437SOL    HW123990   3.643   7.921   5.371  0.0221  0.5545 -1.3546
 4437SOL    HW223991   3.624   7.841   5.230  0.1162 -2.3996  0.2743
 4438SOL     OW23992   5.069   0.341   3.168 -0.0449 -0.0903  0.4616
 4438SOL    HW123993   5.053   0.343   3.069 -0.2973 -0.4807  0.4960
 4438SOL    HW223994   5.065   0.247   3.201 -0.8470  0.1224  0.9887
 4439SOL     OW23995   8.330   1.082   4.889  0.0073  0.0524  0.0423
 4439SOL    HW123996   8.234   1.068   4.864  0.1624 -1.2301  0.1382
 4439SOL    HW223997   8.350   1.180   4.890 -0.6549  0.2452 -2.3728
 4440SOL     OW23998   3.124   3.447   5.113 -0.2938  0.0137 -0.5658
 4440SOL    HW123999   3.179   3.511   5.168 -0.2472  0.5562 -1.2382
 4440SOL    HW224000   3.075   3.498   5.043 -0.8270 -0.6086 -0.6414
 4441SOL     OW24001   8.013   1.062   3.575  0.0572 -0.4993  0.4739
 4441SOL    HW124002   7.996   1.107   3.487  0.7433 -1.1492  0.0109
 4441SOL    HW224003   8.107   1.080   3.604 -0.1381 -0.3688  1.0274
 4442SOL     OW24004   3.499   3.114   2.801 -0.3966  0.4012 -0.4526
 4442SOL    HW124005   3.552   3.097   2.884 -0.5745 -2.4617 -0.8890
 4442SOL    HW224006   3.551   3.175   2.741  1.6877 -1.0035 -0.1361
 4443SOL     OW24007   8.120   7.492   3.415  0.2074  0.6979 -0.0721
 4443SOL    HW124008   8.216   7.495   3.441  0.3325 -0.1705 -0.4113
 4443SOL    HW224009   8.065   7.458   3.491  0.4152 -0.6284 -0.4937
 4444SOL     OW24010   0.218   1.966   4.944  0.4317 -0.1754  0.0580
 4444SOL    HW124011   0.179   2.041   4.891 -0.8486 -1.1649 -0.4298
 4444SOL    HW224012   0.246   2.000   5.034 -1.6487  0.5567  0.4564
 4445SOL     OW24013   3.108   7.838   3.265  0.7211  0.9436  0.1121
 4445SOL    HW124014   3.160   7.886   3.195  0.0025 -0.6262 -1.5532
 4445SOL    HW224015   3.094   7.743   3.236 -1.1497  0.7569  1.5460
 4446SOL     OW24016   1.887   2.322   2.583  0.2071 -0.2717  0.1839
 4446SOL    HW124017   1.898   2.420   2.568  1.0320 -0.4054 -0.1022
 4446SOL    HW224018   1.843   2.281   2.503  0.4799 -0.2466  0.0208
 4447SOL     OW24019   8.795   0.340   1.288 -0.3079 -0.2506 -0.7675
 4447SOL    HW124020   8.712   0.311   1.334 -0.0347 -0.6902 -0.5539
 4447SOL    HW224021   8.789   0.438   1.266 -0.6744 -0.1755 -0.3196
 4448SOL     OW24022   1.010   2.117   5.134  0.2238 -0.3730 -0.0733
 4448SOL    HW124023   1.042   2.045   5.195 -0.7480  0.1912  1.1283
 4448SOL    HW224024   0.968   2.190   5.188 -2.8427 -0.9614 -1.5470
 4449SOL     OW24025   1.515   6.066   2.307  0.1373 -0.3567  0.5361
 4449SOL    HW124026   1.542   6.129   2.234  0.2397 -1.1117 -0.0873
 4449SOL    HW224027   1.449   6.111   2.367 -0.9357 -0.1435 -0.7727
 4450SOL     OW24028   7.543   9.849   3.209  0.8847 -0.2033 -0.1356
 4450SOL    HW124029   7.474   9.919   3.192  2.0711  0.8761 -0.6077
 4450SOL    HW224030   7.622   9.891   3.255  1.5853 -1.2435 -0.3678
 4451SOL     OW24031   7.389   7.303   3.025 -0.4408 -0.0505  0.0128
 4451SOL    HW124032   7.330   7.318   3.105 -0.3599  0.5082 -0.0272
 4451SOL    HW224033   7.480   7.340   3.043 -0.9870  1.8845 -1.0668
 4452SOL     OW24034   0.638   9.904   0.630 -0.5463 -0.1372 -0.7270
 4452SOL    HW124035   0.688   9.824   0.596 -1.3832 -0.5714 -0.9458
 4452SOL    HW224036   0.635   9.974   0.558 -1.2091 -0.5514 -1.1081
 4453SOL     OW24037   2.190   8.039   1.030 -0.8133 -0.2393  0.3294
 4453SOL    HW124038   2.216   8.114   1.091 -0.4966 -1.4812  1.7404
 4453SOL    HW224039   2.092   8.046   1.008 -1.5688 -1.2580  3.1380
 4454SOL     OW24040   9.478   8.256   5.228  0.6421  0.4205 -0.3498
 4454SOL    HW124041   9.551   8.216   5.284  1.6485  0.1671 -1.8267
 4454SOL    HW224042   9.416   8.307   5.287  1.5836  0.0065  1.0348
 4455SOL     OW24043   8.398   3.468   1.112  0.2180  0.4676 -0.3258
 4455SOL    HW124044   8.383   3.539   1.043  1.6741  1.5216  0.4121
 4455SOL    HW224045   8.412   3.380   1.067 -3.9390  0.1581 -1.1737
 4456SOL     OW24046   0.187   1.911   3.119  0.0023 -0.0460 -0.7387
 4456SOL    HW124047   0.233   1.839   3.068  0.3988 -1.3744  1.4150
 4456SOL    HW224048   0.230   1.999   3.098  2.4097 -1.0191 -0.0999
 4457SOL     OW24049   1.197   4.745   1.650  0.0165  0.0821  0.1800
 4457SOL    HW124050   1.251   4.828   1.665  0.1970  0.2599 -1.3504
 4457SOL    HW224051   1.140   4.756   1.569 -0.7202 -0.9193  0.5467
 4458SOL     OW24052   1.940   8.296   0.235  0.4288 -0.0912 -0.6261
 4458SOL    HW124053   1.979   8.257   0.318  0.4529  1.2217 -0.0113
 4458SOL    HW224054   1.855   8.345   0.257 -1.4479 -2.6749 -1.9057
 4459SOL     OW24055   0.114   8.954   3.026  0.9710  0.3074  0.3984
 4459SOL    HW124056   0.163   8.886   2.972  1.5831 -0.2576  1.6634
 4459SOL    HW224057   0.068   8.910   3.103 -0.1132  1.0753  0.2069
 4460SOL     OW24058   0.950   1.894   2.058  0.6909  0.1176 -0.1649
 4460SOL    HW124059   0.926   1.985   2.024  0.8335  0.7841  1.5103
 4460SOL    HW224060   1.050   1.885   2.062  0.7105 -0.7617 -2.0227
 4461SOL     OW24061   8.479   9.961   5.133  0.5055 -0.0842  0.1104
 4461SOL    HW124062   8.419  10.004   5.200 -0.7843 -1.1705 -0.3194
 4461SOL    HW224063   8.425   9.933   5.053  1.6664 -0.6529 -0.4866
 4462SOL     OW24064   6.659   8.706   1.930  0.3065  0.4124 -0.2965
 4462SOL    HW124065   6.666   8.756   2.017 -1.9436 -0.4235  0.4027
 4462SOL    HW224066   6.642   8.771   1.856 -0.5583  0.8854  0.3056
 4463SOL     OW24067   2.995   2.888   4.465  0.3271 -0.3241  0.1918
 4463SOL    HW124068   3.079   2.905   4.516 -0.2256  0.8018  0.7438
 4463SOL    HW224069   2.998   2.937   4.378 -0.1088  0.4101  0.5848
 4464SOL     OW24070   4.208   2.233   1.523 -0.0607  0.6547  0.0179
 4464SOL    HW124071   4.246   2.324   1.504 -0.7739  1.4898  2.4072
 4464SOL    HW224072   4.108   2.239   1.530 -0.1803 -0.4734 -0.6046
 4465SOL     OW24073   6.625   9.741   2.888  0.1064  0.6538  0.0750
 4465SOL    HW124074   6.688   9.738   2.811  0.6163 -1.5648  0.5364
 4465SOL    HW224075   6.533   9.715   2.858  0.2468  0.0618  0.1547
 4466SOL     OW24076   6.638   1.118   2.257  0.3024 -0.0344 -0.4462
 4466SOL    HW124077   6.557   1.177   2.256  0.8612  0.7243 -0.8875
 4466SOL    HW224078   6.631   1.051   2.182 -1.1901 -1.7147  1.1516
 4467SOL     OW24079   3.736   8.326   2.684 -0.1377 -0.1712 -0.3284
 4467SOL    HW124080   3.656   8.320   2.623  0.4895 -1.9922 -0.9911
 4467SOL    HW224081   3.819   8.332   2.629  0.4390 -1.8719  0.3534
 4468SOL     OW24082   7.155   6.974   3.540 -0.4440  0.1850  0.1727
 4468SOL    HW124083   7.178   6.988   3.444  1.4560  1.2116  0.7465
 4468SOL    HW224084   7.184   6.882   3.568 -2.5101 -0.7383 -0.6444
 4469SOL     OW24085   7.106   7.670   2.670  0.1310  0.0980  0.1515
 4469SOL    HW124086   7.176   7.682   2.741 -0.0977 -0.1353  0.4156
 4469SOL    HW224087   7.102   7.753   2.614 -1.0625  1.0863  1.6423
 4470SOL     OW24088   0.924   2.650   4.781  0.1243 -0.2105 -0.5225
 4470SOL    HW124089   0.878   2.596   4.710 -0.6798 -2.4270  1.6008
 4470SOL    HW224090   0.855   2.696   4.837  0.7128  0.6360 -0.4883
 4471SOL     OW24091   2.279   1.981   2.770 -0.4299  0.0657 -0.4808
 4471SOL    HW124092   2.202   2.034   2.736 -1.3380 -0.1415  1.1689
 4471SOL    HW224093   2.271   1.886   2.738 -0.4463  0.2211 -0.9393
 4472SOL     OW24094   1.917   9.886   2.161  1.0826 -0.0573 -0.0315
 4472SOL    HW124095   1.894   9.899   2.065  2.6782  1.0178 -0.2925
 4472SOL    HW224096   2.003   9.835   2.168 -0.6455 -2.9389  0.8864
 4473SOL     OW24097   3.844   2.157   5.042  0.7711 -0.4547  0.1642
 4473SOL    HW124098   3.829   2.066   5.080 -1.9676  0.4132  1.2292
 4473SOL    HW224099   3.759   2.209   5.044  2.1895  1.9908 -0.8486
 4474SOL     OW24100   3.359   0.744   4.833 -0.4647 -0.4887 -0.3640
 4474SOL    HW124101   3.350   0.838   4.864 -0.8244 -0.8894  0.7648
 4474SOL    HW224102   3.456   0.719   4.829 -0.4311 -0.6496  1.1358
 4475SOL     OW24103   1.565   8.316   3.670 -0.2523 -0.0028 -0.2548
 4475SOL    HW124104   1.654   8.315   3.716 -0.5948  1.7994  0.4613
 4475SOL    HW224105   1.530   8.222   3.665  1.4554 -0.6736 -0.1120
 4476SOL     OW24106   8.146   3.602   1.195 -0.3282  0.4513  0.1407
 4476SOL    HW124107   8.230   3.549   1.206  0.0253  0.7897 -0.8515
 4476SOL    HW224108   8.069   3.540   1.177 -0.5133  0.0599  2.1927
 4477SOL     OW24109   3.080   1.618   3.424 -0.0632 -0.0692  0.0275
 4477SOL    HW124110   3.081   1.534   3.369  0.4577  0.7423 -1.2118
 4477SOL    HW224111   2.994   1.623   3.476 -0.0587 -1.4081  0.1910
 4478SOL     OW24112   8.483   4.206   1.555  0.1557  0.4924 -0.0678
 4478SOL    HW124113   8.574   4.180   1.589 -0.3119 -0.4517  0.4577
 4478SOL    HW224114   8.425   4.125   1.550 -0.9668  1.2568  0.5255
 4479SOL     OW24115   2.777   6.586   3.782 -0.2301 -0.5390  0.1598
 4479SOL    HW124116   2.798   6.568   3.877  2.1513  1.5158  0.0762
 4479SOL    HW224117   2.782   6.685   3.765 -2.7495 -0.6643 -1.6124
 4480SOL     OW24118   8.174   0.651   1.200  0.3761 -0.3120 -0.2186
 4480SOL    HW124119   8.209   0.677   1.289  0.7568  0.0635 -0.4774
 4480SOL    HW224120   8.225   0.572   1.165 -0.7320 -1.3824  0.5332
 4481SOL     OW24121   4.159   8.231   0.846 -0.1415 -0.3264  0.0240
 4481SOL    HW124122   4.180   8.243   0.943 -2.2295  1.7592  0.2531
 4481SOL    HW224123   4.240   8.254   0.791  0.7459 -0.5602  1.2238
 4482SOL     OW24124   1.409   7.694   3.614 -0.1087  0.3497  0.9359
 4482SOL    HW124125   1.433   7.637   3.692 -0.4055 -0.7463  0.2325
 4482SOL    HW224126   1.319   7.666   3.579 -0.2819  1.2861  0.6231
 4483SOL     OW24127   2.930   2.655   1.790 -0.6190  0.1922  0.1196
 4483SOL    HW124128   2.922   2.669   1.692  2.4289  1.8263  0.0692
 4483SOL    HW224129   2.979   2.731   1.832 -0.5927 -1.1681  2.7071
 4484SOL     OW24130   3.238   2.949   0.528 -0.1501 -0.0526  0.0237
 4484SOL    HW124131   3.310   2.903   0.579  0.5658 -1.0392 -1.8448
 4484SOL    HW224132   3.252   3.048   0.532  2.6763 -0.2934 -2.2319
 4485SOL     OW24133   3.149   7.381   3.782  0.8227  0.0736  0.1121
 4485SOL    HW124134   3.188   7.462   3.737  1.9546 -0.2325  0.5337
 4485SOL    HW224135   3.131   7.402   3.878  1.0510 -0.1427  0.2041
 4486SOL     OW24136   1.634   1.146   2.066  0.1212  0.1275 -0.5967
 4486SOL    HW124137   1.588   1.083   2.003 -1.8117  1.2116 -0.2890
 4486SOL    HW224138   1.573   1.169   2.142  1.7272  0.3807  0.6555
 4487SOL     OW24139   1.000   8.138   5.322 -0.1180 -0.0866 -0.7577
 4487SOL    HW124140   0.966   8.109   5.411 -1.4485 -1.1937 -1.6168
 4487SOL    HW224141   0.933   8.198   5.278 -0.3281 -1.0868 -1.8285
 4488SOL     OW24142   0.415   2.118   1.237  0.1587 -0.2434  0.0972
 4488SOL    HW124143   0.390   2.059   1.160  0.7861 -2.4876  1.5352
 4488SOL    HW224144   0.505   2.158   1.222  0.7267 -1.4940  0.0824
 4489SOL     OW24145   1.619   8.925   3.131  0.4122  0.4661  0.4677
 4489SOL    HW124146   1.550   8.852   3.129 -1.0036  1.7219  2.3462
 4489SOL    HW224147   1.709   8.886   3.113 -0.2048 -1.9001  2.2577
 4490SOL     OW24148   3.612   2.638   4.370 -0.0144 -0.3244  0.0316
 4490SOL    HW124149   3.647   2.666   4.280 -1.2274  0.4336 -0.2253
 4490SOL    HW224150   3.688   2.609   4.428  1.1601  2.0833 -0.2027
 4491SOL     OW24151   3.562   9.291   5.379  0.3280 -0.5610  0.5059
 4491SOL    HW124152   3.610   9.225   5.437 -1.4972 -0.3744  2.2761
 4491SOL    HW224153   3.465   9.293   5.402 -0.6075 -0.9432 -3.0288
 4492SOL     OW24154   1.964   2.443   1.128  0.1260  0.2241 -0.2839
 4492SOL    HW124155   1.866   2.426   1.134  0.4161 -1.5863 -0.2045
 4492SOL    HW224156   1.993   2.500   1.204 -0.8030  0.4459 -0.0903
 4493SOL     OW24157   8.768   1.863   3.247 -0.8667  0.0749  0.9228
 4493SOL    HW124158   8.831   1.860   3.325 -0.6806 -0.2392  0.7605
 4493SOL    HW224159   8.809   1.916   3.173 -0.3414 -1.0180  0.4204
 4494SOL     OW24160   0.109   7.193   1.293 -0.2176  0.9998  0.1414
 4494SOL    HW124161   0.113   7.287   1.258  1.0108  2.3162  3.5546
 4494SOL    HW224162   0.071   7.194   1.386 -0.0833 -1.8742  0.2713
 4495SOL     OW24163   9.032   2.700   1.337  0.1902  0.1969 -0.4405
 4495SOL    HW124164   8.939   2.666   1.325  0.5870 -0.4001 -1.9294
 4495SOL    HW224165   9.050   2.774   1.271 -0.0147  2.0011  1.4570
 4496SOL     OW24166   3.959   4.164   3.654  0.3872 -0.0705  0.1476
 4496SOL    HW124167   3.889   4.095   3.673  1.4475 -0.7320  1.7374
 4496SOL    HW224168   4.013   4.135   3.575  0.4475 -0.7778  0.4440
 4497SOL     OW24169   4.407   1.524   1.127 -0.3056  0.4032  0.4256
 4497SOL    HW124170   4.338   1.596   1.124 -0.8091 -0.0944 -0.3659
 4497SOL    HW224171   4.377   1.451   1.188 -0.9206 -0.2291 -0.6020
 4498SOL     OW24172   9.126   6.456   1.617 -0.2119 -0.0033 -0.3045
 4498SOL    HW124173   9.141   6.477   1.520  1.4231  0.4378  0.0243
 4498SOL    HW224174   9.028   6.456   1.636 -0.6103 -1.2471 -2.2021
 4499SOL     OW24175   6.730   0.732   3.017  0.1770 -0.1230  0.6318
 4499SOL    HW124176   6.704   0.653   3.071  1.9371 -0.7665  0.5702
 4499SOL    HW224177   6.668   0.742   2.939  1.2811 -2.7719 -0.6303
 4500SOL     OW24178   0.570   9.462   3.936  0.1411 -0.1371  0.0000
 4500SOL    HW124179   0.532   9.388   3.992  0.2112 -0.8027 -0.8131
 4500SOL    HW224180   0.547   9.550   3.977  0.8318 -0.6272  1.4708
 4501SOL     OW24181   2.473   1.646   5.362  0.5987 -0.5374 -0.1494
 4501SOL    HW124182   2.506   1.729   5.317  0.9516 -0.9521 -0.6630
 4501SOL    HW224183   2.452   1.666   5.457 -3.1237  1.1309 -1.2398
 4502SOL     OW24184   8.253   1.064   1.880  0.4814  0.2522 -0.2797
 4502SOL    HW124185   8.189   1.141   1.879 -0.1484 -0.2439  0.5864
 4502SOL    HW224186   8.270   1.036   1.974  2.6114  0.8755 -0.4715
 4503SOL     OW24187   8.988   8.932   4.009 -0.2332  0.3332 -0.2183
 4503SOL    HW124188   9.017   9.002   3.942  0.4590 -1.2072 -1.5700
 4503SOL    HW224189   8.889   8.935   4.019 -0.2152  1.5242 -0.2487
 4504SOL     OW24190   3.400   5.181   2.467  0.3827  0.1364 -0.1824
 4504SOL    HW124191   3.429   5.113   2.399  0.0774 -0.2954  0.1138
 4504SOL    HW224192   3.351   5.134   2.541  0.7177  0.6087  0.3312
 4505SOL     OW24193   8.699   9.967   0.050 -0.2002  0.4785  0.5682
 4505SOL    HW124194   8.747  10.025  -0.016 -0.9379  0.1956 -0.2058
 4505SOL    HW224195   8.682  10.021   0.133  0.7055  0.8350  0.5387
 4506SOL     OW24196   0.032   8.386   1.326  0.4783 -0.1433 -0.4270
 4506SOL    HW124197   0.131   8.382   1.313  0.7116 -0.1674  1.1970
 4506SOL    HW224198  -0.012   8.421   1.243  2.1261  2.8878 -0.0937
 4507SOL     OW24199   2.462   5.612   0.300 -0.2028  0.1385 -0.1290
 4507SOL    HW124200   2.459   5.695   0.246  0.3402  0.1527 -0.1402
 4507SOL    HW224201   2.551   5.567   0.288 -0.7699 -0.8457 -0.7231
 4508SOL     OW24202   0.216   8.408   0.412 -0.2199  0.6978  0.1018
 4508SOL    HW124203   0.221   8.309   0.429 -0.7095  0.7884  0.7890
 4508SOL    HW224204   0.241   8.426   0.317 -0.4859 -0.1252 -0.1340
 4509SOL     OW24205   9.606   8.076   0.642  0.1296 -0.5926  0.3066
 4509SOL    HW124206   9.561   8.129   0.570 -0.3195 -2.7780 -1.0374
 4509SOL    HW224207   9.538   8.023   0.692  0.6315 -0.2529  1.3588
 4510SOL     OW24208   9.566   8.607   1.549  0.6086  0.0987  0.0860
 4510SOL    HW124209   9.625   8.587   1.628  1.4979 -1.0964 -0.8708
 4510SOL    HW224210   9.620   8.653   1.478 -0.4810  2.3277  0.6460
 4511SOL     OW24211   2.020   1.756   2.454 -0.0253  0.0251 -0.0063
 4511SOL    HW124212   1.948   1.781   2.520  0.5061  0.4959  0.3998
 4511SOL    HW224213   1.987   1.771   2.361 -1.3005 -1.9963  0.0869
 4512SOL     OW24214   3.370   6.657   4.549 -0.6546 -0.0079  0.1053
 4512SOL    HW124215   3.297   6.613   4.601  0.2918 -0.7968  0.7724
 4512SOL    HW224216   3.442   6.688   4.611  0.6869 -1.3411 -0.7520
 4513SOL     OW24217   3.073   2.522   3.510 -0.5598  0.6098 -0.4531
 4513SOL    HW124218   3.145   2.541   3.578  1.4759  0.4910 -2.5052
 4513SOL    HW224219   3.057   2.603   3.455 -1.4061  0.3660 -0.5681
 4514SOL     OW24220   7.669   0.111   1.684  0.4370  0.4906  0.2624
 4514SOL    HW124221   7.672   0.144   1.779  0.3449 -0.0190  0.4439
 4514SOL    HW224222   7.618   0.176   1.628  1.7780  1.5595  0.2540
 4515SOL     OW24223   0.100   5.065   2.565  0.1854  0.0805  0.3108
 4515SOL    HW124224   0.058   4.980   2.532 -0.5609  0.3483  0.5602
 4515SOL    HW224225   0.151   5.046   2.649 -1.6533  0.2407  1.5013
 4516SOL     OW24226   8.415   0.348   3.492 -0.0837  0.3757  0.3745
 4516SOL    HW124227   8.418   0.282   3.417  1.9509  0.0029  0.7693
 4516SOL    HW224228   8.494   0.336   3.551 -0.8752  1.6751  1.7470
 4517SOL     OW24229   4.295   1.709   0.335  0.4806 -0.4489  0.2788
 4517SOL    HW124230   4.349   1.724   0.417  1.1983  1.2822 -0.4923
 4517SOL    HW224231   4.242   1.791   0.313 -0.2757 -1.1482 -0.5659
 4518SOL     OW24232   1.315   8.022   4.642 -1.3242 -0.4145  0.9394
 4518SOL    HW124233   1.370   7.962   4.700 -0.7040  1.0495  1.8591
 4518SOL    HW224234   1.321   7.990   4.547  1.0891 -0.2667  1.0241
 4519SOL     OW24235   6.783   9.708   1.333 -0.0381  0.0530 -0.7310
 4519SOL    HW124236   6.719   9.664   1.395  0.2349  0.3035 -0.2711
 4519SOL    HW224237   6.849   9.762   1.385  0.4866 -0.1238 -1.2038
 4520SOL     OW24238   2.499   9.754   0.247  0.0176  0.7437  0.3915
 4520SOL    HW124239   2.480   9.804   0.332  0.4292 -0.2482  1.0763
 4520SOL    HW224240   2.419   9.701   0.220 -0.0594  0.9352  0.2371
 4521SOL     OW24241   2.328   9.551   5.242  0.0861 -0.4618  0.2100
 4521SOL    HW124242   2.348   9.578   5.336  0.6763  0.8454 -0.2774
 4521SOL    HW224243   2.366   9.460   5.225  0.5785 -0.4193  1.0326
 4522SOL     OW24244   3.813   3.872   1.123 -0.8448 -0.0463  0.1925
 4522SOL    HW124245   3.898   3.826   1.149 -0.5598  0.0560 -0.5348
 4522SOL    HW224246   3.735   3.813   1.146 -0.5252 -0.5291  0.0411
 4523SOL     OW24247   8.562   7.850   1.652  0.0717 -0.4384 -0.0834
 4523SOL    HW124248   8.561   7.792   1.733 -0.8674  1.2155  1.1134
 4523SOL    HW224249   8.573   7.945   1.679  0.1567  0.1039 -1.9361
 4524SOL     OW24250   4.084   1.472   0.677 -0.1365 -0.1522  0.0829
 4524SOL    HW124251   4.149   1.399   0.657  0.4880  0.3319  0.3476
 4524SOL    HW224252   3.995   1.432   0.698 -0.0364 -0.7939 -0.6979
 4525SOL     OW24253   5.441   8.877   2.143  0.3008  0.2598 -0.3165
 4525SOL    HW124254   5.342   8.872   2.158  0.6486 -2.0713  1.5437
 4525SOL    HW224255   5.468   8.809   2.075  0.7944 -0.1195  0.2523
 4526SOL     OW24256   9.377   3.269   3.781 -0.1184 -0.3012  0.0846
 4526SOL    HW124257   9.426   3.355   3.766  1.8614 -1.6986 -1.8320
 4526SOL    HW224258   9.297   3.265   3.722  1.8623 -1.3025 -2.6485
 4527SOL     OW24259   0.412   8.370   2.187 -0.0230  0.6127  0.0255
 4527SOL    HW124260   0.350   8.384   2.264  0.1272 -0.4032  0.3428
 4527SOL    HW224261   0.503   8.405   2.212  0.9811 -3.0093  1.7495
 4528SOL     OW24262   4.605   4.618   0.710  0.0158  0.2204  0.6052
 4528SOL    HW124263   4.601   4.656   0.803  1.1088 -0.3357  0.8909
 4528SOL    HW224264   4.550   4.535   0.705 -1.5986  1.2928  0.2368
 4529SOL     OW24265   9.487   1.955   0.475 -0.5452  0.5215  0.2417
 4529SOL    HW124266   9.522   1.903   0.398  2.0215  1.1031  0.9600
 4529SOL    HW224267   9.407   2.008   0.446  0.0032  0.2563 -1.8332
 4530SOL     OW24268   2.573   7.333   3.797  0.0714 -0.5460  0.2031
 4530SOL    HW124269   2.673   7.338   3.800  0.1983 -1.8368 -1.2309
 4530SOL    HW224270   2.536   7.421   3.767  0.8419 -0.4484 -0.4671
 4531SOL     OW24271   5.318   8.297   1.407 -0.0681 -0.2690 -0.5709
 4531SOL    HW124272   5.348   8.211   1.448 -0.3402 -0.7699 -1.4057
 4531SOL    HW224273   5.336   8.373   1.470 -0.5803 -1.0388  0.5171
 4532SOL     OW24274   7.250   6.579   3.611  0.3137 -0.2355 -0.0410
 4532SOL    HW124275   7.272   6.628   3.527 -0.8105 -0.5709 -0.5539
 4532SOL    HW224276   7.207   6.491   3.587 -0.7522  0.0247  0.8702
 4533SOL     OW24277   8.953   7.222   0.809 -0.0217 -0.2665  0.4636
 4533SOL    HW124278   8.951   7.218   0.709  3.1249 -1.4921  0.3966
 4533SOL    HW224279   8.982   7.313   0.839  0.7489 -0.4283  0.2120
 4534SOL     OW24280   2.003   5.450   0.893 -0.1462  0.1284 -0.0200
 4534SOL    HW124281   2.095   5.480   0.915 -0.4461  0.6419  0.5467
 4534SOL    HW224282   1.949   5.528   0.859 -0.1620 -0.3154 -1.0282
 4535SOL     OW24283   0.884   6.673   1.516 -0.4378 -0.1589  0.3883
 4535SOL    HW124284   0.857   6.752   1.460  1.1677  1.8952  2.4047
 4535SOL    HW224285   0.831   6.673   1.601 -0.3166 -1.1681  0.4680
 4536SOL     OW24286   1.561   7.634   4.434 -0.1812 -0.9527  0.8080
 4536SOL    HW124287   1.556   7.724   4.476  1.2140 -0.3818 -0.2218
 4536SOL    HW224288   1.474   7.614   4.388  0.0879  0.6152 -0.4365
 4537SOL     OW24289   0.750   9.225   3.417  0.5575 -0.2744  0.1051
 4537SOL    HW124290   0.837   9.230   3.368  0.4541 -1.7076 -0.2586
 4537SOL    HW224291   0.693   9.304   3.393  0.8893 -0.4625 -1.3691
 4538SOL     OW24292   4.995   0.233   2.664  0.2415  0.5370 -0.1601
 4538SOL    HW124293   4.957   0.198   2.750  0.8048  2.3917  0.8661
 4538SOL    HW224294   5.078   0.285   2.683  0.3143  1.0454 -1.8270
 4539SOL     OW24295   7.326   0.503   2.338  0.0881 -0.2750  0.4093
 4539SOL    HW124296   7.243   0.448   2.333 -0.6826  0.8940  0.2052
 4539SOL    HW224297   7.404   0.444   2.362 -0.8357 -1.3223  0.8694
 4540SOL     OW24298   2.854   9.400   1.681 -0.2965  0.3949 -0.0923
 4540SOL    HW124299   2.931   9.345   1.648  0.4254  1.3245  0.0169
 4540SOL    HW224300   2.775   9.384   1.623 -0.1289 -0.8610  0.0233
 4541SOL     OW24301   2.001   7.944   2.277 -0.3980  0.0285 -0.3016
 4541SOL    HW124302   1.941   7.888   2.334  0.4605  1.4922  2.1473
 4541SOL    HW224303   1.965   8.037   2.272  0.4339  0.3346 -0.7424
 4542SOL     OW24304   2.018   1.659   1.753  0.2804 -0.0841 -0.0724
 4542SOL    HW124305   2.040   1.591   1.683  0.5213 -1.3675  1.1980
 4542SOL    HW224306   1.963   1.615   1.824 -1.2230  1.5780 -0.2063
 4543SOL     OW24307   8.366   2.328   0.849 -0.4098 -0.4149 -0.3641
 4543SOL    HW124308   8.446   2.276   0.878 -1.1215 -1.3638 -0.0952
 4543SOL    HW224309   8.364   2.334   0.749  1.0486  1.2894 -0.3193
 4544SOL     OW24310   9.596   9.087   3.679  0.1087 -0.3097 -0.1489
 4544SOL    HW124311   9.628   9.164   3.734  1.8815 -0.4516 -0.9322
 4544SOL    HW224312   9.609   9.002   3.730  1.5244 -0.4182 -0.6717
 4545SOL     OW24313   1.994   3.197   4.137 -0.1370  0.0488  0.3460
 4545SOL    HW124314   1.940   3.187   4.220 -3.7228  1.5408 -1.7305
 4545SOL    HW224315   2.022   3.292   4.126 -0.8177  0.1230 -0.8278
 4546SOL     OW24316   9.324   1.703   0.549 -0.3796  0.0399  0.0132
 4546SOL    HW124317   9.376   1.681   0.467 -0.4659 -0.9017  0.2008
 4546SOL    HW224318   9.365   1.657   0.628 -0.3509  0.8600  0.4805
 4547SOL     OW24319   7.460   5.787   2.665  0.5717  0.1407  0.3989
 4547SOL    HW124320   7.499   5.783   2.756 -1.0013 -0.2603  1.0778
 4547SOL    HW224321   7.401   5.868   2.657 -0.9322 -0.9441  0.4230
 4548SOL     OW24322   7.988   8.806   0.871  0.4887 -0.0376  0.0242
 4548SOL    HW124323   7.914   8.866   0.840  2.4458  1.9398 -0.9969
 4548SOL    HW224324   7.951   8.737   0.934 -1.9195  1.8968  0.8209
 4549SOL     OW24325   7.597   6.742   2.498 -0.0985 -0.3788  0.1398
 4549SOL    HW124326   7.692   6.728   2.471  0.3191  1.9756  0.3168
 4549SOL    HW224327   7.538   6.682   2.443  1.0548  1.5710 -3.3673
 4550SOL     OW24328   3.010   1.799   2.956  0.1031 -0.9707  0.3015
 4550SOL    HW124329   2.954   1.882   2.955 -0.0380 -1.0691 -0.2868
 4550SOL    HW224330   3.068   1.798   2.875 -0.5581 -1.8917 -0.1752
 4551SOL     OW24331   1.872   0.184   2.728 -0.1715 -0.4520  0.5529
 4551SOL    HW124332   1.962   0.194   2.685  0.2330 -1.0119  1.2379
 4551SOL    HW224333   1.804   0.163   2.659  0.2243 -0.0011  0.0229
 4552SOL     OW24334   8.496   7.448   3.075  0.0041  0.1257 -0.0265
 4552SOL    HW124335   8.580   7.454   3.020 -0.0299 -0.6473 -0.1640
 4552SOL    HW224336   8.417   7.467   3.018  0.0385  0.2731 -0.0277
 4553SOL     OW24337   9.354   9.274   0.395 -0.7257 -0.4602 -0.3176
 4553SOL    HW124338   9.361   9.175   0.379 -0.0487 -0.1675 -1.9637
 4553SOL    HW224339   9.287   9.292   0.467  1.1864 -2.2904  2.0268
 4554SOL     OW24340   4.066   6.912   2.639 -0.0762  0.2010 -0.2538
 4554SOL    HW124341   4.088   6.985   2.574  0.2781  0.2618 -0.0666
 4554SOL    HW224342   4.147   6.889   2.693 -0.6623  0.9920  1.0083
 4555SOL     OW24343   3.285   2.713   5.095 -0.1358 -0.4585  0.2816
 4555SOL    HW124344   3.317   2.801   5.060  0.9807 -0.4021  1.3813
 4555SOL    HW224345   3.289   2.645   5.023  0.6452  0.0148 -0.1331
 4556SOL     OW24346   4.338   7.547   4.990 -0.1014  0.7045  0.2654
 4556SOL    HW124347   4.427   7.505   4.976  0.0944  1.2446 -0.1266
 4556SOL    HW224348   4.349   7.645   5.006 -0.5681  0.6483  0.9876
 4557SOL     OW24349   4.450   0.563   4.555  0.0471 -0.1211  0.2146
 4557SOL    HW124350   4.464   0.477   4.604 -1.0670  1.0331  2.6423
 4557SOL    HW224351   4.353   0.573   4.532  0.4017 -0.1665 -1.3407
 4558SOL     OW24352   9.771   3.509   1.021 -0.0250 -0.2849 -0.5568
 4558SOL    HW124353   9.851   3.488   1.077 -0.7369  0.5508  0.8020
 4558SOL    HW224354   9.795   3.577   0.952  0.4584 -0.1102 -0.2179
 4559SOL     OW24355   0.602   3.508   0.991  0.0059  0.0895 -0.5875
 4559SOL    HW124356   0.539   3.440   0.952  0.3859 -0.7066  0.1641
 4559SOL    HW224357   0.614   3.583   0.927 -2.5366  0.7710 -0.3264
 4560SOL     OW24358   0.515   7.749   3.525 -0.1726  0.5019 -0.3355
 4560SOL    HW124359   0.562   7.755   3.614  0.4780  2.5841 -0.7884
 4560SOL    HW224360   0.426   7.706   3.538 -0.0189  0.6170  1.3064
 4561SOL     OW24361   3.222   2.094   1.457 -0.3347 -0.6010 -0.7798
 4561SOL    HW124362   3.148   2.082   1.392 -0.8685 -3.3973  0.2816
 4561SOL    HW224363   3.256   2.005   1.487  1.4069  0.6189  1.0828
 4562SOL     OW24364   3.983   0.654   5.538  0.1940  0.0125  0.0624
 4562SOL    HW124365   3.959   0.608   5.623  0.2129  0.0026  0.0621
 4562SOL    HW224366   3.984   0.753   5.553  2.1532 -0.0564  0.6035
 4563SOL     OW24367   3.755   0.054   3.919 -0.0445  0.4482  0.3188
 4563SOL    HW124368   3.736  -0.031   3.967  1.2548 -0.0284  0.0036
 4563SOL    HW224369   3.673   0.112   3.920 -1.1141 -1.0392  0.0327
 4564SOL     OW24370   8.959   9.917   1.757 -0.0645  0.4019  0.3019
 4564SOL    HW124371   9.031   9.912   1.688 -0.4635  0.2851 -0.1046
 4564SOL    HW224372   8.995   9.961   1.839  0.3867  0.6164 -0.0099
 4565SOL     OW24373   6.280   8.488   2.799  0.4361 -1.0342  0.3475
 4565SOL    HW124374   6.234   8.495   2.887 -1.0259  1.9325 -0.5901
 4565SOL    HW224375   6.213   8.476   2.726  1.5647 -2.5252 -0.4754
 4566SOL     OW24376   5.880   8.881   2.398 -0.0364  0.2226 -0.3272
 4566SOL    HW124377   5.928   8.927   2.472 -0.2164  0.4682 -0.3620
 4566SOL    HW224378   5.941   8.870   2.320  0.0913  0.1481 -0.2175
 4567SOL     OW24379   0.889   1.844   4.443 -0.2220  0.3057 -0.0422
 4567SOL    HW124380   0.791   1.833   4.424 -0.5123  1.3955  0.7373
 4567SOL    HW224381   0.917   1.937   4.420 -0.0558  0.9201  2.4525
 4568SOL     OW24382   3.241   6.991   2.794 -0.4552 -0.6829  0.9229
 4568SOL    HW124383   3.338   6.998   2.817 -0.4501 -0.5883  0.8735
 4568SOL    HW224384   3.231   6.970   2.697 -0.4892 -0.4415  0.8736
 4569SOL     OW24385   2.481   4.544   1.080 -0.0896 -0.2027 -0.0041
 4569SOL    HW124386   2.453   4.581   0.992  0.8889 -1.0367 -0.6850
 4569SOL    HW224387   2.502   4.446   1.070 -0.4156 -0.4209  1.2533
 4570SOL     OW24388   1.450   7.336   0.216  0.4517 -0.3076  0.2544
 4570SOL    HW124389   1.438   7.379   0.126  0.7241  1.7421  1.1550
 4570SOL    HW224390   1.547   7.317   0.230  0.5621  0.5064  0.6077
 4571SOL     OW24391   8.534   2.487   3.227 -0.3743 -0.5118  0.0479
 4571SOL    HW124392   8.466   2.553   3.195 -0.2627  0.2696  1.3986
 4571SOL    HW224393   8.503   2.447   3.313  0.8774 -0.1785  0.6519
 4572SOL     OW24394   2.866   9.871   3.198  0.3471  0.8533  0.1747
 4572SOL    HW124395   2.835   9.868   3.103  1.5982  0.3926 -0.2245
 4572SOL    HW224396   2.792   9.906   3.256 -0.2574  1.5845 -1.0256
 4573SOL     OW24397   5.195   9.362   1.930  0.1731 -0.2534  0.2470
 4573SOL    HW124398   5.208   9.345   1.832  1.7080 -0.1407  0.4179
 4573SOL    HW224399   5.202   9.275   1.980 -2.9012 -0.6491  0.0423
 4574SOL     OW24400   3.256   2.572   4.839  0.4198 -0.5011 -0.3574
 4574SOL    HW124401   3.169   2.580   4.790 -0.1830 -0.3077  0.7174
 4574SOL    HW224402   3.325   2.629   4.794 -0.0300 -0.5867 -1.1665
 4575SOL     OW24403   4.474   3.659   4.617  0.0483 -0.3793 -0.5227
 4575SOL    HW124404   4.557   3.608   4.593 -0.4736 -1.1901 -0.6486
 4575SOL    HW224405   4.427   3.612   4.692 -0.2193  0.1606 -0.3504
 4576SOL     OW24406   3.831   3.442   0.007 -0.0643  0.3102 -0.0528
 4576SOL    HW124407   3.799   3.412  -0.083 -0.0333  2.1547 -0.6972
 4576SOL    HW224408   3.759   3.427   0.075 -1.0333  1.2265 -0.8573
 4577SOL     OW24409   3.755   9.916   2.298 -0.2076  0.3281  0.1599
 4577SOL    HW124410   3.795   9.844   2.242 -0.6713 -0.0988  0.3808
 4577SOL    HW224411   3.826   9.956   2.356  0.2545  0.7037 -0.6514
 4578SOL     OW24412   2.041   7.308   5.161  0.1068 -0.0596  0.5580
 4578SOL    HW124413   2.024   7.231   5.100  0.8072 -0.2158  0.5511
 4578SOL    HW224414   2.135   7.340   5.149  0.2431 -0.0730  1.5388
 4579SOL     OW24415   9.814   9.781   1.259 -0.2262 -0.0915  0.2735
 4579SOL    HW124416   9.810   9.818   1.166 -0.5541 -1.6425 -0.3513
 4579SOL    HW224417   9.900   9.731   1.270  0.4261  1.2239  1.2601
 4580SOL     OW24418   0.357   0.785   4.913 -0.3254  0.1357  0.3162
 4580SOL    HW124419   0.368   0.688   4.893 -3.1511  0.0578 -1.1733
 4580SOL    HW224420   0.420   0.838   4.856 -0.9956 -0.6755 -1.2146
 4581SOL     OW24421   0.852   2.052   3.167  0.5408  0.2348 -0.0542
 4581SOL    HW124422   0.801   2.068   3.251 -0.8875 -0.7489 -0.7225
 4581SOL    HW224423   0.900   1.964   3.174  2.2240  1.1757  0.5932
 4582SOL     OW24424   1.694   9.685   5.082 -0.1838  0.2769  0.1886
 4582SOL    HW124425   1.744   9.641   5.007  1.6203 -0.0407  1.5582
 4582SOL    HW224426   1.669   9.778   5.055  0.2863  0.1060 -0.8652
 4583SOL     OW24427   3.266   3.095   4.218 -0.1437 -0.4611 -0.4027
 4583SOL    HW124428   3.296   3.075   4.125  0.1133  0.3456 -0.4902
 4583SOL    HW224429   3.344   3.119   4.275 -0.4694  0.3964 -0.3176
 4584SOL     OW24430   1.444   9.396   2.428  0.0703  0.0688 -0.5599
 4584SOL    HW124431   1.484   9.476   2.471  1.0130 -0.4175 -0.5133
 4584SOL    HW224432   1.388   9.347   2.494  0.2061  0.2135 -0.3368
 4585SOL     OW24433   1.912   9.658   1.463  0.1547  0.1990  0.0628
 4585SOL    HW124434   1.852   9.736   1.446 -2.7124 -2.0148 -0.5966
 4585SOL    HW224435   1.877   9.606   1.541 -0.0599 -2.2896 -1.6143
 4586SOL     OW24436   6.746   8.530   1.402  0.2360 -0.2361 -0.2291
 4586SOL    HW124437   6.830   8.557   1.355  0.7059 -0.7003  0.3314
 4586SOL    HW224438   6.712   8.607   1.457 -0.7577  0.5699 -1.9367
 4587SOL     OW24439   4.085   4.891   2.041 -0.1164 -0.1309 -0.7839
 4587SOL    HW124440   4.175   4.872   2.081 -0.5507 -1.0198 -0.2079
 4587SOL    HW224441   4.053   4.980   2.072  1.2145  0.8321 -2.1712
 4588SOL     OW24442   1.551   6.370   0.595  0.0133  0.3388  0.1443
 4588SOL    HW124443   1.527   6.466   0.609  0.3069  0.4862 -0.3414
 4588SOL    HW224444   1.519   6.341   0.504 -2.5951 -0.8217  1.3560
 4589SOL     OW24445   2.079   3.611   5.626 -0.1134  0.6023 -0.6399
 4589SOL    HW124446   2.039   3.663   5.701 -2.2010 -0.2503 -1.1430
 4589SOL    HW224447   2.030   3.525   5.615  1.8067 -0.4431 -1.3385
 4590SOL     OW24448   4.449   7.657   2.366 -0.0142 -0.1331 -0.1127
 4590SOL    HW124449   4.491   7.597   2.298  1.3470  0.2081  0.4002
 4590SOL    HW224450   4.440   7.607   2.452  0.5901  0.2183  0.1546
 4591SOL     OW24451   0.000   9.405   3.455  0.0922 -0.4182  0.0081
 4591SOL    HW124452   0.022   9.338   3.384 -1.1893 -0.4162 -0.4035
 4591SOL    HW224453   0.085   9.437   3.498  0.7440 -1.9431 -0.1109
 4592SOL     OW24454   2.051   5.033   3.604 -0.1415  0.1895  0.8538
 4592SOL    HW124455   2.014   4.995   3.519  0.2030 -0.1929  0.8709
 4592SOL    HW224456   2.030   4.972   3.680  0.2813  0.1082  0.9065
 4593SOL     OW24457   8.030   1.859   4.012 -0.3182  0.2081 -0.0964
 4593SOL    HW124458   7.997   1.820   4.098  0.2184 -2.6465 -1.1395
 4593SOL    HW224459   8.127   1.883   4.021 -0.8924  2.3227  0.8534
 4594SOL     OW24460   4.017   0.410   3.270 -0.5424 -0.3972  0.4639
 4594SOL    HW124461   4.011   0.495   3.218  0.5716 -0.8809 -0.4599
 4594SOL    HW224462   3.993   0.333   3.210  3.7753 -1.2777 -0.2533
 4595SOL     OW24463   3.052   5.200   2.049  0.2196  0.3681 -0.1486
 4595SOL    HW124464   3.103   5.200   2.136 -1.4442 -0.6648  0.8632
 4595SOL    HW224465   3.116   5.185   1.973  1.6283  0.7071  0.9404
 4596SOL     OW24466   0.622   8.604   2.175  0.8158 -0.3763 -0.0801
 4596SOL    HW124467   0.707   8.575   2.131  1.8254 -0.2086  1.7275
 4596SOL    HW224468   0.643   8.655   2.258 -1.0477  0.5794 -0.1671
 4597SOL     OW24469   2.469   3.734   4.383  0.1685  0.1707  0.1286
 4597SOL    HW124470   2.479   3.791   4.301 -1.7343 -0.3569 -0.4771
 4597SOL    HW224471   2.552   3.743   4.439  0.9658  1.5208 -1.2154
 4598SOL     OW24472   1.808   7.833   2.440  0.4363  0.1887 -0.4925
 4598SOL    HW124473   1.774   7.740   2.456  0.8420  0.0541 -0.4272
 4598SOL    HW224474   1.845   7.869   2.526  0.0781  0.4928 -0.4642
 4599SOL     OW24475   4.197   2.023   4.327 -0.1878 -0.3329  0.3945
 4599SOL    HW124476   4.164   2.117   4.321 -1.9847 -0.8435  1.8619
 4599SOL    HW224477   4.274   2.019   4.390 -0.3569  0.1060  0.6318
 4600SOL     OW24478   2.086   2.564   2.948 -0.1822 -0.0585  0.3639
 4600SOL    HW124479   2.133   2.476   2.940  3.1360  1.3120  3.5105
 4600SOL    HW224480   2.147   2.637   2.921 -2.2433  1.4831 -0.2611
 4601SOL     OW24481   2.648   4.736   3.772 -0.1221 -0.0885  0.1146
 4601SOL    HW124482   2.717   4.713   3.704 -0.0439  0.1123  0.1260
 4601SOL    HW224483   2.571   4.674   3.764  0.5026 -0.9726  0.7672
 4602SOL     OW24484   8.928   2.511   0.568 -0.5713  0.6712  0.4260
 4602SOL    HW124485   8.926   2.418   0.604  1.1861  0.7110  0.6582
 4602SOL    HW224486   8.879   2.515   0.481 -0.6957 -0.4498  0.4430
 4603SOL     OW24487   1.841   8.023   3.257  0.4701 -0.0716 -0.4846
 4603SOL    HW124488   1.842   7.948   3.324 -1.4494  2.1554  2.1957
 4603SOL    HW224489   1.910   8.091   3.282  0.5993  0.1696 -1.4928
 4604SOL     OW24490   4.874   8.986   3.557 -0.3177 -1.0412 -0.6921
 4604SOL    HW124491   4.784   9.019   3.587  0.1379 -0.9556  0.5858
 4604SOL    HW224492   4.944   9.021   3.618  0.5078 -1.7774 -1.2114
 4605SOL     OW24493   1.524   9.814   2.960 -0.1816 -0.0237  0.1121
 4605SOL    HW124494   1.605   9.809   2.902 -0.0290 -1.9650  0.4575
 4605SOL    HW224495   1.533   9.747   3.034 -0.6043  2.0272  2.0802
 4606SOL     OW24496   9.085   1.711   1.543  0.3315 -0.3629  0.2346
 4606SOL    HW124497   9.005   1.667   1.502 -0.1669  1.1954 -0.5007
 4606SOL    HW224498   9.090   1.807   1.514  2.2031 -0.3021  0.6520
 4607SOL     OW24499   0.362   9.793   3.485 -0.1924  0.6461 -0.1420
 4607SOL    HW124500   0.439   9.845   3.521  0.1279 -0.5782  1.0028
 4607SOL    HW224501   0.287   9.795   3.551 -0.5661  0.5558 -0.5628
 4608SOL     OW24502   2.830   5.514   2.882 -0.4022 -0.5909 -0.1536
 4608SOL    HW124503   2.867   5.466   2.802  1.9062  0.7528  0.0641
 4608SOL    HW224504   2.805   5.607   2.856 -2.7637 -1.1723 -0.0541
 4609SOL     OW24505   2.560   1.749   4.755  0.1430  0.2402  0.6841
 4609SOL    HW124506   2.548   1.758   4.656  1.8632  0.7357  0.5128
 4609SOL    HW224507   2.561   1.652   4.780 -1.1751  0.1247  0.3509
 4610SOL     OW24508   9.005   7.775   1.086  0.3412 -0.4766 -0.2060
 4610SOL    HW124509   9.092   7.811   1.050  0.0499  0.3448 -0.0986
 4610SOL    HW224510   8.942   7.851   1.102 -0.1757 -1.0145  0.3218
 4611SOL     OW24511   3.390   8.143   0.398  0.0210 -0.1527  0.7512
 4611SOL    HW124512   3.427   8.236   0.395  0.0086 -0.1723  0.0581
 4611SOL    HW224513   3.411   8.095   0.313  0.6827 -1.0406  1.4090
 4612SOL     OW24514   1.129   0.121   5.335  0.0466  0.1310  0.0381
 4612SOL    HW124515   1.125   0.078   5.245  0.2735 -1.2576  0.6770
 4612SOL    HW224516   1.222   0.113   5.372  0.3592  2.0952 -0.2664
 4613SOL     OW24517   6.976   8.070   2.860  0.1977  0.4874 -0.1787
 4613SOL    HW124518   7.072   8.082   2.836  0.7780 -2.6467  0.3766
 4613SOL    HW224519   6.918   8.097   2.783  1.5669  1.2111 -0.9663
 4614SOL     OW24520   7.658   9.132   1.561 -0.1710 -0.3965 -0.1665
 4614SOL    HW124521   7.709   9.178   1.489  0.3466 -0.8217 -0.0674
 4614SOL    HW224522   7.659   9.188   1.644  0.0302 -0.3486 -0.2014
 4615SOL     OW24523   1.094   3.130   3.918  0.2351 -0.3593  0.5631
 4615SOL    HW124524   1.166   3.131   3.848  0.7057 -0.4867  1.0436
 4615SOL    HW224525   1.106   3.208   3.979 -0.0082 -0.4043  0.6677
 4616SOL     OW24526   0.818   7.457   5.250  0.2106  0.0017  0.4723
 4616SOL    HW124527   0.724   7.428   5.236  0.4524 -0.7409  0.3233
 4616SOL    HW224528   0.830   7.487   5.345  0.1442 -1.1777  0.8646
 4617SOL     OW24529   9.978   7.711   5.127 -0.1991  0.0960 -0.3054
 4617SOL    HW124530   9.928   7.795   5.105  1.3269  1.1831  0.2286
 4617SOL    HW224531   9.985   7.703   5.227  0.3862 -0.2264 -0.3735
 4618SOL     OW24532   1.803   5.786   2.170  0.7585 -0.0706  0.2729
 4618SOL    HW124533   1.847   5.875   2.179 -2.0034  1.4107 -0.3141
 4618SOL    HW224534   1.742   5.787   2.091 -0.9837 -1.7469  1.5457
 4619SOL     OW24535   1.974   0.088   3.315  0.4381 -0.5206  0.2114
 4619SOL    HW124536   1.891   0.102   3.370  0.9394  2.4168  0.3152
 4619SOL    HW224537   1.953   0.109   3.219  0.6115 -1.6532 -0.0874
 4620SOL     OW24538   4.249   2.029   1.700  0.1543 -0.1234 -0.0660
 4620SOL    HW124539   4.225   2.047   1.795  0.8371 -1.2857  0.3363
 4620SOL    HW224540   4.246   2.115   1.648  1.2018  0.7608  1.3072
 4621SOL     OW24541   2.837   2.778   2.587  0.2121  0.2216 -1.0025
 4621SOL    HW124542   2.798   2.714   2.521 -0.1355 -1.4629  0.8061
 4621SOL    HW224543   2.781   2.779   2.670  2.6406 -0.3973  0.6910
 4622SOL     OW24544   1.016   3.937   1.344  0.5456  0.7727 -0.5739
 4622SOL    HW124545   0.920   3.951   1.368  0.2865  1.9945 -2.2302
 4622SOL    HW224546   1.026   3.855   1.289  0.5052  0.4333 -0.0751
 4623SOL     OW24547   8.786   7.358   1.809 -0.0174  0.3589  0.1861
 4623SOL    HW124548   8.748   7.266   1.800 -1.1097  0.8550 -0.3506
 4623SOL    HW224549   8.739   7.406   1.884 -0.5620  1.0228 -0.5732
 4624SOL     OW24550   0.440   4.754   2.349 -0.2118 -0.3456  0.0387
 4624SOL    HW124551   0.383   4.725   2.425  1.2252 -0.9468  0.9139
 4624SOL    HW224552   0.466   4.675   2.294  1.5161 -0.3906  0.8825
 4625SOL     OW24553   8.300   8.513   2.078 -0.1373 -0.0789 -0.6605
 4625SOL    HW124554   8.220   8.570   2.097  0.1598 -0.3810  1.6345
 4625SOL    HW224555   8.383   8.563   2.102  0.1759 -0.9984  0.2412
 4626SOL     OW24556   1.551   9.647   3.161  0.4262 -0.2472  0.7671
 4626SOL    HW124557   1.645   9.618   3.172  0.4673  0.4106  2.3491
 4626SOL    HW224558   1.506   9.651   3.251 -1.2429 -1.0008 -0.0025
 4627SOL     OW24559   2.607   5.277   3.678 -0.1063 -0.8173  0.6808
 4627SOL    HW124560   2.590   5.194   3.624 -0.3360  0.0249 -0.5759
 4627SOL    HW224561   2.553   5.352   3.640  1.7320  0.4129  0.4609
 4628SOL     OW24562   1.201   8.007   5.517  0.4252  0.8543  0.2545
 4628SOL    HW124563   1.143   7.927   5.531  0.6802  0.6925  0.3906
 4628SOL    HW224564   1.203   8.030   5.419  2.0978 -0.6215 -0.0729
 4629SOL     OW24565   1.174   8.800   4.554  0.1021  0.0312  0.2574
 4629SOL    HW124566   1.195   8.776   4.649 -2.4097 -2.0200  0.3268
 4629SOL    HW224567   1.092   8.857   4.551  1.1220  1.4831 -0.5833
 4630SOL     OW24568   7.573   9.294   4.698 -0.1731  0.1949 -0.1768
 4630SOL    HW124569   7.495   9.241   4.730 -0.6986  0.1991 -1.4340
 4630SOL    HW224570   7.657   9.254   4.733 -0.5047 -2.0423 -1.8485
 4631SOL     OW24571   3.126   2.773   2.684  0.1584  0.7883 -0.1776
 4631SOL    HW124572   3.140   2.689   2.736  1.4470  0.8116 -0.4778
 4631SOL    HW224573   3.035   2.771   2.642 -0.2921  0.0871  0.8013
 4632SOL     OW24574   8.299   9.487   2.020 -0.0172  0.3343 -0.3123
 4632SOL    HW124575   8.381   9.540   2.038 -0.1606  0.6610 -0.6126
 4632SOL    HW224576   8.323   9.390   2.012  0.1029  0.2259  1.2165
 4633SOL     OW24577   5.642   6.844   2.780 -0.3328  0.1772  0.4481
 4633SOL    HW124578   5.658   6.752   2.818 -0.7607 -0.7316 -1.4861
 4633SOL    HW224579   5.551   6.875   2.807 -0.9988 -0.8487 -0.5520
 4634SOL     OW24580   2.975   8.185   2.811 -0.2605  0.2312 -0.3945
 4634SOL    HW124581   2.930   8.111   2.762  1.6221 -1.9982  1.1495
 4634SOL    HW224582   2.918   8.214   2.888 -0.1205 -0.9980  0.1790
 4635SOL     OW24583   4.356   1.142   1.346  0.2543  0.1305  0.1069
 4635SOL    HW124584   4.320   1.049   1.336 -0.1817  0.4454 -1.2226
 4635SOL    HW224585   4.441   1.151   1.294  0.0189  0.6341 -0.1942
 4636SOL     OW24586   0.197   9.807   4.662 -0.3077  0.1276  0.0029
 4636SOL    HW124587   0.103   9.782   4.687  0.4900 -0.8497  2.1262
 4636SOL    HW224588   0.259   9.786   4.738  1.5530  1.3538 -1.1277
 4637SOL     OW24589   4.503   1.908   1.412 -0.6125  0.3551 -0.2860
 4637SOL    HW124590   4.542   1.920   1.504 -0.0280  0.7538 -0.5802
 4637SOL    HW224591   4.451   1.990   1.388 -0.9103  0.1782 -0.2417
 4638SOL     OW24592   6.393   8.313   3.791  0.2682 -0.0572  0.0502
 4638SOL    HW124593   6.399   8.303   3.891  1.4062  1.1991  0.1188
 4638SOL    HW224594   6.424   8.228   3.748  2.4859  0.3836  0.7297
 4639SOL     OW24595   2.050   7.856   1.670  0.4086  0.3359  0.0630
 4639SOL    HW124596   2.032   7.917   1.593  1.3308 -0.5422 -0.8745
 4639SOL    HW224597   1.964   7.824   1.709 -0.0660 -0.1967 -1.4103
 4640SOL     OW24598   9.913   4.329   2.410  0.1259  0.1609  0.1829
 4640SOL    HW124599   9.823   4.369   2.389  0.2621  1.4677  2.0304
 4640SOL    HW224600   9.920   4.239   2.366 -1.8669  0.2850 -0.4470
 4641SOL     OW24601   3.077   9.868   1.976  0.0880  0.8924  0.3873
 4641SOL    HW124602   3.083   9.786   2.031 -0.6408 -1.5031 -2.9491
 4641SOL    HW224603   2.982   9.884   1.949  0.9449 -0.6361 -3.8873
 4642SOL     OW24604   0.089   8.200   0.212  0.2182  0.1378  0.2998
 4642SOL    HW124605   0.152   8.272   0.183  0.5352 -0.8590 -1.5595
 4642SOL    HW224606   0.030   8.235   0.285  4.0008  0.5773  3.2945
 4643SOL     OW24607   6.575   1.650   3.856 -0.9062  0.4593 -0.2350
 4643SOL    HW124608   6.501   1.716   3.871  0.0394  1.3861  0.4004
 4643SOL    HW224609   6.663   1.697   3.860 -0.1848 -0.9704  1.0970
 4644SOL     OW24610   2.745   4.474   1.241  0.3505  0.1381 -0.1091
 4644SOL    HW124611   2.671   4.509   1.184 -0.0612 -1.5682 -0.6470
 4644SOL    HW224612   2.713   4.465   1.336 -0.1288 -0.5269 -0.3256
 4645SOL     OW24613   3.069   9.364   2.341 -0.2096 -0.4659 -0.3270
 4645SOL    HW124614   3.105   9.342   2.431  0.7664  0.7701 -0.3870
 4645SOL    HW224615   3.139   9.345   2.271  0.6061  2.4640 -0.3925
 4646SOL     OW24616   9.744   2.923   2.374 -0.0539  0.0108 -0.3693
 4646SOL    HW124617   9.741   2.824   2.367  1.1696  0.0535 -1.6723
 4646SOL    HW224618   9.737   2.964   2.282  0.7791  1.0784  0.0252
 4647SOL     OW24619   1.743   7.141   3.755 -0.1373 -0.4189 -0.1114
 4647SOL    HW124620   1.745   7.041   3.762 -0.4409 -0.4341 -0.2464
 4647SOL    HW224621   1.649   7.173   3.759  0.0427 -0.0389  1.3620
 4648SOL     OW24622   5.419   8.503   3.881 -0.0328 -0.2973 -0.5132
 4648SOL    HW124623   5.350   8.530   3.813 -0.8786  0.0945  0.4806
 4648SOL    HW224624   5.414   8.565   3.959  0.6376 -1.0130  0.0993
 4649SOL     OW24625   0.899   8.134   3.224 -0.1393 -0.6519  0.4521
 4649SOL    HW124626   0.939   8.066   3.162  0.9417  0.5601 -0.1921
 4649SOL    HW224627   0.970   8.172   3.282 -1.0383 -1.2938  2.0056
 4650SOL     OW24628   2.152   2.172   1.365  0.0268 -0.8151 -0.0706
 4650SOL    HW124629   2.127   2.085   1.322 -1.4118 -1.7001  2.4516
 4650SOL    HW224630   2.069   2.224   1.387  0.7573 -0.0357  0.8909
 4651SOL     OW24631   0.734   1.711   5.360 -0.1331  0.1773 -0.2783
 4651SOL    HW124632   0.720   1.729   5.458  1.4965 -0.6216  0.1294
 4651SOL    HW224633   0.749   1.614   5.346  0.7323  0.4339 -1.1887
 4652SOL     OW24634   2.678   2.956   3.568  0.3209 -0.1763  0.3742
 4652SOL    HW124635   2.756   2.962   3.505 -1.0404 -0.3572 -1.3586
 4652SOL    HW224636   2.670   2.862   3.602  1.1488 -0.0430  0.9819
 4653SOL     OW24637   2.635   2.559   0.160 -0.1915  0.1419 -0.6724
 4653SOL    HW124638   2.539   2.584   0.175 -0.1482  0.5562 -1.0470
 4653SOL    HW224639   2.692   2.603   0.229 -0.0340  1.7132 -1.7755
 4654SOL     OW24640   8.978   9.724   2.958 -0.0550 -0.4475 -0.1234
 4654SOL    HW124641   9.046   9.659   2.993 -0.8956 -1.2844 -0.0395
 4654SOL    HW224642   9.017   9.816   2.959  1.2811 -0.9956 -0.5934
 4655SOL     OW24643   7.485   0.404   3.893 -0.3895 -0.3226  0.5336
 4655SOL    HW124644   7.460   0.307   3.896  1.3174 -0.8190 -0.8420
 4655SOL    HW224645   7.562   0.420   3.954 -1.1983  0.3455  1.3918
 4656SOL     OW24646   7.607   7.714   2.863 -0.2469  0.0274  0.0515
 4656SOL    HW124647   7.573   7.676   2.777 -1.3140 -0.2823  0.5945
 4656SOL    HW224648   7.541   7.780   2.899  0.8341  1.1860 -0.0511
 4657SOL     OW24649   9.673   1.609   2.871 -0.0401  0.4261  0.0043
 4657SOL    HW124650   9.763   1.625   2.831 -0.2630 -1.2602 -1.2324
 4657SOL    HW224651   9.662   1.666   2.952  2.3421  0.2536  0.4796
 4658SOL     OW24652   8.659   0.022   4.353  0.2239 -0.2583  0.1292
 4658SOL    HW124653   8.649  -0.018   4.262  0.1451  0.8605 -0.3658
 4658SOL    HW224654   8.600  -0.025   4.417  2.3886 -2.9662  0.2287
 4659SOL     OW24655   7.780   9.686   2.431 -0.1787  0.0199  0.0380
 4659SOL    HW124656   7.749   9.747   2.504 -3.0966  0.2173 -1.3164
 4659SOL    HW224657   7.848   9.622   2.468 -0.3132  1.2388  2.4905
 4660SOL     OW24658   8.950   1.117   2.429  0.0809  0.1986  0.0724
 4660SOL    HW124659   9.008   1.037   2.438 -1.8080 -1.5997 -3.0122
 4660SOL    HW224660   8.969   1.163   2.343 -1.9331  0.4767 -0.2552
 4661SOL     OW24661   8.846   3.193   1.690  0.8723 -0.1809 -0.3517
 4661SOL    HW124662   8.928   3.143   1.716  0.7356 -0.7032 -0.9042
 4661SOL    HW224663   8.792   3.137   1.626 -0.5517 -0.3789  0.9994
 4662SOL     OW24664   2.698   6.918   3.046 -0.4112  0.1308 -0.0096
 4662SOL    HW124665   2.733   6.974   2.971 -0.7257  2.0234  1.2392
 4662SOL    HW224666   2.642   6.844   3.009  0.8674 -0.0034 -1.7288
 4663SOL     OW24667   0.097   4.128   3.112 -0.6857  0.3161  0.6784
 4663SOL    HW124668   0.048   4.213   3.095  0.0888  0.7852  0.7597
 4663SOL    HW224669   0.161   4.140   3.187 -0.3132 -0.2338  0.4552
 4664SOL     OW24670   7.912   8.282   3.374 -0.1309 -0.3143  0.0693
 4664SOL    HW124671   7.913   8.237   3.285 -1.1884  1.6787 -0.9905
 4664SOL    HW224672   7.846   8.237   3.434  0.8696 -1.9105 -0.0152
 4665SOL     OW24673   1.631   4.294   1.200  0.8051 -0.5647  0.2145
 4665SOL    HW124674   1.713   4.243   1.223 -0.2893 -2.0224  0.9627
 4665SOL    HW224675   1.562   4.281   1.271 -1.0921 -1.6760 -1.7517
 4666SOL     OW24676   4.773   7.465   2.500 -0.4111  0.3961  0.1168
 4666SOL    HW124677   4.846   7.453   2.433 -0.0978  0.4162  0.4545
 4666SOL    HW224678   4.754   7.562   2.512  0.5087  0.4653  1.1037
 4667SOL     OW24679   1.104   9.572   2.595  0.4304  0.4344 -0.2232
 4667SOL    HW124680   1.122   9.487   2.644 -1.3723  0.7663  1.0761
 4667SOL    HW224681   1.086   9.552   2.498  0.1479 -0.6546  0.0509
 4668SOL     OW24682   0.613   8.442   0.532 -0.2480  0.3053  0.0100
 4668SOL    HW124683   0.671   8.401   0.462  0.4287  0.7645  0.2940
 4668SOL    HW224684   0.650   8.531   0.557 -1.5829  1.0033 -0.4489
 4669SOL     OW24685   2.186   6.628   0.596  0.1335 -0.2494  0.3928
 4669SOL    HW124686   2.201   6.541   0.644  1.1567  0.3298  1.1379
 4669SOL    HW224687   2.096   6.664   0.620 -0.8709 -1.7705 -0.9844
 4670SOL     OW24688   7.565   9.246   2.072  0.1794 -0.2588 -0.2302
 4670SOL    HW124689   7.661   9.219   2.064 -0.0610 -1.6852  1.4032
 4670SOL    HW224690   7.558   9.346   2.073  1.7108 -0.1478  0.3619
 4671SOL     OW24691   8.041   0.091   5.485 -0.3456 -0.1733  0.0084
 4671SOL    HW124692   7.989   0.160   5.434 -0.8428 -0.2049  0.4704
 4671SOL    HW224693   7.980   0.044   5.549  0.6642  1.2015  2.0323
 4672SOL     OW24694   4.376   4.242   0.378  0.3022 -0.6884  0.1664
 4672SOL    HW124695   4.475   4.253   0.383  0.3492 -1.4065  0.9001
 4672SOL    HW224696   4.338   4.310   0.315  1.1021  0.4851  0.9242
 4673SOL     OW24697   4.018   3.732   2.910 -0.6948 -0.1281  0.4648
 4673SOL    HW124698   3.958   3.795   2.961 -1.3557  0.3124 -0.8486
 4673SOL    HW224699   3.966   3.651   2.883 -0.3225 -0.3925  0.5322
 4674SOL     OW24700   4.428   0.096   0.783  0.4119  0.1837 -0.2149
 4674SOL    HW124701   4.473   0.164   0.725 -0.3399  1.0533  0.2207
 4674SOL    HW224702   4.332   0.122   0.797  0.7080  0.2160  1.7929
 4675SOL     OW24703   1.865   0.612   5.393  0.0738 -0.3274 -0.1974
 4675SOL    HW124704   1.767   0.600   5.379 -0.2599  1.0611  0.9599
 4675SOL    HW224705   1.882   0.655   5.481  1.6634  0.8086 -1.0369
 4676SOL     OW24706   4.516   0.305   0.988 -0.4361  0.1559 -0.2794
 4676SOL    HW124707   4.491   0.226   0.933 -0.6547  0.0313 -0.0016
 4676SOL    HW224708   4.609   0.294   1.023 -0.5223 -0.0464 -0.1168
 4677SOL     OW24709   7.831   9.045   5.549 -0.2179 -0.0250 -0.7623
 4677SOL    HW124710   7.879   9.031   5.635 -1.1237  0.1216 -0.2334
 4677SOL    HW224711   7.856   9.135   5.512 -0.3370  0.1885 -0.3265
 4678SOL     OW24712   1.265   4.826   0.948 -0.3908 -0.0792  0.4418
 4678SOL    HW124713   1.338   4.894   0.941 -0.8468  0.4291  0.5806
 4678SOL    HW224714   1.176   4.871   0.938 -0.6471 -0.8753 -1.0054
 4679SOL     OW24715   3.627   3.003   5.248 -0.1600  0.0976  0.5198
 4679SOL    HW124716   3.557   3.062   5.208 -0.3376  1.7952  3.2256
 4679SOL    HW224717   3.587   2.914   5.271 -1.2931  0.8433  1.4690
 4680SOL     OW24718   3.772   2.088   2.295 -0.7164 -0.0094  0.5169
 4680SOL    HW124719   3.871   2.087   2.281 -0.7468 -0.0669  0.2950
 4680SOL    HW224720   3.737   1.995   2.291 -0.8019  0.0270  0.4259
 4681SOL     OW24721   6.221   8.566   2.372  0.0889  0.6109 -1.2930
 4681SOL    HW124722   6.179   8.555   2.462  2.0351  1.8685 -0.2179
 4681SOL    HW224723   6.247   8.476   2.337 -2.5208 -0.1074 -1.5520
 4682SOL     OW24724   0.718   7.424   2.956  0.6170 -0.1476 -0.1972
 4682SOL    HW124725   0.757   7.341   2.916  2.5944  0.8117 -0.3002
 4682SOL    HW224726   0.751   7.504   2.906  0.3761  0.8488  1.2201
 4683SOL     OW24727   4.297   8.710   5.618 -0.6345 -0.4063  0.1370
 4683SOL    HW124728   4.380   8.662   5.589 -0.1616 -0.4983  1.5767
 4683SOL    HW224729   4.224   8.643   5.633 -0.9314 -0.3404 -0.9820
 4684SOL     OW24730   8.254   9.881   1.694  0.1034 -0.0437 -0.0665
 4684SOL    HW124731   8.187   9.934   1.641 -0.1553  0.2485  0.5446
 4684SOL    HW224732   8.211   9.797   1.727  0.0821  0.0752  0.2070
 4685SOL     OW24733   7.674   1.547   1.767  1.0288  0.2725 -0.3369
 4685SOL    HW124734   7.596   1.573   1.711 -0.0870  3.3873  2.4674
 4685SOL    HW224735   7.644   1.482   1.837  1.9776 -2.0468 -2.0381
 4686SOL     OW24736   2.928   1.084   1.012 -0.4638 -0.3701 -0.6696
 4686SOL    HW124737   2.927   1.067   1.110  2.6181  0.6543 -0.3932
 4686SOL    HW224738   2.918   0.998   0.963 -1.5770 -0.9348  0.5216
 4687SOL     OW24739   0.018   1.763   1.310 -0.0704  0.5714  0.0422
 4687SOL    HW124740  -0.042   1.693   1.349 -1.1808  0.1253 -2.3362
 4687SOL    HW224741  -0.031   1.850   1.304  1.0170  1.3566  2.1744
 4688SOL     OW24742   7.682   2.529   1.527  0.5961  0.2730  0.0898
 4688SOL    HW124743   7.767   2.530   1.580 -0.3855  0.4450  1.7008
 4688SOL    HW224744   7.641   2.620   1.528  0.6247  0.3106 -1.0912
 4689SOL     OW24745   6.246   0.962   3.365  0.3405  0.0104 -0.2368
 4689SOL    HW124746   6.314   0.907   3.317 -0.1628 -0.5186 -0.3461
 4689SOL    HW224747   6.284   0.993   3.453  0.6739 -0.3847 -0.2410
 4690SOL     OW24748   0.852   9.240   2.129 -0.2366 -0.1574 -0.1552
 4690SOL    HW124749   0.798   9.317   2.163 -0.8408 -0.5188 -0.3034
 4690SOL    HW224750   0.939   9.274   2.093  0.1411  0.3008  1.1734
 4691SOL     OW24751   2.480   2.175   4.540  0.3470 -0.2189  1.0101
 4691SOL    HW124752   2.531   2.093   4.515 -0.4800 -0.4298 -0.0003
 4691SOL    HW224753   2.396   2.150   4.587 -1.3487 -0.1064 -1.8465
 4692SOL     OW24754   0.838   0.499   2.325  0.3343  0.5347  0.1632
 4692SOL    HW124755   0.867   0.526   2.233 -0.8742 -0.6731 -0.5978
 4692SOL    HW224756   0.919   0.473   2.379  0.9699  0.3684 -0.8508
 4693SOL     OW24757   0.958   9.678   0.840 -0.3959 -0.5187 -0.1478
 4693SOL    HW124758   1.048   9.715   0.864 -1.2481  0.9075  0.9346
 4693SOL    HW224759   0.963   9.578   0.836  1.2534 -0.4523 -0.2175
 4694SOL     OW24760   4.063   3.744   4.009 -0.3088  0.0280  0.6413
 4694SOL    HW124761   4.095   3.809   4.079  3.6813 -2.0168  0.8910
 4694SOL    HW224762   4.127   3.745   3.932 -2.4561 -0.6755 -1.2004
 4695SOL     OW24763   8.154   8.639   0.511  0.0035  0.5788  0.5669
 4695SOL    HW124764   8.211   8.564   0.478 -0.0648  0.8647 -0.2330
 4695SOL    HW224765   8.162   8.647   0.610 -0.0440 -0.5198  0.6578
 4696SOL     OW24766   8.777   9.935   4.786 -0.0569  0.0278 -0.0524
 4696SOL    HW124767   8.861   9.985   4.766  1.1097 -2.0952 -0.6030
 4696SOL    HW224768   8.791   9.838   4.766 -2.1305 -0.5887  1.4033
 4697SOL     OW24769   5.851   1.325   2.405 -0.1296 -0.3356  0.4490
 4697SOL    HW124770   5.872   1.228   2.393  1.5965  0.0980 -0.2542
 4697SOL    HW224771   5.932   1.372   2.441 -0.4550  1.1193 -0.6837
 4698SOL     OW24772   0.128   9.217   4.686 -0.3746 -0.6030 -0.4954
 4698SOL    HW124773   0.152   9.291   4.623  2.5101 -0.6551  0.4827
 4698SOL    HW224774   0.028   9.212   4.694 -0.6786  3.7158  0.0226
 4699SOL     OW24775   9.768   4.330   1.699 -0.3463 -0.1721 -0.2444
 4699SOL    HW124776   9.806   4.271   1.771  0.8858 -0.3060 -0.9859
 4699SOL    HW224777   9.794   4.295   1.609 -2.1108 -0.1569 -0.7806
 4700SOL     OW24778   7.454   9.837   2.714  0.1985 -0.2077 -0.3026
 4700SOL    HW124779   7.527   9.904   2.721  1.1526 -1.3356  0.7282
 4700SOL    HW224780   7.399   9.838   2.798 -1.8024  1.5439 -1.5719
 4701SOL     OW24781   4.532   4.817   0.345  0.0163  0.6403 -0.0246
 4701SOL    HW124782   4.551   4.728   0.303 -1.6820  0.3387 -0.1624
 4701SOL    HW224783   4.484   4.875   0.279 -1.8150  0.5004  1.1558
 4702SOL     OW24784   4.993   3.496   0.790 -0.3038 -0.0299 -0.0774
 4702SOL    HW124785   4.989   3.592   0.819  0.3250  0.4277 -1.4594
 4702SOL    HW224786   4.906   3.470   0.749 -0.6422 -0.2070  0.7341
 4703SOL     OW24787   4.694   3.519   2.881 -0.0832  0.5327  0.6838
 4703SOL    HW124788   4.704   3.439   2.940 -0.7848  0.5742  0.8625
 4703SOL    HW224789   4.600   3.553   2.886 -0.0406  0.7856 -0.1382
 4704SOL     OW24790   2.264   0.680   4.755 -0.9308  0.2070 -0.0051
 4704SOL    HW124791   2.352   0.681   4.804 -1.0975  2.0743  0.3016
 4704SOL    HW224792   2.203   0.614   4.799 -0.1809 -0.0210  0.7194
 4705SOL     OW24793   0.803   2.738   1.627  0.3724  0.0128  0.7014
 4705SOL    HW124794   0.852   2.784   1.553 -1.0354  2.3587  1.1957
 4705SOL    HW224795   0.708   2.723   1.599 -0.5297  2.1630  2.5428
 4706SOL     OW24796   3.044   1.725   4.380 -0.4596  0.1591 -0.4721
 4706SOL    HW124797   3.115   1.671   4.334 -0.2641 -2.1497  2.3944
 4706SOL    HW224798   2.954   1.699   4.345 -0.0931  1.3504 -2.3827
 4707SOL     OW24799   9.549   1.480   2.367  0.0264 -0.3178 -0.3633
 4707SOL    HW124800   9.613   1.530   2.308  0.8661  0.3408  1.0770
 4707SOL    HW224801   9.457   1.517   2.355  0.5577  1.2877  0.3467
 4708SOL     OW24802   1.069   7.561   0.158 -0.1200 -0.1373 -0.0597
 4708SOL    HW124803   1.134   7.636   0.153 -0.4745  0.3124  1.7344
 4708SOL    HW224804   1.110   7.484   0.206  0.0457 -0.8949 -1.3912
 4709SOL     OW24805   3.051   6.918   5.585  0.4002 -0.0007  0.0907
 4709SOL    HW124806   2.981   6.945   5.520 -0.5334 -1.2272  0.5701
 4709SOL    HW224807   3.091   7.000   5.627  0.3749  0.7538 -1.3417
 4710SOL     OW24808   3.776   8.819   2.281 -0.3301  0.6475  0.3791
 4710SOL    HW124809   3.790   8.778   2.191  0.5380  0.5292  0.5575
 4710SOL    HW224810   3.691   8.786   2.320 -0.3276  0.0961 -0.0747
 4711SOL     OW24811   7.395   8.245   3.593  0.6317  0.0118 -0.4165
 4711SOL    HW124812   7.441   8.185   3.658  1.2766  0.4730 -0.4447
 4711SOL    HW224813   7.296   8.238   3.605  0.6722 -1.6947 -0.9911
 4712SOL     OW24814   4.102   9.018   0.651 -0.3484 -0.1168  0.3791
 4712SOL    HW124815   4.200   9.018   0.671 -0.1810  2.0512 -0.2405
 4712SOL    HW224816   4.050   9.040   0.734 -0.2478 -0.4508  0.5282
 4713SOL     OW24817   3.705   4.838   1.298  0.7499  0.1228 -0.3455
 4713SOL    HW124818   3.778   4.801   1.239  1.3362 -0.0559  0.4826
 4713SOL    HW224819   3.744   4.863   1.387  0.4069  2.9205 -0.9451
 4714SOL     OW24820   2.425   3.663   0.960 -0.0243 -0.0196 -0.3119
 4714SOL    HW124821   2.462   3.618   1.041 -1.1779  0.1301  0.3022
 4714SOL    HW224822   2.457   3.616   0.878 -1.8282 -2.4670  0.3423
 4715SOL     OW24823   7.995   2.181   2.554  0.7702  0.4070 -0.1982
 4715SOL    HW124824   8.002   2.276   2.584 -0.8895  0.3669  0.4117
 4715SOL    HW224825   7.966   2.178   2.458 -1.2405  0.5363  0.3799
 4716SOL     OW24826   3.199   1.792   2.487  0.2785 -0.0370  0.1667
 4716SOL    HW124827   3.128   1.722   2.485  1.3844 -1.2129  0.7781
 4716SOL    HW224828   3.241   1.793   2.578  0.2902  1.4065  0.1439
 4717SOL     OW24829   5.320   9.115   3.460  0.5641  0.1262 -0.6374
 4717SOL    HW124830   5.317   9.020   3.489  1.2816 -0.0991 -1.2956
 4717SOL    HW224831   5.264   9.127   3.378 -2.5499  1.0244  1.4860
 4718SOL     OW24832   9.305   2.141   0.029 -0.3863  0.6010  0.4351
 4718SOL    HW124833   9.252   2.181   0.104 -1.8734 -3.1166  1.4822
 4718SOL    HW224834   9.397   2.121   0.060 -0.4934  0.5958  0.7452
 4719SOL     OW24835   0.884   6.260   3.084  0.3069 -0.4820 -1.0948
 4719SOL    HW124836   0.846   6.215   3.165  1.1340  0.1272 -0.3474
 4719SOL    HW224837   0.925   6.192   3.023 -2.2817 -1.1754 -2.0899
 4720SOL     OW24838   8.293   7.385   3.630  0.2462 -0.0453  0.1916
 4720SOL    HW124839   8.390   7.402   3.650  0.0957 -1.0471  1.9018
 4720SOL    HW224840   8.239   7.401   3.712 -1.0973  0.8423 -0.8492
 4721SOL     OW24841   4.790   8.120   2.525  0.0184  0.1130 -0.3166
 4721SOL    HW124842   4.725   8.064   2.577  2.0387 -1.5685  0.4846
 4721SOL    HW224843   4.817   8.198   2.579 -0.0502 -0.0933  0.0175
 4722SOL     OW24844   4.691   0.282   3.753 -0.0017  0.3865  0.4322
 4722SOL    HW124845   4.761   0.334   3.703  0.5628  1.3493  2.1832
 4722SOL    HW224846   4.712   0.184   3.748  0.5438  0.5416 -0.4375
 4723SOL     OW24847   0.268   9.244   2.691 -0.4521 -0.0692 -0.4866
 4723SOL    HW124848   0.245   9.317   2.626  1.9881  1.4488  0.3036
 4723SOL    HW224849   0.332   9.279   2.759 -0.0476 -2.7007  0.5309
 4724SOL     OW24850   0.087   9.361   5.121 -0.1379 -0.3287  0.6708
 4724SOL    HW124851   0.132   9.293   5.063 -0.7900  0.4219 -0.7438
 4724SOL    HW224852   0.084   9.327   5.215 -0.7547 -2.4213 -0.0607
 4725SOL     OW24853   2.466   3.644   4.780  0.0051  0.0561 -0.5547
 4725SOL    HW124854   2.494   3.706   4.707  0.5301  1.0704  0.4866
 4725SOL    HW224855   2.525   3.563   4.780 -0.3073 -0.1776 -1.5478
 4726SOL     OW24856   6.186   0.511   0.987  0.1520 -0.4938  0.0401
 4726SOL    HW124857   6.127   0.515   1.068 -2.0026  1.7901 -1.5791
 4726SOL    HW224858   6.150   0.442   0.923 -0.4234  0.4703 -0.6836
 4727SOL     OW24859   6.444   9.781   3.439  0.3529 -0.2112  0.1718
 4727SOL    HW124860   6.425   9.722   3.518  0.0468  0.5858  0.6969
 4727SOL    HW224861   6.430   9.729   3.355 -1.5520 -0.4096  0.5937
 4728SOL     OW24862   8.541   1.113   3.274 -1.1579  0.7906  0.4960
 4728SOL    HW124863   8.560   1.188   3.338  2.6765 -0.7186  1.2476
 4728SOL    HW224864   8.549   1.025   3.322 -0.1044 -0.3037 -1.6026
 4729SOL     OW24865   2.481   2.350   3.142  0.2067 -0.2449  0.1832
 4729SOL    HW124866   2.397   2.353   3.087 -1.2564  0.6488  2.4331
 4729SOL    HW224867   2.510   2.254   3.152 -0.4520 -0.5486 -0.7217
 4730SOL     OW24868   5.745   8.669   1.217 -0.7758  0.4669 -0.0996
 4730SOL    HW124869   5.693   8.684   1.133 -0.4433  1.0188 -0.2112
 4730SOL    HW224870   5.838   8.640   1.193 -0.5028  1.1881  0.0596
 4731SOL     OW24871   2.959   2.095   0.281 -0.3977 -0.1368 -0.3654
 4731SOL    HW124872   2.932   2.176   0.333  0.1933 -0.2864  0.1692
 4731SOL    HW224873   2.961   2.015   0.341  2.5195  0.1019 -0.0818
 4732SOL     OW24874   0.234   9.646   1.994  0.0505 -0.6216  0.7042
 4732SOL    HW124875   0.146   9.689   1.974 -0.6928 -1.8557  1.2170
 4732SOL    HW224876   0.285   9.633   1.909 -0.4433 -0.2705  0.3515
 4733SOL     OW24877   1.945   2.185   1.966  0.1344 -0.2555 -0.2567
 4733SOL    HW124878   1.958   2.257   1.897  0.6512 -0.0217  0.0866
 4733SOL    HW224879   1.994   2.209   2.049 -0.8743 -0.3097  0.3659
 4734SOL     OW24880   9.303   8.253   4.312  0.9371 -0.6128 -0.5334
 4734SOL    HW124881   9.403   8.261   4.311  0.9618 -0.6140  0.5842
 4734SOL    HW224882   9.266   8.313   4.383 -0.0144  0.9168 -2.2763
 4735SOL     OW24883   7.629   8.685   1.408 -0.6273  0.1945 -0.0840
 4735SOL    HW124884   7.564   8.674   1.333 -0.0614  0.7448 -0.6561
 4735SOL    HW224885   7.593   8.639   1.490 -1.1139 -0.6516 -0.7572
 4736SOL     OW24886   3.240   4.141   3.584  0.2402 -0.2825  0.3387
 4736SOL    HW124887   3.247   4.232   3.625  0.9877  0.3374 -1.1431
 4736SOL    HW224888   3.288   4.139   3.497 -0.1942 -1.9668  0.1079
 4737SOL     OW24889   8.762   1.761   0.073 -0.1531  0.3301 -0.1064
 4737SOL    HW124890   8.754   1.844   0.018  0.1668  0.8861  0.6712
 4737SOL    HW224891   8.814   1.781   0.156  0.0546 -0.6861  0.0163
 4738SOL     OW24892   1.667   7.423   4.002 -0.4461  0.4063 -0.0462
 4738SOL    HW124893   1.766   7.429   4.012  0.0041 -1.1892 -2.9445
 4738SOL    HW224894   1.633   7.339   4.046 -0.4719  0.7677  0.6269
 4739SOL     OW24895   9.780   2.745   2.888 -0.3763 -0.5453 -0.3575
 4739SOL    HW124896   9.808   2.836   2.920 -0.0126 -0.2539 -1.4782
 4739SOL    HW224897   9.847   2.677   2.918  0.1096 -0.2353 -0.7145
 4740SOL     OW24898   4.340   2.829   5.355 -0.2058 -0.2259  0.0737
 4740SOL    HW124899   4.408   2.899   5.332  0.0993 -0.7153 -0.5203
 4740SOL    HW224900   4.368   2.783   5.440 -2.2186  2.7487  2.4619
 4741SOL     OW24901   3.802   3.015   2.003  0.0887 -0.1722 -0.0919
 4741SOL    HW124902   3.896   3.048   2.013 -0.1311  1.6613 -3.5180
 4741SOL    HW224903   3.739   3.088   2.030 -0.3689 -0.4670 -0.3764
 4742SOL     OW24904   5.099   6.560   2.362 -0.1901 -0.1584  0.2134
 4742SOL    HW124905   5.046   6.478   2.339 -0.2256  0.0088 -0.2974
 4742SOL    HW224906   5.039   6.630   2.398 -0.2304 -0.1769  0.1815
 4743SOL     OW24907   4.360   2.749   4.304 -0.5270 -0.0433 -0.2940
 4743SOL    HW124908   4.380   2.773   4.210 -1.1090 -0.1651 -0.4541
 4743SOL    HW224909   4.352   2.832   4.359 -0.4000  0.0373 -0.3985
 4744SOL     OW24910   9.632   6.882   2.315  0.1145 -0.7857  0.2919
 4744SOL    HW124911   9.719   6.922   2.286 -0.4462 -0.8489 -1.5025
 4744SOL    HW224912   9.618   6.794   2.269 -1.9040  0.2464 -1.1113
 4745SOL     OW24913   1.687   1.776   5.398 -0.1727 -0.4299  0.2631
 4745SOL    HW124914   1.710   1.691   5.444 -0.7901 -0.7920 -0.1036
 4745SOL    HW224915   1.628   1.758   5.320  1.3528  0.1057 -1.0643
 4746SOL     OW24916   8.470   1.184   0.710 -0.0374 -0.3026  0.0164
 4746SOL    HW124917   8.510   1.188   0.802  3.6412 -1.4873 -1.4332
 4746SOL    HW224918   8.451   1.089   0.685 -0.1473 -0.0720 -0.7951
 4747SOL     OW24919   2.753   8.012   4.346 -0.2999 -0.5285  0.5569
 4747SOL    HW124920   2.811   8.082   4.305  1.4520 -2.3757 -0.1884
 4747SOL    HW224921   2.684   8.056   4.404 -1.1714  1.9736 -2.2480
 4748SOL     OW24922   3.681   7.972   1.112  0.1279  0.6209 -0.3057
 4748SOL    HW124923   3.739   8.052   1.100  1.2509 -0.0932  0.1998
 4748SOL    HW224924   3.585   8.001   1.120  0.7298  2.1177  2.0954
 4749SOL     OW24925   9.962   7.945   0.987  0.1542  0.0122  0.0996
 4749SOL    HW124926   9.961   8.004   1.067  0.5272  0.4371 -0.2073
 4749SOL    HW224927  10.056   7.931   0.956 -0.0220  0.3041 -0.5944
 4750SOL     OW24928   9.047   4.566   2.838  0.7772  0.9133 -0.2360
 4750SOL    HW124929   8.986   4.645   2.830  0.7679  1.0901  1.4304
 4750SOL    HW224930   9.137   4.596   2.869  2.0098  0.7586 -3.4202
 4751SOL     OW24931   2.244   6.146   0.845  0.6189  0.1246 -0.0435
 4751SOL    HW124932   2.194   6.060   0.854 -2.7025  1.9911  0.1388
 4751SOL    HW224933   2.268   6.160   0.749  0.6588 -0.7062 -0.1590
 4752SOL     OW24934   1.391   0.039   0.247  0.0452 -0.5781  0.3396
 4752SOL    HW124935   1.385   0.045   0.147  0.0035 -0.4206  0.3502
 4752SOL    HW224936   1.370  -0.054   0.277  0.3565 -0.7011  0.1794
 4753SOL     OW24937   4.965   8.992   5.347  0.4286  0.6149 -0.0436
 4753SOL    HW124938   4.980   9.089   5.364  2.5907  0.5667 -1.4733
 4753SOL    HW224939   4.935   8.947   5.432  0.9466  2.2254  1.0090
 4754SOL     OW24940   6.421   8.339   4.111 -0.3478 -0.2722  0.5768
 4754SOL    HW124941   6.430   8.437   4.128  0.5038 -0.2701  0.1284
 4754SOL    HW224942   6.505   8.293   4.137  0.8752 -0.3228 -3.1873
 4755SOL     OW24943   0.490   0.797   0.823 -0.1963  0.0705  0.4412
 4755SOL    HW124944   0.429   0.861   0.775  0.1304 -2.6633 -3.8166
 4755SOL    HW224945   0.585   0.824   0.808 -0.1076 -0.5245 -0.0862
 4756SOL     OW24946   8.976   9.822   3.440 -0.9578  0.4008  0.1726
 4756SOL    HW124947   8.954   9.735   3.395 -3.3587  0.8594  0.4193
 4756SOL    HW224948   8.892   9.866   3.472  0.4618  1.5041  2.5314
 4757SOL     OW24949   7.346   9.188   4.791 -0.0649  0.2386  0.2605
 4757SOL    HW124950   7.372   9.207   4.885 -0.4750 -0.7078  0.5678
 4757SOL    HW224951   7.249   9.161   4.788 -0.1388  0.5714 -0.4695
 4758SOL     OW24952   6.336   7.367   2.473  0.3833 -0.0019  0.3217
 4758SOL    HW124953   6.259   7.365   2.537  0.0051 -0.2181 -0.1338
 4758SOL    HW224954   6.344   7.459   2.434 -1.3090 -0.6241 -1.6076
 4759SOL     OW24955   4.336   3.624   0.385  0.3590  0.0036 -0.5983
 4759SOL    HW124956   4.370   3.623   0.479  2.1936  1.8103 -1.2040
 4759SOL    HW224957   4.397   3.573   0.326  0.4894  0.8417 -1.2031
 4760SOL     OW24958   0.930   5.870   1.614 -0.1222  0.2971 -0.2237
 4760SOL    HW124959   1.027   5.846   1.612 -0.0421  0.5041  0.8646
 4760SOL    HW224960   0.875   5.787   1.601  0.1613 -0.5473  3.3596
 4761SOL     OW24961   5.985   0.303   4.392 -0.5854 -0.5545  0.1124
 4761SOL    HW124962   5.946   0.248   4.467  0.0915 -0.4610  0.5428
 4761SOL    HW224963   5.912   0.335   4.333 -0.9507 -2.4894 -0.5359
 4762SOL     OW24964   0.092   3.494   2.246  0.2371 -0.2951  0.3278
 4762SOL    HW124965   0.045   3.426   2.301  0.0784  0.4948  1.1748
 4762SOL    HW224966   0.025   3.551   2.198  0.3731 -0.9494 -0.6572
 4763SOL     OW24967   2.307   9.474   0.438  0.1050  0.1221  0.1085
 4763SOL    HW124968   2.393   9.439   0.475  0.8448  1.3429 -0.4227
 4763SOL    HW224969   2.300   9.572   0.456 -1.5472 -0.1070  0.8402
 4764SOL     OW24970   0.760   0.431   0.942 -0.2959  0.5023 -0.5267
 4764SOL    HW124971   0.696   0.366   0.981  0.0192 -0.4798 -1.6216
 4764SOL    HW224972   0.814   0.387   0.870  1.4123  1.3753  0.1682
 4765SOL     OW24973   4.380   5.612   0.909  0.1851 -0.1159  0.1460
 4765SOL    HW124974   4.390   5.574   1.001  0.6549  0.5619  0.3769
 4765SOL    HW224975   4.300   5.571   0.865  0.6578 -1.3307  0.4070
 4766SOL     OW24976   3.975   6.421   1.702 -0.3455  0.2783 -0.1732
 4766SOL    HW124977   3.995   6.328   1.671 -1.8430  0.1787 -0.9033
 4766SOL    HW224978   4.048   6.483   1.672  0.2906 -0.5338 -0.3119
 4767SOL     OW24979   0.314   8.009   3.193 -0.4262 -0.0487 -0.2188
 4767SOL    HW124980   0.289   7.965   3.107  0.6733 -0.3904 -0.3779
 4767SOL    HW224981   0.414   8.016   3.199 -0.5099  0.4366  0.7992
 4768SOL     OW24982   4.386   2.438   0.618  0.3133  0.2308 -0.2048
 4768SOL    HW124983   4.370   2.534   0.640  0.9542 -0.0186  1.3556
 4768SOL    HW224984   4.453   2.432   0.543  3.1525  0.9298  2.2076
 4769SOL     OW24985   2.180   2.700   1.050 -0.0916 -0.0749 -0.2782
 4769SOL    HW124986   2.174   2.622   0.988  0.9191 -0.9235  0.6757
 4769SOL    HW224987   2.103   2.761   1.033 -1.5954 -1.8980 -0.2156
 4770SOL     OW24988   2.730   9.195   4.119  0.0253 -0.7959 -0.1257
 4770SOL    HW124989   2.827   9.181   4.100  0.0089  0.3733 -1.2115
 4770SOL    HW224990   2.685   9.107   4.136  0.9951 -1.4698 -1.0234
 4771SOL     OW24991   3.899   6.530   2.373  0.5606  0.1910 -0.2041
 4771SOL    HW124992   3.933   6.624   2.363 -0.8490  0.7506  0.2285
 4771SOL    HW224993   3.918   6.497   2.465  1.5791 -0.1665 -0.5352
 4772SOL     OW24994   5.352   0.422   1.526  0.0806 -0.3288  0.4481
 4772SOL    HW124995   5.418   0.495   1.512  0.4945 -0.4324  1.8302
 4772SOL    HW224996   5.356   0.358   1.449  1.4558 -0.2404  0.4431
 4773SOL     OW24997   4.334   3.624   4.142 -0.0581 -0.0342 -0.2485
 4773SOL    HW124998   4.364   3.669   4.058 -0.4740 -0.3547 -0.5693
 4773SOL    HW224999   4.351   3.684   4.220  4.4305 -1.4385 -0.0217
 4774SOL     OW25000   3.555   6.777   2.153  0.3178 -0.7911  0.7625
 4774SOL    HW125001   3.493   6.730   2.216  0.1377 -1.1438  0.3212
 4774SOL    HW225002   3.552   6.733   2.063 -0.0297  0.2050  0.2797
 4775SOL     OW25003   3.022   8.838   1.591 -0.0512  0.6563  0.1487
 4775SOL    HW125004   2.992   8.874   1.680 -0.3367 -0.1923  0.4033
 4775SOL    HW225005   3.088   8.765   1.606 -1.7617 -1.0096 -0.2567
 4776SOL     OW25006   3.680   4.419   3.056  0.1922  0.0613  0.3024
 4776SOL    HW125007   3.615   4.485   3.018  0.2980  0.3019  0.5390
 4776SOL    HW225008   3.695   4.439   3.153 -0.3722 -0.7872  0.5641
 4777SOL     OW25009   2.425   8.499   0.788  0.6359 -0.7103 -0.4226
 4777SOL    HW125010   2.484   8.578   0.773  0.4626 -0.7092 -1.1164
 4777SOL    HW225011   2.447   8.457   0.876  1.2630 -0.3583 -0.4090
 4778SOL     OW25012   7.561   6.408   2.790  0.2745  0.1894  0.4548
 4778SOL    HW125013   7.534   6.416   2.886 -2.4391  1.5490 -0.3711
 4778SOL    HW225014   7.644   6.462   2.775  1.1065 -0.5845  2.1756
 4779SOL     OW25015   1.083   1.698   4.110  0.3383  0.4304 -0.2415
 4779SOL    HW125016   1.069   1.794   4.083  0.8656  0.2227 -1.2696
 4779SOL    HW225017   1.106   1.644   4.029  0.2576 -0.5285  0.3746
 4780SOL     OW25018   2.591   1.424   4.100  0.4990 -0.1404  0.2516
 4780SOL    HW125019   2.534   1.451   4.023  0.3439 -2.3084 -0.4021
 4780SOL    HW225020   2.662   1.494   4.114  0.0713  0.6406 -1.3538
 4781SOL     OW25021   7.674   9.035   3.957  0.5874 -0.0007  0.1264
 4781SOL    HW125022   7.598   9.063   3.898 -1.5027 -2.0893  1.7159
 4781SOL    HW225023   7.666   9.082   4.045  1.3523  0.0497  0.1687
 4782SOL     OW25024   4.665   0.383   4.085  0.2253  0.3265  0.2046
 4782SOL    HW125025   4.670   0.386   3.985  2.2612  1.1966  0.3152
 4782SOL    HW225026   4.697   0.470   4.123 -1.8236  0.4924  1.5828
 4783SOL     OW25027   4.084   9.956   2.674 -0.1674  0.2223 -0.1688
 4783SOL    HW125028   4.146   9.899   2.728  1.0285  1.6110 -0.0340
 4783SOL    HW225029   4.052  10.033   2.730 -0.2100  0.7688 -0.9325
 4784SOL     OW25030   3.684   3.249   2.615 -0.1376 -0.0480 -0.5217
 4784SOL    HW125031   3.660   3.346   2.619  0.0674 -0.0242  0.1091
 4784SOL    HW225032   3.696   3.222   2.519  1.6248  1.0011 -0.6357
 4785SOL     OW25033   6.604   8.259   2.446  0.6132 -0.4177 -0.0564
 4785SOL    HW125034   6.563   8.206   2.520 -0.2558  1.0895  0.5676
 4785SOL    HW225035   6.595   8.208   2.360  2.1967 -2.4610  0.9546
 4786SOL     OW25036   5.949   7.248   2.950 -0.3476  0.0857 -0.1247
 4786SOL    HW125037   5.860   7.294   2.953 -0.4184 -0.0494 -0.1420
 4786SOL    HW225038   6.014   7.298   3.008 -0.6416 -0.2452  0.4979
 4787SOL     OW25039   2.738   9.947   1.186  0.0456  0.2656 -0.2152
 4787SOL    HW125040   2.792   9.928   1.268 -0.2119  1.6336  0.2895
 4787SOL    HW225041   2.678   9.869   1.166  1.2243 -0.7142 -0.0178
 4788SOL     OW25042   7.313   0.950   4.156 -0.0803  0.0101  0.4209
 4788SOL    HW125043   7.307   0.866   4.210 -0.9643 -0.1950  0.0254
 4788SOL    HW225044   7.238   1.011   4.181 -1.6902 -0.9157 -1.9056
 4789SOL     OW25045   8.829   2.767   3.736 -0.1645  0.0314 -0.1370
 4789SOL    HW125046   8.871   2.676   3.731  0.1600  0.1603  0.2113
 4789SOL    HW225047   8.835   2.802   3.830  0.5634  0.8117 -0.4701
 4790SOL     OW25048   9.489   2.654   2.579 -0.4726 -0.4855  0.1915
 4790SOL    HW125049   9.429   2.577   2.560  0.3995 -0.4523 -3.0259
 4790SOL    HW225050   9.467   2.693   2.669 -3.2650 -2.2501  0.3230
 4791SOL     OW25051   1.672   3.470   4.905  0.4769  0.2585 -0.2041
 4791SOL    HW125052   1.772   3.476   4.912  0.3352  1.5870  0.8642
 4791SOL    HW225053   1.633   3.457   4.996 -0.4222  1.4460 -0.4044
 4792SOL     OW25054   7.215   9.578   2.883  0.8669  0.4334  0.2754
 4792SOL    HW125055   7.273   9.660   2.880 -1.0053  1.7194 -1.7390
 4792SOL    HW225056   7.228   9.525   2.800 -0.6645  0.6221 -0.1019
 4793SOL     OW25057   9.799   0.081   1.578  0.0267  0.3224 -0.1307
 4793SOL    HW125058   9.738   0.002   1.570  0.2555 -0.0820  1.7458
 4793SOL    HW225059   9.778   0.147   1.506 -1.5247 -0.5493 -0.5055
 4794SOL     OW25060   4.726   3.575   3.150  0.3263 -0.3754  0.3259
 4794SOL    HW125061   4.676   3.498   3.189 -0.8593  0.2311  0.0669
 4794SOL    HW225062   4.688   3.597   3.060  1.4785 -0.2865 -0.1385
 4795SOL     OW25063   7.559   9.779   1.448  0.3306  0.4678 -0.6677
 4795SOL    HW125064   7.561   9.734   1.537  0.7626  1.6886 -0.0589
 4795SOL    HW225065   7.635   9.843   1.440 -0.4151  1.2764 -1.4375
 4796SOL     OW25066   0.906   2.163   0.737 -0.0360 -0.6721 -0.4360
 4796SOL    HW125067   0.974   2.220   0.784  0.2099 -2.0013  0.8527
 4796SOL    HW225068   0.952   2.085   0.695 -0.4969 -0.4245 -1.3977
 4797SOL     OW25069   8.609   9.105   2.076 -0.2031 -0.0465 -0.0750
 4797SOL    HW125070   8.588   9.106   2.174  2.0305  0.5762  0.4125
 4797SOL    HW225071   8.656   9.020   2.053  2.7566  1.4951  0.1649
 4798SOL     OW25072   9.972   0.608   1.972  0.0579  0.1915 -0.1228
 4798SOL    HW125073  10.070   0.616   1.954  0.5950 -1.3837  1.8737
 4798SOL    HW225074   9.925   0.583   1.888  1.2271  1.8451 -1.3043
 4799SOL     OW25075   2.096   0.994   3.825 -0.1786  0.4697 -0.4721
 4799SOL    HW125076   2.037   0.953   3.756 -0.4729 -0.6957  0.4410
 4799SOL    HW225077   2.079   1.092   3.830 -0.2138  0.5503 -1.9857
 4800SOL     OW25078   2.394   6.457   4.994  0.2448  0.2456 -0.3098
 4800SOL    HW125079   2.340   6.530   4.953 -1.3126 -0.5908  0.2102
 4800SOL    HW225080   2.383   6.373   4.941  1.8080  0.2965 -0.7464
 4801SOL     OW25081   4.947   7.702   3.352  0.1509  0.3069  0.2128
 4801SOL    HW125082   4.850   7.681   3.337 -0.2192  0.2131  2.6494
 4801SOL    HW225083   5.001   7.620   3.336 -0.2250  0.1961 -0.5387
 4802SOL     OW25084   0.535   1.932   4.080  0.3720  0.3777 -0.0940
 4802SOL    HW125085   0.633   1.912   4.076  0.1469 -1.0318  0.8225
 4802SOL    HW225086   0.493   1.912   3.992  0.6914 -0.2384 -0.1083
 4803SOL     OW25087   4.353   3.600   1.729  0.8299  0.1129 -0.4916
 4803SOL    HW125088   4.438   3.547   1.738  0.6606 -0.1926 -0.6856
 4803SOL    HW225089   4.315   3.617   1.820  1.9513  1.6491 -0.2814
 4804SOL     OW25090   4.571   1.482   4.039 -0.3483  0.5419  0.0732
 4804SOL    HW125091   4.605   1.576   4.039 -2.6521  1.4418  0.9799
 4804SOL    HW225092   4.517   1.466   3.957  2.3068 -0.9168 -1.4365
 4805SOL     OW25093   3.518   7.316   5.053 -0.5353 -0.1507  0.1271
 4805SOL    HW125094   3.448   7.347   5.117 -0.8990 -2.6292  0.9726
 4805SOL    HW225095   3.604   7.300   5.102 -0.0726  0.4214 -0.4741
 4806SOL     OW25096   1.212   3.391   2.403 -0.2635  0.0622 -0.1033
 4806SOL    HW125097   1.281   3.372   2.333 -0.8227  0.7483 -0.8523
 4806SOL    HW225098   1.204   3.313   2.465  0.3667 -0.4746 -0.7015
 4807SOL     OW25099   4.395   7.582   2.629 -0.0591 -0.1716  0.2581
 4807SOL    HW125100   4.305   7.587   2.673  0.1003  0.1143  0.5536
 4807SOL    HW225101   4.465   7.618   2.691 -0.0695  1.9380 -0.8956
 4808SOL     OW25102   4.456   0.639   3.680 -0.2590 -0.0427 -0.3697
 4808SOL    HW125103   4.473   0.545   3.709  1.7098  0.8150  1.4015
 4808SOL    HW225104   4.480   0.649   3.583  3.5442 -0.4586  0.4346
 4809SOL     OW25105   9.292   3.175   2.099  0.1578 -0.2035 -0.2486
 4809SOL    HW125106   9.322   3.090   2.143 -0.6239 -0.8955 -1.0429
 4809SOL    HW225107   9.256   3.237   2.169 -2.8601 -2.0349 -0.0579
 4810SOL     OW25108   2.667   0.230   4.831 -0.1689  0.0875  0.0504
 4810SOL    HW125109   2.612   0.308   4.801  0.1398 -0.0017 -0.7732
 4810SOL    HW225110   2.763   0.247   4.809  0.0239 -0.1379  0.6901
 4811SOL     OW25111   3.854   7.397   2.610  0.3641 -0.1288  0.1353
 4811SOL    HW125112   3.867   7.494   2.632 -1.6617  0.2073 -0.0265
 4811SOL    HW225113   3.896   7.377   2.521 -0.4043  0.9339 -0.4792
 4812SOL     OW25114   0.109   0.281   3.620 -0.0198 -0.0150  0.3491
 4812SOL    HW125115   0.106   0.181   3.624 -0.0985  0.0034  0.7620
 4812SOL    HW225116   0.134   0.318   3.710  0.0531  0.3354  0.1868
 4813SOL     OW25117   8.741   9.333   4.932  0.4013 -0.0756  0.0135
 4813SOL    HW125118   8.674   9.405   4.950  0.8775 -0.0761  1.8464
 4813SOL    HW225119   8.698   9.260   4.879 -0.6194  0.6512 -0.1761
 4814SOL     OW25120   3.689   8.363   2.951  0.0041 -0.1298 -0.0554
 4814SOL    HW125121   3.720   8.323   2.865  0.7537  0.2689  0.0231
 4814SOL    HW225122   3.766   8.369   3.015 -0.6620 -0.9693  0.8581
 4815SOL     OW25123   9.235   6.235   2.484  0.4834 -0.2433  0.3219
 4815SOL    HW125124   9.225   6.189   2.396 -0.2646  0.5473 -0.0167
 4815SOL    HW225125   9.221   6.169   2.558 -1.4883 -0.3860 -0.1551
 4816SOL     OW25126   9.249   3.402   1.520  0.2009 -0.3442  0.0380
 4816SOL    HW125127   9.267   3.334   1.448 -0.7925  2.3703 -2.9197
 4816SOL    HW225128   9.331   3.415   1.575  1.1080 -2.2749 -0.8075
 4817SOL     OW25129   3.290   6.143   3.604 -0.2705 -0.1838 -0.2483
 4817SOL    HW125130   3.241   6.214   3.553 -0.1873 -0.4323 -0.6771
 4817SOL    HW225131   3.268   6.151   3.701  1.4496  1.8206  0.0214
 4818SOL     OW25132   1.415   0.212   1.109  0.0845  0.4527  0.5764
 4818SOL    HW125133   1.398   0.203   1.011  0.2441 -3.5731  0.8632
 4818SOL    HW225134   1.423   0.309   1.132  0.7033  1.4537 -3.4859
 4819SOL     OW25135   2.249   8.080   1.531 -0.0276 -0.1400 -0.4518
 4819SOL    HW125136   2.278   8.173   1.556  0.1708 -0.4036  0.3184
 4819SOL    HW225137   2.155   8.082   1.500  0.5234  0.5977 -2.1350
 4820SOL     OW25138   3.527   3.275   1.385  0.1815 -0.3672 -0.0943
 4820SOL    HW125139   3.472   3.266   1.468  1.2269 -0.0709  0.6485
 4820SOL    HW225140   3.470   3.312   1.311 -0.4380  0.6014  0.8473
 4821SOL     OW25141   8.834   3.493   1.676  1.2590 -0.5106 -0.3915
 4821SOL    HW125142   8.838   3.511   1.578 -0.4098 -2.4984 -0.8671
 4821SOL    HW225143   8.829   3.394   1.691 -0.9904 -0.1398  1.5731
 4822SOL     OW25144   2.782   7.324   0.153  0.5812 -0.0295 -0.0772
 4822SOL    HW125145   2.829   7.368   0.230  1.3432 -1.5165  0.3339
 4822SOL    HW225146   2.702   7.377   0.128  1.8006  1.8997  0.0085
 4823SOL     OW25147   6.251   7.251   3.734  0.5728  0.4225 -0.5164
 4823SOL    HW125148   6.316   7.252   3.810  0.5142  2.4169 -0.4580
 4823SOL    HW225149   6.177   7.187   3.754  1.5615 -0.5099  0.2248
 4824SOL     OW25150   2.569   6.763   1.642 -0.0324 -0.0619 -0.5531
 4824SOL    HW125151   2.623   6.690   1.601  1.2778  0.7297 -0.2691
 4824SOL    HW225152   2.485   6.725   1.682  1.3429 -1.6063  0.9075
 4825SOL     OW25153   3.220   0.235   1.142  0.6749 -0.2072 -0.6791
 4825SOL    HW125154   3.176   0.302   1.082 -0.7201  0.7691  1.3835
 4825SOL    HW225155   3.201   0.143   1.109 -2.0928  0.2285 -0.4452
 4826SOL     OW25156   8.567   0.569   3.329  0.2255  0.1628  0.0846
 4826SOL    HW125157   8.483   0.599   3.374  0.3472 -0.1316  0.5143
 4826SOL    HW225158   8.599   0.484   3.371  0.5264  0.0624 -0.3355
 4827SOL     OW25159   3.874   4.367   1.245  0.3445  0.5269 -0.0697
 4827SOL    HW125160   3.789   4.419   1.237  1.0203  1.3972 -1.8347
 4827SOL    HW225161   3.904   4.366   1.341 -2.3445 -0.9394  0.8041
 4828SOL     OW25162   2.862   8.793   0.402  0.1506 -0.2037  0.2507
 4828SOL    HW125163   2.786   8.801   0.337  1.5271  1.1827 -1.2514
 4828SOL    HW225164   2.933   8.859   0.378 -0.1115  1.6948  4.3415
 4829SOL     OW25165   8.107   9.674   4.499 -0.2932  0.8060  0.5478
 4829SOL    HW125166   8.150   9.722   4.576  1.8568 -1.1216  0.6171
 4829SOL    HW225167   8.110   9.576   4.515 -0.1729  0.3859 -1.7816
 4830SOL     OW25168   7.553   7.895   4.147 -0.6430 -0.3395 -0.0091
 4830SOL    HW125169   7.468   7.863   4.190 -0.5498 -0.7835 -0.1502
 4830SOL    HW225170   7.570   7.842   4.063 -0.1950 -0.2994  0.0549
 4831SOL     OW25171   1.479   5.694   3.265 -0.1486  0.4945 -0.3099
 4831SOL    HW125172   1.436   5.716   3.353 -0.3158 -0.3479 -0.1674
 4831SOL    HW225173   1.417   5.635   3.212 -0.3096  1.5188 -1.2603
 4832SOL     OW25174   8.832   3.428   2.438 -0.3760 -0.2369  0.2864
 4832SOL    HW125175   8.787   3.517   2.442  0.0477  0.1258 -2.2674
 4832SOL    HW225176   8.771   3.361   2.395  0.1587 -0.6219  0.1170
 4833SOL     OW25177   8.813   1.083   1.979 -0.1654 -0.0801  0.5200
 4833SOL    HW125178   8.734   1.021   1.971 -0.3521  0.3081 -0.9006
 4833SOL    HW225179   8.781   1.177   1.985  0.1594 -0.0168  1.2903
 4834SOL     OW25180   7.394   6.774   2.723  0.6153  0.0071 -0.1620
 4834SOL    HW125181   7.424   6.755   2.816  0.6427 -0.1180 -0.1965
 4834SOL    HW225182   7.473   6.794   2.665  0.6110 -0.0736 -0.1954
 4835SOL     OW25183   4.134   2.642   1.778 -0.1115  0.0237 -0.7225
 4835SOL    HW125184   4.227   2.677   1.782 -0.5266  1.0161  0.4208
 4835SOL    HW225185   4.080   2.682   1.852 -1.3496 -0.8238 -1.1563
 4836SOL     OW25186   2.052   8.562   4.035 -0.2587 -0.4232  0.8055
 4836SOL    HW125187   1.996   8.496   3.985  1.4074 -0.0465 -1.6173
 4836SOL    HW225188   2.078   8.637   3.975  1.3243  0.3528  2.3859
 4837SOL     OW25189   8.626   2.032   1.822 -0.1616 -0.1898 -0.5820
 4837SOL    HW125190   8.722   2.043   1.794 -0.0495 -1.4682 -0.7704
 4837SOL    HW225191   8.598   1.937   1.806 -0.5106 -0.6457  2.4166
 4838SOL     OW25192   7.992   7.852   2.262 -0.4522  0.7811 -0.1302
 4838SOL    HW125193   8.017   7.939   2.220  0.0414  1.4317  1.4844
 4838SOL    HW225194   8.062   7.784   2.242 -0.5460  0.9167 -0.9057
 4839SOL     OW25195   2.708   2.356   4.081 -0.1914  0.0083  0.0459
 4839SOL    HW125196   2.651   2.321   4.156 -0.9630  0.4785 -0.3147
 4839SOL    HW225197   2.784   2.409   4.119  0.4859 -1.3205  0.5629
 4840SOL     OW25198   3.559   7.886   3.441  0.6737  0.4630 -0.0880
 4840SOL    HW125199   3.605   7.829   3.373  1.0904  0.0456  0.5360
 4840SOL    HW225200   3.627   7.942   3.489  0.9267 -2.1436  2.7301
 4841SOL     OW25201   2.473   9.150   0.654 -0.4912  0.5503 -0.4670
 4841SOL    HW125202   2.546   9.082   0.653  0.5094  1.6020 -0.1158
 4841SOL    HW225203   2.407   9.126   0.725 -0.1463 -0.0525 -0.3417
 4842SOL     OW25204   2.965   1.964   5.380  0.0905  0.7916  0.0692
 4842SOL    HW125205   2.920   1.876   5.365 -1.6331  1.8974 -1.4619
 4842SOL    HW225206   2.986   1.974   5.477 -0.2163 -1.0586  0.3474
 4843SOL     OW25207   3.407   5.017   1.492  0.0928  0.9397  0.4856
 4843SOL    HW125208   3.465   4.966   1.555 -0.1006  0.4213  0.2551
 4843SOL    HW225209   3.453   5.102   1.466  1.3676 -0.0846 -0.7388
 4844SOL     OW25210   3.080   0.452   2.455 -0.4877  0.2592 -0.0285
 4844SOL    HW125211   3.010   0.467   2.524 -0.5531 -1.6269  0.3344
 4844SOL    HW225212   3.167   0.429   2.499  0.3097  2.3489 -0.4833
 4845SOL     OW25213   0.680   1.209   0.635  0.2764 -0.0947  0.8921
 4845SOL    HW125214   0.779   1.219   0.624  0.1042  2.6758  1.7581
 4845SOL    HW225215   0.661   1.126   0.687  2.1040 -0.8943  0.3405
 4846SOL     OW25216   3.074   5.077   0.477 -0.0105 -0.5956 -0.2725
 4846SOL    HW125217   3.155   5.031   0.514 -1.4573 -1.5468  1.8265
 4846SOL    HW225218   2.999   5.011   0.469 -0.4172  0.1061 -2.8799
 4847SOL     OW25219   0.695   9.109   0.584  0.0711 -0.4197  0.0289
 4847SOL    HW125220   0.743   9.162   0.514  0.3834 -2.1794 -1.1291
 4847SOL    HW225221   0.699   9.157   0.671  4.1935 -0.5970  0.0353
 4848SOL     OW25222   7.926   8.515   2.556 -0.0137 -0.1868  0.4367
 4848SOL    HW125223   7.875   8.598   2.577  1.3062  0.4528  1.1189
 4848SOL    HW225224   7.923   8.498   2.457  0.1803  0.9734  0.2259
 4849SOL     OW25225   2.112   5.567   1.555 -0.4782 -0.3491  0.4383
 4849SOL    HW125226   2.026   5.519   1.573 -0.9600  0.5751  0.6115
 4849SOL    HW225227   2.130   5.567   1.457 -1.4311  0.7172  0.2426
 4850SOL     OW25228   1.567   0.048   0.489  0.5370  0.0798 -0.4180
 4850SOL    HW125229   1.599  -0.020   0.424 -1.6628 -1.9658  0.5725
 4850SOL    HW225230   1.608   0.030   0.579  0.4617  0.4555 -0.3070
 4851SOL     OW25231   0.877   5.075   2.066  0.3680  0.2340  0.0749
 4851SOL    HW125232   0.901   5.000   2.003  0.4080  0.1896  0.1434
 4851SOL    HW225233   0.777   5.081   2.074  0.3707  0.0115  0.2809
 4852SOL     OW25234   9.202   2.046   5.094  0.5063  0.1317  0.9590
 4852SOL    HW125235   9.276   2.021   5.031  1.2782  1.2570  1.3957
 4852SOL    HW225236   9.223   2.134   5.137 -1.7134  1.1019  0.1295
 4853SOL     OW25237   6.921   8.093   2.454 -0.1133  0.6093 -0.2183
 4853SOL    HW125238   6.900   8.119   2.549 -0.3590  1.4652 -0.5026
 4853SOL    HW225239   6.901   8.170   2.393 -0.0427  0.0305 -0.9786
 4854SOL     OW25240   9.988   2.030   3.606  0.1655 -0.1115  0.2269
 4854SOL    HW125241   9.947   2.092   3.674  4.2529  2.6760  0.3655
 4854SOL    HW225242  10.009   2.082   3.523  0.3663 -2.1856 -1.0325
 4855SOL     OW25243   3.528   9.316   3.844 -0.7600 -0.3402 -0.6010
 4855SOL    HW125244   3.517   9.226   3.887  0.4045 -0.2895 -0.2014
 4855SOL    HW225245   3.450   9.374   3.870  0.4678  0.0517  2.3897
 4856SOL     OW25246   5.909   8.107   1.705  0.0209 -0.2333  0.0258
 4856SOL    HW125247   6.004   8.133   1.722  0.3388 -1.0697 -0.4140
 4856SOL    HW225248   5.904   8.049   1.624 -0.8618 -0.2491  0.0806
 4857SOL     OW25249   3.620   4.820   0.774 -0.5203  0.3583 -0.4888
 4857SOL    HW125250   3.601   4.796   0.869 -0.7745  1.1329 -0.3419
 4857SOL    HW225251   3.573   4.757   0.713 -1.5943  0.7809 -0.1124
 4858SOL     OW25252   4.272   8.844   1.154 -0.1816 -0.9532  0.6290
 4858SOL    HW125253   4.316   8.799   1.231  0.6334  0.2831  0.8936
 4858SOL    HW225254   4.292   8.942   1.156 -1.1854 -0.7095 -0.4481
 4859SOL     OW25255   6.017   8.845   2.149 -0.2308 -0.1919  1.0384
 4859SOL    HW125256   6.094   8.787   2.123  0.7202  1.5963 -0.1863
 4859SOL    HW225257   5.938   8.822   2.092  0.2772  0.0265  0.2357
 4860SOL     OW25258   2.472   3.225   1.555 -0.4949  0.3909  0.4756
 4860SOL    HW125259   2.456   3.299   1.621 -1.4571  0.1813  0.4858
 4860SOL    HW225260   2.440   3.138   1.595  1.7557 -0.2430  0.9649
 4861SOL     OW25261   3.296   1.717   2.064 -0.0902  0.3594  0.1827
 4861SOL    HW125262   3.332   1.741   2.155 -0.1795 -0.5835  0.4652
 4861SOL    HW225263   3.355   1.647   2.023 -0.6172  0.0669 -0.0738
 4862SOL     OW25264   1.796   0.674   0.766  0.0649 -0.5870 -0.2395
 4862SOL    HW125265   1.728   0.605   0.791 -0.9689  0.5103  0.0194
 4862SOL    HW225266   1.813   0.734   0.845  1.0785 -0.6397 -0.4105
 4863SOL     OW25267   1.646   4.725   5.426 -0.2512  0.3146  0.0310
 4863SOL    HW125268   1.681   4.638   5.461  0.1136  0.5546  0.2712
 4863SOL    HW225269   1.722   4.778   5.388 -0.4074  0.6961  0.2456
 4864SOL     OW25270   2.905   7.059   2.600  0.3907 -0.0635  0.4116
 4864SOL    HW125271   2.968   6.986   2.575 -0.4138 -0.1342 -1.4967
 4864SOL    HW225272   2.837   7.024   2.665  0.9524 -0.5770  0.7255
 4865SOL     OW25273   4.597   9.850   1.566 -0.2912  0.1298  0.0973
 4865SOL    HW125274   4.671   9.883   1.625 -0.1960  0.9710 -0.4866
 4865SOL    HW225275   4.605   9.751   1.555  1.4621  0.3569 -0.9236
 4866SOL     OW25276   7.763   1.046   2.093  0.2419 -0.0217 -0.4075
 4866SOL    HW125277   7.730   1.140   2.091  1.1957  0.3675  1.0026
 4866SOL    HW225278   7.800   1.026   2.184  0.1804 -1.7107 -0.7392
 4867SOL     OW25279   8.875   4.527   2.236 -0.0314 -0.1926  0.3118
 4867SOL    HW125280   8.897   4.519   2.138  1.8610  0.3736  0.6818
 4867SOL    HW225281   8.781   4.497   2.251  0.0439 -1.4064 -1.5075
 4868SOL     OW25282   9.138   1.969   2.517  0.0528  0.6844 -0.1260
 4868SOL    HW125283   9.143   1.920   2.604  0.0273  1.5876  0.3952
 4868SOL    HW225284   9.089   1.914   2.450  1.6000 -0.7729 -0.0899
 4869SOL     OW25285   4.517   2.475   2.011  0.3087  0.2369 -0.7970
 4869SOL    HW125286   4.591   2.458   2.076 -0.0438 -0.1271 -0.4928
 4869SOL    HW225287   4.460   2.550   2.043  0.3013  0.2442 -0.8274
 4870SOL     OW25288   1.443   2.799   2.006 -0.5445 -0.2840  0.0046
 4870SOL    HW125289   1.455   2.763   2.099 -0.2748 -0.9578 -0.2850
 4870SOL    HW225290   1.419   2.724   1.945 -0.8151  0.1776 -0.4531
 4871SOL     OW25291   3.265   0.439   1.409 -1.1484 -0.2158  0.5800
 4871SOL    HW125292   3.255   0.364   1.344  1.3574 -0.0818 -0.0199
 4871SOL    HW225293   3.338   0.418   1.474  1.8155  2.9112 -1.5079
 4872SOL     OW25294   5.224   7.256   3.226  0.0630  0.5085  0.0270
 4872SOL    HW125295   5.279   7.184   3.269 -3.8381 -0.6838  3.2472
 4872SOL    HW225296   5.177   7.219   3.146  0.8091  0.4740 -0.4047
 4873SOL     OW25297   3.771   0.037   4.508  0.3230  0.1016 -0.7937
 4873SOL    HW125298   3.751  -0.002   4.598  1.9069  0.3992 -0.2974
 4873SOL    HW225299   3.718  -0.011   4.439  0.4241 -1.3215  0.0875
 4874SOL     OW25300   4.113   2.932   4.850 -0.1906  0.4635 -0.1661
 4874SOL    HW125301   4.143   2.992   4.925  0.2612  1.0057 -0.7829
 4874SOL    HW225302   4.181   2.860   4.837 -0.3875  0.2271  0.1009
 4875SOL     OW25303   1.503   9.399   1.014 -0.6008  0.3530 -0.4214
 4875SOL    HW125304   1.601   9.391   0.994 -0.6831  0.1112 -0.7424
 4875SOL    HW225305   1.451   9.364   0.936 -0.9255 -1.0874  0.4118
 4876SOL     OW25306   2.894   1.625   4.651 -0.4781  0.3746  0.3156
 4876SOL    HW125307   2.973   1.675   4.616 -1.3577 -0.2280 -2.6395
 4876SOL    HW225308   2.925   1.545   4.703  0.8907 -1.1386 -2.7370
 4877SOL     OW25309   3.977   1.888   4.803 -0.3167  0.1618 -0.0241
 4877SOL    HW125310   4.025   1.906   4.889  0.9831  2.0996 -1.1092
 4877SOL    HW225311   3.967   1.974   4.753 -3.4019 -0.5291 -0.6343
 4878SOL     OW25312   0.403   6.811   0.234  0.5371  0.2220 -0.4282
 4878SOL    HW125313   0.414   6.765   0.322  0.2137  0.7378 -0.1118
 4878SOL    HW225314   0.306   6.810   0.210  0.7460 -0.7937 -1.2621
 4879SOL     OW25315   1.919   2.944   4.374  0.7954 -0.8913 -0.1456
 4879SOL    HW125316   1.937   2.878   4.302 -1.3510 -1.2200 -0.3943
 4879SOL    HW225317   1.907   2.897   4.461 -0.5138 -0.8129 -0.2817
 4880SOL     OW25318   9.930   8.346   2.542  0.2359  0.3746  0.5800
 4880SOL    HW125319   9.885   8.282   2.479  1.8876 -0.7451  0.5012
 4880SOL    HW225320   9.925   8.309   2.635  1.1587  0.1522  0.5411
 4881SOL     OW25321   9.357   1.283   5.393  0.1844 -0.2198 -0.4487
 4881SOL    HW125322   9.269   1.285   5.346  0.6147 -0.1739 -1.2609
 4881SOL    HW225323   9.430   1.307   5.328  0.7953 -0.3079  0.2038
 4882SOL     OW25324   2.456   4.920   2.645 -0.4687 -0.3557  0.6329
 4882SOL    HW125325   2.490   4.899   2.554  0.7567  0.2971  0.9291
 4882SOL    HW225326   2.430   4.835   2.691 -1.4544 -0.6583 -0.4492
 4883SOL     OW25327   1.466   9.288   4.723 -0.4806  0.5328 -0.3417
 4883SOL    HW125328   1.441   9.290   4.626  1.6742 -0.2440 -0.9322
 4883SOL    HW225329   1.444   9.197   4.760  1.2121 -0.0837 -0.8109
 4884SOL     OW25330   4.868   9.137   4.674  0.7239  0.4551 -0.0470
 4884SOL    HW125331   4.818   9.221   4.695 -1.1034 -0.4758 -0.4845
 4884SOL    HW225332   4.954   9.135   4.724  0.2070  2.0045  0.9257
 4885SOL     OW25333   0.478   4.502   2.226  0.4274 -0.6410  0.8905
 4885SOL    HW125334   0.565   4.468   2.262  0.5583  0.0761  1.2681
 4885SOL    HW225335   0.412   4.427   2.223  0.1936 -0.5910  3.3245
 4886SOL     OW25336   3.874   9.680   3.069  0.3058  0.0695 -0.5891
 4886SOL    HW125337   3.809   9.756   3.080  0.8944  0.5627 -0.5174
 4886SOL    HW225338   3.967   9.713   3.086  0.6804 -0.4164 -1.6536
 4887SOL     OW25339   8.808   0.281   1.013 -0.5346  0.1176 -0.7137
 4887SOL    HW125340   8.771   0.192   0.984 -0.0620  0.3540 -2.1091
 4887SOL    HW225341   8.804   0.288   1.112  0.4117 -1.9079 -0.5110
 4888SOL     OW25342   5.838   9.583   3.259 -0.3277 -0.4660 -0.3805
 4888SOL    HW125343   5.804   9.489   3.252  0.7905 -0.7975 -1.8160
 4888SOL    HW225344   5.857   9.605   3.354 -0.9169 -1.5927  0.0079
 4889SOL     OW25345   3.874   2.117   5.603  0.2824 -0.0968 -0.5621
 4889SOL    HW125346   3.930   2.187   5.648  0.3594 -1.0396  0.8282
 4889SOL    HW225347   3.826   2.063   5.672 -2.7024  0.9428 -1.7162
 4890SOL     OW25348   1.536   6.080   0.603  0.0533 -0.5831 -0.2077
 4890SOL    HW125349   1.552   6.179   0.606  1.1902 -0.7501 -0.3852
 4890SOL    HW225350   1.470   6.055   0.673  0.8805  0.1100  0.8440
 4891SOL     OW25351   8.192   8.570   5.585 -0.6698 -0.0772  0.0946
 4891SOL    HW125352   8.098   8.570   5.550 -0.6298 -1.7920 -0.0780
 4891SOL    HW225353   8.193   8.533   5.678  0.0417 -2.0003 -0.6339
 4892SOL     OW25354   5.984   0.888   2.190  0.2736 -0.0443  0.0111
 4892SOL    HW125355   5.969   0.790   2.208  0.2698  0.0205  0.3582
 4892SOL    HW225356   6.080   0.903   2.165  0.0285 -0.2942 -1.0961
 4893SOL     OW25357   8.474   8.641   4.661  0.0908 -0.4327  0.1364
 4893SOL    HW125358   8.434   8.594   4.739  1.2045  0.0258  0.9979
 4893SOL    HW225359   8.463   8.740   4.672  1.7590 -0.2890  0.5535
 4894SOL     OW25360   8.888   1.919   1.700  0.5007 -0.4295  0.4036
 4894SOL    HW125361   8.981   1.884   1.711 -0.2588 -2.4389  0.5969
 4894SOL    HW225362   8.870   1.937   1.603  2.1631  3.1228  0.6760
 4895SOL     OW25363   0.904   1.179   2.959 -0.0746 -0.5992 -0.4580
 4895SOL    HW125364   0.874   1.084   2.952  1.0734 -0.9399 -0.9058
 4895SOL    HW225365   0.884   1.214   3.050  1.0340 -1.8218  0.2767
 4896SOL     OW25366   3.251   0.946   5.594 -0.1286 -0.0697  0.3268
 4896SOL    HW125367   3.259   1.010   5.670 -0.1455 -1.1596  1.2584
 4896SOL    HW225368   3.332   0.952   5.536  1.5050 -1.7285  2.3871
 4897SOL     OW25369   1.455   9.027   1.714 -0.4841  0.5457  0.1652
 4897SOL    HW125370   1.485   9.092   1.784  1.4483 -0.6974  0.5360
 4897SOL    HW225371   1.358   9.007   1.726 -0.7192  2.1170  1.0300
 4898SOL     OW25372   8.689   0.573   1.922 -0.4010 -0.4410  0.2805
 4898SOL    HW125373   8.729   0.624   1.845 -2.6655  0.0480 -0.6148
 4898SOL    HW225374   8.682   0.477   1.898  0.4511 -0.5711  0.5377
 4899SOL     OW25375   5.195   0.552   3.648 -0.1563  0.2229  0.1470
 4899SOL    HW125376   5.135   0.533   3.726 -1.4975  2.7800 -0.2053
 4899SOL    HW225377   5.143   0.541   3.563  0.0736  1.6720 -0.1894
 4900SOL     OW25378   0.529   8.864   0.479  0.2991 -0.6533  0.0684
 4900SOL    HW125379   0.525   8.963   0.485  0.3094 -0.7536  2.3398
 4900SOL    HW225380   0.519   8.835   0.384  0.6128  1.5227 -0.6422
 4901SOL     OW25381   7.902   3.386   1.753  0.6797  0.7437  0.3020
 4901SOL    HW125382   7.855   3.352   1.834  2.6914  0.5188  1.3928
 4901SOL    HW225383   7.927   3.309   1.694 -0.4436  0.8754 -0.3513
 4902SOL     OW25384   0.207   0.164   0.896  0.4544  0.0175  0.1969
 4902SOL    HW125385   0.213   0.244   0.955  0.6844  0.5488 -0.5460
 4902SOL    HW225386   0.253   0.183   0.810 -2.4903  0.2976 -1.3667
 4903SOL     OW25387   8.265   7.489   2.925  0.0185 -0.2336 -0.1959
 4903SOL    HW125388   8.213   7.529   3.001  1.6694  3.9945 -1.1126
 4903SOL    HW225389   8.207   7.481   2.845 -0.2550  0.7309 -0.0982
 4904SOL     OW25390   7.056   6.628   2.102 -0.3007  0.1403  0.0460
 4904SOL    HW125391   7.123   6.567   2.145  0.9421 -0.3803 -2.5137
 4904SOL    HW225392   6.999   6.575   2.039 -0.0851  1.3580 -1.2025
 4905SOL     OW25393   2.519   3.316   4.759  0.4511  0.3597 -0.1849
 4905SOL    HW125394   2.547   3.309   4.664  0.0127 -2.3238 -0.1513
 4905SOL    HW225395   2.590   3.364   4.811  1.1285  0.9989 -1.6538
 4906SOL     OW25396   3.370   6.767   4.910 -0.2061  0.0656 -0.2364
 4906SOL    HW125397   3.427   6.834   4.862  0.4411 -1.1518 -1.2203
 4906SOL    HW225398   3.368   6.788   5.008  0.6335  1.0557 -0.4240
 4907SOL     OW25399   4.539   3.533   0.239  0.1648 -0.6545  0.7121
 4907SOL    HW125400   4.501   3.523   0.147 -0.9391 -0.2075  1.1137
 4907SOL    HW225401   4.639   3.534   0.234  0.0988  0.6911 -0.6280
 4908SOL     OW25402   8.254   1.016   1.444  0.3519  0.3932 -0.0173
 4908SOL    HW125403   8.171   1.031   1.497  0.7603  0.2717  0.6563
 4908SOL    HW225404   8.230   1.004   1.347 -0.4767 -0.3232  0.2684
 4909SOL     OW25405   3.898   9.481   4.500 -0.6576 -0.0817 -0.0446
 4909SOL    HW125406   3.911   9.391   4.458 -0.5668 -0.1338  0.0946
 4909SOL    HW225407   3.947   9.485   4.587  0.8913  0.7516 -0.9372
 4910SOL     OW25408   0.578   8.081   3.815  0.0572 -0.1983 -0.0960
 4910SOL    HW125409   0.664   8.121   3.847 -0.5999  1.9121 -0.8490
 4910SOL    HW225410   0.501   8.125   3.862 -0.6522 -1.5002 -0.0121
 4911SOL     OW25411   8.721   8.763   1.602 -0.2764 -0.3311 -0.0917
 4911SOL    HW125412   8.636   8.802   1.637  0.7185  0.6394  1.3101
 4911SOL    HW225413   8.722   8.769   1.502 -1.5723  0.2271 -0.0802
 4912SOL     OW25414   2.387   3.656   5.066  0.1151  0.2314  0.4854
 4912SOL    HW125415   2.410   3.656   4.968 -1.7818  0.5436  0.0186
 4912SOL    HW225416   2.368   3.562   5.095  1.2153  0.0689  0.6930
 4913SOL     OW25417   3.144   0.620   0.106 -0.1947  0.1924 -0.1503
 4913SOL    HW125418   3.139   0.700   0.046 -0.7471 -0.3580 -0.8441
 4913SOL    HW225419   3.051   0.586   0.124  0.1241 -1.3908 -1.3466
 4914SOL     OW25420   0.192   1.587   1.020 -0.4068  0.2721  0.1782
 4914SOL    HW125421   0.181   1.658   1.090  0.7717  0.1728  0.4746
 4914SOL    HW225422   0.119   1.520   1.029 -1.5392  1.4576 -0.1095
 4915SOL     OW25423   9.560   2.338   4.746 -0.2485 -0.4586 -0.2233
 4915SOL    HW125424   9.530   2.250   4.708  1.6950 -0.7327 -1.1662
 4915SOL    HW225425   9.610   2.389   4.676  1.9763 -0.2606  1.4822
 4916SOL     OW25426   8.520   1.920   2.122  0.2554 -0.7640 -0.3871
 4916SOL    HW125427   8.497   2.008   2.164 -0.1874 -1.1930  0.2902
 4916SOL    HW225428   8.619   1.913   2.109  0.2759 -0.0798 -0.6555
 4917SOL     OW25429   7.276   3.289   0.647 -0.2422  0.2996  0.2324
 4917SOL    HW125430   7.254   3.193   0.662 -1.7322  0.8410  1.6560
 4917SOL    HW225431   7.196   3.337   0.610  0.4679  1.0077 -0.4108
 4918SOL     OW25432   7.421   0.312   4.893  0.2163 -0.2375 -0.5186
 4918SOL    HW125433   7.335   0.297   4.844  0.5200 -0.1094 -1.1013
 4918SOL    HW225434   7.451   0.407   4.880  0.7498 -0.4443 -0.8191
 4919SOL     OW25435   0.190   4.636   1.883 -0.7934  1.0055 -0.0409
 4919SOL    HW125436   0.176   4.546   1.841 -1.4764  1.4236 -0.7355
 4919SOL    HW225437   0.149   4.706   1.825  1.9495  2.0429 -0.8192
 4920SOL     OW25438   3.055   8.444   3.341 -0.1325  0.3466 -0.1775
 4920SOL    HW125439   3.052   8.356   3.293 -0.1332  0.8544 -1.1044
 4920SOL    HW225440   2.962   8.476   3.359 -0.1532  1.2993 -1.9310
 4921SOL     OW25441   3.629   0.229   3.317  0.9155 -0.1499 -0.1968
 4921SOL    HW125442   3.622   0.130   3.329 -0.7768  0.0051  0.1693
 4921SOL    HW225443   3.603   0.275   3.402  3.1167  0.5856  0.1141
 4922SOL     OW25444   2.017   6.064   1.528 -0.0315 -0.1124  0.9168
 4922SOL    HW125445   2.099   6.009   1.540  1.8176  1.8333 -2.1587
 4922SOL    HW225446   1.958   6.020   1.460 -0.7477 -0.6052  1.8407
 4923SOL     OW25447   3.918   9.540   4.780 -0.2274  0.3559 -0.3913
 4923SOL    HW125448   3.932   9.624   4.833  0.0616  0.5570 -0.7910
 4923SOL    HW225449   3.833   9.547   4.728 -0.3688  0.2680 -0.1746
 4924SOL     OW25450   2.499   0.795   3.145 -0.6005  0.0997 -0.2187
 4924SOL    HW125451   2.562   0.872   3.156 -0.0624  0.0173 -2.5267
 4924SOL    HW225452   2.496   0.743   3.230  2.3583  0.1656 -0.0095
 4925SOL     OW25453   4.751   2.791   1.763  0.2787 -0.0505  0.5356
 4925SOL    HW125454   4.710   2.708   1.727 -0.4425  0.2033  0.7597
 4925SOL    HW225455   4.758   2.859   1.690 -0.0160  0.0234  0.5753
 4926SOL     OW25456   8.287   1.527   2.110 -0.0040 -0.0464 -0.6733
 4926SOL    HW125457   8.247   1.537   2.019 -1.5296  0.5181  0.0443
 4926SOL    HW225458   8.377   1.570   2.111 -0.2717  0.5651 -1.7071
 4927SOL     OW25459   9.545   0.137   0.860 -0.4334  0.3392  0.1604
 4927SOL    HW125460   9.520   0.046   0.892 -0.2519 -0.3963 -1.7607
 4927SOL    HW225461   9.493   0.160   0.778  0.6930  1.2892 -0.3115
 4928SOL     OW25462   4.798   8.299   4.149  0.4180 -0.4152  0.2485
 4928SOL    HW125463   4.824   8.238   4.223 -1.0508 -1.1159  0.2086
 4928SOL    HW225464   4.843   8.272   4.065  2.6776  0.8291  1.0277
 4929SOL     OW25465   4.587   6.181   1.774  0.2418 -0.6212  0.2403
 4929SOL    HW125466   4.586   6.214   1.680  0.5818 -1.0714  0.0788
 4929SOL    HW225467   4.604   6.258   1.836  0.2117 -0.3580 -0.0777
 4930SOL     OW25468   2.290   4.002   3.876 -0.0316  0.1060 -0.1738
 4930SOL    HW125469   2.238   4.077   3.834  1.0576  0.8417 -0.2466
 4930SOL    HW225470   2.382   4.035   3.900  0.4736 -1.2280 -0.2349
 4931SOL     OW25471   1.423   0.257   5.577 -0.4152  0.0081 -0.8609
 4931SOL    HW125472   1.487   0.274   5.652 -0.0624 -2.1052 -0.6349
 4931SOL    HW225473   1.365   0.337   5.563 -0.4164  0.4690  1.5913
 4932SOL     OW25474   5.101   8.427   1.322 -0.0130 -0.4599  0.6547
 4932SOL    HW125475   5.187   8.376   1.328  0.3794  0.2942  1.6299
 4932SOL    HW225476   5.121   8.525   1.312 -0.7585 -0.3627  0.1142
 4933SOL     OW25477   8.368   2.325   3.438  0.8400  0.0168  0.1446
 4933SOL    HW125478   8.278   2.347   3.401  1.6536  1.1637 -1.2155
 4933SOL    HW225479   8.399   2.238   3.400  1.6121  1.1240 -1.8012
 4934SOL     OW25480   1.554   5.199   1.241  0.0099  0.0416 -0.1333
 4934SOL    HW125481   1.544   5.264   1.165 -0.9185 -0.1677 -0.1937
 4934SOL    HW225482   1.537   5.247   1.327  0.5616  0.1625 -0.0911
 4935SOL     OW25483   9.830   7.436   3.662 -0.3513  0.4413  0.3123
 4935SOL    HW125484   9.771   7.363   3.696  1.8540 -0.2016  2.8715
 4935SOL    HW225485   9.804   7.523   3.703 -1.2853  0.6592 -0.7169
 4936SOL     OW25486   1.315   3.285   4.731  0.6244 -0.4966  0.4541
 4936SOL    HW125487   1.284   3.255   4.641 -1.3619 -0.7885  1.2027
 4936SOL    HW225488   1.388   3.353   4.721 -1.1127  1.1625 -1.4151
 4937SOL     OW25489   9.892   1.825   1.014  0.6825  0.3532 -0.0880
 4937SOL    HW125490   9.931   1.733   1.005  1.2069  0.7518 -2.2030
 4937SOL    HW225491   9.833   1.829   1.094 -0.7011 -2.3174 -0.9165
 4938SOL     OW25492   9.899   7.073   2.868 -0.0701 -0.0946 -0.1348
 4938SOL    HW125493   9.888   7.061   2.770 -0.6109  1.3960 -0.2629
 4938SOL    HW225494   9.820   7.033   2.915 -0.9494  1.2507 -0.4510
 4939SOL     OW25495   2.416   0.078   3.268 -0.3666  0.4965 -0.4829
 4939SOL    HW125496   2.318   0.076   3.249 -0.1047  0.2437 -1.8318
 4939SOL    HW225497   2.467   0.078   3.182  0.7877  2.5478  0.1669
 4940SOL     OW25498   0.496   6.288   2.994 -0.0290 -0.1791 -0.1100
 4940SOL    HW125499   0.542   6.321   3.077 -0.6104  1.9829 -0.6026
 4940SOL    HW225500   0.442   6.207   3.016 -2.4271  1.9865  2.3110
 4941SOL     OW25501   6.185   7.641   2.029 -0.5895 -0.4538  0.2227
 4941SOL    HW125502   6.119   7.598   1.968  0.0944 -1.2109  0.0073
 4941SOL    HW225503   6.251   7.573   2.061  0.1028  0.2946  0.4169
 4942SOL     OW25504   0.109   2.755   0.782  0.1284  0.1417 -0.1115
 4942SOL    HW125505   0.034   2.801   0.733  1.0059  1.6175 -0.0869
 4942SOL    HW225506   0.146   2.683   0.724 -0.9014 -0.1937 -0.3759
 4943SOL     OW25507   1.118   2.381   4.092  0.7891 -0.5038 -0.8002
 4943SOL    HW125508   1.041   2.363   4.030  0.6348  0.1059 -0.7900
 4943SOL    HW225509   1.182   2.444   4.048 -0.1667  1.2592  0.3060
 4944SOL     OW25510   3.380   2.180   2.876 -0.1771 -0.1341  0.5064
 4944SOL    HW125511   3.452   2.223   2.930  3.3081 -3.3467 -1.3464
 4944SOL    HW225512   3.406   2.180   2.780 -1.9437 -2.7763 -0.0175
 4945SOL     OW25513   9.600   9.187   4.698 -0.2332 -0.1444 -0.6684
 4945SOL    HW125514   9.557   9.251   4.634 -0.6965  0.4224  0.1990
 4945SOL    HW225515   9.565   9.095   4.682 -0.7951  0.0990 -0.8321
 4946SOL     OW25516   9.036   1.037   5.487 -0.2549  0.3119  0.2898
 4946SOL    HW125517   8.988   1.016   5.572 -1.0090  0.0212 -0.2035
 4946SOL    HW225518   9.034   1.135   5.470  0.1398  0.4025  0.7441
 4947SOL     OW25519   2.566   0.005   4.277  0.5934  0.4492 -0.5365
 4947SOL    HW125520   2.472  -0.031   4.280  0.8100 -0.5952 -4.1438
 4947SOL    HW225521   2.624  -0.049   4.339 -0.2429 -1.9620 -1.7790
 4948SOL     OW25522   4.070   3.048   0.788 -0.0960 -0.2894 -0.0698
 4948SOL    HW125523   4.084   3.023   0.884 -0.7166 -1.2543 -0.2249
 4948SOL    HW225524   3.972   3.055   0.769  0.0386  1.0033 -0.3658
 4949SOL     OW25525   4.055   1.192   1.018 -0.1711  0.6035  0.2956
 4949SOL    HW125526   4.051   1.285   1.055 -0.5152  1.1274 -0.9986
 4949SOL    HW225527   4.133   1.185   0.955  0.5993 -0.3588  1.3528
 4950SOL     OW25528   8.676   8.116   3.075  0.2193 -0.1689 -0.0980
 4950SOL    HW125529   8.677   8.152   3.169 -0.2250  1.0150 -0.5376
 4950SOL    HW225530   8.632   8.183   3.015 -0.7145 -1.5001 -0.9196
 4951SOL     OW25531   0.186   5.798   1.261 -0.2700 -0.2740  0.0714
 4951SOL    HW125532   0.099   5.751   1.250  0.1257 -1.1449  0.6541
 4951SOL    HW225533   0.228   5.771   1.348  0.0549  1.0009  0.3335
 4952SOL     OW25534   9.673   2.666   2.379 -0.4920  0.4359 -0.4316
 4952SOL    HW125535   9.625   2.633   2.297 -2.5540  0.8846  0.5588
 4952SOL    HW225536   9.607   2.677   2.454  1.1143  1.4388  0.8658
 4953SOL     OW25537   9.072   9.545   5.231  0.5467 -0.2381 -0.5432
 4953SOL    HW125538   9.105   9.577   5.320 -0.1064 -1.4417  0.1383
 4953SOL    HW225539   9.151   9.526   5.172  1.0554 -1.4539  0.4986
 4954SOL     OW25540   0.445   7.916   1.596  0.2006 -0.3174  0.3662
 4954SOL    HW125541   0.409   7.977   1.667 -0.9466  1.2037 -1.4761
 4954SOL    HW225542   0.426   7.821   1.620 -0.9233  0.2254  1.6725
 4955SOL     OW25543   9.705   8.290   4.697 -0.0850 -0.2676 -0.6496
 4955SOL    HW125544   9.692   8.252   4.788  2.0592  0.3435 -0.0499
 4955SOL    HW225545   9.630   8.352   4.675  1.4764  2.9544  2.5011
 4956SOL     OW25546   7.181   1.759   2.778 -0.4565  0.0036  0.4483
 4956SOL    HW125547   7.146   1.815   2.703  0.7184 -0.6939 -0.6361
 4956SOL    HW225548   7.155   1.664   2.763 -0.5394 -0.0844  1.1246
 4957SOL     OW25549   9.877   4.647   3.054 -0.3309 -0.5593  0.1820
 4957SOL    HW125550   9.870   4.718   3.124  0.8469 -0.0374 -0.2196
 4957SOL    HW225551   9.901   4.689   2.966 -0.0354 -1.4080 -0.1513
 4958SOL     OW25552   1.709   1.737   2.359 -0.4287  0.7382 -0.2988
 4958SOL    HW125553   1.796   1.766   2.320 -0.1579  0.2752 -0.0444
 4958SOL    HW225554   1.653   1.694   2.287 -0.9121  2.0569 -0.7170
 4959SOL     OW25555   1.034   3.081   5.547  0.3810  0.0691 -0.0650
 4959SOL    HW125556   1.036   3.087   5.647 -0.5326 -0.8324  0.0180
 4959SOL    HW225557   1.124   3.051   5.514  0.6348  0.1982  0.4949
 4960SOL     OW25558   3.947   2.646   5.312 -0.4617 -0.4058 -0.6311
 4960SOL    HW125559   3.978   2.639   5.407 -2.7783 -0.6713  0.1358
 4960SOL    HW225560   4.003   2.713   5.263  2.0714 -1.7072  0.3467
 4961SOL     OW25561   0.444   4.013   1.908 -0.9355  0.4390 -0.4266
 4961SOL    HW125562   0.359   4.030   1.958 -1.0990 -2.5454  0.3852
 4961SOL    HW225563   0.500   3.946   1.957  1.6743  1.9705 -1.2172
 4962SOL     OW25564   1.505   4.029   0.077  0.0812 -0.2276 -0.0405
 4962SOL    HW125565   1.458   4.013   0.164 -1.8723  2.3064 -0.5622
 4962SOL    HW225566   1.546   3.943   0.045  0.7971 -1.2047  3.3202
 4963SOL     OW25567   5.558   1.185   1.232  0.2832 -0.0162  0.3442
 4963SOL    HW125568   5.498   1.264   1.220 -2.4009 -2.0311 -0.0424
 4963SOL    HW225569   5.587   1.152   1.142 -1.7277 -1.7400  0.2981
 4964SOL     OW25570   1.495   3.226   5.302  0.4532  0.4440  0.2870
 4964SOL    HW125571   1.479   3.154   5.235 -0.3305  1.4779 -0.6396
 4964SOL    HW225572   1.419   3.228   5.368  0.6298  0.2291  0.5003
 4965SOL     OW25573   3.079   7.625   5.602 -0.1824 -0.1544  0.0931
 4965SOL    HW125574   3.137   7.544   5.593 -0.0179  0.0969 -1.0985
 4965SOL    HW225575   3.043   7.629   5.695  3.1643  0.6644  1.4149
 4966SOL     OW25576   0.745   0.811   2.221 -0.2361 -0.0699  0.4323
 4966SOL    HW125577   0.720   0.894   2.172 -2.8679  0.3229  2.3387
 4966SOL    HW225578   0.757   0.736   2.156 -0.4589  1.1786 -1.0604
 4967SOL     OW25579   6.235   9.871   2.083  0.1710 -0.4626  0.2480
 4967SOL    HW125580   6.158   9.893   2.023 -2.5334 -2.1161  2.9254
 4967SOL    HW225581   6.242   9.940   2.154 -0.4488 -1.5724  1.4223
 4968SOL     OW25582   2.234   4.656   1.793 -0.3790 -0.7191  1.0439
 4968SOL    HW125583   2.138   4.680   1.804 -0.3647  0.2354 -0.7369
 4968SOL    HW225584   2.262   4.673   1.698  1.0599 -2.7170  1.0889
 4969SOL     OW25585   3.607   1.498   5.475  0.2065 -0.4813 -0.1004
 4969SOL    HW125586   3.654   1.511   5.388 -1.1746 -0.3936 -0.8454
 4969SOL    HW225587   3.557   1.581   5.499 -1.3102 -1.2843 -0.3973
 4970SOL     OW25588   7.683   0.168   2.480  0.2969  0.0342 -0.5882
 4970SOL    HW125589   7.608   0.161   2.546  0.0649  1.6736 -0.6322
 4970SOL    HW225590   7.770   0.175   2.528  0.0419  2.2761 -0.3663
 4971SOL     OW25591   5.255   6.889   2.074 -0.2774 -0.1325  0.6413
 4971SOL    HW125592   5.182   6.958   2.075  1.4572  1.7210  1.3628
 4971SOL    HW225593   5.331   6.920   2.018 -0.2269 -2.3018 -0.5595
 4972SOL     OW25594   0.699   1.808   5.079 -0.0857 -0.4528  0.3183
 4972SOL    HW125595   0.741   1.779   5.165 -0.1197 -1.1432  0.1005
 4972SOL    HW225596   0.681   1.728   5.022  1.9740  0.1916 -1.2840
 4973SOL     OW25597   7.903   8.921   2.979  0.0528 -0.0846 -0.1919
 4973SOL    HW125598   7.911   8.948   3.074 -1.2715  1.8002 -0.5859
 4973SOL    HW225599   7.843   8.842   2.971 -0.2203  0.0572  0.4954
 4974SOL     OW25600   2.579   9.216   1.967  0.0304 -0.5782  0.5653
 4974SOL    HW125601   2.505   9.155   1.996 -1.2607  0.7014  0.0590
 4974SOL    HW225602   2.545   9.310   1.965  1.9501  0.1552  1.2169
 4975SOL     OW25603   3.471   5.272   0.223 -0.3789 -0.3375  0.1834
 4975SOL    HW125604   3.451   5.252   0.127 -0.0341  1.2306 -0.2282
 4975SOL    HW225605   3.434   5.363   0.246 -0.3658 -0.6627  1.4974
 4976SOL     OW25606   4.726   3.092   2.751  0.2345 -0.7118 -0.0951
 4976SOL    HW125607   4.788   3.164   2.721  1.0306 -0.3208  2.3110
 4976SOL    HW225608   4.761   3.003   2.721  0.0740 -0.2378 -1.7378
 4977SOL     OW25609   4.031   9.140   1.452 -0.3309 -0.3978 -0.0981
 4977SOL    HW125610   4.113   9.168   1.501  0.5866 -0.7292 -1.4285
 4977SOL    HW225611   4.009   9.208   1.382 -0.7956 -0.6581 -0.2095
 4978SOL     OW25612   1.500   6.695   3.471 -0.4172 -0.1152 -0.2101
 4978SOL    HW125613   1.404   6.720   3.462  0.0341  1.4701 -0.8293
 4978SOL    HW225614   1.547   6.709   3.384  0.1361 -2.0313 -0.2578
 4979SOL     OW25615   4.218   2.177   2.969  0.6449 -0.8791  0.1825
 4979SOL    HW125616   4.288   2.166   2.898 -1.6058 -1.3146 -2.0349
 4979SOL    HW225617   4.161   2.257   2.949 -0.4820 -1.4251  1.1007
 4980SOL     OW25618   3.772   3.315   5.375  0.1434 -0.2998  0.0506
 4980SOL    HW125619   3.673   3.312   5.358 -0.0204  0.2199  0.8774
 4980SOL    HW225620   3.805   3.222   5.394  0.0104 -0.6272 -1.2917
 4981SOL     OW25621   4.160   3.275   2.461 -0.0729 -0.1853 -0.0868
 4981SOL    HW125622   4.204   3.294   2.549 -0.2567 -1.1373  0.2188
 4981SOL    HW225623   4.196   3.189   2.424 -0.9730 -0.4841 -0.2863
 4982SOL     OW25624   0.849   0.353   5.538  0.4244  0.2083  0.0643
 4982SOL    HW125625   0.770   0.321   5.592  2.0488 -1.6634  1.4119
 4982SOL    HW225626   0.930   0.355   5.597  1.4625  1.8589 -1.3803
 4983SOL     OW25627   1.963   2.351   0.456 -0.1862 -0.0347 -0.2808
 4983SOL    HW125628   1.990   2.440   0.420 -0.6642 -0.0635 -0.7165
 4983SOL    HW225629   2.044   2.294   0.469  0.0945  0.3746 -0.2453
 4984SOL     OW25630   9.811   1.344   0.746 -0.2978  0.5451  0.9805
 4984SOL    HW125631   9.755   1.336   0.664  0.5877  1.6296  0.2556
 4984SOL    HW225632   9.839   1.440   0.758 -0.5036  0.4160  2.5943
 4985SOL     OW25633   7.698   7.214   2.956 -0.4964  0.2536 -0.3662
 4985SOL    HW125634   7.610   7.168   2.941 -0.6252  0.3821 -0.0164
 4985SOL    HW225635   7.771   7.160   2.915 -0.6425 -0.2836  0.0703
 4986SOL     OW25636   9.790   9.967   1.034 -0.2172  0.3670  0.1811
 4986SOL    HW125637   9.788  10.013   1.122  1.2154 -0.9192  0.8945
 4986SOL    HW225638   9.836  10.026   0.967 -3.5005  2.4168 -0.3679
 4987SOL     OW25639   7.512   7.006   1.841  0.0619 -0.3403  0.2022
 4987SOL    HW125640   7.488   6.910   1.836 -0.2660 -0.2491  0.0398
 4987SOL    HW225641   7.601   7.016   1.885  0.3616 -0.7586 -0.3048
 4988SOL     OW25642   1.232   0.978   3.621  0.5875  0.7469  0.0817
 4988SOL    HW125643   1.282   0.923   3.555 -1.7508 -2.2466  0.6842
 4988SOL    HW225644   1.150   1.015   3.578  0.6087  1.2970  0.5010
 4989SOL     OW25645   7.882   8.064   2.463  0.1817 -0.2370  0.9496
 4989SOL    HW125646   7.864   7.965   2.462 -0.3673 -0.1260 -0.6464
 4989SOL    HW225647   7.981   8.080   2.470  0.4415 -0.9143 -1.0291
 4990SOL     OW25648   9.850   8.299   1.548  0.2908  0.4263  0.2338
 4990SOL    HW125649   9.925   8.308   1.483  0.1775  1.7984  0.2753
 4990SOL    HW225650   9.839   8.384   1.599 -0.0538 -0.4133  1.5894
 4991SOL     OW25651   4.136   2.696   0.335  0.3567 -0.1896  0.1358
 4991SOL    HW125652   4.226   2.667   0.301  1.3637  1.7883  1.0300
 4991SOL    HW225653   4.147   2.746   0.420 -1.5645  0.5152 -0.0005
 4992SOL     OW25654   1.645   5.018   2.197 -0.3130 -0.1671  0.7558
 4992SOL    HW125655   1.706   5.061   2.264 -1.3933  0.9383  1.0464
 4992SOL    HW225656   1.700   4.962   2.134  0.8906  0.0450  1.5850
 4993SOL     OW25657   1.285   4.601   0.518 -0.0469 -0.6351  0.5514
 4993SOL    HW125658   1.229   4.553   0.449  2.4679 -2.4800 -0.2733
 4993SOL    HW225659   1.263   4.698   0.516  0.5437 -0.4819 -3.5084
 4994SOL     OW25660   8.178   2.611   0.710  0.0759 -0.2467 -0.5616
 4994SOL    HW125661   8.083   2.617   0.680  0.4075  2.1927 -1.2142
 4994SOL    HW225662   8.181   2.619   0.810 -0.4538 -1.2444 -0.4539
 4995SOL     OW25663   6.050   8.442   2.645  0.0745 -0.1453 -0.0909
 4995SOL    HW125664   6.040   8.346   2.616 -1.4968 -0.1047  0.3152
 4995SOL    HW225665   5.965   8.474   2.685  0.4192  1.6095 -0.7257
 4996SOL     OW25666   5.678   1.608   3.645 -0.3129 -0.2516  0.7291
 4996SOL    HW125667   5.750   1.563   3.696 -1.9625 -1.0721  2.3945
 4996SOL    HW225668   5.680   1.577   3.550  0.3302 -1.7058  1.2019
 4997SOL     OW25669   4.156   5.373   1.403  0.0062 -0.1086  0.5957
 4997SOL    HW125670   4.243   5.422   1.403  0.0614 -0.2053  0.5681
 4997SOL    HW225671   4.083   5.433   1.371  0.5262 -0.8245 -2.1217
 4998SOL     OW25672   2.827   7.669   1.143 -0.1908  0.2172  0.2027
 4998SOL    HW125673   2.801   7.633   1.232 -1.2780 -1.2940 -0.7070
 4998SOL    HW225674   2.883   7.602   1.095 -4.2643 -1.4485 -2.5106
 4999SOL     OW25675   5.069   4.641   0.356  0.1003  0.2947 -0.5727
 4999SOL    HW125676   5.114   4.728   0.372 -0.7165  0.2111  2.3972
 4999SOL    HW225677   4.992   4.654   0.294  1.4880  1.2000 -2.1518
 5000SOL     OW25678   9.435   9.054   1.456 -0.1438 -0.0176  0.3076
 5000SOL    HW125679   9.496   8.992   1.506  0.9542  0.5198 -0.3583
 5000SOL    HW225680   9.458   9.053   1.359  0.1370  1.7468  0.3518
 5001SOL     OW25681   9.701   2.459   3.303 -0.2312 -0.0986 -0.1534
 5001SOL    HW125682   9.744   2.450   3.213 -1.2225 -0.5207 -0.5889
 5001SOL    HW225683   9.604   2.439   3.296 -0.0451 -1.5856  1.3029
 5002SOL     OW25684   0.756   7.404   2.114 -0.1697  0.2419  0.3762
 5002SOL    HW125685   0.674   7.427   2.061 -0.5189 -1.3645  0.1925
 5002SOL    HW225686   0.740   7.319   2.164  0.7010  0.9488  1.8856
 5003SOL     OW25687   9.438   6.935   2.100  0.1727  0.0739 -0.2125
 5003SOL    HW125688   9.428   6.870   2.025  2.7831 -0.4939 -0.1010
 5003SOL    HW225689   9.528   6.924   2.142  0.1042  2.8333  0.7123
 5004SOL     OW25690   1.239   4.050   0.691  0.4493  0.0638  0.3310
 5004SOL    HW125691   1.276   4.143   0.687  2.8362 -0.8376  0.4184
 5004SOL    HW225692   1.285   4.000   0.764  0.6748 -1.7987 -1.0545
 5005SOL     OW25693   2.453   7.987   3.253  0.0019  0.1335  0.5959
 5005SOL    HW125694   2.416   8.079   3.245  0.9180  0.4409 -0.2183
 5005SOL    HW225695   2.498   7.977   3.342  0.5573  0.7250  0.3870
 5006SOL     OW25696   0.711   7.818   1.967 -0.1073  0.4731 -0.2071
 5006SOL    HW125697   0.738   7.733   2.014 -1.1776 -0.6727 -1.6096
 5006SOL    HW225698   0.619   7.843   1.997 -1.5264 -1.2496 -2.9531
 5007SOL     OW25699   1.381   1.705   3.362 -0.2596 -0.4219 -0.6505
 5007SOL    HW125700   1.469   1.679   3.403 -0.4983 -1.3939 -0.7386
 5007SOL    HW225701   1.384   1.688   3.263 -0.2669  0.3184 -0.7787
 5008SOL     OW25702   3.418   8.359   3.852  0.5962 -0.6504 -0.3624
 5008SOL    HW125703   3.417   8.364   3.952  2.0567 -1.6566 -0.2742
 5008SOL    HW225704   3.432   8.264   3.824  0.6716 -0.3024 -1.5237
 5009SOL     OW25705   1.999   3.348   2.178  0.6606 -0.1828  0.3663
 5009SOL    HW125706   1.925   3.328   2.243  0.9590  1.4444  1.2121
 5009SOL    HW225707   2.070   3.277   2.185  0.3000 -0.4553  1.2242
 5010SOL     OW25708   0.205   5.198   2.331  0.0715  0.1273 -0.0891
 5010SOL    HW125709   0.198   5.171   2.427 -1.7743 -0.8685 -0.4726
 5010SOL    HW225710   0.239   5.292   2.325  0.9241 -0.0721  1.4951
 5011SOL     OW25711   7.811   1.442   3.922  0.1094 -0.5322  0.6401
 5011SOL    HW125712   7.797   1.493   3.837  1.0046  1.6401  1.7592
 5011SOL    HW225713   7.878   1.369   3.906  0.1320 -0.2645 -0.5656
 5012SOL     OW25714   4.028   3.002   1.489  0.3251 -0.0642 -0.3687
 5012SOL    HW125715   4.055   3.053   1.407  0.6174  1.4002  0.6220
 5012SOL    HW225716   3.928   2.997   1.494  0.2189  2.1627  0.5408
 5013SOL     OW25717   6.796   1.451   3.528 -0.0103  0.0922  0.3979
 5013SOL    HW125718   6.706   1.460   3.485 -0.9741 -3.4638  1.4917
 5013SOL    HW225719   6.784   1.429   3.625  2.0803  0.4092  0.7502
 5014SOL     OW25720   3.336   3.644   0.322  0.0243  0.2709 -0.7964
 5014SOL    HW125721   3.294   3.715   0.266 -0.1973  0.0356 -0.9299
 5014SOL    HW225722   3.418   3.609   0.276  0.5390  0.9444 -0.3914
 5015SOL     OW25723   3.457   7.742   0.408  0.1154 -0.3814  0.3775
 5015SOL    HW125724   3.503   7.821   0.368 -0.3569 -0.5017 -0.4029
 5015SOL    HW225725   3.453   7.754   0.507  0.8023  0.1713  0.3501
 5016SOL     OW25726   2.600   6.697   2.261  0.0968 -0.4457  0.0469
 5016SOL    HW125727   2.583   6.795   2.274 -3.1910 -0.5151 -2.8442
 5016SOL    HW225728   2.525   6.645   2.302  1.0146 -1.6729  0.1625
 5017SOL     OW25729   5.322   2.178   2.783 -0.1325  0.4459  0.4859
 5017SOL    HW125730   5.299   2.154   2.689 -0.2603  1.3761  0.2730
 5017SOL    HW225731   5.246   2.228   2.824  1.3945  3.4522 -0.1854
 5018SOL     OW25732   4.913   1.763   1.897 -0.0252 -0.5249 -0.2060
 5018SOL    HW125733   4.934   1.724   1.807 -0.8313 -1.8507  0.1754
 5018SOL    HW225734   4.826   1.811   1.894  1.3630  2.0825 -0.9042
 5019SOL     OW25735   3.980   8.446   0.814  0.1222  0.3279  0.7153
 5019SOL    HW125736   3.930   8.431   0.729  0.7011 -0.1850  0.4597
 5019SOL    HW225737   4.041   8.368   0.831 -0.9889 -0.2035  2.3095
 5020SOL     OW25738   4.286   0.988   1.759 -0.4264 -0.6553  0.4849
 5020SOL    HW125739   4.368   1.036   1.729 -1.3842  0.2731 -0.7043
 5020SOL    HW225740   4.244   0.942   1.681 -1.1711 -0.9032  1.0291
 5021SOL     OW25741   1.602   9.071   1.405  1.0358 -0.1553 -0.1683
 5021SOL    HW125742   1.577   8.995   1.466  1.8197  0.4822  0.9712
 5021SOL    HW225743   1.672   9.041   1.341  1.8537 -0.1968  0.7451
 5022SOL     OW25744   4.342   0.783   2.177  0.3713  0.1744 -0.0728
 5022SOL    HW125745   4.281   0.751   2.250  1.1543  0.9532  0.9374
 5022SOL    HW225746   4.302   0.760   2.088 -0.8958 -0.2484  0.5881
 5023SOL     OW25747   2.548   0.185   1.436  0.2271  0.0442  0.1735
 5023SOL    HW125748   2.547   0.185   1.336  0.3862  1.4505  0.1543
 5023SOL    HW225749   2.586   0.099   1.469  1.4781  0.1091 -1.0081
 5024SOL     OW25750   3.735   8.321   4.061  0.6279  0.3201 -0.1002
 5024SOL    HW125751   3.815   8.368   4.098 -0.2667  2.6365 -1.0202
 5024SOL    HW225752   3.689   8.270   4.134  3.1621 -1.4056  0.3376
 5025SOL     OW25753   8.464   7.944   1.233  0.1079  0.1086 -0.4885
 5025SOL    HW125754   8.559   7.972   1.224  0.1347  0.7679  1.6058
 5025SOL    HW225755   8.405   8.020   1.204  0.2107  0.8579  1.2201
 5026SOL     OW25756   0.734   6.496   2.605  0.5260 -0.1780  0.0178
 5026SOL    HW125757   0.635   6.493   2.607  0.5554 -0.6396  1.2915
 5026SOL    HW225758   0.771   6.442   2.681  1.7553 -0.4354 -0.7454
 5027SOL     OW25759   2.340   4.237   5.425 -0.5295 -0.5269 -0.4442
 5027SOL    HW125760   2.275   4.170   5.392  0.8033 -3.7104  3.0466
 5027SOL    HW225761   2.292   4.305   5.481 -1.1813 -1.5445  0.2489
 5028SOL     OW25762   4.575   0.072   2.010 -0.2429 -0.3929  0.7572
 5028SOL    HW125763   4.630   0.153   2.030 -0.8040  0.2327 -0.1848
 5028SOL    HW225764   4.488   0.078   2.059 -0.4477 -0.2263  0.3772
 5029SOL     OW25765   8.815   5.391   1.640 -0.3872 -0.4952 -0.4480
 5029SOL    HW125766   8.875   5.347   1.706 -2.1492 -0.5635  1.1481
 5029SOL    HW225767   8.725   5.348   1.643 -0.9577  0.5705 -1.7463
 5030SOL     OW25768   1.063   3.886   3.075 -0.3411 -0.2986  0.7328
 5030SOL    HW125769   1.098   3.793   3.084  1.8430  0.4936  0.7259
 5030SOL    HW225770   1.122   3.949   3.127 -1.8056  1.0771  0.7673
 5031SOL     OW25771   0.158   5.525   2.161 -0.2158  0.5005 -0.2434
 5031SOL    HW125772   0.213   5.541   2.079  0.4747 -1.7117 -0.2547
 5031SOL    HW225773   0.101   5.444   2.146  0.8974 -0.7154  1.9566
 5032SOL     OW25774   1.203   3.493   0.331 -0.0537 -0.4841  0.1661
 5032SOL    HW125775   1.218   3.467   0.427 -0.1004 -0.9491  0.0480
 5032SOL    HW225776   1.110   3.469   0.304 -0.2852  0.3132  0.2155
 5033SOL     OW25777   7.894   8.279   2.672  0.0794 -0.1100 -0.1529
 5033SOL    HW125778   7.895   8.370   2.630  1.7971 -0.6877 -1.4323
 5033SOL    HW225779   7.830   8.221   2.621 -0.7842  0.2887  0.4710
 5034SOL     OW25780   4.182   0.229   0.834 -0.1510  0.4869  0.0931
 5034SOL    HW125781   4.213   0.321   0.857 -0.3230  0.2293  1.3867
 5034SOL    HW225782   4.083   0.229   0.823 -0.0534  0.6438 -0.8584
 5035SOL     OW25783   8.941   8.631   1.377  0.4101  0.4810  0.2422
 5035SOL    HW125784   9.035   8.601   1.368  0.3042  0.2011  0.0559
 5035SOL    HW225785   8.902   8.595   1.462 -0.6765 -2.4895 -1.4369
 5036SOL     OW25786   8.701   4.788   2.519  0.3421  0.5292 -0.2579
 5036SOL    HW125787   8.652   4.715   2.567  2.3453 -0.3157  0.5148
 5036SOL    HW225788   8.715   4.865   2.582 -1.3975  1.4529 -0.9516
 5037SOL     OW25789   0.796   0.835   5.180  0.4864  0.1240  0.4046
 5037SOL    HW125790   0.744   0.911   5.220  1.2879  1.1663 -0.5221
 5037SOL    HW225791   0.756   0.811   5.092  2.4746  1.9494 -1.0349
 5038SOL     OW25792   0.487   2.338   4.954  0.1205 -0.2566  0.4413
 5038SOL    HW125793   0.529   2.406   5.015  2.5713 -1.9612  0.7417
 5038SOL    HW225794   0.388   2.344   4.961  0.3006  2.6524  1.1509
 5039SOL     OW25795   8.146   2.051   0.582  0.2389  0.4137  0.1987
 5039SOL    HW125796   8.114   1.997   0.505  0.5320  1.8545 -0.9652
 5039SOL    HW225797   8.088   2.034   0.661 -1.3034  0.4156 -0.9064
 5040SOL     OW25798   3.933   4.736   1.074 -0.1193 -0.0078 -0.1445
 5040SOL    HW125799   3.971   4.652   1.036 -0.7161 -0.6314  0.6040
 5040SOL    HW225800   3.843   4.753   1.034 -0.4513 -0.2950  0.4641
 5041SOL     OW25801   7.447   7.078   3.297 -0.0743  0.6934  0.3062
 5041SOL    HW125802   7.445   7.176   3.316 -0.6071  0.5164  1.2280
 5041SOL    HW225803   7.353   7.045   3.284  0.1488  0.4195 -0.5926
 5042SOL     OW25804   5.948   9.282   3.428 -0.1368 -0.1916  0.0413
 5042SOL    HW125805   5.918   9.203   3.482  0.1136  0.1295  0.6569
 5042SOL    HW225806   5.876   9.308   3.364  0.0009 -1.2684 -0.5553
 5043SOL     OW25807   3.522   4.217   4.941 -0.1471  0.0982  0.1910
 5043SOL    HW125808   3.592   4.235   5.010  0.5583 -0.3884 -0.3779
 5043SOL    HW225809   3.559   4.153   4.873 -1.9323 -2.0070  1.1546
 5044SOL     OW25810   4.522   7.336   2.522 -0.4810  0.2134  0.3230
 5044SOL    HW125811   4.613   7.378   2.513 -0.3728 -0.5182 -2.6950
 5044SOL    HW225812   4.455   7.406   2.544  0.4498  1.1814  0.1206
 5045SOL     OW25813   9.759   7.979   4.951  0.3474  0.1708 -0.1748
 5045SOL    HW125814   9.666   8.017   4.951  0.0030 -0.5674  2.4327
 5045SOL    HW225815   9.756   7.884   4.921  0.6014  0.8549 -2.4000
 5046SOL     OW25816   4.241   8.367   2.814 -0.0892  0.1667  0.5113
 5046SOL    HW125817   4.145   8.356   2.836 -0.5985  2.8398 -0.1837
 5046SOL    HW225818   4.296   8.367   2.898 -0.7226 -0.8764  0.9334
 5047SOL     OW25819   1.623   5.384   0.468  0.0153  0.4583 -0.2562
 5047SOL    HW125820   1.701   5.323   0.453  1.6402  1.7809  2.4586
 5047SOL    HW225821   1.556   5.338   0.526 -0.3873  0.0253 -1.0446
 5048SOL     OW25822   2.174   2.020   0.851  0.3558 -0.4395 -0.2631
 5048SOL    HW125823   2.260   2.060   0.883  0.3716 -0.8007  0.1548
 5048SOL    HW225824   2.193   1.951   0.782  0.3511  0.0067 -0.7169
 5049SOL     OW25825   0.614   2.388   3.763 -0.7521  0.6450 -0.0667
 5049SOL    HW125826   0.592   2.467   3.821 -0.9141  1.2116 -0.8996
 5049SOL    HW225827   0.543   2.319   3.773 -0.5886  0.5798  0.6997
 5050SOL     OW25828   9.065   8.835   5.367  0.4120  0.3504 -0.3210
 5050SOL    HW125829   9.008   8.909   5.331  0.7913  0.4389 -0.7408
 5050SOL    HW225830   9.026   8.747   5.341  1.2160  0.4223 -1.7731
 5051SOL     OW25831   1.011   1.186   0.790 -0.3141  0.6088  0.4454
 5051SOL    HW125832   0.986   1.278   0.821  1.2362  1.5791 -1.0993
 5051SOL    HW225833   0.971   1.168   0.701  0.5170  0.3186  0.1231
 5052SOL     OW25834   5.288   6.846   3.930  0.0169 -0.4107 -0.0546
 5052SOL    HW125835   5.197   6.819   3.897  0.2468  0.4573 -1.4632
 5052SOL    HW225836   5.356   6.830   3.858  0.6845  0.6622  0.3255
 5053SOL     OW25837   1.745   6.963   5.461  0.1798  0.2511 -0.4277
 5053SOL    HW125838   1.734   6.942   5.364 -0.3087 -0.4456 -0.2274
 5053SOL    HW225839   1.817   6.905   5.500  0.0960  0.2400 -0.2870
 5054SOL     OW25840   2.637   7.053   3.891  0.7831 -0.8424  0.0356
 5054SOL    HW125841   2.538   7.057   3.898  0.8265 -1.2341  0.9885
 5054SOL    HW225842   2.678   7.105   3.967  1.3069  0.0852 -0.8641
 5055SOL     OW25843   3.191   3.328   3.918  0.2276  0.0426 -0.4737
 5055SOL    HW125844   3.112   3.339   3.979 -1.1475  0.7272 -2.3142
 5055SOL    HW225845   3.249   3.409   3.923  2.2978 -1.5535  2.8730
 5056SOL     OW25846   5.571   0.068   1.726  0.0527 -0.0027 -0.9530
 5056SOL    HW125847   5.639   0.126   1.681 -1.1945 -0.1596 -3.0909
 5056SOL    HW225848   5.484   0.074   1.677 -1.6310  0.5598  2.0112
 5057SOL     OW25849   9.269   2.957   3.403  1.0559 -0.3828  0.6372
 5057SOL    HW125850   9.219   2.965   3.317  2.1116 -0.4068  0.0071
 5057SOL    HW225851   9.355   3.009   3.396  0.5390  0.6946  2.1344
 5058SOL     OW25852   3.116   7.714   3.963  0.4605 -0.3278  0.0944
 5058SOL    HW125853   3.072   7.692   4.050 -0.9099  0.5586 -0.3615
 5058SOL    HW225854   3.140   7.811   3.962  0.9824 -0.4630 -0.2932
 5059SOL     OW25855   9.973   9.143   4.152  0.0316  0.8061 -0.6061
 5059SOL    HW125856   9.875   9.160   4.162 -0.1073  1.1422 -2.4592
 5059SOL    HW225857   9.990   9.045   4.147 -0.1189  0.7160  0.5801
 5060SOL     OW25858   0.154   9.702   1.255 -0.0923  0.2158  0.0906
 5060SOL    HW125859   0.140   9.762   1.176 -1.6883 -0.2097  0.0310
 5060SOL    HW225860   0.172   9.609   1.222  0.7851  0.3311  0.2165
 5061SOL     OW25861   3.295   7.867   3.528  0.1261 -0.3678  0.3132
 5061SOL    HW125862   3.379   7.890   3.479  0.5835  0.0906  1.2858
 5061SOL    HW225863   3.222   7.848   3.463  0.8179 -0.1306 -0.5396
 5062SOL     OW25864   1.594   0.429   4.714  0.7375 -0.4053 -0.7123
 5062SOL    HW125865   1.563   0.410   4.621  1.9539 -0.3522 -1.1402
 5062SOL    HW225866   1.611   0.528   4.723 -0.4757 -0.2545 -0.0930
 5063SOL     OW25867   1.318   2.975   4.125  0.1723 -0.5014  0.0887
 5063SOL    HW125868   1.263   2.983   4.042 -0.7743 -0.4636  0.7166
 5063SOL    HW225869   1.370   2.890   4.122  2.2909  0.7886 -1.8182
 5064SOL     OW25870   6.099   1.389   2.481 -0.4068 -0.7648  0.1476
 5064SOL    HW125871   6.105   1.346   2.391  0.8286  0.0717 -0.1813
 5064SOL    HW225872   6.170   1.459   2.490 -2.3072  1.1655  0.6834
 5065SOL     OW25873   0.243   8.675   3.728 -0.1678  0.1757 -0.1666
 5065SOL    HW125874   0.243   8.578   3.704 -3.0694 -0.6582  2.8340
 5065SOL    HW225875   0.319   8.693   3.791 -0.8037 -0.6374  0.8592
 5066SOL     OW25876   2.638   3.573   0.015 -0.1681 -0.7539  0.5254
 5066SOL    HW125877   2.575   3.625  -0.043  1.4309  1.2819  0.5486
 5066SOL    HW225878   2.679   3.499  -0.038  0.5422  0.4947 -0.7136
 5067SOL     OW25879   7.299   9.963   4.227 -0.2038 -0.1358  0.5845
 5067SOL    HW125880   7.394   9.983   4.204 -0.3408  1.4876  1.3339
 5067SOL    HW225881   7.290   9.951   4.326 -0.6240 -1.1833  0.4234
 5068SOL     OW25882   4.207   2.207   2.611 -0.0193  0.9653 -0.1570
 5068SOL    HW125883   4.291   2.164   2.644  0.3893  1.5959 -0.3785
 5068SOL    HW225884   4.128   2.158   2.648  0.4405 -0.4217 -0.9734
 5069SOL     OW25885   6.315   0.754   2.977  0.1103  0.6343  0.2538
 5069SOL    HW125886   6.227   0.762   2.930  0.1375 -0.8319 -0.0520
 5069SOL    HW225887   6.336   0.658   2.993  0.9113  1.0384  1.7554
 5070SOL     OW25888   2.988   0.333   4.890  0.0066  0.3498 -0.1076
 5070SOL    HW125889   3.054   0.408   4.897  0.0776  0.4577 -1.6642
 5070SOL    HW225890   2.899   0.363   4.926  0.6003  0.4558  1.2839
 5071SOL     OW25891   1.763   1.537   4.436 -0.0283  0.1070 -0.0867
 5071SOL    HW125892   1.766   1.440   4.414  0.7999 -0.0483  0.6963
 5071SOL    HW225893   1.745   1.589   4.352 -0.0508 -0.6845 -0.5814
 5072SOL     OW25894   8.601   7.821   0.992  0.5172 -0.0478  0.1584
 5072SOL    HW125895   8.565   7.861   0.908  0.1754 -0.3439  0.1623
 5072SOL    HW225896   8.543   7.847   1.069 -0.8705 -2.1747 -0.1298
 5073SOL     OW25897   0.390   1.966   0.014  0.1964  0.2901  0.5709
 5073SOL    HW125898   0.416   1.871   0.030 -0.0801  0.4589  2.1004
 5073SOL    HW225899   0.318   1.969  -0.055 -0.4872 -0.6918  1.2248
 5074SOL     OW25900   5.096   0.169   1.691 -0.7099  0.3679  0.1433
 5074SOL    HW125901   5.084   0.180   1.790 -1.6469  0.7010 -0.0114
 5074SOL    HW225902   5.067   0.077   1.664 -0.6052  0.3322  0.1510
 5075SOL     OW25903   8.705   3.064   1.495 -0.4235 -0.2100 -0.2776
 5075SOL    HW125904   8.739   2.971   1.513 -2.5346 -1.1633 -1.1055
 5075SOL    HW225905   8.610   3.072   1.525  0.2551  2.2319  1.3802
 5076SOL     OW25906   8.180  10.000   0.261  0.5697 -0.3302  0.0221
 5076SOL    HW125907   8.114  10.074   0.272  1.0723 -0.1465  1.8866
 5076SOL    HW225908   8.259  10.015   0.321  1.3998 -1.5698 -0.7205
 5077SOL     OW25909   2.600   6.114   1.529 -0.3067  0.2662 -0.5961
 5077SOL    HW125910   2.665   6.058   1.580  0.3639  1.6920  0.1518
 5077SOL    HW225911   2.630   6.121   1.434 -0.5774 -0.9092 -0.7767
 5078SOL     OW25912   2.684   3.682   2.752 -0.0716  0.1401 -0.0188
 5078SOL    HW125913   2.595   3.656   2.715 -1.0615  2.2131  0.8524
 5078SOL    HW225914   2.696   3.781   2.745  2.4632 -0.1771 -0.7483
 5079SOL     OW25915   7.176   9.655   3.216 -0.2178  0.2041 -0.2563
 5079SOL    HW125916   7.104   9.605   3.265 -0.5263  0.1990 -0.7115
 5079SOL    HW225917   7.194   9.741   3.264  2.2702 -1.5496  2.1153
 5080SOL     OW25918   8.916   4.514   1.975 -0.2515 -0.3247 -0.2486
 5080SOL    HW125919   9.001   4.463   1.967 -1.2139 -2.0347  0.0688
 5080SOL    HW225920   8.843   4.466   1.927 -1.7603 -0.6517  2.2258
 5081SOL     OW25921   1.612   1.898   2.831  0.0857 -0.3708  0.3374
 5081SOL    HW125922   1.535   1.890   2.896  0.0036 -0.7194  0.2024
 5081SOL    HW225923   1.683   1.956   2.871  0.2638 -1.0060  0.9725
 5082SOL     OW25924   0.596   8.715   2.419  0.7151 -0.1828 -0.3473
 5082SOL    HW125925   0.666   8.784   2.398 -0.2707  1.4505  1.5321
 5082SOL    HW225926   0.510   8.741   2.375  0.0527  0.4073  1.2509
 5083SOL     OW25927   2.530   4.153   2.703 -0.0834 -0.2824  0.0983
 5083SOL    HW125928   2.571   4.229   2.654  0.5105 -1.1487 -0.7532
 5083SOL    HW225929   2.435   4.142   2.674  0.3751 -1.0353 -1.1653
 5084SOL     OW25930   7.800   0.433   1.671 -0.3105 -0.3224 -0.2903
 5084SOL    HW125931   7.838   0.514   1.715  1.0103 -1.3358  0.4889
 5084SOL    HW225932   7.815   0.438   1.572  2.1144 -0.8219  0.0299
 5085SOL     OW25933   5.479   0.753   1.241 -0.7081 -0.3253 -0.0665
 5085SOL    HW125934   5.475   0.829   1.306 -0.7349 -0.3842  0.0004
 5085SOL    HW225935   5.556   0.766   1.179 -2.7622  1.6421 -2.3579
 5086SOL     OW25936   1.877   2.825   1.812  0.2896  0.2498  0.4467
 5086SOL    HW125937   1.796   2.884   1.810  0.6096  0.6857  0.2231
 5086SOL    HW225938   1.932   2.847   1.892  0.4594  0.3232  0.3098
 5087SOL     OW25939   2.006   0.467   1.791  0.1151 -0.3783 -0.0125
 5087SOL    HW125940   2.011   0.377   1.747  0.8863 -0.3338 -0.0293
 5087SOL    HW225941   2.001   0.538   1.721 -0.3614 -0.3980 -0.0007
 5088SOL     OW25942   2.827   4.471   0.697  0.4028 -0.4535 -0.2479
 5088SOL    HW125943   2.832   4.551   0.638  0.8184 -0.0378  0.3471
 5088SOL    HW225944   2.812   4.500   0.792  1.1803 -1.0421  0.0652
 5089SOL     OW25945   0.198   1.954   0.778 -0.3293 -0.2736  0.3465
 5089SOL    HW125946   0.098   1.963   0.774 -0.4409 -1.4739  0.2899
 5089SOL    HW225947   0.225   1.866   0.740  0.9833  1.1519 -2.1770
 5090SOL     OW25948   0.908   7.629   2.087 -0.2188  0.2945  0.0860
 5090SOL    HW125949   0.994   7.609   2.040  0.3724  0.0942  1.2486
 5090SOL    HW225950   0.856   7.545   2.099 -0.2566  0.3079  0.0211
 5091SOL     OW25951   0.890   5.436   0.797 -0.3395 -0.3441  0.3029
 5091SOL    HW125952   0.935   5.525   0.795  1.5997 -1.2711  0.9875
 5091SOL    HW225953   0.851   5.421   0.888  0.6913 -0.8098  0.6854
 5092SOL     OW25954   4.626   2.406   2.440 -0.2131 -0.4649  0.0187
 5092SOL    HW125955   4.693   2.356   2.495  0.8521  1.7510  0.8281
 5092SOL    HW225956   4.659   2.413   2.346  0.8867  0.9053  0.4907
 5093SOL     OW25957   6.407   1.261   3.753 -0.3745  0.3292 -0.1691
 5093SOL    HW125958   6.369   1.323   3.685 -1.6940 -0.2123  0.0572
 5093SOL    HW225959   6.379   1.167   3.733  1.3646 -0.1544 -0.3410
 5094SOL     OW25960   1.077   6.464   1.451  0.2716  0.0942 -0.4692
 5094SOL    HW125961   0.988   6.506   1.467 -0.8472 -1.3884 -2.6818
 5094SOL    HW225962   1.149   6.526   1.483 -1.4872  1.6881  0.5060
 5095SOL     OW25963   1.424   2.584   1.830  0.4580  0.2069  0.6482
 5095SOL    HW125964   1.514   2.579   1.788  0.3233  0.8688  0.2689
 5095SOL    HW225965   1.354   2.582   1.759  0.1816 -0.0762  0.9274
 5096SOL     OW25966   1.313   0.551   0.315 -0.5426  0.0444 -0.4037
 5096SOL    HW125967   1.325   0.599   0.227  3.7497 -1.0852 -0.5574
 5096SOL    HW225968   1.278   0.459   0.298 -0.0291 -0.0616 -0.9403
 5097SOL     OW25969   2.971   1.567   0.299  0.6792 -0.1655  0.3113
 5097SOL    HW125970   2.947   1.640   0.235 -1.9139 -2.0079 -0.9097
 5097SOL    HW225971   3.064   1.536   0.281  0.1244 -0.3885 -2.3461
 5098SOL     OW25972   8.025   8.643   4.632  0.1959  0.4636  0.4493
 5098SOL    HW125973   7.939   8.604   4.665  0.7950  0.2372  1.7915
 5098SOL    HW225974   8.033   8.738   4.663  1.4411 -0.2063  2.2738
 5099SOL     OW25975   1.645   0.432   0.796  0.3476 -0.0282  0.1342
 5099SOL    HW125976   1.723   0.370   0.807 -0.9215 -1.7753 -0.6547
 5099SOL    HW225977   1.620   0.439   0.700 -0.7923  0.1310  0.4316
 5100SOL     OW25978   0.431   2.427   3.998 -0.3536  0.0695  0.3778
 5100SOL    HW125979   0.420   2.331   3.971  0.5326  0.5353 -1.7020
 5100SOL    HW225980   0.340   2.467   4.013 -0.7383 -1.0066  1.0167
 5101SOL     OW25981   2.050   0.353   4.225 -0.2161  0.2933  0.4004
 5101SOL    HW125982   2.067   0.288   4.151 -0.9515 -1.2444  1.5460
 5101SOL    HW225983   2.112   0.431   4.216  1.2765 -0.9602 -0.5098
 5102SOL     OW25984   9.448   6.752   1.305 -0.0146 -0.3595 -0.3718
 5102SOL    HW125985   9.479   6.844   1.282 -0.4158 -0.0127  0.4690
 5102SOL    HW225986   9.440   6.698   1.222 -1.1905  0.7953 -1.0254
 5103SOL     OW25987   2.206   7.642   3.671  0.3142  0.5907  0.0001
 5103SOL    HW125988   2.109   7.621   3.662 -0.0875  1.7343  1.4330
 5103SOL    HW225989   2.235   7.696   3.591 -0.1676  0.0715 -0.5347
 5104SOL     OW25990   2.520   1.855   2.609 -0.0195 -0.0671  0.5907
 5104SOL    HW125991   2.480   1.927   2.666  0.9446 -0.2693  1.5396
 5104SOL    HW225992   2.525   1.771   2.662 -1.1678 -0.8532 -0.5262
 5105SOL     OW25993   7.110   7.878   1.442 -0.0068 -0.3293  0.4674
 5105SOL    HW125994   7.021   7.911   1.472 -1.2561 -0.9801 -2.3303
 5105SOL    HW225995   7.108   7.778   1.433  0.9320 -0.3316  0.1606
 5106SOL     OW25996   1.006   5.088   1.516  0.1955 -0.1822  0.3661
 5106SOL    HW125997   1.070   5.030   1.465  2.0858 -0.1825  2.6895
 5106SOL    HW225998   0.912   5.063   1.491  1.0427 -0.5683 -2.6723
 5107SOL     OW25999   4.065   7.464   4.251  0.4231 -0.7821  0.1227
 5107SOL    HW126000   4.084   7.385   4.309  0.8127 -0.4627  0.4357
 5107SOL    HW226001   4.111   7.545   4.289 -0.8460 -0.1834  0.4113
 5108SOL     OW26002   8.943   9.450   0.559  0.8164 -0.4005  0.3809
 5108SOL    HW126003   8.937   9.530   0.619  0.7816 -1.0440  1.2476
 5108SOL    HW226004   8.867   9.388   0.579 -1.2076  0.9708 -2.7235
 5109SOL     OW26005   1.692   0.521   4.154 -0.0279  0.4724 -0.0864
 5109SOL    HW126006   1.607   0.480   4.187  1.1638 -0.7153  1.5631
 5109SOL    HW226007   1.693   0.618   4.176 -1.8671  0.9624 -1.9907
 5110SOL     OW26008   1.435   9.894   0.922 -0.3470  0.0022 -0.4050
 5110SOL    HW126009   1.414   9.987   0.891 -1.8641 -0.5530 -1.1086
 5110SOL    HW226010   1.523   9.894   0.969 -0.2251  1.7544 -0.5803
 5111SOL     OW26011   9.032   1.332   5.480 -0.0746 -0.0762  0.0189
 5111SOL    HW126012   9.086   1.346   5.396  1.5247 -0.0032  1.0365
 5111SOL    HW226013   9.081   1.373   5.557 -1.1055 -0.9353  1.1329
 5112SOL     OW26014   2.882   8.596   5.310  0.2509 -0.2191 -0.5650
 5112SOL    HW126015   2.906   8.574   5.215 -0.4597 -0.6126 -0.6621
 5112SOL    HW226016   2.825   8.523   5.347 -1.0222  0.8166 -0.4381
 5113SOL     OW26017   3.470   6.327   2.589  0.4558 -0.0711  0.2874
 5113SOL    HW126018   3.468   6.227   2.594  0.0544 -0.0799 -0.0066
 5113SOL    HW226019   3.479   6.356   2.494 -1.7271  0.1891  0.1236
 5114SOL     OW26020   6.938   0.422   4.078  0.3954 -0.2728  0.1338
 5114SOL    HW126021   6.979   0.507   4.044  1.1604  0.7833  3.5460
 5114SOL    HW226022   7.010   0.355   4.098 -0.0770 -1.0629 -0.7669
 5115SOL     OW26023   1.571   9.089   2.891  0.1271 -0.0090 -0.6588
 5115SOL    HW126024   1.520   9.010   2.856 -0.4067  0.5155 -1.0721
 5115SOL    HW226025   1.607   9.068   2.982 -1.4638 -0.1227 -0.0387
 5116SOL     OW26026   1.515   3.537   3.741 -0.3618 -0.1940 -0.2410
 5116SOL    HW126027   1.588   3.486   3.695 -1.3995 -1.3163 -0.6850
 5116SOL    HW226028   1.484   3.486   3.821 -0.0709  0.6937  0.4380
 5117SOL     OW26029   2.173   5.181   2.934  0.3282 -1.0055 -0.6356
 5117SOL    HW126030   2.082   5.222   2.935  0.2346 -1.2197  0.4149
 5117SOL    HW226031   2.165   5.082   2.945  0.8573 -0.6715  3.3080
 5118SOL     OW26032   6.464   0.456   1.848 -0.3407  0.4129 -0.2937
 5118SOL    HW126033   6.434   0.362   1.861 -1.6914  0.8949  0.1302
 5118SOL    HW226034   6.523   0.483   1.925  1.2522 -0.5449 -1.1526
 5119SOL     OW26035   9.753   8.126   0.880  0.6647  0.2401 -0.9255
 5119SOL    HW126036   9.700   8.100   0.799 -0.6877  0.1930 -0.0233
 5119SOL    HW226037   9.820   8.054   0.900 -0.8596 -1.0525 -0.3723
 5120SOL     OW26038   1.830   5.215   1.343  0.0675 -0.4112 -0.7045
 5120SOL    HW126039   1.902   5.201   1.275  0.0676  0.1637 -0.8267
 5120SOL    HW226040   1.746   5.170   1.313  0.1889 -0.5208 -0.8774
 5121SOL     OW26041   2.365   6.896   2.122 -0.4450 -0.1193  0.0285
 5121SOL    HW126042   2.373   6.949   2.038  1.9093 -2.0695 -1.0422
 5121SOL    HW226043   2.427   6.932   2.191 -0.1387 -0.3800 -0.1083
 5122SOL     OW26044   1.521   3.455   4.630  0.0862  0.4540 -0.9673
 5122SOL    HW126045   1.579   3.464   4.711 -0.1961 -0.4671 -0.6532
 5122SOL    HW226046   1.495   3.545   4.597 -2.0207  0.8188  1.5698
 5123SOL     OW26047   0.438   3.218   2.392 -0.0799  0.0099 -0.2560
 5123SOL    HW126048   0.384   3.228   2.476 -0.7070  0.8800 -0.7546
 5123SOL    HW226049   0.510   3.288   2.391 -1.1247  1.0955 -1.2250
 5124SOL     OW26050   4.196   1.935   1.332  0.2470  0.3396 -0.0704
 5124SOL    HW126051   4.242   2.003   1.389  0.2421 -0.6617  1.1639
 5124SOL    HW226052   4.243   1.847   1.341 -0.6747 -0.1941 -0.4192
 5125SOL     OW26053   0.999   2.927   0.150 -0.1029  0.5786  0.5421
 5125SOL    HW126054   1.033   2.843   0.107 -0.9347  1.1964 -1.3732
 5125SOL    HW226055   1.077   2.984   0.178  0.4512 -0.3173  0.8475
 5126SOL     OW26056   5.033   7.941   4.191 -0.5611  0.0612 -0.0120
 5126SOL    HW126057   5.095   8.013   4.224 -1.1722  1.0139 -0.8962
 5126SOL    HW226058   4.939   7.967   4.210 -0.8049 -0.3559 -0.6301
 5127SOL     OW26059   2.788   3.812   3.646 -0.1984  0.3325 -0.2201
 5127SOL    HW126060   2.846   3.892   3.632 -0.1492  0.6316  1.5749
 5127SOL    HW226061   2.745   3.817   3.737 -3.5652  0.4692 -1.7403
 5128SOL     OW26062   8.278   9.101   3.937  0.0185 -0.4074 -0.5264
 5128SOL    HW126063   8.291   9.115   4.035  1.5819  0.8617 -0.8760
 5128SOL    HW226064   8.312   9.011   3.911 -0.3916 -0.7432  0.0843
 5129SOL     OW26065   8.501   9.045   2.763  0.5272  0.2778  0.2275
 5129SOL    HW126066   8.462   8.965   2.808  0.9233  1.0586  2.0094
 5129SOL    HW226067   8.453   9.127   2.793  1.7841  0.9693  0.4056
 5130SOL     OW26068   1.746   7.876   0.006 -0.6642 -0.5174 -0.0869
 5130SOL    HW126069   1.739   7.777   0.002  2.2901 -0.8041  0.5254
 5130SOL    HW226070   1.699   7.910   0.087 -1.4112 -1.4262 -0.1326
 5131SOL     OW26071   9.579   6.553   0.889 -0.1748 -0.5493  0.6820
 5131SOL    HW126072   9.652   6.494   0.925  2.3151  2.0686  0.1067
 5131SOL    HW226073   9.531   6.597   0.965 -1.4463 -2.5385  1.0775
 5132SOL     OW26074   3.665   2.405   2.882  0.0869 -0.1321  0.2145
 5132SOL    HW126075   3.657   2.340   2.957 -0.0302 -1.3591 -0.8567
 5132SOL    HW226076   3.721   2.483   2.912 -0.8201 -0.0986  1.9004
 5133SOL     OW26077   0.812   9.665   2.608  0.6473 -0.0413  0.2376
 5133SOL    HW126078   0.746   9.728   2.649 -1.1538 -1.2721 -0.7402
 5133SOL    HW226079   0.905   9.697   2.629 -0.2250  2.2011  0.8741
 5134SOL     OW26080   1.107   2.096   4.570  0.2748  0.2045 -0.0418
 5134SOL    HW126081   1.040   2.128   4.637 -0.4432 -2.5667  0.6065
 5134SOL    HW226082   1.061   2.073   4.484  0.8050  1.0048 -0.5529
 5135SOL     OW26083   3.650   7.384   2.940 -0.3057  0.0341 -0.6359
 5135SOL    HW126084   3.665   7.289   2.968 -0.1944  0.2224 -0.0405
 5135SOL    HW226085   3.609   7.386   2.849 -2.7306 -0.6551  0.4050
 5136SOL     OW26086   9.606   9.483   3.546 -0.4762  0.4261 -0.2717
 5136SOL    HW126087   9.704   9.498   3.560 -0.7045  2.2283 -0.5021
 5136SOL    HW226088   9.589   9.386   3.530  1.3030  0.1314 -0.4504
 5137SOL     OW26089   6.549   0.583   3.571 -0.2886  0.1287  0.1843
 5137SOL    HW126090   6.611   0.509   3.543 -0.3865 -0.5927  1.8097
 5137SOL    HW226091   6.534   0.578   3.670 -2.0916  0.9557 -0.0341
 5138SOL     OW26092   1.927   2.161   1.152  0.1113  0.6545 -0.2089
 5138SOL    HW126093   1.908   2.145   1.055 -1.9768  0.0697  0.2578
 5138SOL    HW226094   1.960   2.254   1.164  0.2788  0.7701 -1.4706
 5139SOL     OW26095   2.648   0.176   2.233  0.2080  0.1628  0.3315
 5139SOL    HW126096   2.713   0.246   2.263 -0.9303  0.3729  2.4127
 5139SOL    HW226097   2.697   0.091   2.215  1.1349  0.4312  1.4849
 5140SOL     OW26098   7.644   0.330   0.707  0.0638 -0.3135  0.7620
 5140SOL    HW126099   7.590   0.252   0.675 -1.2823 -0.1893  2.6167
 5140SOL    HW226100   7.595   0.415   0.686  0.6886 -0.0604  0.3216
 5141SOL     OW26101   8.727   5.070   2.210  0.2802  0.1907  0.9511
 5141SOL    HW126102   8.668   4.994   2.238 -0.0444 -0.2807 -0.9452
 5141SOL    HW226103   8.801   5.035   2.153 -0.2826  1.3733 -0.5375
 5142SOL     OW26104   4.112   6.599   1.196  0.5608  0.6234  0.0227
 5142SOL    HW126105   4.177   6.663   1.156 -0.8175  1.2582 -1.2781
 5142SOL    HW226106   4.072   6.639   1.279  2.5515 -0.1991  1.4083
 5143SOL     OW26107   2.205   8.598   3.511 -0.4951 -0.1939 -0.0426
 5143SOL    HW126108   2.297   8.569   3.536 -0.3002 -0.2707 -0.8556
 5143SOL    HW226109   2.188   8.689   3.548  0.2876  0.2632 -0.8072
 5144SOL     OW26110   3.827   1.359   4.511 -0.1167  0.2482  0.3406
 5144SOL    HW126111   3.920   1.359   4.547 -0.1950 -1.5928  0.6064
 5144SOL    HW226112   3.818   1.429   4.441  0.9508  1.7000  1.6053
 5145SOL     OW26113   4.950   9.445   3.687 -0.3502  0.2579  0.4640
 5145SOL    HW126114   4.964   9.390   3.605 -0.1446  1.3929 -0.2690
 5145SOL    HW226115   4.943   9.385   3.767  3.5207 -0.7010  0.1845
 5146SOL     OW26116   3.169   1.061   3.718  0.4960 -0.4271 -0.1499
 5146SOL    HW126117   3.149   1.159   3.724  1.1644 -0.3283  0.5941
 5146SOL    HW226118   3.158   1.030   3.624 -0.9005  0.1068 -0.1752
 5147SOL     OW26119   7.562   1.254   3.546 -0.5364  0.3831 -0.7957
 5147SOL    HW126120   7.581   1.164   3.508  1.7487  0.0062  1.1140
 5147SOL    HW226121   7.644   1.311   3.540 -0.8682  1.1230  1.2458
 5148SOL     OW26122   4.388   9.685   3.686  0.3548 -1.0425 -0.0782
 5148SOL    HW126123   4.423   9.748   3.756  0.0701 -1.2881  0.2885
 5148SOL    HW226124   4.345   9.736   3.612  0.6149 -0.7820 -0.0496
 5149SOL     OW26125   2.974   4.471   1.735  0.3691 -0.0443 -0.5100
 5149SOL    HW126126   2.954   4.568   1.752 -0.6548 -0.2484 -0.5537
 5149SOL    HW226127   2.889   4.421   1.721  0.8677 -1.0903  0.1858
 5150SOL     OW26128   0.560   8.132   0.785  0.0635 -0.5198 -0.1867
 5150SOL    HW126129   0.499   8.208   0.809  2.8657  1.6155  0.5321
 5150SOL    HW226130   0.551   8.113   0.687  0.6370  2.0866 -0.8119
 5151SOL     OW26131   3.013   6.888   4.228 -0.0320  0.0639  0.1732
 5151SOL    HW126132   3.051   6.798   4.244 -2.6575 -0.7695  1.9639
 5151SOL    HW226133   3.021   6.944   4.311 -1.1868  0.4265  0.0538
 5152SOL     OW26134   9.476   7.795   4.299  0.7095  0.3405 -0.9054
 5152SOL    HW126135   9.481   7.722   4.230  0.2076  0.1838 -0.7727
 5152SOL    HW226136   9.569   7.823   4.323  0.9272 -0.8477 -0.3240
 5153SOL     OW26137   4.688   1.747   0.895  0.0798 -0.6148  0.0066
 5153SOL    HW126138   4.699   1.844   0.920  2.8292 -0.6617 -0.8645
 5153SOL    HW226139   4.673   1.694   0.978  1.8995  0.1521  0.8473
 5154SOL     OW26140   2.827   8.698   3.334 -0.0369  0.3357  0.1802
 5154SOL    HW126141   2.821   8.634   3.411 -0.5611  1.6922  1.2915
 5154SOL    HW226142   2.788   8.657   3.253 -1.5876 -0.2652  1.2124
 5155SOL     OW26143   6.601   9.846   0.608 -0.3005 -0.1719  0.2494
 5155SOL    HW126144   6.683   9.823   0.555  1.1569 -0.5339  2.5938
 5155SOL    HW226145   6.604   9.943   0.633  0.3537 -0.5920  1.8730
 5156SOL     OW26146   1.060   2.003   4.043 -0.4055 -0.3728 -0.0187
 5156SOL    HW126147   1.158   2.023   4.038 -0.4904  0.4474  1.3023
 5156SOL    HW226148   1.015   2.036   3.961  0.3602 -0.3311 -0.4280
 5157SOL     OW26149   9.856   9.283   1.580  0.3798 -0.4012  0.2274
 5157SOL    HW126150   9.886   9.201   1.628  0.3139 -0.4822  0.1320
 5157SOL    HW226151   9.934   9.342   1.562  0.6645 -1.1468 -1.0466
 5158SOL     OW26152   4.282   3.698   2.724 -0.2630 -0.3991 -0.0819
 5158SOL    HW126153   4.196   3.727   2.766 -0.0406  1.2092 -0.7235
 5158SOL    HW226154   4.274   3.701   2.625 -0.3525 -2.9309 -0.1885
 5159SOL     OW26155   1.971   2.173   5.069 -0.3672  0.9144 -0.0354
 5159SOL    HW126156   1.906   2.187   4.994 -2.3148 -0.8783  1.2594
 5159SOL    HW226157   2.010   2.261   5.096 -0.2087  1.6822 -2.6205
 5160SOL     OW26158   4.267   8.511   3.733 -0.0698  0.1281  0.2279
 5160SOL    HW126159   4.280   8.527   3.831  1.2571 -1.3383  0.3091
 5160SOL    HW226160   4.352   8.528   3.684 -0.9049  1.5226 -0.7826
 5161SOL     OW26161   1.715   6.944   5.154 -0.1925 -1.1028  0.0642
 5161SOL    HW126162   1.684   6.935   5.060 -0.1803 -0.1677 -0.0323
 5161SOL    HW226163   1.812   6.965   5.156 -0.3168 -0.5259  0.2634
 5162SOL     OW26164   7.071   0.886   2.452  0.3525 -0.2064  0.0625
 5162SOL    HW126165   7.045   0.842   2.538  0.6081  0.7891  0.6643
 5162SOL    HW226166   7.114   0.819   2.392 -0.9561 -1.1924  0.2103
 5163SOL     OW26167   3.637   3.545   3.330 -0.0127 -0.5216 -0.3616
 5163SOL    HW126168   3.731   3.531   3.301 -0.2650 -0.6920 -1.1001
 5163SOL    HW226169   3.625   3.640   3.360  0.9432 -1.0527  1.8401
 5164SOL     OW26170   1.231   1.201   0.328  0.1170 -0.2359  0.7770
 5164SOL    HW126171   1.323   1.197   0.290  0.3864  0.9365  1.2799
 5164SOL    HW226172   1.203   1.296   0.340 -1.3395 -0.5709  0.2187
 5165SOL     OW26173   6.789   9.389   1.935 -0.0235  0.9876 -0.2559
 5165SOL    HW126174   6.690   9.374   1.939 -0.1133  1.8302  0.9155
 5165SOL    HW226175   6.836   9.301   1.948 -0.6149  0.4031 -1.9539
 5166SOL     OW26176   0.251   9.087   2.304 -0.1632 -0.2029  0.0628
 5166SOL    HW126177   0.243   9.095   2.204 -0.0735 -1.8879 -0.0926
 5166SOL    HW226178   0.163   9.112   2.346 -0.1517  0.6846 -0.4139
 5167SOL     OW26179   7.891   7.807   3.631 -0.2136  0.0099 -0.3038
 5167SOL    HW126180   7.804   7.853   3.616 -0.4756 -0.9525 -1.8416
 5167SOL    HW226181   7.965   7.857   3.585 -0.4413 -0.8765 -1.6546
 5168SOL     OW26182   0.331   8.534   1.123  0.2281  0.0546 -0.4676
 5168SOL    HW126183   0.312   8.526   1.221  0.4520 -0.8241 -0.4909
 5168SOL    HW226184   0.425   8.564   1.110 -0.9589  4.1442 -0.3571
 5169SOL     OW26185   1.536   8.158   5.184  0.0536 -0.2143 -0.3219
 5169SOL    HW126186   1.531   8.130   5.088 -0.3016 -0.7506 -0.1467
 5169SOL    HW226187   1.630   8.148   5.217  0.3128  0.5777 -0.7934
 5170SOL     OW26188   2.572   7.103   3.604 -0.2555 -0.8887 -0.5066
 5170SOL    HW126189   2.543   7.162   3.680 -1.1269  0.5065 -1.9004
 5170SOL    HW226190   2.649   7.146   3.557 -0.7419 -0.9603 -1.3820
 5171SOL     OW26191   1.124   4.284   2.659  0.0788  0.1176  0.5262
 5171SOL    HW126192   1.133   4.383   2.648 -0.9823  0.1268 -0.3558
 5171SOL    HW226193   1.040   4.263   2.708 -1.0505 -0.4365 -1.5749
 5172SOL     OW26194   1.831   0.311   4.422 -0.4551 -0.4137  0.0069
 5172SOL    HW126195   1.783   0.388   4.380  0.0772  0.4137  0.8937
 5172SOL    HW226196   1.923   0.303   4.384  0.3678  0.9210  1.6372
 5173SOL     OW26197   5.868   1.207   3.236 -0.0923 -0.2847  0.5846
 5173SOL    HW126198   5.812   1.124   3.237 -1.0271  0.3281  0.0566
 5173SOL    HW226199   5.885   1.234   3.141  1.5016 -0.7215  0.7323
 5174SOL     OW26200   3.348   9.822   1.232 -0.6589 -0.1491  0.1884
 5174SOL    HW126201   3.396   9.888   1.290  0.0218 -0.5126  0.0496
 5174SOL    HW226202   3.276   9.869   1.181  1.5860  1.1225 -2.0019
 5175SOL     OW26203   2.957   8.115   1.557 -0.9108 -0.1666  0.0868
 5175SOL    HW126204   3.056   8.108   1.573 -1.0824 -2.2725  0.4265
 5175SOL    HW226205   2.939   8.185   1.488  0.8881 -0.2385 -0.4802
 5176SOL     OW26206   6.301   7.189   2.015 -0.2583 -0.4257 -0.2954
 5176SOL    HW126207   6.222   7.248   1.998 -0.2699 -0.6367 -1.0094
 5176SOL    HW226208   6.282   7.127   2.091 -0.2908  0.4084  0.3857
 5177SOL     OW26209   1.074   7.204   4.649 -0.4479 -0.1317  0.2518
 5177SOL    HW126210   0.985   7.249   4.655 -1.3568 -1.5212 -1.9683
 5177SOL    HW226211   1.136   7.261   4.595 -0.6377 -0.0938  0.0714
 5178SOL     OW26212   1.619   8.932   2.076 -0.5026 -0.2919  0.4535
 5178SOL    HW126213   1.538   8.930   2.135 -0.4123  0.0903  0.5925
 5178SOL    HW226214   1.699   8.955   2.131 -0.5043  0.6292  0.0862
 5179SOL     OW26215   3.350   2.774   1.357  0.3998  0.2180 -0.5674
 5179SOL    HW126216   3.384   2.680   1.357 -0.9624 -0.2899  0.8199
 5179SOL    HW226217   3.284   2.785   1.282  0.9443  0.2217 -1.0518
 5180SOL     OW26218   9.734   4.618   2.079 -0.1101 -0.0521  0.2333
 5180SOL    HW126219   9.710   4.685   2.009  0.5085  0.1762  0.2395
 5180SOL    HW226220   9.833   4.619   2.094 -0.1212 -0.8015  0.3963
 5181SOL     OW26221   8.836   9.262   3.618  0.6164  0.2012 -0.0397
 5181SOL    HW126222   8.883   9.349   3.603 -1.3179  1.3770  0.4040
 5181SOL    HW226223   8.739   9.280   3.635  0.0850 -2.1018 -0.4769
 5182SOL     OW26224   3.331   2.511   4.181  0.4503  0.7452  0.4733
 5182SOL    HW126225   3.284   2.438   4.132  1.9149  0.0106  0.1468
 5182SOL    HW226226   3.342   2.590   4.121  0.4639  0.5806  0.2623
 5183SOL     OW26227   2.124   8.553   4.629  0.5764  0.2019  0.3955
 5183SOL    HW126228   2.151   8.586   4.719  0.7915  0.6836  0.1587
 5183SOL    HW226229   2.175   8.602   4.559 -1.0541  1.2930 -0.0750
 5184SOL     OW26230   2.001   4.292   1.569 -0.3908 -0.5305 -0.5651
 5184SOL    HW126231   2.004   4.392   1.573  2.6259 -0.5774 -0.3937
 5184SOL    HW226232   1.985   4.256   1.661  2.9368 -0.2349  0.2115
 5185SOL     OW26233   5.225   0.829   4.837  0.3941  0.1957 -0.3534
 5185SOL    HW126234   5.321   0.854   4.822  0.7039  0.8968  2.5536
 5185SOL    HW226235   5.167   0.906   4.810  0.8826  1.1447  1.2286
 5186SOL     OW26236   7.696   0.493   5.385  0.0565 -0.4049 -0.2741
 5186SOL    HW126237   7.759   0.444   5.445  1.8665  1.2238 -0.7725
 5186SOL    HW226238   7.689   0.444   5.298 -1.2301 -1.8468  0.6164
 5187SOL     OW26239   9.598   3.000   3.203 -0.4549 -1.0286 -0.0250
 5187SOL    HW126240   9.666   3.013   3.131 -1.3968  1.5598 -0.5236
 5187SOL    HW226241   9.612   2.912   3.248  3.1960 -0.5311 -0.1136
 5188SOL     OW26242   4.192   2.538   3.770 -0.7398  0.0922  0.0961
 5188SOL    HW126243   4.106   2.588   3.768 -0.5817  0.3392 -0.9248
 5188SOL    HW226244   4.256   2.584   3.832 -0.6494  1.0767 -0.7139
 5189SOL     OW26245   3.063   1.536   4.990 -0.1528 -0.3818 -1.0872
 5189SOL    HW126246   3.162   1.523   4.997 -0.1364  0.2386 -0.0181
 5189SOL    HW226247   3.029   1.495   4.905  0.8842 -1.3847 -1.0179
 5190SOL     OW26248   7.439   8.964   2.890 -0.6204 -0.3930  0.0968
 5190SOL    HW126249   7.536   8.988   2.894 -1.4083  2.6277  2.1395
 5190SOL    HW226250   7.394   9.018   2.819 -0.8518 -1.7451 -0.8066
 5191SOL     OW26251   4.187   7.293   2.781  0.0264  0.6635 -0.4000
 5191SOL    HW126252   4.159   7.240   2.701  2.5481  0.8676 -1.4902
 5191SOL    HW226253   4.161   7.388   2.769  0.6032  0.7356 -1.1067
 5192SOL     OW26254   8.245   9.378   5.178 -1.0366  0.2360 -0.2132
 5192SOL    HW126255   8.276   9.301   5.233  0.7951  2.3255  1.7950
 5192SOL    HW226256   8.299   9.385   5.095  1.0186  1.2709  1.1808
 5193SOL     OW26257   4.065   3.755   1.124 -0.5976  0.1934 -0.0626
 5193SOL    HW126258   4.153   3.709   1.122 -1.0631 -0.6687 -0.9879
 5193SOL    HW226259   4.077   3.849   1.091 -0.1926 -0.2298 -1.1658
 5194SOL     OW26260   7.303   7.166   4.062 -0.6464  0.5085 -0.0795
 5194SOL    HW126261   7.208   7.197   4.069 -0.7331 -0.2924  2.8442
 5194SOL    HW226262   7.309   7.069   4.086  0.6773  0.1132 -1.9180
 5195SOL     OW26263   7.938   0.079   4.012  0.3476  0.1577 -0.2674
 5195SOL    HW126264   7.974   0.172   4.001 -0.7971  0.4792 -1.3157
 5195SOL    HW226265   7.993   0.031   4.081  0.9307  1.6082  0.3125
 5196SOL     OW26266   3.667   9.002   3.620  0.0030 -0.1572 -0.1367
 5196SOL    HW126267   3.589   8.987   3.559 -0.5613  1.4150  0.1817
 5196SOL    HW226268   3.647   8.961   3.709  0.0812 -0.8814 -0.4481
 5197SOL     OW26269   9.832   1.330   1.449 -0.6580  0.4187 -0.1458
 5197SOL    HW126270   9.783   1.327   1.537 -0.0084  1.0540  0.2426
 5197SOL    HW226271   9.922   1.289   1.460 -0.3220  1.0978 -0.3469
 5198SOL     OW26272   0.942   9.704   2.132  0.3358 -0.5585  0.2623
 5198SOL    HW126273   0.956   9.796   2.169 -0.7349 -0.0939 -0.4603
 5198SOL    HW226274   0.857   9.666   2.168 -0.7850 -0.0531 -1.7701
 5199SOL     OW26275   3.419   6.918   3.992 -0.4619 -0.1447  0.0183
 5199SOL    HW126276   3.323   6.943   3.987 -0.0715  1.1017 -1.4285
 5199SOL    HW226277   3.441   6.854   3.919  0.3784  1.5690 -1.2650
 5200SOL     OW26278   2.323   7.470   5.326 -0.0227 -0.1499  0.5689
 5200SOL    HW126279   2.226   7.490   5.312  0.3810  0.2616 -1.8448
 5200SOL    HW226280   2.344   7.380   5.287  0.5683 -0.2564  1.1210
 5201SOL     OW26281   4.998   1.891   3.610  0.3715  0.3633  0.0449
 5201SOL    HW126282   5.025   1.838   3.691  2.0462  0.7365 -0.2607
 5201SOL    HW226283   5.055   1.973   3.602  0.2094  0.3496 -1.4856
 5202SOL     OW26284   3.353   0.556   0.926  0.0567 -0.2530 -0.4556
 5202SOL    HW126285   3.334   0.582   1.020 -0.6407 -1.7176 -0.1758
 5202SOL    HW226286   3.444   0.587   0.900  1.0367 -1.5081  1.3522
 5203SOL     OW26287   1.377   0.526   4.891 -0.2529  0.2589 -0.4001
 5203SOL    HW126288   1.459   0.481   4.926 -2.1943 -1.7438  1.7940
 5203SOL    HW226289   1.401   0.583   4.812  3.2073 -0.2483  0.2007
 5204SOL     OW26290   9.047   8.451   2.289  0.1199  0.5263 -0.4287
 5204SOL    HW126291   8.958   8.469   2.330 -1.1210 -1.6085 -2.0553
 5204SOL    HW226292   9.063   8.513   2.213  0.5120  1.6128  0.5282
 5205SOL     OW26293   2.211   3.320   3.056 -0.1912 -0.2743  0.4089
 5205SOL    HW126294   2.310   3.307   3.049 -0.0205  1.3894 -0.6438
 5205SOL    HW226295   2.164   3.239   3.023  0.8109  0.1727 -2.2314
 5206SOL     OW26296   4.852   8.113   2.050  0.4179  0.1337  0.0530
 5206SOL    HW126297   4.807   8.145   2.133  1.2986 -0.4243  0.7527
 5206SOL    HW226298   4.920   8.044   2.073  0.4077 -0.2968 -1.1770
 5207SOL     OW26299   9.651   0.008   2.740 -0.0558  0.3512 -0.4255
 5207SOL    HW126300   9.600   0.084   2.700  1.5418  1.0302 -1.2019
 5207SOL    HW226301   9.672  -0.059   2.668  2.0992  1.1704 -0.5782
 5208SOL     OW26302   2.528   7.656   0.355  0.4165  0.4595  0.4169
 5208SOL    HW126303   2.524   7.739   0.411  0.1046  0.7599 -0.0497
 5208SOL    HW226304   2.450   7.597   0.378 -0.4333  1.1677 -0.6110
 5209SOL     OW26305   1.609   1.952   1.409 -0.0438 -0.0947 -0.3487
 5209SOL    HW126306   1.626   1.854   1.396  0.6292  0.0478 -0.5618
 5209SOL    HW226307   1.634   2.001   1.326  0.3174  0.3478  0.0220
 5210SOL     OW26308   1.831   0.127   2.980 -0.2005 -0.3606  0.6539
 5210SOL    HW126309   1.827   0.138   2.881 -1.8338  0.5772  0.8000
 5210SOL    HW226310   1.859   0.214   3.022  2.2401 -1.2580  0.9166
 5211SOL     OW26311   3.071   2.578   1.037  0.0414  0.3899  0.0842
 5211SOL    HW126312   3.005   2.625   1.094  0.3062 -0.0506  0.7630
 5211SOL    HW226313   3.150   2.550   1.092  1.2710  1.8081 -0.9207
 5212SOL     OW26314   8.358   2.145   1.485  0.2060 -0.2040 -0.6033
 5212SOL    HW126315   8.380   2.199   1.403 -1.0999  0.3572 -0.6060
 5212SOL    HW226316   8.318   2.058   1.458  2.5990 -1.3305 -0.6038
 5213SOL     OW26317   5.082   9.672   2.822  0.1111 -0.0196  0.2576
 5213SOL    HW126318   5.035   9.621   2.894 -0.6651  0.9064  0.4201
 5213SOL    HW226319   5.179   9.678   2.843  0.0685 -0.7121  0.6586
 5214SOL     OW26320   7.314   2.563   2.749 -0.2131 -0.1350  0.0091
 5214SOL    HW126321   7.349   2.469   2.751  0.6153  0.1917  1.3141
 5214SOL    HW226322   7.391   2.627   2.754 -0.8479  0.6108  0.2579
 5215SOL     OW26323   2.678   9.623   2.384 -0.2457  0.3863 -0.0012
 5215SOL    HW126324   2.744   9.597   2.314  0.3616  0.5742  0.5040
 5215SOL    HW226325   2.647   9.541   2.432 -2.7032 -0.0982 -2.2642
 5216SOL     OW26326   3.730   7.229   1.915 -0.0007 -0.4562  0.5791
 5216SOL    HW126327   3.676   7.145   1.919 -1.9151  0.7567  0.7843
 5216SOL    HW226328   3.742   7.257   1.819 -1.1767  0.1606  0.6009
 5217SOL     OW26329   4.308   8.628   4.200 -0.4596  0.3896  0.0019
 5217SOL    HW126330   4.327   8.543   4.251 -1.4907 -0.3205 -0.7738
 5217SOL    HW226331   4.303   8.704   4.264 -0.1537 -0.2354  0.7882
 5218SOL     OW26332   2.954   8.520   3.763  0.0764  0.3116  0.1469
 5218SOL    HW126333   2.893   8.598   3.778 -0.8811 -0.4354  0.1745
 5218SOL    HW226334   3.047   8.545   3.791  0.3672  2.3955 -2.5013
 5219SOL     OW26335   8.504   2.880   2.940  0.4313 -0.3839  0.7883
 5219SOL    HW126336   8.470   2.795   2.981  1.3860 -0.5287  1.2928
 5219SOL    HW226337   8.597   2.866   2.907 -0.1550 -0.1206 -1.0117
 5220SOL     OW26338   9.170   1.540   1.944 -0.1234  0.7143 -0.4346
 5220SOL    HW126339   9.228   1.556   1.865 -1.2208  1.1784 -1.1491
 5220SOL    HW226340   9.193   1.451   1.984  0.0153  0.2014 -1.6308
 5221SOL     OW26341   7.505   1.200   2.847  0.3093 -0.1077  0.0590
 5221SOL    HW126342   7.560   1.127   2.807  0.1116 -0.4352  0.3886
 5221SOL    HW226343   7.462   1.168   2.931 -0.5866  0.0760 -0.3201
 5222SOL     OW26344   3.229   7.939   1.645 -0.6279 -0.1290  0.5585
 5222SOL    HW126345   3.228   7.839   1.651 -0.7160 -0.1883 -0.4285
 5222SOL    HW226346   3.215   7.967   1.550  0.4428  0.8021  0.6656
 5223SOL     OW26347   3.915   8.957   2.879 -0.1773  0.5696 -0.3208
 5223SOL    HW126348   3.900   9.051   2.909 -0.6709 -0.2066  1.9797
 5223SOL    HW226349   3.898   8.895   2.956  1.5760 -1.2906 -1.3873
 5224SOL     OW26350   0.519   5.108   1.562  0.4180  0.7394  0.5143
 5224SOL    HW126351   0.434   5.070   1.598  0.7582  1.2479  1.9236
 5224SOL    HW226352   0.553   5.178   1.625  1.8845  0.5261 -0.0067
 5225SOL     OW26353   4.174   8.602   1.417 -0.1214 -0.1575  0.2116
 5225SOL    HW126354   4.267   8.609   1.383 -1.0065  0.7853 -2.1300
 5225SOL    HW226355   4.155   8.677   1.480  0.5689 -0.1168  0.3661
 5226SOL     OW26356   1.788   6.377   2.264 -0.5452 -0.5367 -0.1426
 5226SOL    HW126357   1.861   6.439   2.292 -2.0512  1.3239 -0.1965
 5226SOL    HW226358   1.752   6.328   2.343 -2.7174  2.4215  0.7874
 5227SOL     OW26359   1.104   3.800   1.779  0.5989  0.4457 -0.3702
 5227SOL    HW126360   1.129   3.869   1.710 -1.3398 -0.7030 -2.2838
 5227SOL    HW226361   1.102   3.710   1.736 -1.2603 -0.2121  1.0456
 5228SOL     OW26362   2.388   6.257   2.337  0.0395  0.9984  0.1615
 5228SOL    HW126363   2.476   6.291   2.370  0.7469 -1.3432  0.7625
 5228SOL    HW226364   2.400   6.222   2.244 -0.2560  0.6972  0.2383
 5229SOL     OW26365   0.889   9.446   0.628 -0.3384  0.1315 -0.4151
 5229SOL    HW126366   0.868   9.385   0.704  1.1225  1.6777  1.2918
 5229SOL    HW226367   0.881   9.397   0.542  0.3274 -2.2964  0.8762
 5230SOL     OW26368   0.489   6.577   3.120 -0.2444  0.2224  0.5543
 5230SOL    HW126369   0.455   6.503   3.178 -1.6129 -0.1735 -0.7254
 5230SOL    HW226370   0.482   6.664   3.168  0.2744 -0.3216  1.6262
 5231SOL     OW26371   2.272   4.059   1.615  0.0897  0.0186 -0.2101
 5231SOL    HW126372   2.317   4.145   1.638 -1.2310  1.4776 -2.8301
 5231SOL    HW226373   2.216   4.028   1.691  0.2281  1.7246  0.5955
 5232SOL     OW26374   9.921   2.609   0.534 -0.3565 -0.1097  0.7960
 5232SOL    HW126375   9.899   2.705   0.550  0.4303 -0.2366  2.6663
 5232SOL    HW226376  10.017   2.592   0.556 -0.4810 -1.3347  0.4463
 5233SOL     OW26377   0.027   6.562   3.947  0.3103 -0.0869 -0.9313
 5233SOL    HW126378  -0.050   6.526   3.894 -0.4220 -0.3675  0.3068
 5233SOL    HW226379   0.015   6.660   3.960 -0.1753 -0.2336 -0.2116
 5234SOL     OW26380   3.084   4.215   5.087 -0.6754 -0.7454  0.0622
 5234SOL    HW126381   3.163   4.160   5.064 -0.3527 -0.9752  1.6811
 5234SOL    HW226382   3.042   4.250   5.003  0.6963 -1.2203 -0.8334
 5235SOL     OW26383   1.842   9.232   0.518 -0.0826  0.2567  0.1871
 5235SOL    HW126384   1.766   9.230   0.583  0.2417  0.1357  0.5657
 5235SOL    HW226385   1.923   9.269   0.563  0.0761  0.4081 -0.2230
 5236SOL     OW26386   8.401   9.480   1.287  0.0028 -0.6143 -0.5979
 5236SOL    HW126387   8.354   9.445   1.207  1.2505  2.2927 -2.6767
 5236SOL    HW226388   8.499   9.460   1.281  0.3516  0.9761 -0.6256
 5237SOL     OW26389   0.763   6.933   2.768  0.1563  0.0487  0.3040
 5237SOL    HW126390   0.667   6.918   2.747  0.2263 -0.8226  0.5905
 5237SOL    HW226391   0.774   6.946   2.867  0.5401 -1.5058  0.4698
 5238SOL     OW26392   1.109   1.440   0.290  0.1296 -0.1623 -0.5410
 5238SOL    HW126393   1.015   1.470   0.271 -0.0864 -0.6901 -0.2988
 5238SOL    HW226394   1.166   1.455   0.209  0.2046  1.6272 -0.1939
 5239SOL     OW26395   0.136   5.820   3.216  0.6960 -0.4110  0.2522
 5239SOL    HW126396   0.058   5.882   3.220  0.8414 -0.2866  1.3970
 5239SOL    HW226397   0.166   5.798   3.309  1.3472 -1.3128 -0.1604
 5240SOL     OW26398   1.026   3.526   1.371 -0.3677 -0.7591 -0.1609
 5240SOL    HW126399   1.068   3.605   1.326 -0.2080 -1.5290 -1.3836
 5240SOL    HW226400   0.985   3.555   1.457  0.2588  0.5345 -0.2841
 5241SOL     OW26401   8.357   1.258   0.342 -0.0182  0.1560  0.6029
 5241SOL    HW126402   8.341   1.164   0.313 -0.9452  0.5763 -0.2811
 5241SOL    HW226403   8.427   1.259   0.413  1.2088 -1.0418 -0.5469
 5242SOL     OW26404   1.203   6.917   1.824  0.4082 -0.0252  0.3560
 5242SOL    HW126405   1.259   7.000   1.817 -3.1540  2.4980  0.7335
 5242SOL    HW226406   1.223   6.870   1.909  1.1450  1.4659  1.0199
 5243SOL     OW26407   2.378   4.966   0.090 -0.1904 -0.0641 -0.3213
 5243SOL    HW126408   2.442   4.929   0.157 -2.6133 -1.3284  1.3694
 5243SOL    HW226409   2.346   4.893   0.030 -2.0092 -0.0159  0.5360
 5244SOL     OW26410   9.022   8.496   5.048 -0.1016 -0.0694  0.2146
 5244SOL    HW126411   9.110   8.454   5.023 -0.3863 -1.5488  1.6840
 5244SOL    HW226412   8.956   8.480   4.975  0.4889 -0.0064 -0.3461
 5245SOL     OW26413   2.836   0.228   2.529  0.1605 -0.4430  0.5280
 5245SOL    HW126414   2.907   0.251   2.595  0.3272  0.1713  0.1369
 5245SOL    HW226415   2.854   0.274   2.442 -0.9979  0.1507  0.5856
 5246SOL     OW26416   6.917   1.695   3.433 -0.4702 -0.0957 -0.1032
 5246SOL    HW126417   7.004   1.730   3.468 -0.1182 -1.0571 -0.0101
 5246SOL    HW226418   6.897   1.607   3.475 -2.5954  1.1095  1.5563
 5247SOL     OW26419   0.650   0.168   1.628  0.3525  0.0526 -0.1066
 5247SOL    HW126420   0.551   0.160   1.638  0.1581  1.4682 -0.7415
 5247SOL    HW226421   0.682   0.104   1.558 -0.3031  0.5244 -0.8386
 5248SOL     OW26422   9.195   4.321   2.492  0.1545  0.4500 -0.6494
 5248SOL    HW126423   9.222   4.270   2.574  0.7173 -0.0559 -1.1420
 5248SOL    HW226424   9.096   4.336   2.493  0.4685  2.6978  1.4091
 5249SOL     OW26425   5.316   9.627   4.165 -0.0916  0.0174  0.0527
 5249SOL    HW126426   5.350   9.674   4.247  1.0735 -0.1684 -0.3033
 5249SOL    HW226427   5.393   9.607   4.104 -0.5729 -2.3262  0.1713
 5250SOL     OW26428   8.992   7.969   3.364 -1.1910 -0.0315  0.1442
 5250SOL    HW126429   9.073   7.911   3.372 -1.2955 -0.1799  0.1370
 5250SOL    HW226430   8.972   7.985   3.268 -0.1177  1.4974  0.1724
 5251SOL     OW26431   0.692   3.571   3.106 -0.3366  0.1323 -0.4256
 5251SOL    HW126432   0.751   3.631   3.159  0.0008 -0.5564 -0.0140
 5251SOL    HW226433   0.604   3.560   3.152  0.1608 -0.9129  0.2728
 5252SOL     OW26434   0.322   8.418   5.414  0.0328 -0.2267 -0.4387
 5252SOL    HW126435   0.248   8.400   5.348 -0.0423  0.5413 -0.5671
 5252SOL    HW226436   0.328   8.516   5.431  0.9538 -0.2980 -0.3413
 5253SOL     OW26437   9.098   4.097   2.803  0.1491 -0.1842 -0.1869
 5253SOL    HW126438   9.130   4.005   2.825  1.0239  0.0547 -0.4266
 5253SOL    HW226439   9.002   4.094   2.777 -0.3425 -0.7764  1.6171
 5254SOL     OW26440   3.363   4.622   2.542 -0.0031 -0.1627  0.2554
 5254SOL    HW126441   3.350   4.544   2.603  0.1495  1.5009  2.4703
 5254SOL    HW226442   3.461   4.631   2.520  0.1356  0.0991  0.9633
 5255SOL     OW26443   9.135   8.677   3.080 -0.5539  0.6384 -0.1080
 5255SOL    HW126444   9.183   8.709   2.999 -0.5859  1.7722  0.3059
 5255SOL    HW226445   9.164   8.732   3.159 -0.6904 -0.2994  0.6031
 5256SOL     OW26446   2.077   1.796   3.072 -0.0545 -0.2550 -0.0910
 5256SOL    HW126447   2.150   1.770   3.136  0.3076  0.5321 -0.1836
 5256SOL    HW226448   2.098   1.884   3.031  0.0433 -1.0463 -1.7941
 5257SOL     OW26449   1.316   2.627   2.948 -0.1403  0.0150  0.0146
 5257SOL    HW126450   1.369   2.542   2.955 -0.8868 -0.2931  2.1681
 5257SOL    HW226451   1.220   2.608   2.967 -0.8696  0.7882 -2.7365
 5258SOL     OW26452   4.431   0.125   4.618 -0.5806  0.0496  0.0411
 5258SOL    HW126453   4.410   0.100   4.523 -2.1145 -0.4771  0.5085
 5258SOL    HW226454   4.355   0.099   4.677 -1.0687  3.3874  0.9701
 5259SOL     OW26455   0.788   3.053   1.090 -0.2279 -0.4171  0.4973
 5259SOL    HW126456   0.765   3.147   1.066 -0.1482 -0.3718  0.5998
 5259SOL    HW226457   0.716   3.015   1.148 -0.5781 -0.6307 -0.0714
 5260SOL     OW26458   0.269   2.306   1.002 -0.4018 -0.2684 -0.6334
 5260SOL    HW126459   0.178   2.267   1.012  0.0770 -1.0279  0.8346
 5260SOL    HW226460   0.335   2.233   0.987  0.2554  0.0968  0.4279
 5261SOL     OW26461   9.461   9.007   0.681  0.3760  0.2464 -0.7235
 5261SOL    HW126462   9.364   9.023   0.665 -0.1309 -0.6570  1.2712
 5261SOL    HW226463   9.484   9.033   0.775  1.1465 -3.3838  0.1691
 5262SOL     OW26464   5.511   7.873   3.033 -0.7250  0.1400  0.4161
 5262SOL    HW126465   5.486   7.960   2.991  0.1043  0.3329  0.3202
 5262SOL    HW226466   5.605   7.849   3.008 -0.2814  0.1775  2.0141
 5263SOL     OW26467   6.794   7.919   4.336 -0.1598  0.5898 -0.1991
 5263SOL    HW126468   6.880   7.871   4.314  0.0962  2.0568 -2.6408
 5263SOL    HW226469   6.815   8.011   4.370 -0.7456  0.4956  0.4293
 5264SOL     OW26470   1.351   0.714   5.282  0.1315  0.5637  0.6516
 5264SOL    HW126471   1.310   0.690   5.194  2.4178  0.6392 -0.4756
 5264SOL    HW226472   1.302   0.791   5.322 -1.0937  0.3612 -0.4345
 5265SOL     OW26473   3.591   7.197   4.809 -0.3029 -0.1145  0.1576
 5265SOL    HW126474   3.691   7.198   4.805 -0.3209  2.4720 -0.0522
 5265SOL    HW226475   3.561   7.220   4.902 -0.7212 -3.6676  1.0018
 5266SOL     OW26476   1.900   9.865   0.419 -0.1788  0.6074  0.1184
 5266SOL    HW126477   1.877   9.797   0.489  0.6264  0.5632  0.3385
 5266SOL    HW226478   1.963   9.933   0.457 -0.7674  1.3305 -0.1795
 5267SOL     OW26479   7.383   8.091   3.223  0.4126  0.3281  0.0485
 5267SOL    HW126480   7.476   8.067   3.194  0.2230  0.2165 -0.4748
 5267SOL    HW226481   7.363   8.184   3.194  0.7149  0.7026  1.0278
 5268SOL     OW26482   1.087   7.283   2.767 -0.2731  0.1619  0.0579
 5268SOL    HW126483   0.992   7.312   2.768  0.0170  1.1408  0.8066
 5268SOL    HW226484   1.092   7.184   2.767 -1.2966  0.1040  0.6323
 5269SOL     OW26485   5.259   1.829   2.409 -0.1108 -0.4437  0.3268
 5269SOL    HW126486   5.325   1.809   2.481 -0.2218 -0.4931  0.4141
 5269SOL    HW226487   5.301   1.812   2.320  0.3144  0.4387  0.3484
 5270SOL     OW26488   1.579   7.508   0.503 -0.5242  0.5883 -0.3459
 5270SOL    HW126489   1.568   7.455   0.587  0.2231  0.9856  0.0108
 5270SOL    HW226490   1.501   7.492   0.442 -1.3622  0.7487  0.6742
 5271SOL     OW26491   8.100   7.017   3.243  0.2083 -0.0206  0.6275
 5271SOL    HW126492   8.007   7.036   3.275  0.6942  1.0106  1.4599
 5271SOL    HW226493   8.099   7.006   3.144 -1.1074 -2.0098  0.8484
 5272SOL     OW26494   0.169   3.104   3.198  0.1876 -0.7914 -0.0674
 5272SOL    HW126495   0.263   3.137   3.195 -0.3149  0.9284  1.6886
 5272SOL    HW226496   0.111   3.163   3.142 -0.2683 -0.2835  0.9278
 5273SOL     OW26497   1.112   4.147   0.222 -0.2370  0.4415 -0.1607
 5273SOL    HW126498   1.094   4.072   0.286 -0.3835  1.2704  0.7784
 5273SOL    HW226499   1.131   4.109   0.131  0.4452 -0.7743  0.4690
 5274SOL     OW26500   2.118   8.760   0.787  0.1819  0.1085  0.6720
 5274SOL    HW126501   2.102   8.719   0.877 -1.3164 -0.5784  0.1076
 5274SOL    HW226502   2.167   8.696   0.729  0.3594  0.2072  0.7125
 5275SOL     OW26503   3.501   4.620   2.997 -0.0284 -0.4814  0.5837
 5275SOL    HW126504   3.427   4.667   2.949 -0.7273 -1.6829  0.4843
 5275SOL    HW226505   3.578   4.683   3.009  0.1461 -0.1455 -2.0265
 5276SOL     OW26506   1.744   9.430   4.603 -0.4688 -0.1107  0.6097
 5276SOL    HW126507   1.745   9.379   4.689 -0.8802  1.1119  1.3490
 5276SOL    HW226508   1.726   9.526   4.621  0.3598  0.3224 -0.7734
 5277SOL     OW26509   0.795   9.601   3.234  0.4564  0.2013  0.2779
 5277SOL    HW126510   0.874   9.551   3.196 -0.2046 -0.5767 -0.0963
 5277SOL    HW226511   0.730   9.535   3.272 -0.6945  0.7493 -0.7304
 5278SOL     OW26512   4.564   1.439   1.559  0.1303 -0.2797 -0.2459
 5278SOL    HW126513   4.658   1.468   1.542  0.2652 -1.7178 -2.0638
 5278SOL    HW226514   4.502   1.491   1.500 -0.2032  0.5111  0.7934
 5279SOL     OW26515   2.848   4.019   5.460  0.0780  0.0708 -0.3253
 5279SOL    HW126516   2.748   4.019   5.472  0.1324  2.1351  0.3889
 5279SOL    HW226517   2.872   4.074   5.381  0.6816  0.0222 -0.1761
 5280SOL     OW26518   7.791   7.696   3.353 -0.2106  0.7182 -0.1928
 5280SOL    HW126519   7.836   7.650   3.277  0.4034  2.6860 -1.0510
 5280SOL    HW226520   7.860   7.739   3.412 -0.6007 -1.5838  2.0615
 5281SOL     OW26521   0.547   7.517   2.494  0.4452 -0.6925  0.6200
 5281SOL    HW126522   0.549   7.550   2.589 -0.3565  0.5037  0.2377
 5281SOL    HW226523   0.453   7.491   2.470  0.5700 -0.6107  0.0321
 5282SOL     OW26524   4.387   8.381   1.326 -0.3773 -0.2136  0.4274
 5282SOL    HW126525   4.460   8.429   1.374 -0.5708 -1.1355  1.6765
 5282SOL    HW226526   4.386   8.285   1.354 -0.6484 -0.7141 -1.2595
 5283SOL     OW26527   1.809   5.514   1.892  0.2387 -0.3413 -0.1380
 5283SOL    HW126528   1.792   5.602   1.847  1.1238 -0.3108 -0.4156
 5283SOL    HW226529   1.809   5.527   1.991  0.6032  0.0065 -0.1858
 5284SOL     OW26530   3.593   3.389   4.428 -0.1965 -0.2622  0.1765
 5284SOL    HW126531   3.670   3.385   4.492  1.6475  2.0295 -1.7917
 5284SOL    HW226532   3.627   3.384   4.334 -2.6215 -0.8912 -0.7193
 5285SOL     OW26533   4.154   0.638   2.369  0.3758 -0.6536  0.1617
 5285SOL    HW126534   4.090   0.681   2.434 -1.5006 -4.1761  0.8039
 5285SOL    HW226535   4.177   0.547   2.402  0.6872 -1.8896 -3.3304
 5286SOL     OW26536   4.618   7.457   3.943 -0.4226 -0.0197  0.0889
 5286SOL    HW126537   4.618   7.438   4.042  0.2247  0.9684  0.2863
 5286SOL    HW226538   4.538   7.513   3.921  0.2389  1.0339  0.3173
 5287SOL     OW26539   8.143   1.449   1.591 -0.2141 -0.0341 -0.3672
 5287SOL    HW126540   8.210   1.404   1.651  0.2744 -0.4372 -1.2067
 5287SOL    HW226541   8.098   1.522   1.641 -0.0278 -0.5638  0.5927
 5288SOL     OW26542   3.578   0.995   1.750  0.5690 -0.3495  0.3739
 5288SOL    HW126543   3.668   0.973   1.713  0.5758 -0.6780  0.5789
 5288SOL    HW226544   3.556   1.090   1.730  0.0647 -0.8355 -1.4931
 5289SOL     OW26545   6.670   0.911   2.574  0.1696 -0.2718  0.2695
 5289SOL    HW126546   6.661   0.884   2.478 -1.7744 -1.3613  0.7279
 5289SOL    HW226547   6.737   0.985   2.582 -0.8232  0.9510 -2.1425
 5290SOL     OW26548   2.886   6.310   2.018 -0.4162 -0.1755 -0.0624
 5290SOL    HW126549   2.896   6.337   2.114 -0.0039 -0.1851 -0.1054
 5290SOL    HW226550   2.861   6.213   2.014 -0.9115 -0.0562  0.0508
 5291SOL     OW26551   2.809   8.744   0.720  0.1602 -0.2862 -0.0390
 5291SOL    HW126552   2.880   8.760   0.790  0.5911 -0.8993 -0.3361
 5291SOL    HW226553   2.851   8.704   0.639 -0.6171 -1.1384 -0.0203
 5292SOL     OW26554   2.651   0.591   1.727  0.1941 -0.1605 -1.2063
 5292SOL    HW126555   2.628   0.528   1.652  0.8093  0.9386 -2.3251
 5292SOL    HW226556   2.576   0.590   1.794 -1.1349  0.0817 -2.6463
 5293SOL     OW26557   1.169   0.974   0.467  0.4616 -0.5082  0.0111
 5293SOL    HW126558   1.257   0.928   0.463  0.3838 -0.6518 -0.0692
 5293SOL    HW226559   1.176   1.064   0.424  0.2545 -1.0296 -1.1480
 5294SOL     OW26560   2.971   6.406   3.296 -0.0706  0.2348 -0.3489
 5294SOL    HW126561   2.940   6.474   3.230  0.7366  2.0800  1.1528
 5294SOL    HW226562   2.921   6.417   3.382  0.9806 -0.2228  0.3326
 5295SOL     OW26563   8.242   8.880   0.404 -0.8652  0.4239 -0.2070
 5295SOL    HW126564   8.328   8.832   0.386 -2.1974 -1.0366 -3.1260
 5295SOL    HW226565   8.181   8.819   0.455 -2.1133 -0.6311 -2.8694
 5296SOL     OW26566   4.390   7.806   1.388  0.3297 -0.5050  0.3046
 5296SOL    HW126567   4.311   7.775   1.335 -1.5376  2.7372  1.0684
 5296SOL    HW226568   4.419   7.895   1.355 -0.3959  1.2520  4.1483
 5297SOL     OW26569   9.654   1.564   4.148 -0.2384  0.5072  0.0561
 5297SOL    HW126570   9.735   1.592   4.097  0.3676  0.3948  0.9456
 5297SOL    HW226571   9.592   1.642   4.157 -0.3639  0.5157 -0.8774
 5298SOL     OW26572   3.289   1.065   0.687  0.7764 -0.3042 -0.1979
 5298SOL    HW126573   3.305   1.132   0.615 -0.4101 -2.1135 -2.1946
 5298SOL    HW226574   3.377   1.041   0.730  1.4926  0.7674 -1.0342
 5299SOL     OW26575   7.518   7.433   2.208 -0.5293 -0.0435 -0.2523
 5299SOL    HW126576   7.446   7.366   2.191 -1.5486  1.0879 -0.3806
 5299SOL    HW226577   7.573   7.445   2.125 -1.8287  1.0587 -0.9586
 5300SOL     OW26578   6.127   9.757   1.463 -0.0318  0.3981 -0.2603
 5300SOL    HW126579   6.220   9.748   1.429 -0.0588 -2.2157  0.1927
 5300SOL    HW226580   6.094   9.850   1.450  2.0705  0.9296 -1.8712
 5301SOL     OW26581   4.515   2.595   0.014  0.5248 -0.1847  0.1725
 5301SOL    HW126582   4.544   2.691   0.013  0.6115 -0.1876  1.6077
 5301SOL    HW226583   4.450   2.579  -0.060 -0.1232  1.1873  0.4310
 5302SOL     OW26584   4.563   8.996   3.373 -0.0940  0.6382  0.4461
 5302SOL    HW126585   4.517   9.053   3.305 -1.7206  1.0293  1.8543
 5302SOL    HW226586   4.655   9.032   3.391 -0.2270  1.4152 -0.4163
 5303SOL     OW26587   2.030   0.945   2.581  0.5500  0.6892 -0.2684
 5303SOL    HW126588   1.966   0.977   2.651  1.1990  0.1019  0.6052
 5303SOL    HW226589   1.980   0.893   2.511 -0.1182  1.3848 -0.3159
 5304SOL     OW26590   1.084   6.871   0.368  0.4136  0.0115  0.1474
 5304SOL    HW126591   1.030   6.851   0.286  0.6152 -1.9523  0.4635
 5304SOL    HW226592   1.028   6.923   0.433 -0.0752  0.6975 -0.8150
 5305SOL     OW26593   4.565   8.735   3.818  0.7193  0.3585 -0.2951
 5305SOL    HW126594   4.654   8.762   3.855  1.4169 -1.9349 -0.1797
 5305SOL    HW226595   4.511   8.690   3.889  0.3628 -0.2194 -0.9160
 5306SOL     OW26596   4.305   9.828   0.904  0.5916 -0.0596 -0.3969
 5306SOL    HW126597   4.328   9.873   0.991  2.0368  1.3735 -1.4879
 5306SOL    HW226598   4.347   9.878   0.829 -1.7782 -0.4925 -2.0626
 5307SOL     OW26599   0.910   0.182   3.394  0.2155  0.0050 -0.0640
 5307SOL    HW126600   0.879   0.134   3.311  0.5133 -0.5664  0.1527
 5307SOL    HW226601   0.985   0.131   3.436  0.5892  0.7088  0.1267
 5308SOL     OW26602   8.161   1.750   3.730 -0.6324  0.5048  0.3249
 5308SOL    HW126603   8.105   1.818   3.681 -0.3342 -0.2131 -1.0278
 5308SOL    HW226604   8.101   1.679   3.767 -0.7463  0.4358  0.0109
 5309SOL     OW26605   8.022   1.419   3.221 -1.0083 -0.1467  0.8842
 5309SOL    HW126606   8.004   1.337   3.276 -0.7007  0.0749  1.3200
 5309SOL    HW226607   7.979   1.409   3.131  0.6426 -1.6123  0.2159
 5310SOL     OW26608   3.977   9.139   0.437 -0.2041  0.1945 -0.1198
 5310SOL    HW126609   4.055   9.133   0.374 -0.3646  0.7567 -0.3788
 5310SOL    HW226610   3.998   9.090   0.521  0.6281  0.7632  0.0109
 5311SOL     OW26611   4.116   3.656   0.869 -0.2783  0.1097  0.3531
 5311SOL    HW126612   4.187   3.719   0.837 -1.2887  0.6264 -0.9380
 5311SOL    HW226613   4.067   3.697   0.946 -0.0471  0.3256  0.3839
 5312SOL     OW26614   6.709   8.108   3.605 -0.0375 -0.3669 -0.5669
 5312SOL    HW126615   6.671   8.105   3.697 -0.2761  1.2240 -0.6068
 5312SOL    HW226616   6.645   8.154   3.543  1.8833  2.3372 -0.6305
 5313SOL     OW26617   3.107   2.183   2.893  0.3458  0.0680 -0.1557
 5313SOL    HW126618   3.066   2.251   2.832 -0.3484 -0.6399 -0.4885
 5313SOL    HW226619   3.201   2.210   2.915  0.2375  0.8858 -0.6620
 5314SOL     OW26620   1.163   6.556   3.787 -0.4091 -0.4922  0.6022
 5314SOL    HW126621   1.128   6.587   3.698 -1.2998 -1.7954  0.4726
 5314SOL    HW226622   1.212   6.469   3.774  0.4510 -0.1035  1.2199
 5315SOL     OW26623   5.155   0.442   4.334  0.3801 -0.1799  0.3431
 5315SOL    HW126624   5.217   0.459   4.410  0.0899 -0.1963  0.5850
 5315SOL    HW226625   5.061   0.448   4.366  0.2629 -1.2281  0.2069
 5316SOL     OW26626   4.605   1.261   5.606 -0.3663 -0.4035  0.3098
 5316SOL    HW126627   4.544   1.341   5.598 -0.9708 -0.8051  0.8122
 5316SOL    HW226628   4.693   1.282   5.565 -1.0656 -0.0461 -1.0267
 5317SOL     OW26629   2.314   3.409   5.200  0.2166 -0.1054  0.3325
 5317SOL    HW126630   2.300   3.441   5.294 -0.5049 -1.0974  0.5798
 5317SOL    HW226631   2.287   3.312   5.194 -1.4176  0.4150 -1.3017
 5318SOL     OW26632   0.594   8.366   5.436 -0.6151  0.2734  0.2411
 5318SOL    HW126633   0.510   8.397   5.390 -0.7761  0.9019  0.9561
 5318SOL    HW226634   0.571   8.294   5.501 -0.2641 -1.2695 -1.2957
 5319SOL     OW26635   9.827   1.330   3.100 -0.4857 -0.3577  0.5990
 5319SOL    HW126636   9.789   1.250   3.055 -0.8263  1.6550 -2.8827
 5319SOL    HW226637   9.761   1.405   3.096  1.0768  1.0626  0.9044
 5320SOL     OW26638   6.964   0.693   2.901  0.1204 -0.4414  0.2527
 5320SOL    HW126639   6.891   0.740   2.950  1.5927  0.7016  1.3997
 5320SOL    HW226640   6.960   0.595   2.922 -1.4344 -0.4977 -0.1964
 5321SOL     OW26641   4.889   7.929   3.179  0.0989  0.1302 -0.1925
 5321SOL    HW126642   4.929   7.846   3.218 -0.0344  0.1346 -0.0442
 5321SOL    HW226643   4.810   7.905   3.123  0.5233  0.0896 -0.7761
 5322SOL     OW26644   0.577   2.083   5.517 -0.0192  0.3907 -0.0221
 5322SOL    HW126645   0.504   2.055   5.579  0.0357  0.4751  0.0822
 5322SOL    HW226646   0.542   2.089   5.424  0.3388 -1.4763 -0.2850
 5323SOL     OW26647   6.296   1.572   2.458 -0.3895  0.2999 -0.1317
 5323SOL    HW126648   6.339   1.630   2.527 -1.5736  1.9728 -0.7811
 5323SOL    HW226649   6.337   1.590   2.369  1.2418 -1.9665  0.1121
 5324SOL     OW26650   9.691   3.002   1.632  0.1341 -0.1101  0.5969
 5324SOL    HW126651   9.649   3.074   1.577 -1.2260 -1.8796 -0.7870
 5324SOL    HW226652   9.770   3.038   1.681  0.2700  1.9791 -1.0916
 5325SOL     OW26653   3.339   9.316   4.569  0.1639  0.0193 -0.1312
 5325SOL    HW126654   3.371   9.316   4.664 -0.5290 -0.6801  0.1007
 5325SOL    HW226655   3.280   9.237   4.553 -2.3505  1.8822 -0.2785
 5326SOL     OW26656   6.042   7.648   2.945 -0.2826 -0.2038  0.4005
 5326SOL    HW126657   5.980   7.686   2.876  0.6646  1.5303  0.4728
 5326SOL    HW226658   6.130   7.628   2.903 -0.1151 -0.3505  0.8216
 5327SOL     OW26659   2.741   5.079   1.808 -0.7429  0.2519 -0.3595
 5327SOL    HW126660   2.706   5.125   1.890  0.5563  0.3594  0.1453
 5327SOL    HW226661   2.705   4.986   1.805 -2.1245  0.7770 -0.5567
 5328SOL     OW26662   0.870   4.641   1.600 -0.4221 -0.3445 -0.6157
 5328SOL    HW126663   0.940   4.627   1.670 -2.2698 -0.8424  1.1931
 5328SOL    HW226664   0.827   4.553   1.578 -0.3102 -0.0830 -1.8928
 5329SOL     OW26665   5.746   0.764   1.562 -0.1156  0.4622 -0.9111
 5329SOL    HW126666   5.798   0.777   1.478  0.7740 -1.3966 -0.6640
 5329SOL    HW226667   5.808   0.737   1.636 -1.0086  1.2252  0.1429
 5330SOL     OW26668   4.096   7.992   0.726  0.5040 -0.1281 -0.2217
 5330SOL    HW126669   4.168   7.923   0.734 -0.8532 -1.6163 -0.5291
 5330SOL    HW226670   4.122   8.074   0.777  1.6839 -1.2541  1.0174
 5331SOL     OW26671   6.380   9.719   2.801 -0.2349 -0.6525 -0.2331
 5331SOL    HW126672   6.284   9.699   2.819 -0.8647  1.7439 -0.7554
 5331SOL    HW226673   6.394   9.732   2.703  0.5197 -0.4328 -0.1001
 5332SOL     OW26674   2.205   8.163   2.277  0.6286 -0.6552  0.0610
 5332SOL    HW126675   2.221   8.070   2.243  0.3989  0.1888 -2.4242
 5332SOL    HW226676   2.108   8.186   2.267  0.7472  0.0003  0.3596
 5333SOL     OW26677   4.325   2.294   0.333 -0.1699  0.3314  0.3069
 5333SOL    HW126678   4.292   2.214   0.382 -0.0459  0.8273  1.2043
 5333SOL    HW226679   4.388   2.265   0.261 -0.2591 -0.3858  0.5126
 5334SOL     OW26680   4.303   7.396   1.927  0.0174 -0.0475 -0.2906
 5334SOL    HW126681   4.310   7.495   1.928 -0.5016  0.0262 -1.8986
 5334SOL    HW226682   4.207   7.369   1.920 -0.1633 -0.7478  3.9254
 5335SOL     OW26683   8.559   2.210   2.045  0.0310 -0.5143  0.5734
 5335SOL    HW126684   8.579   2.127   1.993  1.2676 -0.0109  0.2409
 5335SOL    HW226685   8.475   2.252   2.009 -0.8391 -1.8539  1.0384
 5336SOL     OW26686   4.033   3.035   3.134  0.0502  0.4766 -0.5167
 5336SOL    HW126687   4.067   2.969   3.067 -0.5782  0.2521 -0.6127
 5336SOL    HW226688   4.097   3.040   3.211  0.3589  0.1303 -0.7497
 5337SOL     OW26689   6.184   0.314   4.170  0.5361 -0.4024  0.2962
 5337SOL    HW126690   6.134   0.321   4.256  0.5162 -0.1517  0.2650
 5337SOL    HW226691   6.271   0.266   4.185  0.6941 -0.0448  0.5243
 5338SOL     OW26692   1.891   0.930   4.901 -0.1848 -0.7481 -0.1140
 5338SOL    HW126693   1.945   0.898   4.979 -1.9480 -0.9849  1.0406
 5338SOL    HW226694   1.904   1.028   4.889 -0.0750 -0.6717  0.6137
 5339SOL     OW26695   4.950   9.177   5.008  0.7570  0.2135  0.5470
 5339SOL    HW126696   4.963   9.242   5.082  2.5786 -1.2935  1.5882
 5339SOL    HW226697   5.010   9.200   4.932  1.2648 -0.1421  0.8402
 5340SOL     OW26698   0.330   7.174   3.638 -0.4742 -0.4151  0.2932
 5340SOL    HW126699   0.382   7.257   3.620 -2.0001  0.6088  0.4937
 5340SOL    HW226700   0.232   7.194   3.632 -0.8702 -2.1012  0.7816
 5341SOL     OW26701   9.905   7.642   1.179  0.6192  0.4507 -0.1176
 5341SOL    HW126702   9.817   7.633   1.133 -0.1300 -1.2685  1.5860
 5341SOL    HW226703   9.978   7.618   1.116 -0.3213 -0.7393 -0.7912
 5342SOL     OW26704   7.955   9.480   2.496  0.0700  0.2706 -0.1790
 5342SOL    HW126705   8.031   9.507   2.555 -1.3644 -0.4577  2.0454
 5342SOL    HW226706   7.989   9.418   2.425  1.7890  1.0126 -0.0264
 5343SOL     OW26707   9.655   5.371   2.805 -0.1299  0.5456 -0.1042
 5343SOL    HW126708   9.744   5.347   2.767 -0.9127 -1.9162 -0.5158
 5343SOL    HW226709   9.586   5.368   2.731 -1.3963 -2.7046  1.1035
 5344SOL     OW26710   3.381   7.830   1.394 -0.0706  0.4738 -0.3372
 5344SOL    HW126711   3.403   7.900   1.327  1.9151  0.1999  0.0108
 5344SOL    HW226712   3.434   7.845   1.478  1.0537 -1.9136 -0.5790
 5345SOL     OW26713   8.996   9.627   4.583 -0.1452 -0.4724 -0.0906
 5345SOL    HW126714   8.994   9.541   4.532 -0.0213 -0.2837 -0.4135
 5345SOL    HW226715   8.921   9.685   4.552  1.7546  0.9029 -2.2684
 5346SOL     OW26716   4.549   9.775   1.253 -0.0589  1.0217  0.0996
 5346SOL    HW126717   4.457   9.765   1.215 -0.6281 -0.0036  1.6751
 5346SOL    HW226718   4.571   9.872   1.261 -1.9771  1.3400  1.9177
 5347SOL     OW26719   4.940   7.820   1.823 -0.4757  0.1088  0.4678
 5347SOL    HW126720   4.956   7.898   1.762 -0.9930 -0.1480 -0.0002
 5347SOL    HW226721   4.981   7.838   1.912  1.1538  0.0841 -0.2594
 5348SOL     OW26722   2.518   9.824   2.238 -0.0741 -0.2736 -0.0871
 5348SOL    HW126723   2.602   9.792   2.280 -0.0764 -1.1000 -0.6865
 5348SOL    HW226724   2.533   9.840   2.140 -0.8462 -1.3705 -0.3994
 5349SOL     OW26725   9.395   1.159   0.868  0.2817 -0.3033 -0.4363
 5349SOL    HW126726   9.378   1.228   0.798  1.2362  0.8492  0.4425
 5349SOL    HW226727   9.494   1.153   0.886  0.1664 -1.5416 -0.1364
 5350SOL     OW26728   4.650   2.113   2.383  0.5237  0.0108  0.6770
 5350SOL    HW126729   4.715   2.155   2.319  1.1097 -2.7446 -0.5937
 5350SOL    HW226730   4.557   2.124   2.347  0.7958 -0.9613 -0.3453
 5351SOL     OW26731   7.873   1.396   2.960 -0.1117 -0.1403  0.4077
 5351SOL    HW126732   7.846   1.474   2.904 -0.6512 -1.7376 -1.6237
 5351SOL    HW226733   7.807   1.383   3.033 -2.0714 -0.8864 -1.4302
 5352SOL     OW26734   0.480   5.681   3.488 -0.0175  0.0916  0.2545
 5352SOL    HW126735   0.464   5.665   3.585 -2.3963  0.0778 -0.1078
 5352SOL    HW226736   0.484   5.779   3.470 -2.0177  0.1626  0.0421
 5353SOL     OW26737   1.452   8.084   3.594  0.4410 -0.0994  0.3080
 5353SOL    HW126738   1.500   8.017   3.537  0.6003  0.5985 -0.3715
 5353SOL    HW226739   1.424   8.040   3.680 -0.0634 -1.2334 -0.4247
 5354SOL     OW26740   4.265   3.891   0.251  0.1999  0.3209 -0.1915
 5354SOL    HW126741   4.296   3.969   0.305 -0.2305 -1.3546  2.5999
 5354SOL    HW226742   4.309   3.808   0.284 -0.1127 -0.7745 -2.4433
 5355SOL     OW26743   3.335   3.817   2.970  0.1862  0.2128 -0.3363
 5355SOL    HW126744   3.263   3.833   2.901  0.2328 -1.5234 -0.8105
 5355SOL    HW226745   3.316   3.873   3.051 -1.5049  0.0453 -0.5959
 5356SOL     OW26746   3.704   7.976   0.832 -0.1551  0.3768 -0.7848
 5356SOL    HW126747   3.700   7.880   0.803  2.5707  0.0297 -0.2030
 5356SOL    HW226748   3.755   7.982   0.918 -0.9057  2.2834 -0.4570
 5357SOL     OW26749   8.354   9.164   5.290  0.7544 -0.0387 -0.2000
 5357SOL    HW126750   8.452   9.154   5.278  0.8208  0.1574  0.1609
 5357SOL    HW226751   8.321   9.091   5.351  0.7124  0.0174 -0.1566
 5358SOL     OW26752   1.276   6.491   0.470 -0.4473  0.4364  0.1101
 5358SOL    HW126753   1.275   6.591   0.476 -3.0613  0.3769  1.4630
 5358SOL    HW226754   1.311   6.463   0.380  1.7779  2.4943  0.2841
 5359SOL     OW26755   3.331   8.797   2.961  0.2603 -0.0354  0.0025
 5359SOL    HW126756   3.265   8.821   3.031 -0.1815 -0.2070 -0.3514
 5359SOL    HW226757   3.283   8.758   2.882  1.0127 -2.9532  0.9334
 5360SOL     OW26758   8.835   1.702   5.228  0.6265 -0.2373  0.2971
 5360SOL    HW126759   8.832   1.799   5.203 -0.8263 -0.4774 -0.5239
 5360SOL    HW226760   8.820   1.646   5.146 -1.2358 -1.0930  1.1909
 5361SOL     OW26761   5.252   3.406   0.201 -0.4956  0.2867 -0.3701
 5361SOL    HW126762   5.334   3.433   0.150  0.1394  0.8689  0.9442
 5361SOL    HW226763   5.201   3.488   0.228 -2.5397 -0.1250 -2.8139
 5362SOL     OW26764   1.064   2.961   5.155 -0.0110  0.0816 -0.0746
 5362SOL    HW126765   1.084   2.985   5.250 -1.8776  0.8523  0.1498
 5362SOL    HW226766   0.980   2.908   5.150  1.0808 -1.5887 -1.1395
 5363SOL     OW26767   0.422   1.557   4.856  0.1603  0.7497 -0.3987
 5363SOL    HW126768   0.419   1.656   4.841  0.3446  0.8190  0.0238
 5363SOL    HW226769   0.329   1.522   4.867  0.1515  1.0612  0.6229
 5364SOL     OW26770   9.175   9.577   3.024 -0.2241  0.6426  0.2945
 5364SOL    HW126771   9.164   9.496   2.967 -1.3302  1.6187 -0.9103
 5364SOL    HW226772   9.251   9.632   2.990 -1.6700  1.8592 -1.0454
 5365SOL     OW26773   7.860   1.177   1.794  0.1102 -0.4656 -0.2693
 5365SOL    HW126774   7.785   1.234   1.761  1.7820 -0.0245 -3.5810
 5365SOL    HW226775   7.915   1.228   1.860 -0.6379  0.3688 -0.2870
 5366SOL     OW26776   0.749   2.715   3.953  0.1178  0.2161  0.2440
 5366SOL    HW126777   0.760   2.738   4.049  0.2353  0.6790  0.1212
 5366SOL    HW226778   0.651   2.711   3.930  0.1047  1.0521  0.1567
 5367SOL     OW26779   3.699   8.280   2.250 -0.0012 -0.8172  0.5501
 5367SOL    HW126780   3.778   8.304   2.194 -1.2075  0.8925 -0.4952
 5367SOL    HW226781   3.631   8.234   2.194 -0.0204 -1.7022  1.2904
 5368SOL     OW26782   4.508   2.219   0.145 -0.2084 -0.3816  0.1017
 5368SOL    HW126783   4.580   2.289   0.149 -0.6827  0.3173 -2.4919
 5368SOL    HW226784   4.550   2.128   0.152  0.6754  0.0772  0.9646
 5369SOL     OW26785   0.685   9.114   2.481  0.2317 -0.2603  0.0045
 5369SOL    HW126786   0.738   9.192   2.515 -0.5260 -0.0431  0.7298
 5369SOL    HW226787   0.609   9.147   2.425  0.9265 -0.5724 -1.1217
 5370SOL     OW26788   9.177   1.840   1.070  0.2342 -0.6677  0.1754
 5370SOL    HW126789   9.220   1.812   0.984  2.7553  1.3517  0.6840
 5370SOL    HW226790   9.228   1.801   1.146 -0.1484  0.0112  0.7800
 5371SOL     OW26791   4.690   0.975   2.506 -0.8534 -0.3039  0.1091
 5371SOL    HW126792   4.622   0.979   2.433 -0.5466 -1.6060 -0.2667
 5371SOL    HW226793   4.712   0.879   2.526  0.3645  0.0826  0.6912
 5372SOL     OW26794   9.959   5.345   1.419 -0.4386 -0.0893 -0.5282
 5372SOL    HW126795   9.962   5.264   1.478 -0.8608  0.8404  0.7895
 5372SOL    HW226796  10.051   5.381   1.405 -0.4607  0.4684  0.6812
 5373SOL     OW26797   2.803   3.932   4.139  0.3450 -0.2177  0.4516
 5373SOL    HW126798   2.710   3.895   4.140  0.3686 -0.3162  2.4201
 5373SOL    HW226799   2.822   3.973   4.050 -1.6702  0.0148  0.0959
 5374SOL     OW26800   1.995   9.721   1.197 -0.0983  0.4680  0.0075
 5374SOL    HW126801   1.970   9.683   1.286 -0.5650  0.9598  0.0942
 5374SOL    HW226802   2.048   9.805   1.211 -0.8248  0.9654 -0.1672
 5375SOL     OW26803   6.220   9.901   4.212  0.2531 -0.1650 -0.1688
 5375SOL    HW126804   6.128   9.936   4.196  0.4637  0.3548 -0.2632
 5375SOL    HW226805   6.253   9.936   4.300  0.9958  0.9972 -0.8979
 5376SOL     OW26806   7.910   0.661   1.792  0.2652  0.0403 -0.2970
 5376SOL    HW126807   7.855   0.740   1.820  0.0478 -0.8542  1.8445
 5376SOL    HW226808   8.006   0.688   1.788  0.1609  0.4862  0.1083
 5377SOL     OW26809   1.382   2.710   1.151 -0.3591  0.0925  0.5724
 5377SOL    HW126810   1.370   2.637   1.219  1.7301  0.4652  1.3635
 5377SOL    HW226811   1.459   2.768   1.177  0.3490  0.3731 -2.0194
 5378SOL     OW26812   5.768   8.473   3.204  0.1109 -0.0489  0.1210
 5378SOL    HW126813   5.804   8.411   3.274  0.4331 -0.2302 -0.1994
 5378SOL    HW226814   5.671   8.489   3.219 -0.0870 -1.0384 -0.0974
 5379SOL     OW26815   9.944   0.129   0.918 -0.0732  0.2931 -1.0113
 5379SOL    HW126816  10.042   0.144   0.902  0.6303  1.2819  3.4582
 5379SOL    HW226817   9.891   0.189   0.859  2.2188  3.6807  0.2238
 5380SOL     OW26818   8.925   1.923   3.451  0.3984  0.1473 -0.1960
 5380SOL    HW126819   8.988   1.999   3.468 -0.0344  0.0074  2.2774
 5380SOL    HW226820   8.890   1.889   3.538 -0.6453 -1.8700 -1.3641
 5381SOL     OW26821   1.583   2.495   5.165  0.0303  0.9687  0.0444
 5381SOL    HW126822   1.655   2.519   5.100  0.5308  0.5828  0.4500
 5381SOL    HW226823   1.495   2.494   5.118  0.3773  0.7559 -0.6130
 5382SOL     OW26824   9.424   1.586   0.323 -0.6312 -0.0663 -0.3348
 5382SOL    HW126825   9.464   1.497   0.301 -0.9007 -0.4351  0.6673
 5382SOL    HW226826   9.389   1.628   0.239  3.0295  0.8872 -1.5015
 5383SOL     OW26827   2.464   7.125   0.900 -0.1171  1.3292  0.2267
 5383SOL    HW126828   2.443   7.106   0.804  2.2703 -2.3999  0.2852
 5383SOL    HW226829   2.380   7.129   0.954 -1.2918 -0.6825 -1.4060
 5384SOL     OW26830   3.689   2.706   3.130 -0.5832  0.2981 -0.4028
 5384SOL    HW126831   3.725   2.789   3.173  2.8801 -1.9173  1.1565
 5384SOL    HW226832   3.626   2.732   3.057 -1.0719  4.2513  1.2558
 5385SOL     OW26833   2.076   8.190   3.321 -0.0966 -0.0875  0.8818
 5385SOL    HW126834   2.063   8.286   3.346  0.6026 -0.2458  1.8965
 5385SOL    HW226835   2.172   8.175   3.295 -0.5891 -0.1506 -0.9195
 5386SOL     OW26836   6.281   8.834   2.408  0.5651  0.6928 -1.0356
 5386SOL    HW126837   6.321   8.832   2.500 -4.1529  2.2640  1.2263
 5386SOL    HW226838   6.256   8.741   2.381 -0.1304  0.4625  0.3256
 5387SOL     OW26839   1.727   6.882   3.846  0.3501  0.0052 -0.1520
 5387SOL    HW126840   1.724   6.850   3.941  1.2716 -0.8458 -0.3957
 5387SOL    HW226841   1.654   6.837   3.793  0.1762  0.0759  0.0274
 5388SOL     OW26842   0.121   6.457   1.553  0.7732  0.3626  0.0894
 5388SOL    HW126843   0.144   6.459   1.456  1.6823 -1.0160  0.2625
 5388SOL    HW226844   0.022   6.455   1.564  0.6755 -0.1280 -0.8240
 5389SOL     OW26845   1.503   2.778   1.586 -0.0437 -0.1629 -0.6291
 5389SOL    HW126846   1.539   2.841   1.656 -3.0894  3.6583 -2.2864
 5389SOL    HW226847   1.414   2.742   1.617 -0.1557 -0.5286 -1.3843
 5390SOL     OW26848   8.936   4.774   1.891  0.0239 -0.4743  0.7742
 5390SOL    HW126849   8.909   4.680   1.909 -4.7294  0.0300 -2.7713
 5390SOL    HW226850   8.990   4.778   1.806 -1.4993  0.1454 -0.1883
 5391SOL     OW26851   1.620   5.557   3.584 -0.5731 -0.1872 -0.2352
 5391SOL    HW126852   1.639   5.607   3.668  0.0547 -0.1263 -0.4106
 5391SOL    HW226853   1.646   5.613   3.505  1.5721 -1.3765 -0.4004
 5392SOL     OW26854   2.580   3.555   0.770  0.7388  0.6364  0.0170
 5392SOL    HW126855   2.561   3.499   0.689  1.7476  0.0013  0.2122
 5392SOL    HW226856   2.676   3.542   0.798  0.3703  0.7723  1.3717
 5393SOL     OW26857   2.936   1.228   0.309  0.5840 -0.3322 -0.3584
 5393SOL    HW126858   2.952   1.326   0.296 -0.2697  0.0168  1.1129
 5393SOL    HW226859   2.852   1.202   0.261 -1.5832  0.5905  2.7521
 5394SOL     OW26860   5.106   0.869   3.872  0.2112 -0.3633  0.1074
 5394SOL    HW126861   5.128   0.805   3.946 -1.4165 -1.7763 -0.5824
 5394SOL    HW226862   5.166   0.852   3.794  0.0530 -0.7927  0.0759
 5395SOL     OW26863   8.227   1.277   3.730  0.1618 -0.2397  0.4674
 5395SOL    HW126864   8.176   1.205   3.777 -0.2966 -1.4484 -1.7689
 5395SOL    HW226865   8.165   1.352   3.707 -0.2628 -0.9432 -0.7344
 5396SOL     OW26866   1.812   7.290   0.821  0.8216  1.1995  0.4984
 5396SOL    HW126867   1.778   7.364   0.879  0.8510  0.3729  1.5823
 5396SOL    HW226868   1.823   7.207   0.875 -1.0949 -0.1551 -1.1029
 5397SOL     OW26869   2.341   9.019   3.509  0.0624 -0.1003 -0.1504
 5397SOL    HW126870   2.389   8.984   3.429  0.6353 -1.6421  0.8402
 5397SOL    HW226871   2.400   9.085   3.556  0.3729 -0.4100 -0.1044
 5398SOL     OW26872   2.187   3.710   4.289 -0.3049 -0.2022  0.3772
 5398SOL    HW126873   2.261   3.754   4.239 -0.8361  0.4310  0.1450
 5398SOL    HW226874   2.226   3.650   4.359  0.4294 -0.5149 -0.2876
 5399SOL     OW26875   8.164   3.130   1.413  0.3657 -0.0442  0.1304
 5399SOL    HW126876   8.131   3.139   1.319  1.7172 -0.4318 -0.3938
 5399SOL    HW226877   8.087   3.135   1.477 -0.2603  3.6605 -0.7840
 5400SOL     OW26878   0.021   0.908   2.539  0.0889  0.0778  0.0160
 5400SOL    HW126879   0.104   0.864   2.505 -0.2486 -0.3328 -0.2876
 5400SOL    HW226880  -0.051   0.903   2.469 -0.3093  0.0795  0.4201
 5401SOL     OW26881   9.446   3.975   1.513  0.9891 -0.0791 -0.4115
 5401SOL    HW126882   9.437   3.888   1.464  1.1066  0.7816 -1.9559
 5401SOL    HW226883   9.394   4.046   1.466  0.6263  0.6349  1.0228
 5402SOL     OW26884   4.291   4.642   0.322  0.4232  0.3760  0.4192
 5402SOL    HW126885   4.313   4.580   0.246 -0.3338  1.4932 -0.7312
 5402SOL    HW226886   4.375   4.682   0.358  0.8863 -1.0280  0.9274
 5403SOL     OW26887   0.050   7.677   0.037 -0.2720  0.0128 -0.0955
 5403SOL    HW126888   0.070   7.775   0.029 -0.3026  0.0894  0.6928
 5403SOL    HW226889   0.015   7.658   0.129 -0.3216 -0.7280 -0.2670
 5404SOL     OW26890   3.113   2.158   2.183 -0.1933  0.3774  0.0992
 5404SOL    HW126891   3.171   2.226   2.138 -1.5243  1.0323 -0.6752
 5404SOL    HW226892   3.081   2.092   2.115 -1.3341  0.7408  0.2582
 5405SOL     OW26893   1.528   0.768   3.764 -0.2375  0.2498  0.2967
 5405SOL    HW126894   1.496   0.759   3.858 -0.1796 -0.0464  0.2887
 5405SOL    HW226895   1.455   0.739   3.701 -0.1951  0.2273  0.2576
 5406SOL     OW26896   3.646   2.505   4.967  0.1544 -0.3504 -0.4046
 5406SOL    HW126897   3.628   2.407   4.969 -2.7176  0.1224  0.0772
 5406SOL    HW226898   3.640   2.543   5.059  0.7589  0.3467 -0.6448
 5407SOL     OW26899   9.687   4.466   2.342  0.2769 -0.3876  0.0850
 5407SOL    HW126900   9.712   4.529   2.268  0.9723 -0.1678  0.5053
 5407SOL    HW226901   9.590   4.480   2.365  0.5767  0.9336  0.5701
 5408SOL     OW26902   8.358   8.207   2.089  0.1969 -0.5457 -0.4490
 5408SOL    HW126903   8.363   8.236   1.993 -0.9848  0.7142 -0.1559
 5408SOL    HW226904   8.437   8.242   2.139  0.9855 -1.4898 -1.0369
 5409SOL     OW26905   2.297   2.088   1.932  0.7177  0.2790  0.6899
 5409SOL    HW126906   2.376   2.135   1.893  0.0461 -0.4984 -1.7234
 5409SOL    HW226907   2.291   1.995   1.894 -1.0322  0.1335  1.2662
 5410SOL     OW26908   1.950   9.241   5.463  0.1055 -0.4286  0.0278
 5410SOL    HW126909   1.943   9.332   5.422 -1.2072 -1.9114 -3.2197
 5410SOL    HW226910   2.044   9.207   5.453  0.4282  0.2694  0.6439
 5411SOL     OW26911   7.085   8.916   2.884  0.2426  0.2099  0.3242
 5411SOL    HW126912   7.042   8.838   2.930  1.6323 -0.7966 -0.0645
 5411SOL    HW226913   7.037   9.000   2.910 -1.9726 -0.8767 -0.1080
 5412SOL     OW26914   0.720   5.231   3.437  0.1093  0.6473 -0.3688
 5412SOL    HW126915   0.819   5.238   3.442  0.0453  0.3039  2.0617
 5412SOL    HW226916   0.682   5.315   3.398  1.2626  1.3360 -0.0196
 5413SOL     OW26917   6.130   0.245   3.887  0.5292 -0.0502  0.4938
 5413SOL    HW126918   6.133   0.341   3.859 -3.0154  0.6494  2.2532
 5413SOL    HW226919   6.133   0.240   3.987 -2.3381 -1.5457  0.5602
 5414SOL     OW26920   2.864   0.479   3.950  0.8568 -0.2752  0.2387
 5414SOL    HW126921   2.911   0.551   4.002  0.1406 -0.4997  1.2158
 5414SOL    HW226922   2.911   0.466   3.863  2.1081  0.1024  0.8274
 5415SOL     OW26923   2.235   6.630   5.508 -0.2637  0.1763  0.1499
 5415SOL    HW126924   2.241   6.551   5.570  0.0120 -0.7862 -1.0748
 5415SOL    HW226925   2.217   6.597   5.415 -2.0949  1.6760 -0.0527
 5416SOL     OW26926   5.473   8.230   3.796  0.2584  0.1219  0.3992
 5416SOL    HW126927   5.515   8.318   3.817  0.1344  0.5124 -0.9297
 5416SOL    HW226928   5.394   8.245   3.736 -0.0533 -0.8556  0.5584
 5417SOL     OW26929   8.490   9.045   0.113 -0.2528 -0.3077 -0.2607
 5417SOL    HW126930   8.446   8.958   0.089 -0.7293 -0.5006  1.2442
 5417SOL    HW226931   8.434   9.121   0.082 -1.4649 -0.5512  1.2519
 5418SOL     OW26932   3.954   8.409   4.221  0.2352  0.1341  0.0754
 5418SOL    HW126933   3.934   8.465   4.301  1.9120 -0.7314  1.1285
 5418SOL    HW226934   4.014   8.459   4.159 -0.2109  0.4060 -0.1375
 5419SOL     OW26935   0.427   3.763   2.230 -0.9239 -0.2279  0.1315
 5419SOL    HW126936   0.436   3.862   2.240 -0.1220 -0.3283  0.4709
 5419SOL    HW226937   0.335   3.735   2.257 -1.0637  0.3929  0.3087
 5420SOL     OW26938   4.690   9.166   4.333 -0.4319 -0.5853 -0.0598
 5420SOL    HW126939   4.676   9.207   4.243 -1.8097  0.0836  0.4549
 5420SOL    HW226940   4.745   9.228   4.390 -0.4962 -0.5204 -0.0682
 5421SOL     OW26941   2.950   2.021   4.660  0.0607 -0.5359  0.0507
 5421SOL    HW126942   2.908   1.965   4.731  0.3058  1.2519  1.6467
 5421SOL    HW226943   3.048   2.002   4.655  0.0753 -0.5367  0.3254
 5422SOL     OW26944   9.080   0.616   1.401 -0.6321 -0.1901 -0.6608
 5422SOL    HW126945   9.121   0.545   1.342 -0.2523  0.4495 -1.1750
 5422SOL    HW226946   9.046   0.574   1.485 -1.5928 -1.1942 -1.5345
 5423SOL     OW26947   0.482   8.920   4.460 -0.4249 -0.2717 -0.7721
 5423SOL    HW126948   0.487   8.870   4.546 -1.5915  1.5860  0.4295
 5423SOL    HW226949   0.386   8.935   4.435 -0.1872  3.4080  0.2052
 5424SOL     OW26950   4.319   8.623   2.749  0.2827 -0.1731 -0.1489
 5424SOL    HW126951   4.244   8.689   2.745 -0.4418 -0.8821  1.6053
 5424SOL    HW226952   4.282   8.532   2.768  1.4062 -0.8754 -1.2594
 5425SOL     OW26953   6.089   0.227   1.279  0.4809  0.8089 -0.0080
 5425SOL    HW126954   6.142   0.226   1.363  0.8682 -2.5362 -0.2276
 5425SOL    HW226955   6.124   0.158   1.216 -2.7825 -0.0604 -1.0010
 5426SOL     OW26956   1.626   8.184   3.145  0.2834 -0.3638 -0.5292
 5426SOL    HW126957   1.654   8.277   3.168  1.9184 -0.6185 -1.3833
 5426SOL    HW226958   1.690   8.119   3.185 -1.0912 -1.1455  0.4110
 5427SOL     OW26959   0.866   6.401   1.859 -0.0666  0.0199  0.9593
 5427SOL    HW126960   0.924   6.482   1.871 -1.1944  0.9629  0.1583
 5427SOL    HW226961   0.917   6.319   1.887  1.7201  0.8040  0.1001
 5428SOL     OW26962   1.557   4.590   0.540 -0.1739 -0.1067  0.1615
 5428SOL    HW126963   1.555   4.557   0.634 -1.2855  0.5164  0.3704
 5428SOL    HW226964   1.464   4.588   0.502  0.2782 -0.4289 -0.9490
 5429SOL     OW26965   2.038   4.901   3.868 -0.2488  0.1622  0.0280
 5429SOL    HW126966   1.980   4.953   3.930  0.9061  1.6798 -0.1255
 5429SOL    HW226967   2.114   4.861   3.919  1.4361  2.4956 -0.5471
 5430SOL     OW26968   4.335   6.134   1.865 -0.6610 -0.5611 -0.1962
 5430SOL    HW126969   4.345   6.140   1.964 -2.5439  2.8935 -0.1499
 5430SOL    HW226970   4.423   6.157   1.821 -1.2305  3.3905  0.6182
 5431SOL     OW26971   3.675   3.245   2.326  0.4353  0.0128 -0.2588
 5431SOL    HW126972   3.649   3.236   2.230  0.6693  0.3176 -0.3473
 5431SOL    HW226973   3.735   3.169   2.352 -0.5821 -0.7337 -0.0380
 5432SOL     OW26974   2.370   0.159   1.026 -0.1843 -0.3582 -0.3111
 5432SOL    HW126975   2.286   0.209   1.051  0.8976  0.0048  2.8845
 5432SOL    HW226976   2.418   0.209   0.954 -1.9514  0.2402 -1.0964
 5433SOL     OW26977   3.663   5.167   0.416 -0.0592 -0.3189  0.5725
 5433SOL    HW126978   3.599   5.203   0.347  0.3680 -0.8173 -0.0892
 5433SOL    HW226979   3.686   5.240   0.481  0.7962  0.6328 -0.7661
 5434SOL     OW26980   7.791   0.356   0.942  0.3752 -0.5558 -0.4087
 5434SOL    HW126981   7.736   0.424   0.991 -0.6948  1.2636 -3.9877
 5434SOL    HW226982   7.740   0.320   0.864  4.1627  1.2974 -3.9596
 5435SOL     OW26983   4.643   9.555   3.723  0.0312 -0.4446  0.0742
 5435SOL    HW126984   4.552   9.592   3.740 -0.3914 -0.6135 -1.6957
 5435SOL    HW226985   4.705   9.630   3.697  0.4422 -0.3140  1.3770
 5436SOL     OW26986   1.542   7.966   1.820 -0.1671 -0.1438  0.2060
 5436SOL    HW126987   1.481   8.038   1.853  0.3720 -0.1114  1.1631
 5436SOL    HW226988   1.599   8.003   1.746 -2.5179 -0.6782 -1.9617
 5437SOL     OW26989   7.765   1.903   1.168 -0.0789  0.0557 -0.2131
 5437SOL    HW126990   7.817   1.975   1.214  0.8131 -0.1725 -0.8586
 5437SOL    HW226991   7.774   1.817   1.218 -0.7619  0.2686  0.2955
 5438SOL     OW26992   4.067   8.082   3.111 -0.3215 -0.6718  0.4994
 5438SOL    HW126993   4.112   8.038   3.033 -0.0824  3.7832 -2.0506
 5438SOL    HW226994   3.975   8.043   3.122 -0.1860 -1.7228 -1.7064
 5439SOL     OW26995   4.781   9.802   3.728 -0.7663 -0.0436  0.1167
 5439SOL    HW126996   4.863   9.822   3.675 -1.0498 -1.5863 -0.9488
 5439SOL    HW226997   4.784   9.851   3.815  2.3045 -1.7465  1.0383
 5440SOL     OW26998   9.057   3.696   2.703 -0.3995  0.0973 -0.1218
 5440SOL    HW126999   9.068   3.764   2.630  0.8139 -0.8075 -0.7935
 5440SOL    HW227000   9.136   3.700   2.764 -0.1274 -0.9900 -0.4028
 5441SOL     OW27001   4.606   7.527   2.071  0.8766  0.2406  0.0377
 5441SOL    HW127002   4.671   7.475   2.016  1.5960  0.7760  0.3670
 5441SOL    HW227003   4.565   7.599   2.015  0.4382 -0.1949 -0.2125
 5442SOL     OW27004   9.374   9.016   4.631  0.1918  0.6147  0.0273
 5442SOL    HW127005   9.337   9.002   4.539 -0.2348  0.2518  0.2463
 5442SOL    HW227006   9.429   8.936   4.657 -0.2930  0.3886  0.3692
 5443SOL     OW27007   2.981   7.901   1.049 -0.3290  0.2907  0.2445
 5443SOL    HW127008   3.037   7.874   1.127  0.9832 -0.6652 -0.9828
 5443SOL    HW227009   2.930   7.822   1.015 -1.5450  0.8941  0.6487
 5444SOL     OW27010   6.962   9.728   2.983 -0.0105  0.6661  0.3610
 5444SOL    HW127011   6.932   9.789   2.909  0.1158 -1.1358 -1.2180
 5444SOL    HW227012   7.050   9.687   2.959  0.5264  0.8113  1.9921
 5445SOL     OW27013   9.552   7.912   3.362  0.2209  0.0462 -0.2550
 5445SOL    HW127014   9.502   7.851   3.301  0.3068  0.2418 -0.5237
 5445SOL    HW227015   9.586   7.861   3.441 -0.0130 -0.1782 -0.3009
 5446SOL     OW27016   7.959   9.591   3.303 -0.1468 -0.2987  0.2966
 5446SOL    HW127017   8.029   9.532   3.262  1.5181  0.8369  1.4447
 5446SOL    HW227018   7.934   9.663   3.237 -0.0346 -0.5345 -0.0061
 5447SOL     OW27019   2.234   9.746   3.748  0.0612  0.1003 -0.5219
 5447SOL    HW127020   2.146   9.707   3.775 -0.0749  0.4755 -0.4114
 5447SOL    HW227021   2.306   9.679   3.762 -0.3366 -0.5365 -1.5032
 5448SOL     OW27022   7.588   3.326   1.360  0.2549  0.4222 -0.2769
 5448SOL    HW127023   7.505   3.271   1.358  0.8173 -0.5106  1.0407
 5448SOL    HW227024   7.576   3.402   1.425  0.0413  0.9480 -0.9234
 5449SOL     OW27025   4.625   2.633   1.065 -0.1477  0.4391 -0.0917
 5449SOL    HW127026   4.656   2.640   1.159 -0.8035  0.5299  0.1168
 5449SOL    HW227027   4.685   2.686   1.005  2.1730 -2.1261 -0.1561
 5450SOL     OW27028   7.491   1.646   3.380 -0.2619  0.0172  0.5344
 5450SOL    HW127029   7.502   1.551   3.407 -0.7569  0.2220  1.5072
 5450SOL    HW227030   7.506   1.705   3.460  1.1633  0.8229 -0.3099
 5451SOL     OW27031   7.313   7.625   3.325  0.0500  0.6142  0.0553
 5451SOL    HW127032   7.409   7.625   3.296  0.2970 -0.3402  0.8350
 5451SOL    HW227033   7.261   7.690   3.269  1.1284  1.0659 -0.4416
 5452SOL     OW27034   2.611   8.025   5.522 -0.1553 -0.1823  0.6471
 5452SOL    HW127035   2.643   7.932   5.537  0.2713 -0.2422 -0.5917
 5452SOL    HW227036   2.566   8.031   5.433  0.9694  1.0816  0.1354
 5453SOL     OW27037   3.064   4.845   0.667 -0.0414  0.8379 -0.0967
 5453SOL    HW127038   3.110   4.929   0.696 -1.7294  1.3028  1.3043
 5453SOL    HW227039   3.077   4.774   0.736 -1.6655  1.0675  0.4636
 5454SOL     OW27040   2.278   8.740   2.634 -0.4678 -0.0422  0.1587
 5454SOL    HW127041   2.334   8.738   2.552 -1.1204 -0.5005 -0.2795
 5454SOL    HW227042   2.281   8.832   2.675  0.1258  0.0889 -0.1854
 5455SOL     OW27043   1.312   7.359   1.395  0.3032 -0.0230  0.1017
 5455SOL    HW127044   1.353   7.284   1.447  0.2397 -0.0917  0.0530
 5455SOL    HW227045   1.323   7.445   1.445  0.7101 -0.0031 -0.0182
 5456SOL     OW27046   8.332   3.630   0.886 -0.1021  0.3192  0.3236
 5456SOL    HW127047   8.300   3.724   0.881 -1.0460 -0.0725 -1.1856
 5456SOL    HW227048   8.432   3.628   0.877 -0.0243  1.2147  0.9723
 5457SOL     OW27049   8.079   7.561   3.874  0.1911 -0.0898 -0.1723
 5457SOL    HW127050   8.062   7.565   3.973 -0.4605  0.1247 -0.2966
 5457SOL    HW227051   7.997   7.532   3.827 -0.2737  2.3040 -0.8880
 5458SOL     OW27052   9.622   8.134   2.645  0.3340  0.1046 -0.0865
 5458SOL    HW127053   9.621   8.039   2.678  1.5400  0.2402  0.3617
 5458SOL    HW227054   9.689   8.143   2.572 -2.0688 -0.1070 -2.3804
 5459SOL     OW27055   4.218   9.221   0.025  0.4026 -0.1156 -0.3302
 5459SOL    HW127056   4.275   9.300  -0.001  1.0710  0.3627  2.4338
 5459SOL    HW227057   4.128   9.229  -0.019  0.8901  1.5337 -1.0789
 5460SOL     OW27058   1.661   8.600   2.307 -0.2301 -0.4007 -0.1956
 5460SOL    HW127059   1.678   8.634   2.214 -0.8648 -0.6726 -0.4161
 5460SOL    HW227060   1.681   8.672   2.373  0.5933 -0.3280 -0.5188
 5461SOL     OW27061   3.865   2.147   3.287  0.3875  0.2595 -0.0545
 5461SOL    HW127062   3.852   2.199   3.372 -0.9604 -1.8958  1.0860
 5461SOL    HW227063   3.899   2.209   3.216 -2.0755  2.9563  0.9721
 5462SOL     OW27064   9.442   7.680   0.823 -0.5565 -0.4198 -0.0752
 5462SOL    HW127065   9.395   7.610   0.878  0.1401 -1.3309 -0.6140
 5462SOL    HW227066   9.527   7.641   0.786  0.4444  1.1068  0.6056
 5463SOL     OW27067   9.545   1.987   5.405 -0.1879 -0.1126  0.0660
 5463SOL    HW127068   9.573   2.004   5.311 -1.6682  0.7991 -0.2246
 5463SOL    HW227069   9.465   1.927   5.406 -0.7478  0.6323  0.6974
 5464SOL     OW27070   6.470   0.713   4.164  0.7622 -0.0363 -0.9040
 5464SOL    HW127071   6.483   0.741   4.069 -0.1936  0.1239 -0.9927
 5464SOL    HW227072   6.559   0.699   4.207  1.2089 -1.4074 -2.2009
 5465SOL     OW27073   0.587   1.819   1.128  0.2065 -0.0225 -0.3313
 5465SOL    HW127074   0.655   1.891   1.143  0.8771 -0.2564 -2.0804
 5465SOL    HW227075   0.607   1.742   1.188  0.0180  0.8926  0.9119
 5466SOL     OW27076   2.629   3.972   5.151 -0.3467 -0.7618  0.2527
 5466SOL    HW127077   2.554   4.031   5.179 -1.0201 -1.8244  0.7097
 5466SOL    HW227078   2.716   4.015   5.176 -0.8694 -0.5772  1.7857
 5467SOL     OW27079   5.043   0.608   0.178 -0.0884  0.0469 -0.4013
 5467SOL    HW127080   5.119   0.622   0.242 -0.6199 -0.5997  0.3785
 5467SOL    HW227081   5.022   0.511   0.172 -0.9462  0.2365 -0.5056
 5468SOL     OW27082   9.023   2.711   0.746 -0.4960 -0.1963  0.4145
 5468SOL    HW127083   8.990   2.666   0.663 -0.7376  0.1479  0.3239
 5468SOL    HW227084   9.115   2.677   0.768 -1.5157 -2.3152  1.5350
 5469SOL     OW27085   2.753   1.947   3.756 -0.2368  0.0307  0.3779
 5469SOL    HW127086   2.816   1.955   3.679 -2.6407  0.8622 -1.5756
 5469SOL    HW227087   2.780   2.010   3.829  1.8470 -0.5087  0.0931
 5470SOL     OW27088   1.930   2.774   3.093  0.0946  0.4378 -0.0559
 5470SOL    HW127089   2.012   2.740   3.047  0.2984  1.2086 -0.2785
 5470SOL    HW227090   1.873   2.697   3.121 -0.3302 -0.0379 -2.1329
 5471SOL     OW27091   1.379   6.158   3.466 -0.2349  0.0709  0.1390
 5471SOL    HW127092   1.443   6.170   3.390 -0.1682  0.8750  0.3142
 5471SOL    HW227093   1.295   6.117   3.432 -1.0853  2.5095 -0.8096
 5472SOL     OW27094   9.353   9.976   2.357 -0.1849 -0.3587  0.1298
 5472SOL    HW127095   9.299   9.914   2.301 -2.7287  0.9133  1.0784
 5472SOL    HW227096   9.335  10.070   2.329  0.5819  0.1371  1.2682
 5473SOL     OW27097   2.338   6.456   0.054 -0.1924 -0.5636 -0.2594
 5473SOL    HW127098   2.388   6.395   0.115  2.7967 -0.7107 -2.6933
 5473SOL    HW227099   2.383   6.545   0.052 -1.0231 -0.1525 -1.2499
 5474SOL     OW27100   0.790   0.802   0.004  0.3942  0.3624  0.5347
 5474SOL    HW127101   0.715   0.858  -0.031  0.7431  1.7966  2.0114
 5474SOL    HW227102   0.840   0.762  -0.073 -1.8980 -0.6629 -0.4575
 5475SOL     OW27103   3.688   3.875   2.580 -0.0511 -0.4243 -0.1437
 5475SOL    HW127104   3.722   3.969   2.588 -1.6616  0.3610 -2.0804
 5475SOL    HW227105   3.764   3.811   2.592  1.4834  1.1846 -1.0559
 5476SOL     OW27106   6.761   4.440   0.808 -0.2168 -0.1281 -0.0913
 5476SOL    HW127107   6.826   4.412   0.878 -0.0292  1.0209  0.2026
 5476SOL    HW227108   6.738   4.536   0.820 -0.7386 -0.1094 -1.1712
 5477SOL     OW27109   8.207   6.668   1.702  0.5953 -0.1896  0.0324
 5477SOL    HW127110   8.173   6.757   1.671 -0.8241 -0.7697 -0.0999
 5477SOL    HW227111   8.300   6.678   1.738  0.3697  1.3770  0.1878
 5478SOL     OW27112   1.567   7.260   4.806 -0.0883  0.2924  0.1179
 5478SOL    HW127113   1.546   7.268   4.904 -0.9498 -1.0549  0.0653
 5478SOL    HW227114   1.629   7.184   4.791 -1.7897 -0.9829 -0.6094
 5479SOL     OW27115   2.168   3.842   4.587  0.0112  0.5846 -0.1303
 5479SOL    HW127116   2.132   3.768   4.644 -2.2426  1.1753 -0.7314
 5479SOL    HW227117   2.265   3.856   4.609 -0.0327 -1.1867  1.4079
 5480SOL     OW27118   8.914   8.536   3.380  0.1695  0.2190 -0.2168
 5480SOL    HW127119   8.940   8.444   3.350 -0.5529 -0.2895  0.6962
 5480SOL    HW227120   8.996   8.592   3.390  0.5103  0.0954 -2.1201
 5481SOL     OW27121   4.392   6.524   1.533 -0.1772 -0.5709 -0.2809
 5481SOL    HW127122   4.311   6.557   1.581  0.3218  0.1135  0.0956
 5481SOL    HW227123   4.399   6.570   1.444  0.9360  0.9291  0.5624
 5482SOL     OW27124   0.662   1.034   1.771 -0.5348  0.4680  0.3923
 5482SOL    HW127125   0.659   0.950   1.826  0.6998  0.5569  0.5958
 5482SOL    HW227126   0.617   1.108   1.822 -0.2241  0.3207  0.8839
 5483SOL     OW27127   3.627   9.044   0.926 -0.4115 -0.2366 -0.0273
 5483SOL    HW127128   3.711   9.094   0.904 -0.4510 -1.1042 -2.2110
 5483SOL    HW227129   3.649   8.969   0.989  0.2071  0.3924  0.5227
 5484SOL     OW27130   1.588   9.388   5.475  0.2628  0.0810  0.0216
 5484SOL    HW127131   1.599   9.291   5.498 -0.4326  0.0570  0.2508
 5484SOL    HW227132   1.590   9.399   5.375  1.4556 -0.0298  0.0191
 5485SOL     OW27133   1.662   9.194   0.742  0.1896 -0.4910  0.1502
 5485SOL    HW127134   1.701   9.251   0.814  1.5225 -0.6854 -0.3945
 5485SOL    HW227135   1.685   9.099   0.759  0.7471 -0.5095 -0.6613
 5486SOL     OW27136   1.755   7.940   3.744 -0.2840  0.1750 -0.9886
 5486SOL    HW127137   1.827   7.872   3.756 -1.8152 -1.1152  1.2927
 5486SOL    HW227138   1.697   7.914   3.666 -0.9211 -1.2391 -0.0700
 5487SOL     OW27139   1.857   6.932   0.730 -0.3950 -0.4085  0.4583
 5487SOL    HW127140   1.764   6.939   0.766 -0.1042  0.9474  0.9752
 5487SOL    HW227141   1.922   6.959   0.801  0.1421  3.0880 -1.3042
 5488SOL     OW27142   0.175   7.673   4.598 -0.0268  0.0783  0.3772
 5488SOL    HW127143   0.140   7.722   4.519  0.4019 -0.5156 -0.1878
 5488SOL    HW227144   0.227   7.593   4.567  0.4035  0.0180  1.2465
 5489SOL     OW27145   4.269   4.421   0.125 -0.4887 -0.0070 -0.1739
 5489SOL    HW127146   4.171   4.433   0.106 -0.2503  2.8549  0.1672
 5489SOL    HW227147   4.304   4.344   0.073 -2.3437  0.6280 -2.4503
 5490SOL     OW27148   3.050   8.937   1.864 -0.1729 -0.0959  0.3010
 5490SOL    HW127149   3.045   8.880   1.945 -1.4863 -0.0899  0.2324
 5490SOL    HW227150   2.977   9.005   1.866  2.0094  2.3362  0.9335
 5491SOL     OW27151   1.210   4.530   3.416  0.1174  0.1145  0.0189
 5491SOL    HW127152   1.203   4.448   3.361  3.2033 -0.7282  0.7533
 5491SOL    HW227153   1.240   4.607   3.358 -0.4211  0.1474 -0.2136
 5492SOL     OW27154   0.942   9.036   0.045  0.3765  0.5037  0.0804
 5492SOL    HW127155   1.009   8.995   0.106  1.0158 -0.2386 -1.1018
 5492SOL    HW227156   0.986   9.104  -0.014  0.3392 -0.7364 -1.4288
 5493SOL     OW27157   9.117   4.134   3.124  0.2051  0.0115 -0.7596
 5493SOL    HW127158   9.151   4.222   3.158  0.4670 -0.2136 -0.4453
 5493SOL    HW227159   9.191   4.086   3.077 -0.1895  0.3921 -1.8050
 5494SOL     OW27160   4.855   1.203   2.400  0.2368 -0.4921  0.0758
 5494SOL    HW127161   4.864   1.275   2.468  0.0500 -1.3742  1.0446
 5494SOL    HW227162   4.837   1.116   2.446 -0.8306 -0.9320 -1.1460
 5495SOL     OW27163   6.233   0.126   0.902 -0.3097 -0.1420  0.2480
 5495SOL    HW127164   6.183   0.207   0.872  0.2613 -0.2406 -1.0035
 5495SOL    HW227165   6.286   0.089   0.826  1.9027  0.1250  1.6126
 5496SOL     OW27166   3.101   8.109   4.979  0.4095  0.0013 -0.3913
 5496SOL    HW127167   3.024   8.098   4.916 -0.2356 -0.9157  0.5533
 5496SOL    HW227168   3.166   8.034   4.966  0.9388  0.5397 -0.8873
 5497SOL     OW27169   7.951   5.978   3.053 -0.1518 -0.3743  0.4932
 5497SOL    HW127170   8.014   5.911   3.092 -1.2577 -1.9167 -0.2953
 5497SOL    HW227171   7.997   6.029   2.980  0.1994 -1.4483 -0.0404
 5498SOL     OW27172   8.874   0.788   1.319  0.1980  0.2225 -0.3168
 5498SOL    HW127173   8.954   0.756   1.369  1.4294  1.2659 -1.5886
 5498SOL    HW227174   8.829   0.710   1.275 -0.2320 -0.5398  1.4432
 5499SOL     OW27175   0.027   6.932   1.091  0.3242 -0.0764  0.2953
 5499SOL    HW127176   0.040   6.868   1.166 -0.9500  0.9710  1.4412
 5499SOL    HW227177   0.011   7.024   1.127 -0.2218  0.4604 -1.2484
 5500SOL     OW27178   9.009   7.895   4.178  0.4982 -0.4681  0.6141
 5500SOL    HW127179   9.026   7.846   4.093  1.2052  1.1914 -0.2213
 5500SOL    HW227180   9.094   7.898   4.232  0.9021  1.2361 -0.0902
 5501SOL     OW27181   4.885   8.365   1.135 -0.2166 -0.4411 -0.1112
 5501SOL    HW127182   4.957   8.397   1.197  1.0125 -1.7227 -0.8671
 5501SOL    HW227183   4.853   8.442   1.080 -0.8731  0.5749  1.6373
 5502SOL     OW27184   2.138   5.121   2.200  0.1796  0.5202 -0.2585
 5502SOL    HW127185   2.129   5.102   2.297  0.9640  2.2849  0.1862
 5502SOL    HW227186   2.216   5.182   2.185 -0.5840  1.1479 -1.8539
 5503SOL     OW27187   8.124   2.808   1.460 -0.0780 -0.5141  0.5715
 5503SOL    HW127188   8.190   2.832   1.532 -1.3894  0.2914  1.5384
 5503SOL    HW227189   8.071   2.889   1.435 -0.1742 -0.9716 -0.7552
 5504SOL     OW27190   2.168   7.618   2.034 -0.5181  0.1346 -1.0158
 5504SOL    HW127191   2.253   7.567   2.049 -1.1957 -1.0399 -1.0659
 5504SOL    HW227192   2.189   7.708   1.996  0.8981  0.9989  1.6491
 5505SOL     OW27193   4.457   9.572   0.913  0.5553 -0.5878  0.1752
 5505SOL    HW127194   4.402   9.653   0.932  0.6402 -0.8432  1.5673
 5505SOL    HW227195   4.457   9.512   0.993 -0.1125 -2.3320 -1.0992
 5506SOL     OW27196   9.037   7.877   2.007  0.0902  0.3030  0.9893
 5506SOL    HW127197   9.110   7.891   2.074  0.4928  0.6493  0.4790
 5506SOL    HW227198   9.029   7.779   1.987 -0.1428  0.1770  1.6589
 5507SOL     OW27199   9.752   2.159   4.899 -0.4080 -0.6637 -0.6990
 5507SOL    HW127200   9.652   2.156   4.893 -0.4689 -0.4290  0.2033
 5507SOL    HW227201   9.783   2.105   4.977 -0.0090  1.5866  0.7469
 5508SOL     OW27202   8.752   0.289   4.333 -0.3383  0.0301 -0.3445
 5508SOL    HW127203   8.659   0.324   4.322 -0.0316  0.9691  0.0845
 5508SOL    HW227204   8.748   0.192   4.360 -1.1947  0.2161  0.2063
 5509SOL     OW27205   2.151   6.336   1.419  0.4330 -0.2475 -0.5965
 5509SOL    HW127206   2.083   6.328   1.346 -1.1458 -0.9469  0.9208
 5509SOL    HW227207   2.133   6.268   1.490  1.9374  0.4204  0.4671
 5510SOL     OW27208   1.447   4.985   2.842 -0.2003 -0.0690 -0.1076
 5510SOL    HW127209   1.453   5.032   2.930  0.1101  0.1403 -0.2405
 5510SOL    HW227210   1.539   4.973   2.804 -0.3581  0.1035 -0.5412
 5511SOL     OW27211   6.994   7.199   3.168  0.2830 -0.0814  0.5551
 5511SOL    HW127212   6.990   7.292   3.206  0.7771  0.1036  0.1590
 5511SOL    HW227213   7.027   7.203   3.074 -0.3494 -0.6024  0.3077
 5512SOL     OW27214   7.049   6.175   2.554 -0.0937  0.1673  0.3552
 5512SOL    HW127215   7.115   6.100   2.556 -0.5473 -0.2207  0.8268
 5512SOL    HW227216   6.967   6.147   2.506 -0.0202  0.5661 -0.0043
 5513SOL     OW27217   1.934   1.895   5.534 -0.1763 -0.3064  0.0474
 5513SOL    HW127218   1.981   1.953   5.466 -1.1511  0.2586 -0.1555
 5513SOL    HW227219   1.881   1.825   5.486  0.9117 -1.3174  0.2917
 5514SOL     OW27220   3.012   1.024   3.935  0.0238 -0.3393  0.2565
 5514SOL    HW127221   3.064   1.107   3.954 -0.2128 -0.1557  0.0985
 5514SOL    HW227222   3.028   0.996   3.840  0.7079 -0.9032  0.5298
 5515SOL     OW27223   4.439   2.939   1.041  0.2145  0.4226 -0.2811
 5515SOL    HW127224   4.363   2.898   1.091 -0.0406 -0.1836 -1.1684
 5515SOL    HW227225   4.421   3.036   1.027 -0.2005  0.3689 -0.1223
 5516SOL     OW27226   9.414   0.790   2.333  0.1978  0.0405  0.2245
 5516SOL    HW127227   9.369   0.705   2.362  0.7488  0.2817  1.8680
 5516SOL    HW227228   9.344   0.859   2.313 -0.2204 -0.3177  0.4412
 5517SOL     OW27229   3.778   9.703   0.890 -0.4516 -0.4564  0.8892
 5517SOL    HW127230   3.736   9.658   0.811 -1.1988  2.0243 -0.1732
 5517SOL    HW227231   3.877   9.689   0.887 -0.5687 -1.1825  0.0491
 5518SOL     OW27232   3.127   0.881   1.797 -0.5526 -0.1299  0.3470
 5518SOL    HW127233   3.100   0.964   1.845  1.1981  0.1387  0.8971
 5518SOL    HW227234   3.103   0.801   1.852 -2.0849 -0.0085 -0.1091
 5519SOL     OW27235   2.274   0.169   4.985  0.7070  0.3039  0.3152
 5519SOL    HW127236   2.282   0.260   5.025  0.4204 -0.0647  1.2232
 5519SOL    HW227237   2.183   0.132   5.006 -0.4406  1.1436 -2.8592
 5520SOL     OW27238   7.011   9.478   4.478  0.2579 -0.2504  0.3403
 5520SOL    HW127239   7.083   9.493   4.410  0.6108  0.4977  0.8665
 5520SOL    HW227240   7.046   9.418   4.551  0.0043 -0.7427  0.0575
 5521SOL     OW27241   1.712   9.736   3.863  0.1899  0.5264  0.4433
 5521SOL    HW127242   1.694   9.772   3.954 -2.1145  1.0904 -0.2021
 5521SOL    HW227243   1.639   9.672   3.838  0.4442  0.8789 -1.2587
 5522SOL     OW27244   6.935   0.252   1.118  0.4795  0.0058 -0.1962
 5522SOL    HW127245   6.900   0.160   1.138  0.9438 -0.1754 -0.2180
 5522SOL    HW227246   6.862   0.319   1.133 -0.2799 -0.4948 -1.5180
 5523SOL     OW27247   4.156   0.498   2.749 -0.7585  0.2301  0.0267
 5523SOL    HW127248   4.197   0.435   2.815 -2.5873  0.3281  1.2911
 5523SOL    HW227249   4.218   0.574   2.732  0.6500 -0.9191 -0.0465
 5524SOL     OW27250   1.430   6.712   4.587 -0.2153  0.1172  0.8154
 5524SOL    HW127251   1.407   6.649   4.513  2.5703 -0.5033  0.4424
 5524SOL    HW227252   1.395   6.803   4.564 -0.2549 -0.2796 -0.7883
 5525SOL     OW27253   7.692   1.618   0.919 -0.5960 -0.2436  0.3353
 5525SOL    HW127254   7.714   1.557   0.843  1.1348 -0.0609  0.6553
 5525SOL    HW227255   7.703   1.713   0.890 -1.4574 -0.1285  0.3713
 5526SOL     OW27256   3.428   7.393   0.739 -0.3939  0.3306 -0.1723
 5526SOL    HW127257   3.476   7.323   0.793  3.3807  1.7657 -1.4856
 5526SOL    HW227258   3.393   7.352   0.655  0.6820 -0.2697 -0.3397
 5527SOL     OW27259   9.954   7.424   1.965  0.4587 -0.0891  0.0730
 5527SOL    HW127260   9.901   7.363   2.024  0.0401 -0.0448 -0.2557
 5527SOL    HW227261   9.932   7.519   1.989 -1.3534 -0.0463 -1.5925
 5528SOL     OW27262   2.926   0.461   0.702  0.3528  0.1228 -0.5823
 5528SOL    HW127263   2.857   0.466   0.774  0.3472 -0.2771 -0.5584
 5528SOL    HW227264   3.017   0.473   0.742  0.4625 -1.5441 -0.2900
 5529SOL     OW27265   2.351   2.889   4.292 -0.0494 -0.3901  0.5347
 5529SOL    HW127266   2.333   2.864   4.387  0.1500  0.5379  0.8241
 5529SOL    HW227267   2.393   2.980   4.289 -0.7644 -0.0865 -0.4849
 5530SOL     OW27268   7.793   9.278   1.798  0.3514 -0.5838 -0.1142
 5530SOL    HW127269   7.772   9.216   1.875 -0.9362  1.7031  1.4323
 5530SOL    HW227270   7.878   9.326   1.816  0.0569 -0.0557 -0.1163
 5531SOL     OW27271   4.447   8.723   1.850 -0.2341 -0.0209 -0.8522
 5531SOL    HW127272   4.430   8.700   1.945  0.5460 -1.3327 -1.0217
 5531SOL    HW227273   4.388   8.800   1.823 -0.4760  0.3414  0.6629
 5532SOL     OW27274   7.904   6.733   3.010  0.5219 -0.0321 -0.4045
 5532SOL    HW127275   7.849   6.704   3.089  0.4359 -0.7234 -0.7137
 5532SOL    HW227276   7.843   6.756   2.934  0.6130  0.4361 -0.3337
 5533SOL     OW27277   7.549   3.233   0.660 -0.0791 -0.4064 -1.2129
 5533SOL    HW127278   7.450   3.245   0.661 -0.0539 -0.1929 -1.1886
 5533SOL    HW227279   7.593   3.316   0.697  0.0489 -1.1613  0.3623
 5534SOL     OW27280   6.286   7.711   3.891  0.4189  1.0432  0.6439
 5534SOL    HW127281   6.316   7.734   3.799 -0.7979 -2.0698 -0.5900
 5534SOL    HW227282   6.365   7.677   3.944  0.7886  1.2694  0.2407
 5535SOL     OW27283   6.729   6.967   2.064 -0.0448 -0.6766  0.3043
 5535SOL    HW127284   6.818   6.937   2.098  0.0469 -1.1236 -0.3239
 5535SOL    HW227285   6.662   6.962   2.138  0.3267 -0.8962  0.6293
 5536SOL     OW27286   8.075   4.519   2.217  0.1045  0.5068 -0.3106
 5536SOL    HW127287   8.093   4.436   2.166  2.0150  0.7941 -0.1245
 5536SOL    HW227288   7.993   4.564   2.180  0.5735 -0.0774 -2.1014
 5537SOL     OW27289   7.084   0.822   4.668  0.3820  0.7004 -0.1841
 5537SOL    HW127290   7.109   0.853   4.759 -0.5051  0.4802  0.1401
 5537SOL    HW227291   7.080   0.722   4.667 -0.8412  0.7334 -0.1188
 5538SOL     OW27292   1.503   5.059   3.483  0.2958  1.0729  0.3730
 5538SOL    HW127293   1.560   5.126   3.531  1.5262 -0.2060  0.7585
 5538SOL    HW227294   1.425   5.035   3.540  1.0354  0.5538  1.1811
 5539SOL     OW27295   9.042   7.071   3.005 -0.8254 -0.0382 -0.6300
 5539SOL    HW127296   8.971   7.141   3.017 -2.2896 -1.6626  0.3274
 5539SOL    HW227297   9.069   7.035   3.094 -1.0061 -1.6078 -1.1972
 5540SOL     OW27298   6.099   9.356   1.321  0.6330  0.2667 -0.3667
 5540SOL    HW127299   6.083   9.418   1.245  1.6085 -1.3818 -1.9592
 5540SOL    HW227300   6.170   9.290   1.296  1.4827  0.1397  2.2334
 5541SOL     OW27301   4.965   0.979   4.774  0.2955  0.0511 -0.0087
 5541SOL    HW127302   4.984   0.996   4.678 -1.3205  3.0156  0.1516
 5541SOL    HW227303   4.868   0.996   4.793  0.6474 -0.2250  2.1818
 5542SOL     OW27304   4.628   0.686   3.877  0.0206 -0.1377 -0.3376
 5542SOL    HW127305   4.640   0.785   3.869 -0.6686  0.0518  0.9175
 5542SOL    HW227306   4.571   0.654   3.802  2.1255  0.0559 -2.0788
 5543SOL     OW27307   7.794   1.956   3.261 -0.4828 -0.1194  0.1204
 5543SOL    HW127308   7.770   1.983   3.354 -0.9913 -1.3768  0.3728
 5543SOL    HW227309   7.782   1.857   3.252  1.1117 -0.2473 -0.8106
 5544SOL     OW27310   0.285   0.287   4.535 -0.9338 -1.1662  0.1727
 5544SOL    HW127311   0.323   0.303   4.444  1.5816 -1.3912  1.1337
 5544SOL    HW227312   0.213   0.218   4.530  0.3448 -2.4382 -1.4247
 5545SOL     OW27313   1.957   4.706   5.287 -0.3101 -0.3075  0.3868
 5545SOL    HW127314   1.963   4.608   5.267 -2.9170 -0.5743  0.8079
 5545SOL    HW227315   1.933   4.755   5.203 -1.7550 -0.3612  0.7545
 5546SOL     OW27316   0.641   3.737   0.812 -0.4012 -0.2622  0.8880
 5546SOL    HW127317   0.646   3.834   0.832  2.3408  0.1207 -1.3660
 5546SOL    HW227318   0.617   3.723   0.716  0.8717 -1.7510  0.7552
 5547SOL     OW27319   4.163   3.214   1.333  0.4348 -0.5194  0.0580
 5547SOL    HW127320   4.195   3.305   1.361 -2.3371 -0.0910  2.0350
 5547SOL    HW227321   4.154   3.212   1.233 -0.1566  1.6735  0.0234
 5548SOL     OW27322   9.329   9.560   0.719 -0.1131 -0.1122 -0.5082
 5548SOL    HW127323   9.409   9.574   0.777 -0.3132 -0.2696 -0.1868
 5548SOL    HW227324   9.246   9.576   0.773 -0.3198 -0.9965 -0.5406
 5549SOL     OW27325   9.121   6.506   3.015  0.0796  0.6152 -0.3121
 5549SOL    HW127326   9.136   6.605   3.012  0.6924  0.5110 -0.5724
 5549SOL    HW227327   9.203   6.459   2.984  0.2764 -0.0169  1.1563
 5550SOL     OW27328   2.211   0.471   3.319 -0.8381  0.7770 -0.2128
 5550SOL    HW127329   2.289   0.483   3.379 -1.2616  2.2891  0.0528
 5550SOL    HW227330   2.218   0.534   3.241 -0.3820 -1.0269 -1.6816
 5551SOL     OW27331   3.535   8.870   2.061 -0.2425  0.5875  1.1088
 5551SOL    HW127332   3.626   8.838   2.035 -1.4477 -0.0817 -2.5968
 5551SOL    HW227333   3.539   8.969   2.078  0.7544  1.0204 -1.3607
 5552SOL     OW27334   0.859   0.235   5.023  0.3467  0.2841 -0.2495
 5552SOL    HW127335   0.879   0.139   5.039 -0.8634 -0.1285 -1.1524
 5552SOL    HW227336   0.890   0.289   5.101  1.5559 -0.7581  0.0093
 5553SOL     OW27337   2.089   3.034   2.699 -0.2238  0.1559  0.6287
 5553SOL    HW127338   2.157   3.107   2.691 -0.3284  0.0822 -0.9644
 5553SOL    HW227339   1.999   3.070   2.673 -0.9478  0.4368  3.3488
 5554SOL     OW27340   2.423   7.671   1.740  0.6305 -0.0373 -0.8831
 5554SOL    HW127341   2.327   7.660   1.765  0.8530 -0.5194 -0.2293
 5554SOL    HW227342   2.430   7.727   1.657 -0.0533  2.3603  0.6370
 5555SOL     OW27343   8.765   8.976   1.861  0.0092 -0.0215  0.6992
 5555SOL    HW127344   8.772   9.075   1.851 -0.2028 -0.2035 -1.6739
 5555SOL    HW227345   8.676   8.945   1.827  0.8139 -1.2104 -0.4053
 5556SOL     OW27346   9.260   8.399   3.683 -0.5516 -0.0340  0.2832
 5556SOL    HW127347   9.349   8.383   3.725  0.5103  1.6102 -1.2520
 5556SOL    HW227348   9.255   8.349   3.596 -0.5250  1.0614 -0.3615
 5557SOL     OW27349   1.271   3.132   0.500 -0.0377 -0.1308 -0.3239
 5557SOL    HW127350   1.287   3.040   0.536 -2.7277 -0.1198  1.0259
 5557SOL    HW227351   1.250   3.195   0.575  4.0811  2.1972 -0.9513
 5558SOL     OW27352   9.669   3.510   2.782 -0.6289  0.0999  0.0690
 5558SOL    HW127353   9.643   3.414   2.778 -0.3455  0.0062  0.4612
 5558SOL    HW227354   9.736   3.524   2.855 -0.8268  0.6312  0.1554
 5559SOL     OW27355   0.599   5.146   2.418 -0.5078  0.4110  0.4918
 5559SOL    HW127356   0.536   5.211   2.460  1.7888  3.0412  0.0334
 5559SOL    HW227357   0.673   5.196   2.373  0.8016 -2.5270 -0.7405
 5560SOL     OW27358   3.878   3.244   3.026 -0.1068  0.6960 -0.4347
 5560SOL    HW127359   3.797   3.225   3.081 -0.0340  1.3460 -0.0903
 5560SOL    HW227360   3.949   3.177   3.047 -0.3133  0.5433 -0.2210
 5561SOL     OW27361   0.669   8.747   5.044  0.0035 -0.3784 -0.0775
 5561SOL    HW127362   0.732   8.753   4.966 -0.2875  2.5246 -0.1638
 5561SOL    HW227363   0.710   8.692   5.116  1.0262 -1.6511 -1.5869
 5562SOL     OW27364   3.773   2.179   5.369  0.5155  0.3217 -0.1670
 5562SOL    HW127365   3.813   2.111   5.308  0.1957  0.1329 -0.1738
 5562SOL    HW227366   3.793   2.154   5.464  0.1531  0.0488 -0.1560
 5563SOL     OW27367   9.168   8.852   1.914 -0.1666  0.1047 -0.1512
 5563SOL    HW127368   9.235   8.800   1.861  0.1324  1.5761 -1.2317
 5563SOL    HW227369   9.084   8.862   1.860 -0.8461 -0.7186  0.7345
 5564SOL     OW27370   7.018   9.782   0.959 -0.4785  0.0902 -0.3173
 5564SOL    HW127371   7.015   9.699   1.016  3.4062  0.0820  0.0099
 5564SOL    HW227372   7.056   9.857   1.012 -0.2054  1.0334 -1.8211
 5565SOL     OW27373   3.291   0.233   4.362  0.0234 -0.5881 -0.2535
 5565SOL    HW127374   3.239   0.300   4.308 -0.5414  1.1107  2.3077
 5565SOL    HW227375   3.389   0.250   4.351 -0.1172  1.0203  0.7458
 5566SOL     OW27376   9.731   6.840   3.778  0.0078  0.0399  0.1888
 5566SOL    HW127377   9.706   6.894   3.697 -1.2888 -0.8892 -0.0402
 5566SOL    HW227378   9.830   6.840   3.788  0.1130  1.1467 -0.7225
 5567SOL     OW27379   5.866   4.159   0.235 -0.1038  0.1657  0.6976
 5567SOL    HW127380   5.872   4.246   0.187 -2.1458  0.1116  0.3108
 5567SOL    HW227381   5.935   4.096   0.198 -1.1232  0.3815 -1.6756
 5568SOL     OW27382   7.472   8.850   1.761  0.0676  0.2317  0.0292
 5568SOL    HW127383   7.430   8.797   1.836  0.8870  0.8789  0.9508
 5568SOL    HW227384   7.447   8.946   1.771  0.1933  0.3228 -0.5350
 5569SOL     OW27385   8.511   0.782   2.510 -0.4196  0.1676  0.0221
 5569SOL    HW127386   8.508   0.825   2.600  1.7248 -1.4874  0.9284
 5569SOL    HW227387   8.538   0.686   2.520  2.4639  0.6222 -2.5737
 5570SOL     OW27388   2.004   9.568   4.238 -0.0552 -0.0059  0.8558
 5570SOL    HW127389   1.929   9.606   4.183 -0.7835 -0.8336  1.2674
 5570SOL    HW227390   1.986   9.584   4.335 -0.6006 -1.7931  1.0608
 5571SOL     OW27391   0.021   9.986   4.001  0.0273 -0.0017  0.4126
 5571SOL    HW127392   0.058   9.914   3.942 -0.4676  0.4522 -0.4582
 5571SOL    HW227393  -0.049  10.037   3.951 -0.0300  0.7151  1.2241
 5572SOL     OW27394   9.566   9.828   0.385 -0.8435  0.0882 -0.3637
 5572SOL    HW127395   9.551   9.926   0.392  1.3750  0.4094 -0.0292
 5572SOL    HW227396   9.508   9.781   0.452 -2.4628  1.0839 -1.0245
 5573SOL     OW27397   4.146   8.342   5.041 -0.1350 -0.5272 -0.2301
 5573SOL    HW127398   4.135   8.437   5.072  2.1205 -0.2114 -0.2869
 5573SOL    HW227399   4.124   8.336   4.944  1.5680  0.3586 -0.6890
 5574SOL     OW27400   6.820   8.766   1.103  0.3316 -0.0820  0.5041
 5574SOL    HW127401   6.899   8.771   1.042  1.3172  0.1901  1.7636
 5574SOL    HW227402   6.847   8.720   1.188 -0.9647 -0.3028  0.8021
 5575SOL     OW27403   3.774   4.937   0.433  0.0013  0.4361 -0.0393
 5575SOL    HW127404   3.737   5.027   0.409 -0.9855  0.1894  0.5331
 5575SOL    HW227405   3.828   4.945   0.517 -1.1322  0.2629  0.7120
 5576SOL     OW27406   9.614   0.139   2.443 -0.0879  0.3682 -0.0172
 5576SOL    HW127407   9.636   0.158   2.348 -0.7352 -0.9326 -0.4356
 5576SOL    HW227408   9.601   0.041   2.456  0.5608  0.4699  1.5364
 5577SOL     OW27409   3.042   7.031   1.835  0.2344  0.1584  0.2027
 5577SOL    HW127410   3.062   7.119   1.791 -2.1242  1.0587  0.8407
 5577SOL    HW227411   2.943   7.017   1.836  0.4697 -1.4636  2.1272
 5578SOL     OW27412   4.989   1.394   1.638 -0.6759 -0.3207 -0.5179
 5578SOL    HW127413   4.973   1.297   1.621 -2.2627 -0.0054 -0.9220
 5578SOL    HW227414   4.913   1.431   1.692  0.3338  0.5107  0.3525
 5579SOL     OW27415   3.352   7.265   2.939  0.6701  0.6127 -0.2369
 5579SOL    HW127416   3.255   7.270   2.914  0.9749  1.4637 -1.3056
 5579SOL    HW227417   3.399   7.204   2.877  0.8263  0.1950  0.2882
 5580SOL     OW27418   3.878   6.374   1.162  0.2250 -0.3822 -0.2564
 5580SOL    HW127419   3.933   6.291   1.175  0.2239 -0.1216  1.4633
 5580SOL    HW227420   3.939   6.454   1.160  0.0585 -0.2467  0.0412
 5581SOL     OW27421   0.246   9.293   5.360  0.2018  0.5601 -0.1413
 5581SOL    HW127422   0.286   9.280   5.450 -0.7738 -0.9365  0.0857
 5581SOL    HW227423   0.304   9.249   5.291 -0.4537 -0.6583  0.0681
 5582SOL     OW27424   0.295   0.935   1.805 -0.9417 -0.1784 -0.0302
 5582SOL    HW127425   0.366   0.865   1.801 -0.1889  0.3264  3.0900
 5582SOL    HW227426   0.290   0.972   1.898 -2.7014  2.4957 -1.1261
 5583SOL     OW27427   2.360   0.252   1.630 -0.2898 -0.1423  0.4666
 5583SOL    HW127428   2.452   0.242   1.591 -0.1204 -0.0383  0.8320
 5583SOL    HW227429   2.366   0.242   1.729 -0.6713 -0.1114  0.4900
 5584SOL     OW27430   9.518   8.848   5.133 -0.3446  0.1895  0.0383
 5584SOL    HW127431   9.598   8.790   5.120 -0.9010 -0.5212 -0.2879
 5584SOL    HW227432   9.544   8.932   5.180  0.2566 -0.9178  1.7290
 5585SOL     OW27433   0.479   3.329   0.698  0.2472 -0.1811 -0.2253
 5585SOL    HW127434   0.402   3.369   0.647 -0.3154 -1.0523 -0.0743
 5585SOL    HW227435   0.477   3.230   0.688 -0.3232 -0.4294  2.1522
 5586SOL     OW27436   3.643   3.462   4.974 -0.0322 -0.6399 -0.2920
 5586SOL    HW127437   3.690   3.385   4.931  0.4242  0.0766 -1.1086
 5586SOL    HW227438   3.544   3.445   4.976 -0.1708 -0.2416 -2.6014
 5587SOL     OW27439   5.127   8.776   2.867  0.7217 -0.3933  0.3600
 5587SOL    HW127440   5.206   8.797   2.810 -0.1837  2.2497  0.0003
 5587SOL    HW227441   5.151   8.787   2.964  1.1705 -0.9962  0.3197
 5588SOL     OW27442   1.363   6.970   0.659 -0.1110 -0.3992  0.2642
 5588SOL    HW127443   1.427   6.977   0.582 -0.7328  0.2852 -0.1920
 5588SOL    HW227444   1.415   6.971   0.745  0.6346 -1.8187 -0.1520
 5589SOL     OW27445   9.681   1.901   4.573  0.4542 -0.2919 -0.2936
 5589SOL    HW127446   9.763   1.925   4.520  0.3064  1.3493  0.2127
 5589SOL    HW227447   9.696   1.813   4.619  1.2825 -0.8293 -1.5526
 5590SOL     OW27448   1.390   7.920   3.809 -0.0732 -0.5705 -0.3462
 5590SOL    HW127449   1.379   7.836   3.755 -1.2135 -1.2785  0.9520
 5590SOL    HW227450   1.465   7.907   3.874  2.3081  0.8163 -2.6963
 5591SOL     OW27451   1.700   1.686   1.290 -0.0941 -0.4456 -1.1911
 5591SOL    HW127452   1.654   1.618   1.348 -1.1509  1.2114 -0.0513
 5591SOL    HW227453   1.795   1.695   1.319 -0.5238  0.1195  0.0671
 5592SOL     OW27454   4.008   4.466   1.022  0.6483 -0.3576 -0.3283
 5592SOL    HW127455   3.965   4.428   1.103  0.0698 -0.6581 -0.7788
 5592SOL    HW227456   4.104   4.489   1.043 -0.0034  1.2943  0.9786
 5593SOL     OW27457   1.920   8.945   0.280  0.1732  0.2276  0.0618
 5593SOL    HW127458   1.970   8.994   0.209 -1.9443 -0.0872 -1.7135
 5593SOL    HW227459   1.821   8.955   0.264 -0.3215 -1.8929  1.5389
 5594SOL     OW27460   1.017   5.632   2.248  0.1963  0.2503 -0.3325
 5594SOL    HW127461   1.033   5.536   2.271 -0.0700 -0.2841 -2.2703
 5594SOL    HW227462   0.922   5.655   2.265 -0.1290 -0.2874 -1.4194
 5595SOL     OW27463   0.815   9.301   0.384 -0.6450 -0.1578 -0.3666
 5595SOL    HW127464   0.898   9.287   0.329  0.4023  1.4023  0.7634
 5595SOL    HW227465   0.762   9.376   0.346  1.1187  2.2888  1.8597
 5596SOL     OW27466   5.681   1.063   2.765  0.1275  0.3062  0.0786
 5596SOL    HW127467   5.766   1.012   2.770  0.3900  0.8025  0.6921
 5596SOL    HW227468   5.693   1.154   2.805 -0.5315  0.5919 -0.3438
 5597SOL     OW27469   1.960   2.403   1.797  0.4039 -0.4355  0.0101
 5597SOL    HW127470   1.899   2.469   1.752  1.9148  1.3477  0.5387
 5597SOL    HW227471   2.046   2.397   1.746  0.3718 -1.8583  0.0945
 5598SOL     OW27472   1.254   1.723   2.016  0.0110  0.0962  0.2345
 5598SOL    HW127473   1.209   1.638   2.042  1.3851 -0.4533  0.8357
 5598SOL    HW227474   1.313   1.754   2.091 -0.8294  1.8361  0.2214
 5599SOL     OW27475   9.498   9.472   0.466  0.6269 -0.1087 -0.1756
 5599SOL    HW127476   9.468   9.521   0.548  2.2110 -0.0732  0.4101
 5599SOL    HW227477   9.452   9.384   0.461 -0.3269  0.3587  0.1426
 5600SOL     OW27478   2.425   0.989   5.595  0.1262  0.0605 -0.4855
 5600SOL    HW127479   2.405   1.022   5.503  0.1882  0.7308 -0.2634
 5600SOL    HW227480   2.509   0.935   5.593  0.6561  0.8799 -0.6585
 5601SOL     OW27481   0.620   5.784   0.890 -0.1641 -0.3184 -0.1298
 5601SOL    HW127482   0.673   5.764   0.973 -2.1487  0.0072  1.2721
 5601SOL    HW227483   0.527   5.811   0.916 -0.5887  0.5906 -2.4495
 5602SOL     OW27484   3.748   7.284   5.232 -0.6327 -0.2584  0.0280
 5602SOL    HW127485   3.837   7.237   5.232 -0.3284  0.1395 -3.7233
 5602SOL    HW227486   3.762   7.382   5.248 -0.6275 -0.4875  1.4834
 5603SOL     OW27487   1.993   0.898   2.041  0.1060  0.2378  0.0304
 5603SOL    HW127488   1.980   0.978   1.982  0.1239  0.8629  0.8593
 5603SOL    HW227489   1.907   0.847   2.048 -0.3388  1.0868  0.7952
 5604SOL     OW27490   0.202   1.170   1.723  0.0178  0.3162 -0.1365
 5604SOL    HW127491   0.255   1.086   1.718  2.4783  1.7576  1.1213
 5604SOL    HW227492   0.239   1.230   1.794 -1.2503  2.7677 -1.4543
 5605SOL     OW27493   2.473   7.693   4.103 -0.6391  0.3077  0.1194
 5605SOL    HW127494   2.570   7.671   4.092 -0.7216 -0.4448  0.7714
 5605SOL    HW227495   2.428   7.694   4.014 -0.0941  0.3570 -0.1576
 5606SOL     OW27496   5.145   8.514   4.149 -0.1232 -0.5636  0.2151
 5606SOL    HW127497   5.115   8.418   4.153 -3.7746  0.5203  1.1862
 5606SOL    HW227498   5.201   8.528   4.068 -0.1327 -3.3619 -0.3437
 5607SOL     OW27499   2.186   9.149   3.875 -0.1537 -0.3574 -0.6342
 5607SOL    HW127500   2.108   9.207   3.894  0.0586 -0.9673  2.2179
 5607SOL    HW227501   2.267   9.206   3.860 -0.3558  0.1377  0.1578
 5608SOL     OW27502   7.358   7.908   3.675 -0.1789 -0.5485  0.4089
 5608SOL    HW127503   7.322   7.939   3.587 -0.9673  0.9792  1.2317
 5608SOL    HW227504   7.310   7.956   3.748  0.6300 -1.6345  1.6652
 5609SOL     OW27505   2.823   1.573   3.516 -0.3150  0.0023 -0.4944
 5609SOL    HW127506   2.789   1.571   3.610  0.8480  1.2719 -0.0324
 5609SOL    HW227507   2.747   1.593   3.454 -0.7121  1.2619  0.3753
 5610SOL     OW27508   2.111   8.803   3.870  0.5540  0.4549  0.2479
 5610SOL    HW127509   2.143   8.898   3.865 -1.8731  1.3247  0.7004
 5610SOL    HW227510   2.095   8.769   3.778 -0.3803  1.1471  0.1390
 5611SOL     OW27511   3.027   7.793   1.922 -0.0641  0.1413  0.5729
 5611SOL    HW127512   3.014   7.776   2.019 -0.0174  1.2907  0.7922
 5611SOL    HW227513   2.938   7.794   1.876 -0.1376  0.2307  0.7164
 5612SOL     OW27514   2.390   7.308   2.552  0.0407  0.1210  0.0707
 5612SOL    HW127515   2.442   7.342   2.474  0.2953  0.6384  0.4676
 5612SOL    HW227516   2.300   7.353   2.554 -1.0140 -1.7983 -1.4424
 5613SOL     OW27517   3.856   8.292   3.482  0.5614 -0.1281 -0.0901
 5613SOL    HW127518   3.798   8.333   3.412  0.3378 -1.4646 -0.6988
 5613SOL    HW227519   3.914   8.363   3.522  0.2106  0.7765 -1.1401
 5614SOL     OW27520   9.755   0.413   4.077 -0.2128  0.2283  0.6480
 5614SOL    HW127521   9.754   0.323   4.122  0.6481  0.7731  1.7650
 5614SOL    HW227522   9.689   0.473   4.121 -0.1614  0.4214  0.4619
 5615SOL     OW27523   0.913   0.800   4.187  0.0147  0.8917 -0.4523
 5615SOL    HW127524   0.952   0.891   4.204  1.4167  0.4240 -1.0432
 5615SOL    HW227525   0.984   0.741   4.150 -1.1956 -0.1241 -1.1668
 5616SOL     OW27526   3.014   3.656   4.397 -0.5269 -0.0861 -0.7930
 5616SOL    HW127527   3.005   3.581   4.463 -1.2732  1.0592  0.4226
 5616SOL    HW227528   3.061   3.622   4.316  0.0574 -1.6290  0.1521
 5617SOL     OW27529   9.408   0.693   0.806  0.6108  0.1624  0.2849
 5617SOL    HW127530   9.444   0.704   0.899 -1.5089  0.8981  1.0485
 5617SOL    HW227531   9.330   0.631   0.807  1.7102 -1.2848 -1.3154
 5618SOL     OW27532   1.139   7.153   0.648  0.0758 -0.3901 -0.2860
 5618SOL    HW127533   1.097   7.132   0.559 -0.6553 -0.0439 -0.0290
 5618SOL    HW227534   1.208   7.084   0.669 -1.4911 -1.9105  0.0042
 5619SOL     OW27535   3.087   5.601   2.132 -0.1091 -0.3577 -0.5286
 5619SOL    HW127536   3.010   5.645   2.178 -0.0239 -1.2069  0.4450
 5619SOL    HW227537   3.156   5.576   2.199  0.1492 -1.3574 -1.1557
 5620SOL     OW27538   2.291   2.525   2.327  0.0018  0.1670  0.4076
 5620SOL    HW127539   2.272   2.538   2.230  1.0022  0.0864  0.1978
 5620SOL    HW227540   2.334   2.608   2.363  0.0724  0.0141  0.6726
 5621SOL     OW27541   9.529   2.252   4.400 -0.0451 -0.0284 -0.3207
 5621SOL    HW127542   9.601   2.309   4.438  0.7438 -0.9113 -0.4758
 5621SOL    HW227543   9.507   2.281   4.307  0.0706  0.2760 -0.2514
 5622SOL     OW27544   8.551   5.851   2.877 -0.0047 -0.0850  0.0463
 5622SOL    HW127545   8.631   5.877   2.932 -0.4317  0.1942  0.5339
 5622SOL    HW227546   8.481   5.922   2.885 -0.8213 -0.9504  0.6723
 5623SOL     OW27547   4.876   8.483   0.200  0.0032  0.4438  0.4662
 5623SOL    HW127548   4.819   8.458   0.121 -0.5055 -0.4476  1.1125
 5623SOL    HW227549   4.839   8.441   0.283  2.1192 -0.8764  0.7766
 5624SOL     OW27550   4.374   7.917   3.333 -0.7960  0.3602  0.5640
 5624SOL    HW127551   4.425   7.971   3.266 -1.1941  0.6007  0.4559
 5624SOL    HW227552   4.387   7.957   3.424 -0.7107  0.3620  0.5515
 5625SOL     OW27553   2.227   3.763   3.765  0.3486 -0.2194 -0.9918
 5625SOL    HW127554   2.142   3.733   3.809 -0.8189  0.5209 -2.6616
 5625SOL    HW227555   2.259   3.848   3.808  0.0085 -0.2819 -0.6164
 5626SOL     OW27556   7.713   8.724   3.061 -0.4653  0.1345  0.0763
 5626SOL    HW127557   7.726   8.689   2.968  1.3742  1.0797 -0.0526
 5626SOL    HW227558   7.653   8.663   3.112 -2.3872  0.1792 -2.0576
 5627SOL     OW27559   0.676   7.539   1.485 -0.0888  0.0643 -0.3063
 5627SOL    HW127560   0.630   7.538   1.573  0.0683 -0.6584 -0.2271
 5627SOL    HW227561   0.689   7.445   1.453  0.6068  0.2910 -0.7035
 5628SOL     OW27562   4.527   7.664   2.843 -0.1874 -0.3394  0.2304
 5628SOL    HW127563   4.521   7.579   2.895 -0.1556 -0.2642  0.3559
 5628SOL    HW227564   4.610   7.714   2.868 -1.1778  0.6701  1.5851
 5629SOL     OW27565   4.196   9.935   0.449 -0.7419 -0.1221  0.5032
 5629SOL    HW127566   4.230   9.955   0.357 -0.4200 -1.6780  0.2592
 5629SOL    HW227567   4.219   9.840   0.472 -0.7045  0.3032  2.2440
 5630SOL     OW27568   3.252   1.266   5.193 -0.2566 -0.2861  0.2845
 5630SOL    HW127569   3.283   1.348   5.145 -1.0679  0.1540  0.4940
 5630SOL    HW227570   3.236   1.288   5.289 -1.5511 -0.3919  0.1118
 5631SOL     OW27571   3.926   8.706   3.920  0.1709 -0.6496  0.1674
 5631SOL    HW127572   3.870   8.629   3.889 -1.2570  0.1436  0.7210
 5631SOL    HW227573   3.963   8.755   3.840 -1.0818 -0.3540 -0.2480
 5632SOL     OW27574   8.024   8.893   3.631 -0.2959 -0.0482 -0.6151
 5632SOL    HW127575   8.054   8.943   3.712  0.9978  1.3971 -1.9637
 5632SOL    HW227576   7.947   8.940   3.589 -1.1421 -0.9455 -0.1106
 5633SOL     OW27577   7.924   1.995   2.738  0.3298  0.2260  0.3726
 5633SOL    HW127578   7.976   2.012   2.822  0.6496  0.0191  0.2176
 5633SOL    HW227579   7.962   2.051   2.664 -0.5470  1.1211  0.5859
 5634SOL     OW27580   2.168   0.187   2.711  0.7586 -0.4421 -0.2587
 5634SOL    HW127581   2.203   0.218   2.623 -0.8690 -1.7535 -1.4066
 5634SOL    HW227582   2.207   0.098   2.734 -0.1121 -0.8975 -0.5018
 5635SOL     OW27583   3.374   9.294   0.729 -0.3338 -0.1966 -0.0285
 5635SOL    HW127584   3.380   9.390   0.703  0.9393 -0.0818  0.6433
 5635SOL    HW227585   3.392   9.284   0.827 -0.2381 -1.1365 -0.1325
 5636SOL     OW27586   0.738   7.732   5.446 -0.1104  0.3931 -0.4307
 5636SOL    HW127587   0.646   7.692   5.447 -0.5841  1.4747  1.1959
 5636SOL    HW227588   0.732   7.829   5.424  0.7253  0.3205 -1.0166
 5637SOL     OW27589   9.661   3.544   2.204  0.1874 -0.0178 -0.0661
 5637SOL    HW127590   9.614   3.573   2.288 -0.7410  1.4722 -1.0710
 5637SOL    HW227591   9.755   3.579   2.205 -0.6437  2.3502 -0.8457
 5638SOL     OW27592   7.379   8.446   3.408  0.0003  0.5950 -0.1753
 5638SOL    HW127593   7.283   8.471   3.409 -0.9371 -2.7168 -1.8112
 5638SOL    HW227594   7.394   8.368   3.469  1.5750  0.7058 -0.3855
 5639SOL     OW27595   9.692   1.619   1.992  0.0558 -0.3081 -0.2382
 5639SOL    HW127596   9.789   1.632   1.972  0.3533 -3.1110 -0.8132
 5639SOL    HW227597   9.644   1.590   1.909 -1.1759  0.5122  0.1734
 5640SOL     OW27598   1.076   0.297   0.039  0.4598  0.1422  0.6137
 5640SOL    HW127599   1.086   0.199   0.023 -0.4957 -0.1291  1.5953
 5640SOL    HW227600   1.147   0.347  -0.011 -0.2669 -0.9019 -1.5218
 5641SOL     OW27601   8.880   0.636   0.014  0.3300  0.0689 -0.5442
 5641SOL    HW127602   8.902   0.577  -0.064 -2.4297  0.1887 -1.4783
 5641SOL    HW227603   8.860   0.728  -0.020 -1.5257 -0.0403  0.2387
 5642SOL     OW27604   3.447   5.475   0.566  0.2974 -0.2818  0.2580
 5642SOL    HW127605   3.531   5.471   0.619  1.6416  1.9420 -1.6422
 5642SOL    HW227606   3.372   5.434   0.619  1.8301  0.8247  3.3768
 5643SOL     OW27607   6.198   0.551   1.758  0.5063  0.0802  0.1509
 5643SOL    HW127608   6.147   0.474   1.797  0.8154  0.1323  0.6486
 5643SOL    HW227609   6.296   0.534   1.767  0.6315 -0.7954 -2.2676
 5644SOL     OW27610   9.138   8.532   2.677  0.1310  0.0546  0.2047
 5644SOL    HW127611   9.078   8.473   2.731  1.6052 -0.3379  1.4672
 5644SOL    HW227612   9.194   8.475   2.617 -0.2965  0.3720 -0.4969
 5645SOL     OW27613   7.613   1.769   2.150 -0.4934  0.5071 -0.3988
 5645SOL    HW127614   7.665   1.706   2.208 -1.1216  0.3911  0.0404
 5645SOL    HW227615   7.617   1.861   2.188 -1.8964  0.2075  0.4794
 5646SOL     OW27616   9.652   9.609   4.078  0.2602  0.0115 -0.5078
 5646SOL    HW127617   9.608   9.609   3.988 -1.3375  0.8871  0.2644
 5646SOL    HW227618   9.584   9.626   4.149  1.3982 -1.3125  0.9386
 5647SOL     OW27619   2.119   0.487   1.327  0.4419 -0.1296 -0.2009
 5647SOL    HW127620   2.056   0.506   1.251  0.6217 -1.2855 -0.6389
 5647SOL    HW227621   2.176   0.568   1.343 -0.4702  0.5806 -0.4442
 5648SOL     OW27622   2.332   5.034   1.851 -0.2471 -0.5887 -0.2737
 5648SOL    HW127623   2.276   4.987   1.783 -0.3381 -2.0132  0.7699
 5648SOL    HW227624   2.419   4.987   1.863  0.5754  0.7565 -0.7758
 5649SOL     OW27625   3.966   8.118   1.460  0.1248  0.0532 -0.2982
 5649SOL    HW127626   3.919   8.142   1.546  1.9023  1.5866  0.2702
 5649SOL    HW227627   3.974   8.199   1.403 -0.0498 -0.7291 -1.4464
 5650SOL     OW27628   5.233   0.785   1.836  0.3502  0.2823 -0.6232
 5650SOL    HW127629   5.157   0.845   1.862  0.0438  1.1182 -3.3415
 5650SOL    HW227630   5.207   0.690   1.853 -0.4440  0.6859  0.5188
 5651SOL     OW27631   4.095   3.231   4.412 -0.2288  0.0152  0.4472
 5651SOL    HW127632   4.012   3.245   4.465 -0.7189  2.1557 -0.8278
 5651SOL    HW227633   4.130   3.319   4.380  1.1918 -1.0452 -1.0230
 5652SOL     OW27634   6.707   0.939   1.821 -0.2455  0.1590 -0.0823
 5652SOL    HW127635   6.716   0.848   1.779  0.4964  0.1662  0.0509
 5652SOL    HW227636   6.691   0.929   1.919 -0.4819  0.1650 -0.1208
 5653SOL     OW27637   5.266   0.659   0.748 -0.0726 -0.0427 -0.3252
 5653SOL    HW127638   5.297   0.686   0.839  0.7240 -2.8605  0.2806
 5653SOL    HW227639   5.166   0.663   0.744 -0.1335 -0.2284  0.7803
 5654SOL     OW27640   9.662   7.350   1.699 -0.4716  0.3444  0.0187
 5654SOL    HW127641   9.749   7.351   1.650 -1.9456  0.7660 -2.7312
 5654SOL    HW227642   9.635   7.444   1.720  0.0718  0.1723  1.5343
 5655SOL     OW27643   8.292   2.178   4.346  0.4754  0.0243 -0.6044
 5655SOL    HW127644   8.233   2.174   4.426  0.1019  0.7432 -0.8421
 5655SOL    HW227645   8.369   2.239   4.363  0.1258  0.5702 -0.9689
 5656SOL     OW27646   1.375   7.679   3.182  0.4414  0.1298  0.3399
 5656SOL    HW127647   1.343   7.724   3.099  0.1760 -1.3163 -0.3551
 5656SOL    HW227648   1.391   7.582   3.164  0.1121 -0.2697  2.0442
 5657SOL     OW27649   7.519   0.760   2.225 -0.0107  0.0630  0.3190
 5657SOL    HW127650   7.528   0.669   2.186 -0.0153  1.0934 -2.1952
 5657SOL    HW227651   7.608   0.805   2.226 -0.5272  1.1756 -1.4417
 5658SOL     OW27652   2.615   2.835   3.204  0.0183  0.1958 -0.0029
 5658SOL    HW127653   2.563   2.790   3.131 -2.1881 -0.0388  1.6552
 5658SOL    HW227654   2.642   2.767   3.272  2.9346  0.2498 -1.0584
 5659SOL     OW27655   1.124   6.098   3.314  0.0006 -0.1123  0.3451
 5659SOL    HW127656   1.068   6.174   3.345 -2.0600 -1.6487  0.4625
 5659SOL    HW227657   1.166   6.122   3.226 -1.2550  0.8528 -0.0086
 5660SOL     OW27658   4.554   4.558   5.551 -0.1483  0.1169  0.0861
 5660SOL    HW127659   4.475   4.527   5.497 -1.5921 -3.0181  3.7382
 5660SOL    HW227660   4.632   4.500   5.532 -0.6229 -0.9123  1.2163
 5661SOL     OW27661   3.611   7.863   3.043  0.0656 -0.3935 -0.1883
 5661SOL    HW127662   3.525   7.840   3.089  1.0998 -2.3684  0.7904
 5661SOL    HW227663   3.623   7.804   2.963 -0.5051  1.3346 -1.5798
 5662SOL     OW27664   3.959   8.793   5.633 -0.0981 -0.0545  0.4190
 5662SOL    HW127665   4.002   8.703   5.621 -0.6780 -0.3425  0.4743
 5662SOL    HW227666   3.934   8.806   5.728  0.4544  0.3857  0.5068
 5663SOL     OW27667   9.316   9.513   5.107 -0.5145  0.1506 -0.3504
 5663SOL    HW127668   9.375   9.444   5.065 -0.7841  0.2883 -0.9505
 5663SOL    HW227669   9.372   9.576   5.161 -0.1286  0.1988 -0.8023
 5664SOL     OW27670   7.788   2.169   3.009 -0.1095  0.3560 -0.5594
 5664SOL    HW127671   7.755   2.090   3.060 -0.9276 -1.4746 -3.7904
 5664SOL    HW227672   7.884   2.186   3.033 -0.2162 -0.9997  0.9099
 5665SOL     OW27673   0.750   1.171   3.772 -0.0047 -0.5134 -0.0013
 5665SOL    HW127674   0.755   1.232   3.692 -2.9698  1.0558  0.9244
 5665SOL    HW227675   0.665   1.119   3.769  0.3123 -1.1628  1.6381
 5666SOL     OW27676   6.908   8.234   3.463  0.0362 -0.0596 -0.2797
 5666SOL    HW127677   6.834   8.183   3.506  1.3530 -0.5327  1.4535
 5666SOL    HW227678   6.872   8.320   3.426 -2.0349 -1.8177 -2.5344
 5667SOL     OW27679   1.450   2.639   5.559 -0.0371 -0.2999 -0.4062
 5667SOL    HW127680   1.471   2.690   5.643 -1.3453  0.7405 -0.7040
 5667SOL    HW227681   1.506   2.674   5.484 -0.8535  0.6257 -0.5852
 5668SOL     OW27682   1.221   7.688   5.303 -0.2458  0.3718 -0.0021
 5668SOL    HW127683   1.196   7.735   5.219  1.5447  0.1585 -0.6799
 5668SOL    HW227684   1.179   7.597   5.304  0.4457  0.0336 -1.0903
 5669SOL     OW27685   3.759   1.167   3.691 -0.0723 -0.0919 -0.2013
 5669SOL    HW127686   3.846   1.214   3.680 -0.7704  1.1562 -0.4669
 5669SOL    HW227687   3.754   1.091   3.626  0.5649  0.2000 -0.6014
 5670SOL     OW27688   6.913   6.855   2.261 -1.1749  0.3257  0.2381
 5670SOL    HW127689   7.000   6.885   2.300 -1.6824 -0.1394  1.7480
 5670SOL    HW227690   6.930   6.789   2.188 -0.2266  1.0846 -0.2347
 5671SOL     OW27691   6.520   0.018   2.869  0.3348  0.5011 -0.4997
 5671SOL    HW127692   6.426   0.003   2.900  0.7408 -0.8263  0.1313
 5671SOL    HW227693   6.581   0.021   2.949  1.3174 -2.4041 -1.1073
 5672SOL     OW27694   9.493   5.864   1.608 -0.3943 -0.2777  0.2433
 5672SOL    HW127695   9.517   5.773   1.575 -2.0818 -0.8837  0.6195
 5672SOL    HW227696   9.502   5.930   1.534 -0.8862 -1.0604 -0.5234
 5673SOL     OW27697   1.998   1.531   3.090  0.0623  0.0502  0.4820
 5673SOL    HW127698   2.025   1.626   3.108 -2.1003  0.9235 -0.7279
 5673SOL    HW227699   1.904   1.529   3.058  0.6085 -2.3872 -1.0593
 5674SOL     OW27700   3.977   9.624   3.455 -0.6834  0.0486 -0.1387
 5674SOL    HW127701   3.895   9.589   3.411 -0.6197  1.9079 -1.8320
 5674SOL    HW227702   4.056   9.605   3.397 -0.3961  1.1945 -0.1355
 5675SOL     OW27703   3.105   6.897   3.178  0.8267 -0.3458 -0.0727
 5675SOL    HW127704   3.110   6.997   3.182 -0.5090 -0.2667 -0.2383
 5675SOL    HW227705   3.132   6.866   3.087 -0.2336 -0.0359 -0.4951
 5676SOL     OW27706   0.441   1.457   1.136  0.0750 -0.4611  0.0507
 5676SOL    HW127707   0.375   1.529   1.115  2.0885  1.0310 -1.2673
 5676SOL    HW227708   0.449   1.395   1.058  2.3183  1.0192 -0.9451
 5677SOL     OW27709   0.577   6.107   3.276 -0.3033  0.6083  0.7834
 5677SOL    HW127710   0.541   6.069   3.190  0.0073  3.6785 -0.7448
 5677SOL    HW227711   0.676   6.118   3.268 -0.3590  1.4717  1.3362
 5678SOL     OW27712   7.062   2.474   2.640 -0.0817 -0.2621 -0.3939
 5678SOL    HW127713   7.126   2.528   2.696  0.9238 -0.0385 -1.7322
 5678SOL    HW227714   7.027   2.397   2.694 -0.0672  0.6464  0.9239
 5679SOL     OW27715   1.677   3.782   4.676  0.3255 -0.2545  0.0506
 5679SOL    HW127716   1.773   3.812   4.675  0.4608 -0.7056 -0.9947
 5679SOL    HW227717   1.659   3.735   4.763  1.2670 -0.8221 -0.0425
 5680SOL     OW27718   2.576   4.591   5.525 -0.3986  0.2868 -0.0607
 5680SOL    HW127719   2.594   4.688   5.514  0.5413  0.2235  0.8734
 5680SOL    HW227720   2.661   4.540   5.521 -0.7886 -0.4120  0.3362
 5681SOL     OW27721   0.715   6.961   4.857 -0.1473  0.3873 -0.5993
 5681SOL    HW127722   0.660   6.911   4.924  0.0230  0.1967 -0.6014
 5681SOL    HW227723   0.789   7.009   4.904 -0.0505  0.2845 -0.6481
 5682SOL     OW27724   0.799   9.034   1.157  0.0044 -0.6648  0.3120
 5682SOL    HW127725   0.719   9.010   1.102  0.9856  0.0062 -1.4878
 5682SOL    HW227726   0.880   9.036   1.098  1.1728 -0.3107  1.8904
 5683SOL     OW27727   0.678   7.054   1.032 -0.4954 -0.0566 -0.0877
 5683SOL    HW127728   0.767   7.008   1.033 -1.0146 -1.1210 -1.8242
 5683SOL    HW227729   0.693   7.153   1.040  0.8480 -0.2118 -0.4112
 5684SOL     OW27730   9.107   1.134   3.403  0.0210 -0.4784  0.0538
 5684SOL    HW127731   9.100   1.223   3.449 -0.0837 -0.5484  0.1774
 5684SOL    HW227732   9.019   1.086   3.410 -0.3152 -0.0416 -1.1538
 5685SOL     OW27733   3.488   7.649   0.040  0.5699  0.1425  0.4013
 5685SOL    HW127734   3.509   7.579  -0.028 -1.0487 -0.3703  0.4303
 5685SOL    HW227735   3.446   7.607   0.120 -1.9962  1.3328 -0.2816
 5686SOL     OW27736   8.414   3.082   1.512  0.0323 -0.1724  0.0300
 5686SOL    HW127737   8.409   2.988   1.547  2.8189 -1.6853 -3.4016
 5686SOL    HW227738   8.335   3.100   1.454 -1.3385  0.2152  1.9532
 5687SOL     OW27739   9.613   0.161   0.054  0.9917 -0.2104 -0.3765
 5687SOL    HW127740   9.535   0.128   0.001 -0.0027 -0.7701  1.3948
 5687SOL    HW227741   9.695   0.109   0.029  0.8623  0.4895 -2.3575
 5688SOL     OW27742   2.355   6.391   0.974 -0.0375 -0.7624 -0.5575
 5688SOL    HW127743   2.358   6.356   1.067 -2.0129 -0.4536 -0.3591
 5688SOL    HW227744   2.334   6.317   0.910 -1.7914 -0.4089 -0.4043
 5689SOL     OW27745   4.786   0.647   4.193 -0.3591  0.3215  0.0033
 5689SOL    HW127746   4.719   0.718   4.215  0.0021  0.3438  1.0394
 5689SOL    HW227747   4.824   0.665   4.102 -2.5195 -0.2925 -1.0674
 5690SOL     OW27748   3.297   0.416   0.013 -0.2721 -0.1133  0.5073
 5690SOL    HW127749   3.358   0.391   0.088 -0.8978  1.3072  1.5206
 5690SOL    HW227750   3.238   0.492   0.042 -0.2292  0.7498 -1.5739
 5691SOL     OW27751   3.651   4.360   2.487 -0.3232  0.0463 -0.2056
 5691SOL    HW127752   3.572   4.320   2.442 -1.6849  2.2429  0.1593
 5691SOL    HW227753   3.660   4.456   2.462  1.8901 -0.0029  0.2287
 5692SOL     OW27754   1.536   9.352   1.584 -0.0103  0.2825 -0.4230
 5692SOL    HW127755   1.544   9.353   1.485  1.8361 -0.3499 -0.2987
 5692SOL    HW227756   1.440   9.338   1.610 -0.3532 -0.6067 -2.1106
 5693SOL     OW27757   2.189   8.282   3.807  0.0857  0.4637  0.0396
 5693SOL    HW127758   2.232   8.336   3.880  0.4428  0.4981 -0.1938
 5693SOL    HW227759   2.245   8.202   3.787  0.3784  0.8449 -0.7094
 5694SOL     OW27760   1.873   1.935   0.566  0.1083 -0.4439  0.2722
 5694SOL    HW127761   1.842   2.025   0.535  1.8784  0.4401  0.9880
 5694SOL    HW227762   1.833   1.915   0.655 -0.7841 -0.6315 -0.1743
 5695SOL     OW27763   0.938   3.527   2.123  0.8610 -0.2104 -0.0498
 5695SOL    HW127764   0.962   3.439   2.082 -0.1549 -1.1589  1.3157
 5695SOL    HW227765   0.839   3.534   2.133  0.9771  0.7376  0.6028
 5696SOL     OW27766   4.013   6.820   3.935 -0.7342  0.4348  0.0180
 5696SOL    HW127767   3.914   6.816   3.923 -0.7388  2.2454 -0.7403
 5696SOL    HW227768   4.041   6.916   3.943  0.9899 -0.0519 -0.1081
 5697SOL     OW27769   9.062   3.223   0.942  0.1649  0.5844 -0.2832
 5697SOL    HW127770   8.973   3.188   0.913 -0.1333  2.2736 -1.4909
 5697SOL    HW227771   9.130   3.201   0.873  0.0878  1.8388 -0.7763
 5698SOL     OW27772   4.335   1.404   3.520 -0.5450 -0.6824 -0.7115
 5698SOL    HW127773   4.307   1.318   3.477 -1.5505 -1.7842  1.9734
 5698SOL    HW227774   4.254   1.449   3.559 -0.0384  1.5780 -2.2232
 5699SOL     OW27775   1.465   2.629   4.401 -0.4633 -0.3213 -0.1798
 5699SOL    HW127776   1.481   2.595   4.309 -0.7521  0.1171 -0.3932
 5699SOL    HW227777   1.524   2.579   4.466  2.4390  1.8126 -1.0541
 5700SOL     OW27778   3.474   8.260   4.803  0.4799 -0.7752 -0.0173
 5700SOL    HW127779   3.457   8.233   4.897 -0.0835  0.4667  0.2497
 5700SOL    HW227780   3.503   8.180   4.750  0.1495 -1.6099  1.0433
 5701SOL     OW27781   4.533   9.429   3.098  0.0692 -0.0539  0.4499
 5701SOL    HW127782   4.619   9.401   3.056  0.0107  1.6418 -0.8650
 5701SOL    HW227783   4.551   9.485   3.179  0.1811 -1.9977  1.7980
 5702SOL     OW27784   7.709   8.605   2.811 -0.5259 -0.0934 -0.4799
 5702SOL    HW127785   7.709   8.507   2.790  0.2113 -0.2711  0.2938
 5702SOL    HW227786   7.717   8.658   2.727  0.0311 -0.7220 -0.8214
 5703SOL     OW27787   8.599   6.511   1.525  0.0634  0.0195 -0.5695
 5703SOL    HW127788   8.528   6.442   1.540 -0.2359  0.8762  2.2673
 5703SOL    HW227789   8.582   6.558   1.438 -2.7382  0.0394 -0.0620
 5704SOL     OW27790   3.614   8.743   1.063 -0.5685 -0.4209 -0.0925
 5704SOL    HW127791   3.546   8.683   1.021 -0.3199 -0.1382 -0.9129
 5704SOL    HW227792   3.705   8.717   1.031 -0.4488  0.3184 -0.3698
 5705SOL     OW27793   0.353   2.909   5.344  0.4357  0.7580 -0.6724
 5705SOL    HW127794   0.416   2.934   5.418  1.1984 -2.0384 -0.3039
 5705SOL    HW227795   0.291   2.838   5.377 -0.8865  1.3044 -1.9718
 5706SOL     OW27796   2.631   6.711   4.693 -0.1443  0.1050 -0.4466
 5706SOL    HW127797   2.541   6.717   4.648 -0.7436  0.5323  0.7975
 5706SOL    HW227798   2.619   6.679   4.786  0.9079  1.0479  0.0204
 5707SOL     OW27799   6.601   7.574   2.187  0.4246  0.0280  0.1076
 5707SOL    HW127800   6.662   7.558   2.265  1.7590  2.6093 -0.3305
 5707SOL    HW227801   6.647   7.547   2.102 -0.1687 -0.7069  0.0188
 5708SOL     OW27802   2.069   2.328   4.746  0.2702  0.1777  0.1307
 5708SOL    HW127803   2.118   2.387   4.811 -0.0520 -2.3135  2.7491
 5708SOL    HW227804   1.973   2.356   4.742  0.4616  0.8417  0.1657
 5709SOL     OW27805   2.591   3.073   4.923  0.4585  0.1345 -0.5594
 5709SOL    HW127806   2.671   3.051   4.868  0.6038  1.2144 -0.7976
 5709SOL    HW227807   2.548   3.157   4.888  0.1091  0.4065  0.4931
 5710SOL     OW27808   5.964   0.186   3.161 -0.0789 -0.8082 -0.1748
 5710SOL    HW127809   5.911   0.229   3.235  3.2851  0.9227  1.3367
 5710SOL    HW227810   5.966   0.246   3.082 -3.9870 -2.8193 -1.9270
 5711SOL     OW27811   1.427   9.448   1.874  0.4037  0.1715  0.4179
 5711SOL    HW127812   1.470   9.359   1.890  1.8580  0.3651 -2.0842
 5711SOL    HW227813   1.368   9.443   1.794  0.3118  1.3854  0.3974
 5712SOL     OW27814   1.332   5.230   1.738  0.4320 -0.4635 -0.1036
 5712SOL    HW127815   1.378   5.203   1.822  2.0405  0.7618 -0.5610
 5712SOL    HW227816   1.266   5.303   1.757  2.7466  1.7331 -0.2865
 5713SOL     OW27817   9.772   7.689   3.755  0.2517  0.8977  0.3955
 5713SOL    HW127818   9.851   7.750   3.755 -0.7415  2.2094  0.5785
 5713SOL    HW227819   9.721   7.699   3.840 -1.5287  1.9651 -0.7493
 5714SOL     OW27820   1.345   3.792   4.154  0.2945 -0.8858  0.4192
 5714SOL    HW127821   1.433   3.783   4.109  0.2548  0.0542  0.1393
 5714SOL    HW227822   1.355   3.771   4.251  0.8240 -0.7900  0.3865
 5715SOL     OW27823   3.387   1.288   0.173  0.0020 -0.4472 -0.0832
 5715SOL    HW127824   3.321   1.231   0.221 -0.9690  0.9152  0.2172
 5715SOL    HW227825   3.434   1.348   0.238 -0.2862  0.3819 -0.6276
 5716SOL     OW27826   2.895   7.388   2.538 -0.1120  0.0024  0.1231
 5716SOL    HW127827   2.846   7.419   2.457 -1.7298  0.5833  1.2927
 5716SOL    HW227828   2.992   7.376   2.517 -0.6571 -0.6489 -2.0931
 5717SOL     OW27829   8.962   0.271   3.083  0.2972 -0.2684  0.0176
 5717SOL    HW127830   8.996   0.363   3.099  0.5468 -0.2955 -0.3742
 5717SOL    HW227831   9.011   0.207   3.142 -0.4115 -0.0529  0.8586
 5718SOL     OW27832   0.221   5.348   1.864 -0.0651  0.5072 -0.5612
 5718SOL    HW127833   0.214   5.447   1.850 -0.8753  0.7092  1.1193
 5718SOL    HW227834   0.134   5.313   1.901  0.6001 -0.6281 -0.0314
 5719SOL     OW27835   2.367   4.506   3.131  0.0820  0.0373  0.5466
 5719SOL    HW127836   2.432   4.431   3.122  0.3882  0.4481 -0.8092
 5719SOL    HW227837   2.302   4.503   3.055  0.5163  1.5325  0.0917
 5720SOL     OW27838   9.225   8.338   4.950 -0.4007 -0.3301  0.0951
 5720SOL    HW127839   9.321   8.361   4.933  0.0073 -2.3152 -0.4393
 5720SOL    HW227840   9.217   8.239   4.964 -2.2604 -0.0735  0.9502
 5721SOL     OW27841   4.246   3.476   1.401  0.0690 -0.2643  0.0626
 5721SOL    HW127842   4.263   3.431   1.489  1.0298  0.4590  0.2641
 5721SOL    HW227843   4.259   3.575   1.412 -0.9436 -0.0565 -0.6246
 5722SOL     OW27844   7.468   7.043   2.881  0.1678 -0.6687 -0.3891
 5722SOL    HW127845   7.370   7.024   2.879 -0.3192  1.8235 -0.6652
 5722SOL    HW227846   7.510   7.013   2.795 -0.9781  1.5548 -1.7307
 5723SOL     OW27847   2.077   3.170   3.439  0.4162 -0.1917 -0.2871
 5723SOL    HW127848   2.042   3.165   3.533  1.2576 -0.5442  0.0203
 5723SOL    HW227849   2.025   3.238   3.387  1.7190  2.0198  1.2302
 5724SOL     OW27850   9.338   6.516   2.618 -0.2289  0.8062  0.2020
 5724SOL    HW127851   9.319   6.434   2.565 -0.4176  0.8495  0.2004
 5724SOL    HW227852   9.418   6.501   2.676 -1.4410 -0.0734  1.6822
 5725SOL     OW27853   3.965   3.064   5.196 -1.0639  0.0185  0.0406
 5725SOL    HW127854   3.985   3.022   5.284  0.6834 -2.1176 -1.3231
 5725SOL    HW227855   3.919   2.998   5.137 -1.1315  1.0485 -1.0854
 5726SOL     OW27856   1.868   7.767   4.355 -0.3901 -0.2592  0.3471
 5726SOL    HW127857   1.940   7.713   4.399 -0.7956 -1.3914 -0.3683
 5726SOL    HW227858   1.798   7.790   4.422 -0.9719 -1.9221  0.3130
 5727SOL     OW27859   3.605   1.548   3.891 -0.2388  0.4820  0.2901
 5727SOL    HW127860   3.704   1.554   3.907  0.0849 -0.7145 -1.1456
 5727SOL    HW227861   3.573   1.632   3.848  0.5543  0.0221 -1.2154
 5728SOL     OW27862   1.711   5.143   3.022  0.0929  0.4160 -0.9664
 5728SOL    HW127863   1.680   5.217   2.963  0.5377  1.5241  0.1641
 5728SOL    HW227864   1.774   5.179   3.091 -0.7033 -0.7896  0.4244
 5729SOL     OW27865   2.916   1.429   5.216  0.2613 -0.1077  0.0045
 5729SOL    HW127866   2.956   1.448   5.126  1.6652 -0.8329  0.4714
 5729SOL    HW227867   2.844   1.361   5.207 -1.4755  1.8000 -0.9616
 5730SOL     OW27868   1.239   5.362   2.466 -0.9044 -0.1177  0.4658
 5730SOL    HW127869   1.233   5.459   2.444  0.5144 -0.4162 -1.3465
 5730SOL    HW227870   1.218   5.349   2.563 -3.9322  1.6382  0.0971
 5731SOL     OW27871   8.161   7.595   3.167  0.1228 -0.5429  0.4390
 5731SOL    HW127872   8.141   7.538   3.247 -0.5118  0.6656  1.1592
 5731SOL    HW227873   8.221   7.670   3.194  0.7946 -0.7512 -0.4599
 5732SOL     OW27874   0.263   2.600   0.167  0.6861 -0.1895  0.0885
 5732SOL    HW127875   0.291   2.678   0.223 -1.8217 -0.2476  1.5005
 5732SOL    HW227876   0.220   2.633   0.083 -0.3893 -0.0391  0.6932
 5733SOL     OW27877   7.370   9.074   4.227  0.4440  0.3254 -0.3431
 5733SOL    HW127878   7.395   8.979   4.210 -0.4969  0.3509 -1.9529
 5733SOL    HW227879   7.271   9.084   4.219  0.6811  1.7250 -1.6564
 5734SOL     OW27880   2.955   3.063   1.182 -0.3568 -0.3442 -0.2362
 5734SOL    HW127881   2.902   3.144   1.207  0.3655  0.4965 -1.3735
 5734SOL    HW227882   2.918   3.023   1.098 -1.4923 -1.9443  1.0034
 5735SOL     OW27883   4.235   8.189   0.420  0.0309  0.1773 -0.9624
 5735SOL    HW127884   4.202   8.096   0.401  1.3022 -0.5448  0.2375
 5735SOL    HW227885   4.160   8.242   0.460 -0.8807 -0.1329 -2.2105
 5736SOL     OW27886   4.464   7.871   4.374  0.2922 -0.3616 -0.4096
 5736SOL    HW127887   4.539   7.807   4.358  1.6630  0.2929  3.0793
 5736SOL    HW227888   4.494   7.964   4.352  0.3551 -0.1580  0.5258
 5737SOL     OW27889   9.754   8.947   3.458 -0.8778 -0.6275  0.4697
 5737SOL    HW127890   9.726   8.981   3.369  0.8074 -0.7779 -0.1394
 5737SOL    HW227891   9.765   9.024   3.521  0.9134 -0.1897 -0.3314
 5738SOL     OW27892   0.067   0.539   2.968  0.7244 -0.2504  0.0275
 5738SOL    HW127893  -0.009   0.546   2.904  1.2284  0.2775 -0.5158
 5738SOL    HW227894   0.124   0.461   2.944  0.0796 -0.9532  0.7412
 5739SOL     OW27895   6.567   7.765   1.706 -0.0630 -0.1716 -0.4866
 5739SOL    HW127896   6.524   7.842   1.659  0.9820  1.9931  1.9850
 5739SOL    HW227897   6.521   7.750   1.794  1.6004 -0.5094  0.3368
 5740SOL     OW27898   3.437   1.356   3.275 -0.0201 -0.0385  0.2192
 5740SOL    HW127899   3.438   1.395   3.367  1.3227  0.5507 -0.0352
 5740SOL    HW227900   3.513   1.291   3.265 -1.2186 -1.4537  0.0867
 5741SOL     OW27901   1.186   8.017   3.540  0.5626 -0.1301 -0.4194
 5741SOL    HW127902   1.285   8.015   3.541  0.6537  2.2700  0.1681
 5741SOL    HW227903   1.155   8.078   3.466 -0.4662 -0.9524 -0.6731
 5742SOL     OW27904   1.069   5.687   1.363  0.3179 -0.2464 -0.0732
 5742SOL    HW127905   1.108   5.628   1.434 -1.3179 -0.2588  0.8547
 5742SOL    HW227906   0.995   5.638   1.316  1.0587 -0.0561 -1.4518
 5743SOL     OW27907   4.194   0.914   0.909  0.1413 -0.4809 -0.0429
 5743SOL    HW127908   4.262   0.874   0.970 -1.0055 -0.7168  1.1058
 5743SOL    HW227909   4.230   0.998   0.869 -0.3773  1.6065  3.6991
 5744SOL     OW27910   2.702   5.373   0.993  0.1697  0.1721  0.5078
 5744SOL    HW127911   2.716   5.284   0.950 -0.3150  0.9261 -1.2751
 5744SOL    HW227912   2.770   5.438   0.958 -1.2716  1.2238 -0.4217
 5745SOL     OW27913   1.849   6.961   2.212 -0.4737  0.1410  0.2430
 5745SOL    HW127914   1.781   6.984   2.281 -0.5501  3.1303 -0.7322
 5745SOL    HW227915   1.864   7.041   2.152  1.5070 -1.5041 -1.5481
 5746SOL     OW27916   1.407   8.276   4.723  0.3063 -0.3731  0.2438
 5746SOL    HW127917   1.458   8.242   4.802 -0.1873 -0.6347  0.4573
 5746SOL    HW227918   1.382   8.199   4.664  1.1076 -0.1195 -0.4316
 5747SOL     OW27919   2.308   9.949   3.939 -0.0349 -0.1615 -0.0343
 5747SOL    HW127920   2.276   9.893   3.863 -2.1666  0.3065  0.4927
 5747SOL    HW227921   2.252  10.031   3.946  0.8579  0.3520  1.3493
 5748SOL     OW27922   7.626   0.254   1.275 -0.5002 -0.3167  0.1452
 5748SOL    HW127923   7.654   0.165   1.239  2.6964  1.1793 -1.2289
 5748SOL    HW227924   7.549   0.289   1.221 -0.1034 -1.1084 -0.9449
 5749SOL     OW27925   1.684   8.384   4.997 -0.2035 -0.8925 -0.5690
 5749SOL    HW127926   1.687   8.302   4.940  2.4243 -1.0938 -0.1831
 5749SOL    HW227927   1.704   8.360   5.091  0.8635  0.2311 -0.4958
 5750SOL     OW27928   3.608   3.819   3.540  0.5209  0.0322 -0.0274
 5750SOL    HW127929   3.562   3.882   3.476  1.0573  1.1561  0.6719
 5750SOL    HW227930   3.566   3.827   3.630 -0.3705 -1.7050 -0.2653
 5751SOL     OW27931   7.390   5.677   2.413 -1.0282  0.0857 -0.3251
 5751SOL    HW127932   7.453   5.601   2.422 -1.2861 -0.2751 -1.5616
 5751SOL    HW227933   7.400   5.738   2.492  0.3703 -0.3185 -0.1901
 5752SOL     OW27934   2.292   9.286   1.110  0.0918  0.3695 -0.7641
 5752SOL    HW127935   2.255   9.273   1.203  2.2379  0.7287  0.1678
 5752SOL    HW227936   2.271   9.379   1.080 -1.2573  0.0218 -0.9642
 5753SOL     OW27937   8.739   0.663   3.119  0.3424  0.3789  0.4641
 5753SOL    HW127938   8.745   0.762   3.122  2.5509  0.2658  0.3687
 5753SOL    HW227939   8.686   0.630   3.197 -0.9909  1.6554  0.1106
 5754SOL     OW27940   7.999   1.055   5.455 -0.2551 -0.0800  0.1164
 5754SOL    HW127941   7.917   1.113   5.460 -0.8235 -0.9672  1.6037
 5754SOL    HW227942   8.050   1.076   5.372 -2.8434 -0.6402 -1.6906
 5755SOL     OW27943   1.834   9.888   4.257  0.6273 -0.1378 -0.1745
 5755SOL    HW127944   1.758   9.889   4.192  0.2235 -0.5466  0.2815
 5755SOL    HW227945   1.919   9.915   4.211  0.3367 -0.3933 -0.8584
 5756SOL     OW27946   4.252   9.144   4.397  0.1158  0.4468 -0.0138
 5756SOL    HW127947   4.294   9.117   4.483 -0.2890 -1.5551 -0.4160
 5756SOL    HW227948   4.318   9.195   4.342  1.9946 -2.3645 -0.4944
 5757SOL     OW27949   0.490   1.966   2.352 -0.2460  0.4835  0.5018
 5757SOL    HW127950   0.504   2.028   2.275 -2.6140  0.9835  0.4438
 5757SOL    HW227951   0.494   2.017   2.438  1.3313  0.1005  0.6765
 5758SOL     OW27952   7.101   1.452   2.729 -0.1375 -0.0402  0.1003
 5758SOL    HW127953   7.044   1.457   2.647 -1.2343 -1.2174  0.7776
 5758SOL    HW227954   7.192   1.417   2.704  0.1768  1.4409 -0.9083
 5759SOL     OW27955   3.919   3.622   1.748 -0.4159 -0.0363 -0.6094
 5759SOL    HW127956   3.979   3.681   1.802 -1.7665  3.2679 -2.5914
 5759SOL    HW227957   3.836   3.603   1.800 -0.7785  1.3716 -0.6524
 5760SOL     OW27958   1.349   9.398   4.295 -0.2306  0.1589 -0.0355
 5760SOL    HW127959   1.262   9.348   4.300  0.1716 -0.5002  0.4531
 5760SOL    HW227960   1.421   9.335   4.265 -0.0256  0.8349 -0.9760
 5761SOL     OW27961   4.840   9.301   5.425 -0.2305  0.7204 -0.9034
 5761SOL    HW127962   4.775   9.225   5.429  1.1175 -0.4805 -1.3975
 5761SOL    HW227963   4.852   9.339   5.517 -1.5965  0.9142 -0.8066
 5762SOL     OW27964   3.442   2.029   4.134 -0.0485  0.1776 -0.1850
 5762SOL    HW127965   3.414   2.025   4.038 -1.1562  1.4061  0.0851
 5762SOL    HW227966   3.362   2.044   4.191  0.6288 -0.4441  0.9357
 5763SOL     OW27967   7.822   0.609   0.421 -0.6415  0.5372  0.0830
 5763SOL    HW127968   7.725   0.631   0.413 -0.3010  1.8967 -0.3724
 5763SOL    HW227969   7.866   0.617   0.332 -0.0777  0.0372  0.3125
 5764SOL     OW27970   1.066   1.355   2.820 -0.4930 -0.5751 -0.5316
 5764SOL    HW127971   1.029   1.364   2.728 -1.1042 -1.9745 -0.4255
 5764SOL    HW227972   1.021   1.280   2.868 -2.6335  2.2427  2.1308
 5765SOL     OW27973   4.039   7.403   2.403  0.1237 -0.0460  0.6133
 5765SOL    HW127974   4.063   7.500   2.408 -0.9957  0.3364 -0.9230
 5765SOL    HW227975   4.056   7.370   2.310 -1.3339 -0.8311  0.6179
 5766SOL     OW27976   1.453   8.430   3.893  0.3106  0.1067  0.1124
 5766SOL    HW127977   1.447   8.529   3.889  0.2715  0.0734 -1.0063
 5766SOL    HW227978   1.486   8.395   3.805 -0.1267 -0.9011  0.3356
 5767SOL     OW27979   4.824   0.637   0.891  0.8769  0.1815 -0.1028
 5767SOL    HW127980   4.886   0.713   0.909  0.4701  0.4742  0.0924
 5767SOL    HW227981   4.793   0.598   0.978  0.6612  0.1449 -0.1947
 5768SOL     OW27982   0.201   1.281   2.867  0.0388 -0.2159 -0.1505
 5768SOL    HW127983   0.134   1.336   2.917  0.9569 -0.5169  1.4291
 5768SOL    HW227984   0.171   1.186   2.864 -0.1744 -0.1424 -0.4861
 5769SOL     OW27985   3.833   4.398   3.764  0.0601  0.6212 -0.0208
 5769SOL    HW127986   3.867   4.413   3.857 -0.4886 -0.6613  0.4040
 5769SOL    HW227987   3.891   4.331   3.718 -1.3644 -1.0187  0.4540
 5770SOL     OW27988   8.091   8.239   3.593 -0.0621 -0.3545  0.0365
 5770SOL    HW127989   8.022   8.264   3.661 -0.6685 -0.7155 -0.4304
 5770SOL    HW227990   8.056   8.261   3.501  1.0757  0.8972 -0.1145
 5771SOL     OW27991   4.262   3.804   3.517 -0.0415 -0.6107 -0.1803
 5771SOL    HW127992   4.204   3.848   3.448  0.0297  0.8355  0.6440
 5771SOL    HW227993   4.324   3.739   3.473  0.9760  1.3071 -1.6621
 5772SOL     OW27994   1.228   3.766   0.249  0.2120 -0.5446  0.0872
 5772SOL    HW127995   1.254   3.838   0.313  0.3125  0.0228 -0.5796
 5772SOL    HW227996   1.212   3.680   0.299 -1.5637  0.3483  1.0930
 5773SOL     OW27997   3.816   1.188   0.479 -0.3188 -0.6202  0.6648
 5773SOL    HW127998   3.838   1.235   0.564 -0.3156 -0.6026  0.6542
 5773SOL    HW227999   3.896   1.134   0.449 -0.0716 -0.0475  0.2895
 5774SOL     OW28000   8.627   3.694   3.063  0.4289 -0.1716 -0.3514
 5774SOL    HW128001   8.700   3.747   3.020 -0.4300  1.5145  0.2309
 5774SOL    HW228002   8.637   3.700   3.163 -0.6317  0.2679 -0.2652
 5775SOL     OW28003   0.969   9.250   3.265 -0.0276 -0.2388 -0.3952
 5775SOL    HW128004   0.975   9.324   3.198  0.6215  1.1510  1.1458
 5775SOL    HW228005   1.061   9.221   3.291 -0.1834  1.4619  2.2430
 5776SOL     OW28006   4.668   4.337   0.135 -0.4092 -0.3245  0.2068
 5776SOL    HW128007   4.697   4.377   0.048 -1.1384  1.9542  0.9866
 5776SOL    HW228008   4.576   4.297   0.125  1.1296 -3.7553 -1.1186
 5777SOL     OW28009   7.624   5.852   2.875  0.2479  0.2924 -0.2293
 5777SOL    HW128010   7.635   5.946   2.841  1.3803  0.5292  0.7774
 5777SOL    HW228011   7.636   5.851   2.974 -3.3882 -0.3354  0.2833
 5778SOL     OW28012   4.913   8.879   1.099  0.2109  0.4240  0.7492
 5778SOL    HW128013   4.910   8.946   1.173 -0.6593  0.1015  1.0183
 5778SOL    HW228014   4.871   8.919   1.017 -0.1302  0.2850  0.8533
 5779SOL     OW28015   3.045   2.834   0.757 -0.0426  0.3617 -0.0301
 5779SOL    HW128016   3.076   2.739   0.761 -1.0621  0.1009  2.2257
 5779SOL    HW228017   3.094   2.882   0.684  2.6865 -1.1113  0.7572
 5780SOL     OW28018   3.114   0.546   3.517 -0.1677 -0.1035 -0.2223
 5780SOL    HW128019   3.117   0.597   3.431 -0.0197 -0.6696 -0.5589
 5780SOL    HW228020   3.026   0.561   3.563  0.6147  1.9759  0.6286
 5781SOL     OW28021   8.055   4.154   1.248 -0.1805 -0.2759  0.4297
 5781SOL    HW128022   8.064   4.154   1.347  0.3138  0.2763  0.3835
 5781SOL    HW228023   8.143   4.130   1.206  0.0941  1.2951  0.0843
 5782SOL     OW28024   3.009   0.896   2.803 -0.3414 -0.3514  0.4310
 5782SOL    HW128025   3.039   0.852   2.718  0.5552 -0.3171  0.7269
 5782SOL    HW228026   3.064   0.864   2.879 -1.3741 -0.6397  1.0697
 5783SOL     OW28027   9.030   9.310   2.076  0.2089 -0.2481  0.2930
 5783SOL    HW128028   8.940   9.293   2.036  1.4572 -0.4950 -2.5401
 5783SOL    HW228029   9.082   9.225   2.079  0.6400  0.0329  1.2392
 5784SOL     OW28030   3.192   9.542   1.569 -0.1382 -0.0359  0.3391
 5784SOL    HW128031   3.259   9.561   1.641 -0.9136  2.8028  0.3694
 5784SOL    HW228032   3.158   9.449   1.580  2.2352 -0.8196  1.5896
 5785SOL     OW28033   2.824   8.099   3.240 -0.0334 -0.3214  0.4710
 5785SOL    HW128034   2.793   8.004   3.228 -3.9848  1.0187 -0.7212
 5785SOL    HW228035   2.787   8.135   3.325 -1.6804  1.2759 -0.8931
 5786SOL     OW28036   8.657   0.047   0.940  0.3904 -1.0227  0.3384
 5786SOL    HW128037   8.636   0.080   0.847  1.3080  1.9404  1.1152
 5786SOL    HW228038   8.581  -0.009   0.973 -1.2968  0.3535 -1.0816
 5787SOL     OW28039   3.536   1.889   5.139  0.2460 -0.3563  0.2566
 5787SOL    HW128040   3.453   1.848   5.178 -0.2382  1.4213  1.1595
 5787SOL    HW228041   3.523   1.906   5.042  0.1640 -1.6241  0.0467
 5788SOL     OW28042   0.751   0.690   3.495 -0.0864  0.3471  0.3359
 5788SOL    HW128043   0.656   0.695   3.526  0.2805 -0.6130  1.6644
 5788SOL    HW228044   0.797   0.614   3.541  0.5693 -0.9450 -2.3637
 5789SOL     OW28045   7.233   1.355   3.713 -0.6520 -0.3032 -0.1067
 5789SOL    HW128046   7.274   1.386   3.799 -0.5642  0.1672 -0.3194
 5789SOL    HW228047   7.278   1.270   3.684 -1.0694 -0.7801  0.6077
 5790SOL     OW28048   4.246   4.161   2.245  0.2569 -0.6599 -0.2941
 5790SOL    HW128049   4.146   4.167   2.241  0.0070 -1.4917  3.4980
 5790SOL    HW228050   4.284   4.253   2.254 -0.2512 -0.4696 -0.0785
 5791SOL     OW28051   2.391   0.723   0.344  0.1676 -0.1923 -0.0495
 5791SOL    HW128052   2.484   0.687   0.344 -1.1129 -3.7110 -2.1057
 5791SOL    HW228053   2.371   0.761   0.254 -1.4770 -2.4577 -0.6488
 5792SOL     OW28054   3.671   2.768   4.879  0.3898  0.1639  0.5844
 5792SOL    HW128055   3.636   2.807   4.794  1.1707 -0.8475 -0.2185
 5792SOL    HW228056   3.670   2.668   4.873 -0.3304  0.0689  2.0883
 5793SOL     OW28057   6.355   9.783   3.171  0.1693  0.2202  0.4638
 5793SOL    HW128058   6.296   9.863   3.184 -0.3823 -0.3196  1.3248
 5793SOL    HW228059   6.445   9.813   3.139  0.0771  1.2169  1.1110
 5794SOL     OW28060   7.541   0.767   1.812 -0.5291 -0.3806  0.2522
 5794SOL    HW128061   7.623   0.818   1.838 -1.5533  0.6546  1.5250
 5794SOL    HW228062   7.461   0.811   1.852 -1.5804 -2.1202  0.0880
 5795SOL     OW28063   9.971   2.621   3.828  0.1040 -0.4694 -0.2245
 5795SOL    HW128064   9.891   2.563   3.813  1.5465 -2.4264 -0.5303
 5795SOL    HW228065   9.967   2.659   3.921 -1.3843 -0.1676 -0.3899
 5796SOL     OW28066   3.013   2.251   5.033 -0.1191  0.1296  0.1288
 5796SOL    HW128067   2.965   2.268   4.947  1.5998 -0.2129 -0.9104
 5796SOL    HW228068   3.012   2.334   5.088  1.5049  1.3442 -1.5921
 5797SOL     OW28069   8.757   0.326   2.904 -0.1161  0.1800 -0.0713
 5797SOL    HW128070   8.813   0.308   2.986 -1.9405 -0.0124  1.1604
 5797SOL    HW228071   8.700   0.406   2.920  0.3772  0.8677 -1.6433
 5798SOL     OW28072   1.982   1.461   0.723  0.0153  0.0358  0.1005
 5798SOL    HW128073   2.064   1.476   0.667 -0.3098 -1.3657 -0.7765
 5798SOL    HW228074   1.901   1.462   0.665 -0.3038 -1.6407  0.4823
 5799SOL     OW28075   3.900   3.857   5.425  0.1060  1.1265  0.5403
 5799SOL    HW128076   3.945   3.789   5.482 -0.5351  0.3552  0.1415
 5799SOL    HW228077   3.962   3.933   5.407  1.3829 -0.0968 -0.3073
 5800SOL     OW28078   3.321   9.531   0.623 -0.5080  0.3307 -0.4732
 5800SOL    HW128079   3.384   9.574   0.559  0.4170 -2.2249 -1.3481
 5800SOL    HW228080   3.227   9.561   0.603  0.2760  3.4771  0.2908
 5801SOL     OW28081   0.916   1.201   0.176  0.2187 -0.0999 -0.0935
 5801SOL    HW128082   0.958   1.179   0.089 -0.1730  0.5680 -0.4560
 5801SOL    HW228083   0.916   1.300   0.189  0.1801 -0.1885  0.6158
 5802SOL     OW28084   4.063   3.761   3.297 -0.1005  0.5376 -0.3058
 5802SOL    HW128085   4.000   3.744   3.372 -0.4277  0.5860 -0.5655
 5802SOL    HW228086   4.011   3.786   3.215  0.2257  0.1022 -0.6510
 5803SOL     OW28087   2.290   6.985   4.174 -0.8935  0.2274  0.2640
 5803SOL    HW128088   2.297   7.085   4.180  0.8234  0.2852 -2.1783
 5803SOL    HW228089   2.201   6.960   4.135 -1.1361  0.8134  0.4405
 5804SOL     OW28090   0.302   6.820   3.744 -0.7184 -0.2528  0.7136
 5804SOL    HW128091   0.382   6.805   3.802 -0.6805  0.6122  0.8957
 5804SOL    HW228092   0.247   6.894   3.783 -1.2103 -0.3391  0.1824
 5805SOL     OW28093   8.982   1.803   0.266  0.2836  0.1270  0.2977
 5805SOL    HW128094   9.054   1.841   0.208 -0.4777  0.4745 -0.4382
 5805SOL    HW228095   9.006   1.817   0.363  0.8610  0.8665  0.0535
 5806SOL     OW28096   3.047   9.528   3.916 -0.4342  0.6658  0.0514
 5806SOL    HW128097   3.004   9.604   3.868 -0.0831 -0.5986 -2.3596
 5806SOL    HW228098   2.982   9.452   3.923 -0.1272  0.4547  0.6949
 5807SOL     OW28099   9.274   0.928   0.014 -0.1764 -0.5910 -0.3311
 5807SOL    HW128100   9.204   0.970  -0.043 -0.4185  0.7898  0.9527
 5807SOL    HW228101   9.236   0.849   0.062  0.0957 -1.9188 -2.2249
 5808SOL     OW28102   1.918   8.205   2.217 -0.0152  0.1296  0.1376
 5808SOL    HW128103   1.890   8.267   2.290  0.9313  0.0061  0.6175
 5808SOL    HW228104   1.844   8.195   2.151 -1.0971 -0.2426  1.3955
 5809SOL     OW28105   1.437   7.155   1.537  0.1097 -0.0026  0.0994
 5809SOL    HW128106   1.527   7.190   1.563 -0.9076  2.4944  0.3631
 5809SOL    HW228107   1.449   7.082   1.470  2.3852 -0.6563  1.1646
 5810SOL     OW28108   1.765   2.036   2.104 -0.1662 -0.2164  0.5828
 5810SOL    HW128109   1.756   1.939   2.084  4.1018 -0.7361  0.6959
 5810SOL    HW228110   1.840   2.074   2.050 -0.3636  2.5381  2.1764
 5811SOL     OW28111   7.651   7.522   2.458  0.3560  0.2069  0.4268
 5811SOL    HW128112   7.622   7.441   2.406  0.4066  1.2513 -1.2790
 5811SOL    HW228113   7.750   7.519   2.472  0.2107 -0.5526  1.2990
 5812SOL     OW28114   3.613   0.574   2.237 -0.0904 -0.2251  0.1242
 5812SOL    HW128115   3.570   0.643   2.295  0.9381  0.5607 -0.0283
 5812SOL    HW228116   3.566   0.572   2.148  0.1130  0.5418 -0.0021
 5813SOL     OW28117   2.134   8.538   2.739  0.3809  0.7681 -0.6519
 5813SOL    HW128118   2.179   8.617   2.698  1.8314  0.7284  0.8037
 5813SOL    HW228119   2.034   8.548   2.732  0.5814  1.8509 -2.0634
 5814SOL     OW28120   4.490   1.483   2.642  0.1700  0.0819  0.2888
 5814SOL    HW128121   4.515   1.578   2.662  0.9496  0.4088 -2.0741
 5814SOL    HW228122   4.394   1.468   2.667 -0.0587  1.5780  0.3408
 5815SOL     OW28123   3.977   0.023   0.257 -0.1826  0.5654  0.0018
 5815SOL    HW128124   3.983   0.067   0.347 -2.3122 -0.5895  0.7614
 5815SOL    HW228125   4.066  -0.014   0.231  0.2197 -0.0023  2.1226
 5816SOL     OW28126   9.433   7.897   1.615  0.0900 -0.3673 -0.0794
 5816SOL    HW128127   9.531   7.896   1.599 -0.1015 -0.0228 -1.3821
 5816SOL    HW228128   9.412   7.955   1.693  1.0798 -2.0268  1.4426
 5817SOL     OW28129   2.008   5.330   2.033 -0.1782 -0.5479 -0.1628
 5817SOL    HW128130   2.026   5.240   2.074  0.5002 -0.6831 -0.7406
 5817SOL    HW228131   1.920   5.365   2.065  0.1586 -0.8382  1.0739
 5818SOL     OW28132   0.175   0.485   0.491 -0.1765 -0.3726  0.0223
 5818SOL    HW128133   0.110   0.439   0.551 -1.1745  1.3819  0.3361
 5818SOL    HW228134   0.255   0.513   0.544  0.3974 -1.6771 -0.1559
 5819SOL     OW28135   1.838   0.772   5.617  0.7397  0.7586  0.7306
 5819SOL    HW128136   1.783   0.844   5.575 -0.2330  0.1071  0.8608
 5819SOL    HW228137   1.934   0.800   5.620  0.9473  0.5754 -2.4854
 5820SOL     OW28138   2.988   7.152   3.866 -0.2691 -0.4328  0.0355
 5820SOL    HW128139   3.072   7.204   3.848 -1.4316  2.0988  1.6044
 5820SOL    HW228140   2.912   7.193   3.816 -0.9131 -1.5992  0.0552
 5821SOL     OW28141   1.623   4.269   0.917 -0.6084 -0.0555  0.1785
 5821SOL    HW128142   1.639   4.276   1.016 -2.8886  1.3872  0.4829
 5821SOL    HW228143   1.649   4.178   0.886  1.7938  0.0255  1.7605
 5822SOL     OW28144   2.007   4.947   1.329 -0.3583 -0.7732  0.0813
 5822SOL    HW128145   2.080   5.011   1.353 -0.9858 -0.5697  1.5252
 5822SOL    HW228146   2.046   4.868   1.280  0.5345  0.2817 -0.9318
 5823SOL     OW28147   5.068   6.780   3.787  0.5935  0.4677 -0.5742
 5823SOL    HW128148   4.995   6.719   3.757  2.0103 -0.8421 -1.4327
 5823SOL    HW228149   5.064   6.866   3.736  0.0917  0.1256 -1.1097
 5824SOL     OW28150   5.871   7.007   2.318  0.0238 -0.5007  0.7212
 5824SOL    HW128151   5.916   6.977   2.234 -2.0677  0.8792 -0.9487
 5824SOL    HW228152   5.827   6.929   2.362  1.1016 -1.2213  0.5519
 5825SOL     OW28153   8.192   3.849   0.995 -0.2521 -0.1136  0.4003
 5825SOL    HW128154   8.216   3.904   1.075  2.6733 -1.8050  0.7488
 5825SOL    HW228155   8.133   3.773   1.023  0.9740 -0.8533  1.0471
 5826SOL     OW28156   0.004   0.365   3.876  0.3251 -0.1104 -0.2789
 5826SOL    HW128157  -0.079   0.327   3.833 -0.2465  0.4737  0.2988
 5826SOL    HW228158  -0.019   0.398   3.967  1.0257  0.8356 -0.4501
 5827SOL     OW28159   0.208   7.920   2.959 -0.1710 -0.5032 -0.9826
 5827SOL    HW128160   0.199   8.010   2.916 -2.4396 -0.1712  0.0758
 5827SOL    HW228161   0.123   7.868   2.945  0.1382 -1.4785  0.6068
 5828SOL     OW28162   0.235   3.236   1.774  0.2153  0.2015 -0.3556
 5828SOL    HW128163   0.177   3.308   1.812 -0.0443  0.5544 -1.4024
 5828SOL    HW228164   0.197   3.205   1.686  0.3681 -1.1540  0.0402
 5829SOL     OW28165   2.234   3.320   2.696  0.2805 -0.2625 -0.6032
 5829SOL    HW128166   2.155   3.358   2.648 -1.0911 -0.2780  1.5721
 5829SOL    HW228167   2.248   3.371   2.782  1.1272 -1.8243  0.2043
 5830SOL     OW28168   4.153   7.186   2.518 -0.3170  0.5183 -0.6708
 5830SOL    HW128169   4.093   7.260   2.487 -0.5651  0.5060 -0.2220
 5830SOL    HW228170   4.228   7.175   2.452 -0.7644  0.5764 -1.1993
 5831SOL     OW28171   3.465   6.392   3.033  0.0266 -0.2485  0.4867
 5831SOL    HW128172   3.368   6.371   3.037  0.1679 -1.5003 -1.7779
 5831SOL    HW228173   3.478   6.486   3.002 -0.4626 -0.2080  0.4105
 5832SOL     OW28174   5.393   0.049   4.422  0.2214 -0.3643  0.1550
 5832SOL    HW128175   5.417   0.098   4.506 -0.1661 -1.3625  0.8620
 5832SOL    HW228176   5.303   0.078   4.391  0.2347 -0.2201  0.2516
 5833SOL     OW28177   0.569   9.363   4.321  0.0046 -0.0008  0.4795
 5833SOL    HW128178   0.624   9.287   4.356  0.1233 -0.1823 -0.1060
 5833SOL    HW228179   0.629   9.434   4.286 -0.1380 -0.2301 -0.2267
 5834SOL     OW28180   7.851   1.034   4.811  0.8859 -0.1292 -0.7299
 5834SOL    HW128181   7.839   1.025   4.910 -1.7890  1.5305 -0.8556
 5834SOL    HW228182   7.871   1.129   4.789  0.3255 -0.2849 -1.9129
 5835SOL     OW28183   1.819   0.023   4.909  0.8079 -0.2380 -0.1930
 5835SOL    HW128184   1.807   0.093   4.838  0.3485 -1.3335 -1.2246
 5835SOL    HW228185   1.740   0.025   4.970  0.5942 -0.1376 -0.4698
 5836SOL     OW28186   1.178   4.908   1.399  0.3459 -0.5147  0.1800
 5836SOL    HW128187   1.133   4.871   1.317  0.0926  0.6614 -0.2367
 5836SOL    HW228188   1.276   4.892   1.393  0.4366  0.3177 -0.7813
 5837SOL     OW28189   0.436   9.222   4.040  0.4777 -0.3590  0.2015
 5837SOL    HW128190   0.339   9.202   4.053  0.4787 -0.3254  0.2614
 5837SOL    HW228191   0.489   9.188   4.118  0.5648 -0.7401 -0.0218
 5838SOL     OW28192   1.860   8.487   4.629  0.0527 -0.3965 -0.8390
 5838SOL    HW128193   1.797   8.538   4.687 -1.7913 -0.2434 -2.9129
 5838SOL    HW228194   1.952   8.524   4.640 -0.5510  0.7212  0.7009
 5839SOL     OW28195   8.085   8.702   4.143 -0.1349  0.0213  0.6035
 5839SOL    HW128196   7.991   8.728   4.119 -0.2127 -0.0583  0.8164
 5839SOL    HW228197   8.094   8.700   4.242 -0.5205 -2.0891  0.6254
 5840SOL     OW28198   4.395   8.328   0.716  0.0474 -0.0786  0.3352
 5840SOL    HW128199   4.349   8.388   0.650 -1.0423 -0.9622  0.2741
 5840SOL    HW228200   4.488   8.310   0.686  0.3390  1.4361  0.2602
 5841SOL     OW28201   8.359   6.436   2.570 -0.0709  0.3791  0.2926
 5841SOL    HW128202   8.431   6.377   2.605 -0.3405 -0.2659 -0.2281
 5841SOL    HW228203   8.288   6.381   2.528  1.0888  1.1741 -2.8717
 5842SOL     OW28204   4.126   7.231   3.071 -0.0653  0.4771  0.1071
 5842SOL    HW128205   4.030   7.242   3.092 -0.4731 -0.2070 -1.2984
 5842SOL    HW228206   4.142   7.255   2.975  1.3552  1.6226  0.6127
 5843SOL     OW28207   8.019   6.524   2.830 -0.2781  0.1288  0.7680
 5843SOL    HW128208   8.118   6.521   2.814 -0.2897 -0.3103  0.7704
 5843SOL    HW228209   8.001   6.574   2.915  0.0050 -0.6460  1.2926
 5844SOL     OW28210   2.013   9.484   4.506  0.4793  0.3213  0.3091
 5844SOL    HW128211   1.987   9.581   4.504 -0.2127  0.1187 -1.4699
 5844SOL    HW228212   1.961   9.437   4.576  0.5734  1.1777  0.9595
 5845SOL     OW28213   5.532   3.885   5.504  0.6439 -0.1916 -0.0784
 5845SOL    HW128214   5.541   3.929   5.593  0.5416 -0.4381  0.0554
 5845SOL    HW228215   5.484   3.946   5.441 -1.0874 -0.8003  0.6182
 5846SOL     OW28216   3.869   6.085   1.708  0.1438 -0.5240 -0.6720
 5846SOL    HW128217   3.950   6.097   1.766  0.4806 -2.4792 -0.6892
 5846SOL    HW228218   3.889   6.016   1.639 -1.8786 -1.7468 -0.0439
 5847SOL     OW28219   5.866   0.128   0.750 -0.0298  0.8031 -0.3866
 5847SOL    HW128220   5.888   0.040   0.793  0.2663  2.3549  2.7988
 5847SOL    HW228221   5.766   0.136   0.740 -0.0884  0.3645 -0.1712
 5848SOL     OW28222   1.948   6.530   1.472 -0.3443  0.4104  0.4977
 5848SOL    HW128223   2.041   6.494   1.460 -0.5673 -0.0745  0.2067
 5848SOL    HW228224   1.927   6.534   1.570  0.3639  1.5147  0.6160
 5849SOL     OW28225   3.634   4.822   2.740 -0.0343  0.3868 -0.4440
 5849SOL    HW128226   3.538   4.829   2.766 -0.0065 -1.0732  0.1386
 5849SOL    HW228227   3.689   4.801   2.821  0.3256 -2.0914 -1.2762
 5850SOL     OW28228   8.384   9.305   4.606 -0.0500 -0.4649  0.0754
 5850SOL    HW128229   8.363   9.245   4.684 -2.4691 -1.7094 -1.4753
 5850SOL    HW228230   8.454   9.262   4.549 -0.2158 -0.8144  0.1341
 5851SOL     OW28231   8.468   1.643   3.701 -0.0104  0.0223 -0.0022
 5851SOL    HW128232   8.484   1.742   3.702 -0.2945  0.0832 -0.8003
 5851SOL    HW228233   8.374   1.624   3.726  0.1438 -0.0689  0.5086
 5852SOL     OW28234   2.861   8.035   1.836 -0.5319  0.1888  0.2381
 5852SOL    HW128235   2.929   8.080   1.778  0.4874 -2.3294 -0.6183
 5852SOL    HW228236   2.790   7.994   1.779 -0.8605 -0.2029  0.9170
 5853SOL     OW28237   4.219   2.812   1.519  0.2210 -0.3100  0.1846
 5853SOL    HW128238   4.131   2.860   1.528  1.2392  1.3333  1.4926
 5853SOL    HW228239   4.262   2.804   1.609  1.3602 -1.2342 -0.4321
 5854SOL     OW28240   1.746   8.850   5.452 -0.1659  0.4925 -0.6114
 5854SOL    HW128241   1.797   8.913   5.393 -0.1709  1.2086  0.1246
 5854SOL    HW228242   1.787   8.759   5.448  1.4652  1.1621  0.2961
 5855SOL     OW28243   2.133   8.634   4.905 -0.4786 -0.4671 -0.1828
 5855SOL    HW128244   2.058   8.652   4.968  0.3256  1.7988  0.1486
 5855SOL    HW228245   2.212   8.600   4.956 -0.3547 -0.1695 -0.1778
 5856SOL     OW28246   2.857   8.005   2.671  0.5717 -0.4172 -0.3976
 5856SOL    HW128247   2.817   8.024   2.581  0.7158  2.6304  0.1083
 5856SOL    HW228248   2.783   7.996   2.738  0.5484  1.7703 -0.0782
 5857SOL     OW28249   2.975   3.614   1.974  0.8541  0.3274  0.0647
 5857SOL    HW128250   2.879   3.593   1.992  0.3155  1.3022 -1.5476
 5857SOL    HW228251   2.992   3.613   1.876  1.8327  2.8737  0.1604
 5858SOL     OW28252   3.189   9.303   0.447  0.3221 -0.2009 -0.3438
 5858SOL    HW128253   3.090   9.312   0.459  0.4388 -0.4651  0.9812
 5858SOL    HW228254   3.235   9.345   0.526  1.2517 -0.3599 -0.8033
 5859SOL     OW28255   1.057   8.361   1.964  0.1571 -0.3374 -0.1054
 5859SOL    HW128256   1.126   8.395   1.900  0.5352 -0.0947  0.4251
 5859SOL    HW228257   1.099   8.295   2.027 -0.5034 -1.5553 -0.9289
 5860SOL     OW28258   8.083   8.889   4.843  0.2027 -0.2719  0.0273
 5860SOL    HW128259   8.161   8.846   4.889  0.3219  1.9373  2.0122
 5860SOL    HW228260   8.003   8.830   4.850  0.5101 -0.4622  2.1465
 5861SOL     OW28261   0.869   5.588   1.884 -0.1021  0.3420  0.0025
 5861SOL    HW128262   0.911   5.501   1.908 -0.9867 -0.2925 -0.7272
 5861SOL    HW228263   0.849   5.590   1.786 -0.6300  1.1270  0.1195
 5862SOL     OW28264   9.727   3.322   3.679  0.2488  0.0273 -0.1664
 5862SOL    HW128265   9.631   3.351   3.685 -0.5601 -2.5632  0.4243
 5862SOL    HW228266   9.785   3.401   3.662 -1.9556  1.7102 -0.1411
 5863SOL     OW28267   2.459   2.665   1.791 -0.1542 -0.4347 -0.5022
 5863SOL    HW128268   2.470   2.747   1.846 -0.3725 -2.2165  2.2701
 5863SOL    HW228269   2.362   2.641   1.786 -0.0120 -0.9971 -0.6275
 5864SOL     OW28270   2.464   6.364   1.581  0.0246 -0.1100 -0.4110
 5864SOL    HW128271   2.524   6.296   1.539 -0.5075 -1.2640  0.6671
 5864SOL    HW228272   2.381   6.373   1.527  0.6863  0.7269 -1.3253
 5865SOL     OW28273   7.468   1.918   2.339  0.3789  0.4805 -0.1175
 5865SOL    HW128274   7.374   1.905   2.307  0.9646 -3.2202 -0.5441
 5865SOL    HW228275   7.472   1.901   2.438  0.4933  1.2942  0.0201
 5866SOL     OW28276   0.624   1.810   0.858 -0.3610 -0.0842 -0.2042
 5866SOL    HW128277   0.717   1.846   0.853 -0.3887 -0.0893 -0.7747
 5866SOL    HW228278   0.600   1.793   0.954 -0.4595  1.6784  0.0962
 5867SOL     OW28279   3.990   7.830   1.437 -0.2123 -0.1091  0.6203
 5867SOL    HW128280   3.972   7.921   1.475  0.9982  0.8838 -1.0860
 5867SOL    HW228281   3.904   7.784   1.419 -0.9019  1.5013 -0.3327
 5868SOL     OW28282   5.743   0.394   2.236  0.0510 -0.1482 -0.1095
 5868SOL    HW128283   5.668   0.457   2.217 -0.2780 -0.5291 -0.0810
 5868SOL    HW228284   5.791   0.373   2.151 -1.1933 -1.5646 -0.4809
 5869SOL     OW28285   7.795   6.909   1.944 -0.3659  0.1468 -0.0995
 5869SOL    HW128286   7.748   6.859   1.871 -2.6037  0.3682  1.1388
 5869SOL    HW228287   7.892   6.918   1.921 -0.6107 -1.6490 -2.0177
 5870SOL     OW28288   8.265   0.366   1.027  0.2070  0.5958  0.5700
 5870SOL    HW128289   8.320   0.431   1.080  0.7019  0.2124  0.5221
 5870SOL    HW228290   8.308   0.276   1.029 -0.1962  0.3939  0.1807
 5871SOL     OW28291   8.885   2.771   0.955  0.0935 -0.1541  0.0384
 5871SOL    HW128292   8.931   2.777   0.867 -0.3993 -1.3890 -0.3134
 5871SOL    HW228293   8.872   2.675   0.979 -4.6550  0.0684 -1.1239
 5872SOL     OW28294   3.400   6.131   1.805 -0.1063  0.1855 -0.3864
 5872SOL    HW128295   3.409   6.112   1.903 -0.2436  1.9787 -0.0091
 5872SOL    HW228296   3.305   6.154   1.784  0.0541  0.4774 -0.8074
 5873SOL     OW28297   7.710   9.791   0.439 -0.1089  0.2141 -0.3883
 5873SOL    HW128298   7.791   9.785   0.497 -0.7483  0.5186  0.5546
 5873SOL    HW228299   7.704   9.710   0.382 -0.2159 -0.7669  0.9819
 5874SOL     OW28300   7.660   7.933   3.592  0.4472  0.6395  0.6561
 5874SOL    HW128301   7.587   7.893   3.537  1.8064 -0.4505 -0.3918
 5874SOL    HW228302   7.627   7.949   3.685 -0.4347 -2.0011  0.8334
 5875SOL     OW28303   3.519   1.695   3.365 -0.1652  0.2185 -0.1373
 5875SOL    HW128304   3.508   1.612   3.420 -0.2142  0.1909 -0.1879
 5875SOL    HW228305   3.565   1.765   3.419 -0.5779  0.3279  0.0741
 5876SOL     OW28306   3.998   2.576   1.537 -0.2550 -0.4664  0.3984
 5876SOL    HW128307   3.914   2.615   1.499  0.8134 -0.8543 -2.4133
 5876SOL    HW228308   4.039   2.641   1.601 -1.9236  0.3165  0.6980
 5877SOL     OW28309   9.939   3.163   2.767 -0.0640  0.3852  0.3151
 5877SOL    HW128310   9.921   3.067   2.750 -1.4783  0.4417  1.4415
 5877SOL    HW228311   9.947   3.212   2.680 -1.7623 -0.3094 -0.2441
 5878SOL     OW28312   9.837   6.394   1.030  0.0607 -0.1822 -0.4448
 5878SOL    HW128313   9.866   6.327   0.962 -1.1401 -1.5561  0.3804
 5878SOL    HW228314   9.872   6.368   1.120  0.2481  0.7209 -0.2546
 5879SOL     OW28315   1.351   5.793   0.893  0.0590 -0.0048  0.0392
 5879SOL    HW128316   1.332   5.775   0.990  0.6495 -0.2178  0.1153
 5879SOL    HW228317   1.374   5.889   0.881  2.9554 -0.5863  0.5878
 5880SOL     OW28318   1.886   3.255   1.306  0.5486 -0.2701  0.1057
 5880SOL    HW128319   1.921   3.195   1.234  1.8647 -0.3061  0.7724
 5880SOL    HW228320   1.868   3.346   1.269 -0.4557 -0.7736 -0.6694
 5881SOL     OW28321   3.908   5.954   1.473  0.2636  0.4051 -0.4529
 5881SOL    HW128322   3.808   5.960   1.472  0.1843  0.6315  2.5356
 5881SOL    HW228323   3.946   6.016   1.404 -1.6546  0.1056 -1.8059
 5882SOL     OW28324   3.239   8.539   1.496  0.1320  0.1759  0.1197
 5882SOL    HW128325   3.280   8.470   1.556  0.6503 -0.1583 -0.6178
 5882SOL    HW228326   3.194   8.609   1.552 -1.3223 -1.3148  0.8424
 5883SOL     OW28327   4.340   1.131   3.095 -0.2390 -0.0526  0.8165
 5883SOL    HW128328   4.336   1.157   3.191 -1.1366 -2.5637  1.5066
 5883SOL    HW228329   4.404   1.191   3.046  0.3060  1.1676  2.9784
 5884SOL     OW28330   9.744   8.950   2.664  0.0860 -0.2771 -0.2689
 5884SOL    HW128331   9.756   9.049   2.668 -0.9178 -0.1933  0.6461
 5884SOL    HW228332   9.703   8.925   2.576 -1.0378  0.2714  0.0886
 5885SOL     OW28333   4.847   0.404   2.532  0.1562  0.0082 -0.6562
 5885SOL    HW128334   4.821   0.374   2.440 -0.6276 -0.0480 -0.4190
 5885SOL    HW228335   4.888   0.327   2.581 -2.0935 -0.7884  0.0425
 5886SOL     OW28336   3.586   8.382   4.563  0.2553 -0.4551 -0.3625
 5886SOL    HW128337   3.502   8.360   4.612  1.0680  1.3605  1.9471
 5886SOL    HW228338   3.663   8.330   4.601  0.7980  0.5481 -0.0638
 5887SOL     OW28339   2.650   7.393   0.752 -0.0520 -0.1454 -0.6122
 5887SOL    HW128340   2.619   7.407   0.658 -3.2387  0.8687  0.5408
 5887SOL    HW228341   2.575   7.411   0.815  1.0021 -4.2810  1.9930
 5888SOL     OW28342   1.707   5.630   2.748 -0.8806  0.2397  0.3803
 5888SOL    HW128343   1.678   5.603   2.657  0.3758  0.2027 -0.0154
 5888SOL    HW228344   1.807   5.623   2.755 -0.9482  0.4206  1.6918
 5889SOL     OW28345   8.635   3.131   1.868 -0.2234  0.0571  0.0502
 5889SOL    HW128346   8.646   3.132   1.967 -1.3568  1.6259  0.1691
 5889SOL    HW228347   8.719   3.164   1.824 -0.0234  0.1475  0.5026
 5890SOL     OW28348   2.404   2.391   4.147 -0.4386  0.3955  0.1678
 5890SOL    HW128349   2.366   2.368   4.057 -2.1100  2.0489  0.4176
 5890SOL    HW228350   2.448   2.481   4.142 -0.6856  0.5706  1.0269
 5891SOL     OW28351   2.444   1.010   2.948  0.3177 -0.0317 -1.0770
 5891SOL    HW128352   2.432   0.911   2.955 -2.5274  0.4952  2.8477
 5891SOL    HW228353   2.387   1.046   2.874 -2.8692 -0.7533  0.9376
 5892SOL     OW28354   0.555   2.416   2.649 -0.2486 -0.1959 -0.4097
 5892SOL    HW128355   0.456   2.426   2.634 -0.2847 -1.9568 -1.5024
 5892SOL    HW228356   0.573   2.404   2.746 -1.1630 -0.4202 -0.2644
 5893SOL     OW28357   3.570   7.702   3.858 -0.0002  0.4947 -0.5363
 5893SOL    HW128358   3.553   7.621   3.802  0.1496 -0.8516  1.3028
 5893SOL    HW228359   3.664   7.734   3.842  0.3874 -0.5027 -0.2775
 5894SOL     OW28360   1.305   9.028   3.945 -0.1832 -0.0262 -0.0607
 5894SOL    HW128361   1.242   8.965   3.901 -0.4416 -0.9789  1.6249
 5894SOL    HW228362   1.382   8.976   3.984  0.9949  0.9871 -0.9999
 5895SOL     OW28363   9.857   7.433   4.312  0.1969  0.0938  0.1785
 5895SOL    HW128364   9.789   7.379   4.361  0.5239  0.3403  0.9032
 5895SOL    HW228365   9.844   7.420   4.213 -0.4126 -0.4553  0.3237
 5896SOL     OW28366   4.075   9.243   4.686  0.4021 -0.1914  0.4860
 5896SOL    HW128367   4.163   9.290   4.692 -0.8242  2.3085 -0.4274
 5896SOL    HW228368   4.045   9.219   4.779  1.2003  0.5708  0.9562
 5897SOL     OW28369   0.925   1.492   1.738 -0.3274 -0.0508 -0.5252
 5897SOL    HW128370   0.872   1.490   1.823  1.7156 -1.9923  0.7578
 5897SOL    HW228371   0.866   1.466   1.661 -1.2878 -2.0970  0.8485
 5898SOL     OW28372   1.936   7.081   3.426 -0.5443  0.6070 -0.2221
 5898SOL    HW128373   2.012   7.098   3.362  2.3402 -1.6225  2.4068
 5898SOL    HW228374   1.921   7.162   3.483  0.7810  0.6420  0.0978
 5899SOL     OW28375   1.218   2.936   0.847 -0.1449  0.3066 -0.3098
 5899SOL    HW128376   1.149   2.906   0.913 -1.6533  3.3269 -0.4079
 5899SOL    HW228377   1.187   2.915   0.754 -0.3901  0.6268 -0.3000
 5900SOL     OW28378   2.088   5.166   2.647 -0.3000 -0.1778 -0.0430
 5900SOL    HW128379   2.019   5.179   2.718 -0.4669  1.0504 -0.4181
 5900SOL    HW228380   2.171   5.216   2.671  0.8749 -2.5203  0.9352
 5901SOL     OW28381   6.643   0.363   4.841  0.4247  0.0018 -0.4065
 5901SOL    HW128382   6.660   0.295   4.912  0.7877 -0.6815 -1.1434
 5901SOL    HW228383   6.585   0.324   4.770 -0.2707  0.8097 -0.2855
 5902SOL     OW28384   0.370   8.568   1.956  0.2533 -0.1264  0.1022
 5902SOL    HW128385   0.415   8.567   2.046 -1.9946  0.6248  1.2728
 5902SOL    HW228386   0.440   8.571   1.884  2.0897 -0.4605  1.8177
 5903SOL     OW28387   2.672   5.233   2.055 -0.2862  0.4759  0.6810
 5903SOL    HW128388   2.660   5.227   2.154  3.2004 -1.0684  1.0697
 5903SOL    HW228389   2.702   5.325   2.030  0.4072  0.4052  1.2515
 5904SOL     OW28390   3.513   0.975   4.868  0.4801 -0.5439  0.8528
 5904SOL    HW128391   3.602   0.936   4.845  0.7636  1.1047 -0.9855
 5904SOL    HW228392   3.500   1.060   4.817 -0.9635  0.7219  3.2511
 5905SOL     OW28393   7.355   8.666   2.879 -1.1417  0.4260 -0.1439
 5905SOL    HW128394   7.454   8.671   2.885 -1.1488 -0.5353  1.0375
 5905SOL    HW228395   7.318   8.757   2.861  0.0379  0.5208 -2.2878
 5906SOL     OW28396   3.442   8.209   5.105  0.2992  0.8428  0.4085
 5906SOL    HW128397   3.455   8.113   5.081 -1.0527  1.0090 -1.1345
 5906SOL    HW228398   3.351   8.222   5.145  0.2583  1.5574  0.0978
 5907SOL     OW28399   9.462   7.556   1.329  0.4860  0.1473  0.1285
 5907SOL    HW128400   9.497   7.590   1.416  0.7160  0.1574  0.0315
 5907SOL    HW228401   9.462   7.456   1.331  2.5116  0.1222 -0.6656
 5908SOL     OW28402   6.290   7.154   3.185 -0.1635  0.2991  0.5099
 5908SOL    HW128403   6.252   7.240   3.151  2.0186  2.0174  2.2084
 5908SOL    HW228404   6.298   7.159   3.285 -0.0450 -1.9106  0.6260
 5909SOL     OW28405   3.087   2.323   0.557 -0.7396 -0.2939 -0.6952
 5909SOL    HW128406   3.049   2.245   0.608 -0.5242  0.2148  0.2635
 5909SOL    HW228407   3.075   2.407   0.611  1.9268 -0.1528 -0.2497
 5910SOL     OW28408   9.787   5.723   2.130  0.6264 -0.1932 -0.0791
 5910SOL    HW128409   9.704   5.771   2.157 -0.0760 -0.2504 -2.1028
 5910SOL    HW228410   9.866   5.766   2.176 -0.5172 -0.3334  2.0695
 5911SOL     OW28411   2.279   1.334   1.671  0.0590 -0.3778 -0.5511
 5911SOL    HW128412   2.279   1.237   1.648  0.3129 -0.7186  0.8014
 5911SOL    HW228413   2.373   1.364   1.689  0.0935  0.3637 -1.9248
 5912SOL     OW28414   2.107   1.057   3.039 -0.2794  0.3032  0.5977
 5912SOL    HW128415   2.011   1.085   3.037  0.3587  2.5982  0.4441
 5912SOL    HW228416   2.143   1.067   3.132 -0.1092 -0.2659  0.5947
 5913SOL     OW28417   1.694   2.613   1.816  0.0165  0.2207  0.6679
 5913SOL    HW128418   1.770   2.676   1.800  0.8663 -0.6999  1.0165
 5913SOL    HW228419   1.670   2.613   1.913  0.3917 -0.4054  0.7621
 5914SOL     OW28420   8.522   0.295   2.271  0.0453  0.3201  0.5037
 5914SOL    HW128421   8.532   0.213   2.216 -0.5233  0.5610  0.0286
 5914SOL    HW228422   8.594   0.361   2.248  0.1038  0.2189  0.3990
 5915SOL     OW28423   3.785   0.826   2.843  0.7147 -1.1058 -0.2457
 5915SOL    HW128424   3.735   0.740   2.840  0.5605 -0.9865 -1.1526
 5915SOL    HW228425   3.798   0.861   2.751  0.2078  0.1697  0.1431
 5916SOL     OW28426   3.200   9.806   0.647 -0.6571 -0.5604  0.2902
 5916SOL    HW128427   3.243   9.855   0.723 -0.6294  0.1973 -0.2108
 5916SOL    HW228428   3.108   9.841   0.633 -0.8624 -1.0809  0.3243
 5917SOL     OW28429   4.008   0.089   3.831  0.0960  0.0850  0.3421
 5917SOL    HW128430   3.917   0.077   3.872  0.5733 -0.4583  1.2687
 5917SOL    HW228431   4.011   0.175   3.781 -1.3679 -0.5544 -0.8996
 5918SOL     OW28432   9.370   9.411   1.059  0.0105 -0.3629 -0.0809
 5918SOL    HW128433   9.434   9.473   1.104  1.7353 -2.6216  0.6699
 5918SOL    HW228434   9.280   9.454   1.053  0.0637  0.5608  4.2828
 5919SOL     OW28435   8.721   7.472   2.827 -0.3292 -0.1309 -0.3164
 5919SOL    HW128436   8.786   7.536   2.786 -0.2975  0.0333 -0.0083
 5919SOL    HW228437   8.706   7.396   2.764 -1.0736  0.6398 -1.0711
 5920SOL     OW28438   3.880   3.506   3.224 -0.5091  0.3017  0.0613
 5920SOL    HW128439   3.969   3.520   3.267 -0.5607  0.8970 -0.0142
 5920SOL    HW228440   3.890   3.505   3.124 -0.2072 -2.3498  0.0808
 5921SOL     OW28441   1.798   8.485   4.374 -0.4083 -0.0808 -0.9248
 5921SOL    HW128442   1.795   8.403   4.316 -0.2984  0.1704 -1.2889
 5921SOL    HW228443   1.844   8.463   4.460  2.6022  0.4256 -2.3701
 5922SOL     OW28444   0.967   8.700   4.910 -0.3584 -0.3247 -0.4651
 5922SOL    HW128445   1.064   8.724   4.904 -0.4610  0.0551 -0.5451
 5922SOL    HW228446   0.959   8.609   4.953  0.0615 -0.6372 -1.0440
 5923SOL     OW28447   0.713   6.142   0.532  0.2620 -0.2886 -0.4654
 5923SOL    HW128448   0.698   6.090   0.616 -1.5429 -1.7227 -1.6323
 5923SOL    HW228449   0.651   6.220   0.530 -1.1632 -1.4252 -1.3938
 5924SOL     OW28450   2.779   8.686   2.335  0.0103 -0.0476 -0.3614
 5924SOL    HW128451   2.707   8.618   2.321 -0.2704  0.1004  0.3700
 5924SOL    HW228452   2.868   8.644   2.315 -0.1383 -0.6968  0.3163
 5925SOL     OW28453   2.809   9.256   5.509  0.1690  0.0294 -0.2270
 5925SOL    HW128454   2.885   9.291   5.563 -0.6435  1.6566 -0.0953
 5925SOL    HW228455   2.787   9.163   5.538  2.6699 -0.8060 -0.8857
 5926SOL     OW28456   9.915   4.008   2.668 -0.5666  0.0339  0.1545
 5926SOL    HW128457   9.816   4.014   2.658 -0.5516 -1.5743 -1.2284
 5926SOL    HW228458   9.938   3.942   2.738 -0.4602  0.1116  0.1928
 5927SOL     OW28459   3.097   0.099   3.085  0.3099 -0.5466 -0.2130
 5927SOL    HW128460   3.006   0.075   3.053  0.0868 -0.2869  0.2249
 5927SOL    HW228461   3.149   0.015   3.103 -0.2075 -0.7120  0.5682
 5928SOL     OW28462   1.126   1.605   3.858  0.1519 -0.4375  0.0954
 5928SOL    HW128463   1.058   1.564   3.798  0.1948 -0.5778  0.1424
 5928SOL    HW228464   1.186   1.665   3.804 -0.4131  0.1947  0.1684
 5929SOL     OW28465   4.313   8.996   4.109  0.4024  0.2854 -0.5866
 5929SOL    HW128466   4.225   8.960   4.138 -0.8415  3.4300 -0.2440
 5929SOL    HW228467   4.315   9.005   4.010 -0.1247  1.3329 -0.5041
 5930SOL     OW28468   2.599   0.199   1.175  0.3403  0.6706 -0.4451
 5930SOL    HW128469   2.646   0.113   1.155 -0.2120  0.2325  0.1361
 5930SOL    HW228470   2.504   0.192   1.146 -0.4833  0.0334  2.2717
 5931SOL     OW28471   0.461   9.230   2.372  0.3643 -0.6890  0.0742
 5931SOL    HW128472   0.388   9.162   2.360  0.9321 -1.3461  0.3228
 5931SOL    HW228473   0.449   9.276   2.460  0.3286 -0.8955  0.1784
 5932SOL     OW28474   6.792   6.060   2.041 -0.3432  0.4433  0.1429
 5932SOL    HW128475   6.878   6.082   2.088  0.4151  0.0413 -1.0300
 5932SOL    HW228476   6.813   6.020   1.951 -1.7317 -1.2510  0.5501
 5933SOL     OW28477   0.302   8.915   1.284 -0.0409  0.3542  0.2497
 5933SOL    HW128478   0.351   8.996   1.249  0.5133 -0.7260 -1.5241
 5933SOL    HW228479   0.357   8.833   1.268 -1.2332 -0.5525  0.7309
 5934SOL     OW28480   1.056   0.446   2.788 -0.1649  0.1613  0.3519
 5934SOL    HW128481   1.141   0.396   2.775 -0.0791  0.5444 -0.5958
 5934SOL    HW228482   0.979   0.385   2.769 -0.0501  0.5871 -1.6808
 5935SOL     OW28483   1.680   6.603   5.081  0.5338  0.3032 -0.5372
 5935SOL    HW128484   1.614   6.546   5.033 -0.3439  0.8070  0.0416
 5935SOL    HW228485   1.637   6.691   5.103  1.2175  0.4153  0.3528
 5936SOL     OW28486   7.819   0.401   3.061  0.2489 -0.2715  0.7435
 5936SOL    HW128487   7.824   0.493   3.101 -1.4001  0.3148 -0.3949
 5936SOL    HW228488   7.736   0.392   3.006  1.8261 -1.4989 -1.5258
 5937SOL     OW28489   1.378   1.736   4.301  0.5189 -0.3557 -0.1727
 5937SOL    HW128490   1.334   1.826   4.303 -0.2625 -0.7506  0.9718
 5937SOL    HW228491   1.308   1.665   4.297  1.1516 -0.8988 -1.8685
 5938SOL     OW28492   5.467   9.559   1.615 -0.4010 -0.2087 -0.2064
 5938SOL    HW128493   5.453   9.499   1.536  1.6825  0.4028 -1.0759
 5938SOL    HW228494   5.473   9.503   1.698  1.0517 -1.1779 -0.9414
 5939SOL     OW28495   3.222   9.028   0.536 -0.9070  0.2548 -0.3456
 5939SOL    HW128496   3.190   9.037   0.630  0.5219  0.2336  0.1692
 5939SOL    HW228497   3.220   9.118   0.492  0.6630  0.7231  0.4854
 5940SOL     OW28498   1.844   7.512   0.400  0.1053  0.3874  0.4272
 5940SOL    HW128499   1.824   7.479   0.308  0.4047 -1.2033  0.9132
 5940SOL    HW228500   1.758   7.533   0.448 -0.1335 -0.5666  0.4203
 5941SOL     OW28501   2.352   8.395   1.032 -0.2138 -0.1892 -0.4465
 5941SOL    HW128502   2.348   8.469   1.099  0.8748 -0.4271 -0.1076
 5941SOL    HW228503   2.264   8.388   0.985 -0.8722  0.2063  0.7103
 5942SOL     OW28504   1.113   4.853   2.972 -0.1221  0.0791 -0.7135
 5942SOL    HW128505   1.192   4.820   2.921  0.7303  0.4584  0.3505
 5942SOL    HW228506   1.036   4.790   2.958  0.5349 -0.6097 -1.2816
 5943SOL     OW28507   2.890   5.411   2.013 -0.7178  0.0581  0.3751
 5943SOL    HW128508   2.923   5.317   2.020  0.3986  0.2734 -1.4999
 5943SOL    HW228509   2.944   5.471   2.071  0.9007  0.0790 -1.1205
 5944SOL     OW28510   1.408   0.693   4.660 -0.1045 -0.4968 -0.2539
 5944SOL    HW128511   1.492   0.683   4.605 -0.7168  0.1463 -1.3406
 5944SOL    HW228512   1.389   0.791   4.672  1.7269 -0.5454  3.8170
 5945SOL     OW28513   2.314   0.856   3.802  0.5892  0.0671  0.1464
 5945SOL    HW128514   2.326   0.782   3.869  0.2438  0.2032  0.3577
 5945SOL    HW228515   2.226   0.901   3.817  0.5836  0.2046 -0.2971
 5946SOL     OW28516   2.925   3.820   2.142 -0.4656  0.4630 -0.1685
 5946SOL    HW128517   2.953   3.744   2.083  0.9422 -0.1663  1.2815
 5946SOL    HW228518   2.910   3.902   2.086 -0.4012 -0.4579 -1.5442
 5947SOL     OW28519   0.883   2.317   3.932  0.3031  0.6558  0.2088
 5947SOL    HW128520   0.799   2.360   3.897 -0.7071 -0.1378  1.6319
 5947SOL    HW228521   0.890   2.224   3.898 -0.1521  0.2305  1.2527
 5948SOL     OW28522   8.030   0.207   0.340  0.3500  0.0718  0.0687
 5948SOL    HW128523   8.095   0.266   0.293  1.4277 -1.6773 -0.6842
 5948SOL    HW228524   7.992   0.255   0.419  1.0813  1.8060 -0.6184
 5949SOL     OW28525   8.928   9.135   4.537  0.2994 -0.0668 -0.1975
 5949SOL    HW128526   8.957   9.152   4.443 -1.7092  1.3512 -0.6136
 5949SOL    HW228527   8.933   9.220   4.589 -1.3587 -0.1708  0.1727
 5950SOL     OW28528   1.501   3.709   4.897  0.3633  0.4982 -0.4133
 5950SOL    HW128529   1.408   3.676   4.881 -0.4803  2.6362 -0.0967
 5950SOL    HW228530   1.559   3.632   4.926 -1.2472 -0.8887 -0.7742
 5951SOL     OW28531   8.630   8.263   4.054 -0.6125  0.0318 -0.0040
 5951SOL    HW128532   8.721   8.231   4.082  0.2631 -0.0354 -2.7604
 5951SOL    HW228533   8.560   8.199   4.085  0.3464 -0.3643  1.3983
 5952SOL     OW28534   1.057   3.254   3.633 -0.0297  0.2497  0.0729
 5952SOL    HW128535   0.986   3.185   3.619  1.5819 -1.8296  1.6401
 5952SOL    HW228536   1.015   3.343   3.653 -2.1588 -0.5914 -0.5992
 5953SOL     OW28537   9.344   0.428   3.679 -0.4532  0.2003 -0.1290
 5953SOL    HW128538   9.405   0.448   3.602 -1.0821  0.5048 -0.5575
 5953SOL    HW228539   9.396   0.386   3.753  0.2251  0.2116 -0.5928
 5954SOL     OW28540   5.780   7.275   3.772  0.4746 -0.0790 -0.4417
 5954SOL    HW128541   5.750   7.332   3.848  0.5549 -1.1333  0.3941
 5954SOL    HW228542   5.868   7.307   3.738  1.7076 -1.1854  1.6188
 5955SOL     OW28543   0.940   4.720   2.144  0.1356  0.7388 -0.0785
 5955SOL    HW128544   1.032   4.711   2.108  0.3624 -0.0961  0.6811
 5955SOL    HW228545   0.881   4.762   2.076  0.9459  0.7489 -0.7761
 5956SOL     OW28546   5.746   7.010   3.860 -0.0795  0.0591  0.0964
 5956SOL    HW128547   5.806   7.086   3.834  2.1656 -0.8603  2.3987
 5956SOL    HW228548   5.688   7.038   3.936 -1.1809  0.2919 -0.8092
 5957SOL     OW28549   9.232   4.768   2.932  1.1483  0.5830  0.0737
 5957SOL    HW128550   9.214   4.850   2.986  2.8545  0.5181  0.7995
 5957SOL    HW228551   9.306   4.786   2.868 -0.0126  0.2731 -1.3748
 5958SOL     OW28552   7.198   9.345   4.620 -0.0625  0.0593 -0.4063
 5958SOL    HW128553   7.264   9.280   4.583  0.5525  1.2186 -1.3839
 5958SOL    HW228554   7.246   9.426   4.655 -0.9021  0.6201 -0.5139
 5959SOL     OW28555   2.979   2.461   4.107  0.1835 -0.0491  0.1246
 5959SOL    HW128556   2.993   2.508   4.194 -1.2014 -0.6085  0.6626
 5959SOL    HW228557   3.047   2.388   4.098 -0.5993 -0.9776  1.4562
 5960SOL     OW28558   2.879   0.159   5.122  0.2588 -0.8697  0.0528
 5960SOL    HW128559   2.803   0.221   5.145 -0.0530 -2.1196  2.6114
 5960SOL    HW228560   2.964   0.211   5.117 -0.5944  0.3923 -1.8676
 5961SOL     OW28561   2.641   3.989   3.832 -0.0771 -0.3681 -0.2269
 5961SOL    HW128562   2.730   4.023   3.861 -1.3300  1.3525  1.6589
 5961SOL    HW228563   2.625   4.014   3.737  1.2842 -0.3855 -0.4684
 5962SOL     OW28564   3.145   6.973   3.991  0.1206  0.6543 -0.4407
 5962SOL    HW128565   3.110   6.958   4.084  0.9215 -0.8030 -0.3557
 5962SOL    HW228566   3.073   7.014   3.935 -1.5267 -1.6610 -0.0868
 5963SOL     OW28567   1.167   9.198   4.310 -0.3535 -0.2575  0.1024
 5963SOL    HW128568   1.234   9.126   4.291  0.9869  1.2288 -1.0428
 5963SOL    HW228569   1.089   9.189   4.249  0.2803 -0.1694 -0.7342
 5964SOL     OW28570   1.859   3.193   4.375  0.6603  0.5680 -0.2149
 5964SOL    HW128571   1.890   3.098   4.382  2.6124  1.2375  0.7275
 5964SOL    HW228572   1.771   3.203   4.422  0.9656 -0.5420  0.6214
 5965SOL     OW28573   0.273   7.218   0.089  0.0247  0.5859 -0.1842
 5965SOL    HW128574   0.347   7.151   0.084  0.5924  1.0554  1.6157
 5965SOL    HW228575   0.284   7.286   0.017  0.3023 -0.3793 -1.0628
 5966SOL     OW28576   3.640   0.334   1.695  0.0844 -0.0394 -0.2341
 5966SOL    HW128577   3.716   0.269   1.704 -0.5664 -0.8990 -0.8703
 5966SOL    HW228578   3.625   0.354   1.598 -0.7839 -0.2022 -0.1327
 5967SOL     OW28579   8.336   6.185   3.361 -0.2490 -0.6011  0.1199
 5967SOL    HW128580   8.269   6.215   3.428 -0.4951 -0.8512 -0.0089
 5967SOL    HW228581   8.349   6.086   3.370  1.4025 -0.2994  1.3206
 5968SOL     OW28582   0.461   6.457   1.066 -0.1710 -0.2993 -0.3010
 5968SOL    HW128583   0.422   6.544   1.037 -0.3115 -0.3937 -0.3977
 5968SOL    HW228584   0.490   6.463   1.161 -2.8523 -1.0461  0.6076
 5969SOL     OW28585   7.860   8.955   1.666  0.1174 -0.8754 -0.0794
 5969SOL    HW128586   7.914   8.940   1.583 -0.0284 -0.5993 -0.2263
 5969SOL    HW228587   7.770   8.991   1.641  0.0570 -0.8332  0.1967
 5970SOL     OW28588   2.081   8.013   0.593  0.2322 -0.4736 -0.5707
 5970SOL    HW128589   2.035   7.987   0.509  0.5137 -1.5939 -0.3871
 5970SOL    HW228590   2.080   8.113   0.602 -0.9826 -0.4172 -1.2135
 5971SOL     OW28591   8.857   2.920   3.087  0.7996  0.1011 -0.3993
 5971SOL    HW128592   8.818   2.849   3.028 -1.2105  1.8716 -1.2382
 5971SOL    HW228593   8.793   2.942   3.159  2.4643 -0.6713  1.3649
 5972SOL     OW28594   5.317   0.313   1.784  0.3556 -0.1496 -0.1869
 5972SOL    HW128595   5.248   0.241   1.774  0.0212  0.1047  0.2405
 5972SOL    HW228596   5.348   0.342   1.694  1.6118 -1.8775 -0.3421
 5973SOL     OW28597   5.235   1.532   3.403 -0.0822  0.1215  0.1999
 5973SOL    HW128598   5.197   1.624   3.412 -1.7024 -0.5664  0.4896
 5973SOL    HW228599   5.292   1.511   3.483  0.1003  0.7646  0.2447
 5974SOL     OW28600   1.753   6.303   1.500 -0.2168  1.0305 -0.3064
 5974SOL    HW128601   1.844   6.337   1.476  0.6430 -0.0156  1.3535
 5974SOL    HW228602   1.695   6.302   1.418  1.8322 -0.0309 -1.7958
 5975SOL     OW28603   8.316   2.940   2.383 -0.3889  0.4168  0.2434
 5975SOL    HW128604   8.374   2.917   2.304 -1.8364  1.6658 -1.2207
 5975SOL    HW228605   8.371   2.941   2.466  1.1136 -1.1974 -0.7101
 5976SOL     OW28606   4.000   2.403   5.194 -0.4898 -0.2635 -0.0748
 5976SOL    HW128607   3.938   2.345   5.142 -1.4722  1.0762 -0.4113
 5976SOL    HW228608   3.955   2.489   5.216  1.0931  0.5432  0.0845
 5977SOL     OW28609   1.182   3.745   1.233  0.0561  0.9938  0.3639
 5977SOL    HW128610   1.152   3.717   1.143  0.9328 -1.2852  0.7476
 5977SOL    HW228611   1.254   3.815   1.224  1.5408 -0.6363 -0.7672
 5978SOL     OW28612   0.351   1.380   2.305 -0.1277 -0.2870 -0.1193
 5978SOL    HW128613   0.328   1.403   2.400  0.3054  0.2420 -0.1431
 5978SOL    HW228614   0.322   1.454   2.245  1.9802  0.5522 -0.1102
 5979SOL     OW28615   9.309   0.133   3.022  0.1956  0.6481 -0.2621
 5979SOL    HW128616   9.220   0.155   3.062 -0.2310  0.2815 -0.9954
 5979SOL    HW228617   9.360   0.074   3.085  0.0491  1.1068  0.2937
 5980SOL     OW28618   2.384   3.287   0.194 -0.0827 -0.1989  0.2953
 5980SOL    HW128619   2.394   3.294   0.095 -2.4843 -0.2902  0.0054
 5980SOL    HW228620   2.327   3.207   0.216 -0.0067  0.1212  1.7221
 5981SOL     OW28621   3.528   7.609   1.262 -0.5427  0.2202 -0.2760
 5981SOL    HW128622   3.487   7.693   1.297 -0.7940 -0.3153  0.7114
 5981SOL    HW228623   3.521   7.609   1.162 -0.6149  1.3302 -0.2826
 5982SOL     OW28624   2.607   2.256   4.981  0.0178  0.4428  0.3250
 5982SOL    HW128625   2.662   2.239   5.063 -0.8708 -1.2329  0.6016
 5982SOL    HW228626   2.656   2.221   4.900 -0.4952 -0.7866  0.5356
 5983SOL     OW28627   4.725   7.983   3.783 -0.0485 -0.0145 -0.3712
 5983SOL    HW128628   4.713   7.931   3.699  0.1664 -0.3852 -0.1777
 5983SOL    HW228629   4.652   7.960   3.847 -0.3301  0.4242 -0.5357
 5984SOL     OW28630   7.966   1.918   3.596 -0.2610  0.3221 -0.0796
 5984SOL    HW128631   7.898   1.904   3.668 -1.5370 -0.1774 -1.3617
 5984SOL    HW228632   7.967   1.839   3.535  1.1487  0.5284 -0.3295
 5985SOL     OW28633   8.157   8.461   2.732 -0.1297  0.0313  0.9193
 5985SOL    HW128634   8.082   8.507   2.685  0.4926 -0.5277 -0.6559
 5985SOL    HW228635   8.129   8.368   2.757 -0.0777 -0.0575  0.6469
 5986SOL     OW28636   4.632   9.860   3.451  0.3215 -0.0063 -0.5227
 5986SOL    HW128637   4.655   9.956   3.435  0.3544 -0.0485 -0.7277
 5986SOL    HW228638   4.662   9.833   3.542  0.1500  0.2278 -0.3977
 5987SOL     OW28639   2.532   1.043   5.084 -0.6528  0.4926  0.1314
 5987SOL    HW128640   2.616   1.000   5.050 -0.0292  1.0292  0.9754
 5987SOL    HW228641   2.458   1.027   5.018 -0.0608 -0.5535 -0.3032
 5988SOL     OW28642   9.281   2.778   2.380  0.9378 -0.0943 -0.3304
 5988SOL    HW128643   9.313   2.869   2.353 -1.8338  0.9174 -0.4128
 5988SOL    HW228644   9.327   2.749   2.464  0.7348  2.0542  0.5424
 5989SOL     OW28645   7.039   9.983   0.606 -0.7278 -0.0585  0.1239
 5989SOL    HW128646   7.103   9.907   0.616  1.0881  1.2147 -1.3743
 5989SOL    HW228647   7.072  10.062   0.656 -0.1753  1.1520 -2.0787
 5990SOL     OW28648   5.602   9.700   2.099 -0.3426 -0.3745 -0.0641
 5990SOL    HW128649   5.504   9.702   2.118 -0.3420  2.4277 -0.0589
 5990SOL    HW228650   5.616   9.688   2.001 -0.6753 -1.1653 -0.0192
 5991SOL     OW28651   2.243   1.817   0.700  0.2906  0.2980  0.1384
 5991SOL    HW128652   2.253   1.718   0.712  0.3090  0.2669 -0.1125
 5991SOL    HW228653   2.237   1.837   0.602  0.6207  0.5780  0.1744
 5992SOL     OW28654   3.836   0.262   3.123  0.1330 -0.3431 -0.5858
 5992SOL    HW128655   3.796   0.325   3.057  0.0454  0.6736  0.4222
 5992SOL    HW228656   3.770   0.246   3.197  0.9622  0.0616  0.2517
 5993SOL     OW28657   8.150   8.556   1.359 -0.5438  0.0024  0.3333
 5993SOL    HW128658   8.139   8.468   1.405 -0.0663 -0.5803 -0.6404
 5993SOL    HW228659   8.226   8.607   1.401 -1.3795  0.3316  1.4608
 5994SOL     OW28660   1.333   5.090   2.421  0.5290 -0.5460 -0.4198
 5994SOL    HW128661   1.417   5.068   2.471  0.2731 -0.4141  0.0678
 5994SOL    HW228662   1.313   5.187   2.431 -0.8952 -0.9893  1.3417
 5995SOL     OW28663   6.967   9.486   3.311 -0.2966  0.5201 -0.0776
 5995SOL    HW128664   6.885   9.448   3.352  0.0735  1.3522  1.4466
 5995SOL    HW228665   7.044   9.423   3.325 -0.2529  0.6303  0.1772
 5996SOL     OW28666   7.722   6.770   2.189 -0.5361 -0.0706 -0.1934
 5996SOL    HW128667   7.805   6.735   2.231  0.0661  0.0918 -1.2443
 5996SOL    HW228668   7.745   6.825   2.109 -1.5668  1.2389  0.3883
 5997SOL     OW28669   6.324   0.191   1.867 -0.4451 -0.0316 -0.6252
 5997SOL    HW128670   6.382   0.110   1.873 -2.3978 -1.4358 -0.3168
 5997SOL    HW228671   6.247   0.173   1.805 -2.9630  0.2362  2.2711
 5998SOL     OW28672   9.722   2.334   2.159  0.1403 -0.5156 -0.4642
 5998SOL    HW128673   9.730   2.245   2.205  0.7801 -0.1478  0.1470
 5998SOL    HW228674   9.730   2.321   2.060 -1.1859 -1.3081 -0.4867
 5999SOL     OW28675   3.065   9.083   1.002  0.0402  0.7398 -0.0328
 5999SOL    HW128676   2.991   9.046   1.058  2.7314 -1.3151  2.3542
 5999SOL    HW228677   3.076   9.027   0.920 -1.6930  1.6817 -0.9268
 6000SOL     OW28678   0.818   6.503   0.513 -0.3260 -0.3418  0.0702
 6000SOL    HW128679   0.903   6.462   0.479 -0.0830  0.7004 -0.5852
 6000SOL    HW228680   0.740   6.455   0.473 -0.0410  0.6118 -1.6436
 6001SOL     OW28681   9.209   9.918   2.626 -0.2378 -0.3187  0.4511
 6001SOL    HW128682   9.182   9.940   2.532  1.2331  1.2433  0.3746
 6001SOL    HW228683   9.254   9.828   2.627  0.9720  0.2462 -0.5961
 6002SOL     OW28684   2.515   7.406   4.625 -0.0067  0.0355  0.1007
 6002SOL    HW128685   2.509   7.421   4.526 -0.4830  0.1531  0.1503
 6002SOL    HW228686   2.533   7.310   4.643 -1.2699 -0.2367 -0.0539
 6003SOL     OW28687   8.818   8.827   4.614 -0.1416 -0.4112 -0.0344
 6003SOL    HW128688   8.866   8.910   4.643  0.8370 -0.2691 -1.9998
 6003SOL    HW228689   8.755   8.849   4.540  0.4658 -1.4917 -0.8947
 6004SOL     OW28690   0.591   3.710   1.195 -0.4603  0.1832  0.7221
 6004SOL    HW128691   0.646   3.673   1.120 -1.4107 -0.3818  0.2886
 6004SOL    HW228692   0.528   3.639   1.227  1.7322 -0.4494  3.8264
 6005SOL     OW28693   1.878   0.720   1.666 -0.0787  0.5038 -0.2252
 6005SOL    HW128694   1.819   0.757   1.594 -1.2550 -1.0857 -0.0920
 6005SOL    HW228695   1.843   0.749   1.755  1.7171  2.9667 -0.2805
 6006SOL     OW28696   0.689   6.850   1.924 -0.2113  0.4072  0.0616
 6006SOL    HW128697   0.749   6.913   1.875 -0.2923 -1.1063 -2.0649
 6006SOL    HW228698   0.629   6.901   1.985  0.1633  2.3318 -1.1469
 6007SOL     OW28699   4.052   3.346   0.112  0.0718  0.1597 -0.6794
 6007SOL    HW128700   3.953   3.353   0.098 -0.0344  0.9199  0.4534
 6007SOL    HW228701   4.089   3.436   0.132  0.8895 -0.2423 -0.3729
 6008SOL     OW28702   9.039   2.225   2.476 -0.3603 -0.1175 -0.4495
 6008SOL    HW128703   9.134   2.240   2.450 -0.1682  0.0134  0.3138
 6008SOL    HW228704   9.029   2.132   2.513 -0.1266  0.5130  1.2497
 6009SOL     OW28705   3.432   8.759   0.417 -0.3452  0.4245  0.3884
 6009SOL    HW128706   3.490   8.835   0.387  2.0052 -0.6680  2.0358
 6009SOL    HW228707   3.350   8.756   0.360  1.9090  1.0618 -3.0657
 6010SOL     OW28708   5.068   9.480   1.593  0.0464  0.6158 -0.3235
 6010SOL    HW128709   5.037   9.490   1.498 -0.5464 -0.8603 -0.2995
 6010SOL    HW228710   5.017   9.543   1.651  0.1134  1.2308 -0.9214
 6011SOL     OW28711   4.386   9.060   0.656 -0.3518 -0.8788 -0.7712
 6011SOL    HW128712   4.390   9.081   0.754  0.6500 -1.5706 -0.6524
 6011SOL    HW228713   4.454   9.115   0.608 -1.3839  0.0330 -1.1890
 6012SOL     OW28714   1.323   8.745   1.336  0.0702 -0.6858  0.2527
 6012SOL    HW128715   1.228   8.732   1.364 -0.0436  1.1263  0.7522
 6012SOL    HW228716   1.327   8.761   1.237  0.0261 -2.3807 -0.0375
 6013SOL     OW28717   4.850   7.368   3.483  0.0450  0.0433  0.2264
 6013SOL    HW128718   4.777   7.311   3.447  0.1354  1.0826 -1.6675
 6013SOL    HW228719   4.813   7.430   3.552 -0.6539 -0.1677  0.0449
 6014SOL     OW28720   7.853   1.033   2.347  0.1613  0.0047  0.0056
 6014SOL    HW128721   7.863   0.957   2.411  0.6556 -0.2757 -0.3967
 6014SOL    HW228722   7.871   1.119   2.394  1.5680 -0.2807  0.0069
 6015SOL     OW28723   6.356   8.116   1.335 -0.1735 -0.2991  0.7092
 6015SOL    HW128724   6.411   8.195   1.306 -0.9819 -0.2332 -0.6637
 6015SOL    HW228725   6.260   8.142   1.337 -0.4656 -1.3132  0.0272
 6016SOL     OW28726   4.705   6.405   1.152  0.6771 -0.0746 -0.0172
 6016SOL    HW128727   4.775   6.361   1.207  0.8006  0.7311  0.4822
 6016SOL    HW228728   4.616   6.363   1.171  0.7708 -0.0114  0.5482
 6017SOL     OW28729   1.408   7.212   4.555  0.4774  0.5687  0.2946
 6017SOL    HW128730   1.337   7.266   4.509 -0.0809 -1.1071 -0.8449
 6017SOL    HW228731   1.445   7.264   4.632 -0.2274  2.4764 -0.6245
 6018SOL     OW28732   0.933   5.358   1.968  0.3952 -0.1423 -0.0902
 6018SOL    HW128733   0.958   5.315   2.055 -0.1915  0.0217  0.1631
 6018SOL    HW228734   0.912   5.288   1.900  1.0568 -0.2722 -0.1584
 6019SOL     OW28735   2.097   8.581   2.407  0.6063  0.3613 -0.1292
 6019SOL    HW128736   2.186   8.539   2.423 -0.9375 -1.9837  2.7412
 6019SOL    HW228737   2.063   8.552   2.318  3.2611  2.4144 -1.9061
 6020SOL     OW28738   6.244   8.138   2.006 -0.2076  0.0261  0.2282
 6020SOL    HW128739   6.240   8.050   1.958  1.3612 -0.0256  0.1834
 6020SOL    HW228740   6.173   8.199   1.969 -0.4479 -0.7622 -0.6385
 6021SOL     OW28741   1.131   3.146   2.846 -0.1323 -0.1501 -0.5419
 6021SOL    HW128742   1.224   3.150   2.883 -0.7257  0.5100  0.9324
 6021SOL    HW228743   1.076   3.083   2.900 -1.0853  1.0208 -0.1162
 6022SOL     OW28744   5.781   1.038   3.954 -0.3422  0.5454  0.0440
 6022SOL    HW128745   5.839   0.967   3.914 -1.4373 -0.6735  0.5907
 6022SOL    HW228746   5.732   1.086   3.881 -0.6378 -0.1805 -0.2441
 6023SOL     OW28747   2.951   9.625   3.273  0.5180 -0.2967  0.4991
 6023SOL    HW128748   3.048   9.600   3.265  0.0967 -0.9338 -3.7065
 6023SOL    HW228749   2.940   9.722   3.254 -0.0301 -1.0202 -3.4247
 6024SOL     OW28750   4.941   8.999   4.397 -0.8137  0.2973  0.2954
 6024SOL    HW128751   4.848   8.974   4.371 -0.8465 -0.5442  1.1833
 6024SOL    HW228752   4.939   9.054   4.480 -0.4350 -1.2591  1.3696
 6025SOL     OW28753   4.834   1.713   1.325  0.1258  0.4016  0.1605
 6025SOL    HW128754   4.851   1.808   1.300 -1.1822  0.0382 -2.3284
 6025SOL    HW228755   4.765   1.674   1.263  0.7878 -2.2302  0.9992
 6026SOL     OW28756   3.189   0.552   4.947  0.2005 -0.1274 -0.3281
 6026SOL    HW128757   3.248   0.613   4.894 -1.0297  0.8882 -0.5319
 6026SOL    HW228758   3.225   0.545   5.041 -0.0507  1.4742 -0.0980
 6027SOL     OW28759   3.144   4.780   3.479 -0.3931 -0.2962 -0.6499
 6027SOL    HW128760   3.112   4.841   3.406 -2.4651 -1.2379 -0.5523
 6027SOL    HW228761   3.194   4.704   3.439 -2.8448 -1.6382 -1.2556
 6028SOL     OW28762   9.240   8.904   5.133  0.4478  0.5016  0.1613
 6028SOL    HW128763   9.311   8.839   5.105 -2.2561 -2.4506 -0.0905
 6028SOL    HW228764   9.243   8.914   5.233  0.0878 -0.9950  0.3355
 6029SOL     OW28765   4.062   0.881   3.661  0.1673  0.2002 -0.4041
 6029SOL    HW128766   4.141   0.857   3.716  0.6603  1.7052 -0.4345
 6029SOL    HW228767   4.041   0.806   3.597  2.2242  0.2477 -1.1517
 6030SOL     OW28768   4.060   9.852   2.212  0.5388  0.5130  0.2977
 6030SOL    HW128769   4.052   9.907   2.296 -0.6709  0.0295  0.5102
 6030SOL    HW228770   4.026   9.905   2.135  1.5539  0.9184  0.1166
 6031SOL     OW28771   2.078   3.742   0.222  0.0510  0.3134  0.3631
 6031SOL    HW128772   2.086   3.841   0.209  0.6635  0.9477  4.8943
 6031SOL    HW228773   2.168   3.705   0.247 -0.5160 -1.1163  0.3005
 6032SOL     OW28774   2.008   5.273   3.365 -0.1164  0.0286  0.3255
 6032SOL    HW128775   2.106   5.276   3.347 -0.0547 -0.7810  0.5444
 6032SOL    HW228776   1.992   5.250   3.460 -0.4931  2.0461  0.7819
 6033SOL     OW28777   7.903   0.598   1.160 -0.0112  0.5284  0.1747
 6033SOL    HW128778   7.971   0.672   1.164  1.1185 -0.5418  1.8366
 6033SOL    HW228779   7.931   0.531   1.092 -0.4324  1.0530 -0.5195
 6034SOL     OW28780   3.947   2.783   0.133 -0.2838  0.1539 -0.2485
 6034SOL    HW128781   3.871   2.837   0.169 -0.7151 -1.1969  0.9324
 6034SOL    HW228782   4.009   2.759   0.207  1.0668  0.8502 -1.1321
 6035SOL     OW28783   3.325   5.885   2.468 -0.6091 -0.3567 -0.1260
 6035SOL    HW128784   3.385   5.836   2.405 -0.5165 -0.7323  0.2527
 6035SOL    HW228785   3.380   5.936   2.534 -0.7058  0.3540 -0.5894
 6036SOL     OW28786   8.314   0.094   5.327  0.0502 -0.1845 -0.4047
 6036SOL    HW128787   8.222   0.108   5.365  0.7704 -0.4425  1.4944
 6036SOL    HW228788   8.358   0.182   5.312 -0.1609 -0.0861 -0.4448
 6037SOL     OW28789   3.283   1.757   5.177 -0.7373 -0.3176 -0.2460
 6037SOL    HW128790   3.257   1.740   5.272 -1.4600 -0.7180 -0.5093
 6037SOL    HW228791   3.201   1.765   5.121 -0.3865  2.3917 -0.4403
 6038SOL     OW28792   3.240   8.807   5.094  0.6690  0.2110  0.1471
 6038SOL    HW128793   3.329   8.765   5.077  1.7743  1.4861  2.5242
 6038SOL    HW228794   3.253   8.903   5.120 -1.6084  1.1883 -2.1917
 6039SOL     OW28795   1.029   2.288   0.077 -0.0847 -0.6209  0.3824
 6039SOL    HW128796   1.108   2.228   0.074 -0.3282 -0.9119 -0.6473
 6039SOL    HW228797   0.955   2.249   0.021 -0.6640  0.0402  0.6749
 6040SOL     OW28798   9.909   1.030   1.963  0.0716 -0.3626 -0.0809
 6040SOL    HW128799   9.985   1.003   2.021 -1.1109 -0.6612  1.3607
 6040SOL    HW228800   9.914   0.980   1.876  0.6627 -1.5220  0.6045
 6041SOL     OW28801   4.900   1.550   3.535  0.0623 -0.7036  0.6086
 6041SOL    HW128802   4.816   1.603   3.533 -0.4793 -1.5488  0.8232
 6041SOL    HW228803   4.941   1.549   3.443  0.0837  0.0899  0.6103
 6042SOL     OW28804   8.104   0.243   4.424  0.1717 -0.5242  0.5189
 6042SOL    HW128805   8.113   0.315   4.354  0.9855 -1.1001  0.0166
 6042SOL    HW228806   8.162   0.165   4.399 -0.1680 -1.0735  1.4191
 6043SOL     OW28807   4.893   9.506   2.645  0.2503  0.3360  0.3018
 6043SOL    HW128808   4.873   9.408   2.644 -1.4666  0.6664  0.2263
 6043SOL    HW228809   4.944   9.528   2.728  2.0915 -0.8693 -0.4660
 6044SOL     OW28810   3.252   9.875   3.079  0.3717 -0.3434  0.7151
 6044SOL    HW128811   3.199   9.833   3.005 -3.2267  0.0585  2.9941
 6044SOL    HW228812   3.248   9.817   3.160  1.6177  0.7787  1.6037
 6045SOL     OW28813   2.410   9.015   1.365 -0.2765  0.6035 -0.1359
 6045SOL    HW128814   2.325   9.068   1.362 -0.1694  0.8644  1.0060
 6045SOL    HW228815   2.454   9.016   1.276 -1.0261  1.2170 -0.4999
 6046SOL     OW28816   5.435   6.921   2.294  0.8519 -0.3894  0.0507
 6046SOL    HW128817   5.500   6.997   2.292  1.5644 -0.9892  0.4484
 6046SOL    HW228818   5.380   6.923   2.210  1.0475  0.3988 -0.0677
 6047SOL     OW28819   2.425   9.160   1.651  0.1673 -0.0143 -0.8136
 6047SOL    HW128820   2.334   9.180   1.615  0.6712  1.1425 -1.4732
 6047SOL    HW228821   2.478   9.244   1.657  1.3839 -0.7512 -0.9691
 6048SOL     OW28822   4.391   3.828   0.007  0.1059  0.3729 -0.2096
 6048SOL    HW128823   4.331   3.848   0.084  1.5839 -1.7585  1.5761
 6048SOL    HW228824   4.346   3.762  -0.054 -0.5732  1.1453 -0.5628
 6049SOL     OW28825   8.584   2.886   1.791 -0.4466  0.1347 -0.1198
 6049SOL    HW128826   8.673   2.845   1.773 -0.7789 -2.2210  3.0469
 6049SOL    HW228827   8.596   2.978   1.829  0.5779  0.3572 -0.9675
 6050SOL     OW28828   9.894   9.408   1.902  0.3567 -0.4819 -0.7101
 6050SOL    HW128829   9.807   9.388   1.858  0.3555 -2.6286  0.2450
 6050SOL    HW228830   9.890   9.382   1.998  0.8997  2.7018  0.2593
 6051SOL     OW28831   4.178   9.605   3.280 -0.1159 -0.1563  0.0090
 6051SOL    HW128832   4.195   9.525   3.222 -0.8350 -0.4589  0.2100
 6051SOL    HW228833   4.165   9.686   3.222 -1.6662 -0.6118 -0.3039
 6052SOL     OW28834   2.010   8.865   2.803  0.5236  0.1302  0.0943
 6052SOL    HW128835   2.104   8.900   2.803 -0.5423  3.1332  0.3502
 6052SOL    HW228836   1.953   8.922   2.864 -1.6279 -1.1630 -0.6530
 6053SOL     OW28837   6.274   1.335   1.889 -0.1733 -0.2730  0.1154
 6053SOL    HW128838   6.193   1.330   1.947  0.1417 -2.7656  0.4207
 6053SOL    HW228839   6.248   1.356   1.795 -1.1251 -0.6647  0.2946
 6054SOL     OW28840   4.054   2.605   5.560 -0.1918 -0.1142 -0.8263
 6054SOL    HW128841   4.039   2.512   5.593  1.6529  0.3365  1.4239
 6054SOL    HW228842   4.019   2.671   5.626  0.9582  0.8102 -1.1202
 6055SOL     OW28843   4.229   9.193   5.182  0.0166 -0.2113 -0.2530
 6055SOL    HW128844   4.239   9.260   5.256  0.5369 -0.1101 -0.4123
 6055SOL    HW228845   4.168   9.119   5.212  0.8355 -0.5661  0.5627
 6056SOL     OW28846   8.980   1.368   1.709  0.1527 -0.0069 -0.5193
 6056SOL    HW128847   9.071   1.407   1.724 -1.2159  1.5980  4.4112
 6056SOL    HW228848   8.919   1.439   1.675  0.3493 -0.7507 -2.4970
 6057SOL     OW28849   1.141   4.995   2.562 -0.5875  0.4371 -0.5010
 6057SOL    HW128850   1.218   5.027   2.507  0.6111 -0.6793  0.4914
 6057SOL    HW228851   1.060   4.989   2.505  1.0219 -2.4089 -2.6536
 6058SOL     OW28852   3.944   2.375   0.078 -0.2399 -0.0128 -0.5702
 6058SOL    HW128853   3.862   2.433   0.085  0.4658  0.7778  1.6751
 6058SOL    HW228854   3.990   2.373   0.167  0.8234 -2.4696 -1.1566
 6059SOL     OW28855   6.187   7.993   2.473  0.0174 -0.2147  0.0388
 6059SOL    HW128856   6.237   7.937   2.539 -0.8012  0.8684  1.6154
 6059SOL    HW228857   6.241   8.002   2.389  0.6344 -2.4190  0.1714
 6060SOL     OW28858   3.714   2.532   4.631  0.6220  0.2793 -0.4265
 6060SOL    HW128859   3.625   2.573   4.650  0.9600  0.2419  1.2873
 6060SOL    HW228860   3.708   2.433   4.640  0.6193  0.1940 -1.2712
 6061SOL     OW28861   7.694   3.112   0.930  0.2893 -0.4426 -0.7627
 6061SOL    HW128862   7.683   3.042   0.860 -1.5144 -0.6809 -0.2581
 6061SOL    HW228863   7.684   3.071   1.021 -1.9289  0.6501 -0.4897
 6062SOL     OW28864   8.643   2.815   2.643  0.2420 -0.4325 -0.1401
 6062SOL    HW128865   8.733   2.858   2.633 -0.0189  0.5254  1.4513
 6062SOL    HW228866   8.572   2.885   2.649 -0.5256 -1.1642 -0.5208
 6063SOL     OW28867   0.359   6.064   2.024  0.2410 -0.5767 -0.5268
 6063SOL    HW128868   0.447   6.098   2.058  0.3358 -0.2059 -1.1383
 6063SOL    HW228869   0.340   5.975   2.065 -0.0726  0.2631  1.2176
 6064SOL     OW28870   1.007   0.986   3.482 -0.2408 -0.6041 -0.2741
 6064SOL    HW128871   0.923   0.992   3.536 -0.6197  0.6492 -0.9969
 6064SOL    HW228872   1.026   0.890   3.461 -2.3541 -0.7822 -1.4741
 6065SOL     OW28873   8.685   2.058   3.982  0.2418 -0.2890  0.3317
 6065SOL    HW128874   8.688   1.998   4.062  0.5177  0.7916  1.1442
 6065SOL    HW228875   8.662   2.151   4.011 -1.9839 -0.3429 -1.1188
 6066SOL     OW28876   8.358   0.487   5.486  0.1357 -0.9250 -0.0327
 6066SOL    HW128877   8.370   0.574   5.533 -0.7557  0.2284 -1.8852
 6066SOL    HW228878   8.283   0.436   5.529  0.1798 -0.4609  0.5955
 6067SOL     OW28879   1.121   8.991   4.836 -0.0429  0.4795 -0.1118
 6067SOL    HW128880   1.188   9.064   4.843  0.3681 -0.0829  2.2131
 6067SOL    HW228881   1.167   8.902   4.847 -1.3477  0.1586  3.1378
 6068SOL     OW28882   4.667   9.604   2.087 -0.4717  0.1798  0.2513
 6068SOL    HW128883   4.692   9.699   2.072 -4.2696  1.1637 -0.3877
 6068SOL    HW228884   4.619   9.596   2.174  0.8659 -1.4167  0.8778
 6069SOL     OW28885   2.196   5.535   1.987 -0.4286 -0.2737 -0.7089
 6069SOL    HW128886   2.251   5.534   2.071  1.0614 -1.4994 -1.6728
 6069SOL    HW228887   2.128   5.462   1.990  0.1359 -0.8084 -0.8959
 6070SOL     OW28888   2.248   9.281   4.755  0.1562  0.0002 -0.1677
 6070SOL    HW128889   2.321   9.214   4.773  0.6759  0.4873 -0.4655
 6070SOL    HW228890   2.255   9.313   4.661 -0.2358  0.3050 -0.0926
 6071SOL     OW28891   0.648   3.610   2.259  0.1205  0.2594 -0.6682
 6071SOL    HW128892   0.574   3.676   2.277 -0.9156 -0.6722 -1.4511
 6071SOL    HW228893   0.649   3.587   2.162 -0.6946 -2.2296 -0.1164
 6072SOL     OW28894   8.687   9.881   5.367 -0.1287 -0.3444 -0.0036
 6072SOL    HW128895   8.730   9.793   5.351 -0.4653 -0.7435  1.2359
 6072SOL    HW228896   8.588   9.869   5.379 -0.1382  0.1567  0.4756
 6073SOL     OW28897   1.900   2.632   5.592  0.6573 -0.2729  0.8090
 6073SOL    HW128898   1.855   2.635   5.502  0.5431  0.3953  0.8867
 6073SOL    HW228899   1.973   2.700   5.595  0.9667 -0.6200  1.0574
 6074SOL     OW28900   9.266   1.495   1.649 -0.6444  0.2436 -0.6473
 6074SOL    HW128901   9.272   1.409   1.599 -0.6956 -0.2323  0.1463
 6074SOL    HW228902   9.206   1.558   1.601 -2.4979 -1.0096 -0.0562
 6075SOL     OW28903   4.981   9.474   2.972 -0.2848  0.4480 -0.2633
 6075SOL    HW128904   4.971   9.387   2.925  4.4543 -1.1380  1.4153
 6075SOL    HW228905   4.924   9.475   3.054  0.1940 -1.4107  0.1067
 6076SOL     OW28906   2.552   6.949   2.346 -0.0421  0.0341  0.3940
 6076SOL    HW128907   2.485   6.966   2.419 -1.0578  1.2325 -0.7912
 6076SOL    HW228908   2.620   7.023   2.346 -0.7431  0.6880 -0.6397
 6077SOL     OW28909   0.202   1.553   0.199  0.2191 -0.5960  0.1905
 6077SOL    HW128910   0.258   1.585   0.276 -0.2479  0.9354 -0.0936
 6077SOL    HW228911   0.119   1.608   0.194 -0.0973 -1.1784 -0.9738
 6078SOL     OW28912   0.640   4.879   2.475 -0.2485  0.0647 -0.2614
 6078SOL    HW128913   0.625   4.977   2.462  0.5360  0.3138  0.6286
 6078SOL    HW228914   0.565   4.828   2.434 -0.6293  1.0357 -0.7919
 6079SOL     OW28915   1.713   2.701   0.164  0.0884  0.2368 -0.0159
 6079SOL    HW128916   1.725   2.631   0.234  0.0169 -1.0299 -1.2441
 6079SOL    HW228917   1.783   2.689   0.093  0.9507  2.2791  0.4573
 6080SOL     OW28918   8.321   4.464   2.351  0.6319 -0.1915  0.0304
 6080SOL    HW128919   8.337   4.366   2.337  0.9098 -0.1308 -0.0767
 6080SOL    HW228920   8.235   4.490   2.308 -0.7156 -0.9103  2.2096
 6081SOL     OW28921   9.037   4.319   1.654 -0.2729 -0.0625  0.1515
 6081SOL    HW128922   8.976   4.398   1.642 -1.0174 -0.5475  0.7206
 6081SOL    HW228923   8.986   4.235   1.638  0.2442 -0.4719  0.6293
 6082SOL     OW28924   1.331   6.326   3.680 -0.2554 -0.2107  0.1891
 6082SOL    HW128925   1.350   6.249   3.619  0.4450  1.0923 -1.2594
 6082SOL    HW228926   1.417   6.364   3.714 -0.5874  0.1855  0.5879
 6083SOL     OW28927   4.966   2.061   1.958 -0.0174 -0.2127 -0.6423
 6083SOL    HW128928   4.883   2.006   1.944 -0.5504  0.4762 -0.2164
 6083SOL    HW228929   4.997   2.098   1.871 -0.4496 -0.0618 -0.7347
 6084SOL     OW28930   2.843   6.035   2.068 -0.4693 -0.3397 -0.3006
 6084SOL    HW128931   2.846   5.963   1.999 -1.4856 -1.8272  1.1627
 6084SOL    HW228932   2.925   6.030   2.125 -0.8444 -0.7857  0.2122
 6085SOL     OW28933   8.949   5.936   2.639  0.3352 -0.3329  0.3212
 6085SOL    HW128934   8.884   5.970   2.571 -0.4762 -0.7577  0.8626
 6085SOL    HW228935   8.957   5.837   2.632  0.1359 -0.3984  0.9200
 6086SOL     OW28936   1.045   1.194   4.806  0.1871 -0.1999  0.1071
 6086SOL    HW128937   0.970   1.133   4.780 -0.1059  0.0907  0.2661
 6086SOL    HW228938   1.008   1.284   4.829  0.7147  0.3427 -1.1216
 6087SOL     OW28939   1.225   8.933   0.688 -0.0209 -0.8156 -0.4018
 6087SOL    HW128940   1.152   8.960   0.625  0.1083  0.8149  0.1104
 6087SOL    HW228941   1.303   8.900   0.636 -0.2526 -0.3428 -1.0608
 6088SOL     OW28942   2.315   8.492   5.098 -0.3784  0.3587  0.0148
 6088SOL    HW128943   2.381   8.437   5.149  0.4543  2.2182  0.9776
 6088SOL    HW228944   2.231   8.501   5.151 -0.0649  1.0197  0.4107
 6089SOL     OW28945   1.009   7.802   5.568 -0.4545 -0.3736  0.3962
 6089SOL    HW128946   1.090   7.743   5.568 -0.3990 -0.3403 -1.1811
 6089SOL    HW228947   0.935   7.756   5.518 -0.3333  0.9712 -1.0433
 6090SOL     OW28948   2.433   8.857   0.231 -0.1678 -0.3277 -0.4463
 6090SOL    HW128949   2.432   8.875   0.132  0.0599  0.8022 -0.2478
 6090SOL    HW228950   2.340   8.864   0.267 -0.5836 -2.9363 -0.9586
 6091SOL     OW28951   2.901   5.379   2.649 -0.5341 -0.0976  0.5871
 6091SOL    HW128952   2.913   5.428   2.562  0.3502  1.8110  1.7607
 6091SOL    HW228953   2.941   5.287   2.641 -0.4840  0.0428 -1.0189
 6092SOL     OW28954   0.143   9.395   1.796 -0.0372  0.1069  0.0895
 6092SOL    HW128955   0.072   9.413   1.864 -0.9814 -0.6668 -0.6645
 6092SOL    HW228956   0.121   9.447   1.712  0.1125 -0.3786 -0.2512
 6093SOL     OW28957   1.613   1.659   4.649  0.5069 -0.2924 -0.1941
 6093SOL    HW128958   1.576   1.744   4.612 -1.2856 -1.8208 -2.0875
 6093SOL    HW228959   1.678   1.620   4.585 -0.6390 -1.6421 -0.5597
 6094SOL     OW28960   2.490   5.723   1.981  0.9988  0.4585 -0.8475
 6094SOL    HW128961   2.395   5.739   1.954  0.4834  0.8565  1.0648
 6094SOL    HW228962   2.549   5.721   1.900 -0.9780 -2.2927 -2.2713
 6095SOL     OW28963   9.088   7.145   3.657 -0.1003  0.1188 -0.0387
 6095SOL    HW128964   9.163   7.101   3.607  1.6123 -0.4613  2.8824
 6095SOL    HW228965   9.039   7.076   3.710 -1.1649  0.8737 -0.0341
 6096SOL     OW28966   3.271   3.627   3.466  0.1602 -0.3162 -0.0969
 6096SOL    HW128967   3.245   3.666   3.378 -0.3649 -0.9867 -0.2426
 6096SOL    HW228968   3.207   3.555   3.491 -0.7072  1.0480  1.6738
 6097SOL     OW28969   2.520   3.185   1.274  0.5421 -0.5342  0.0332
 6097SOL    HW128970   2.493   3.191   1.370  0.1099 -0.3211 -0.1027
 6097SOL    HW228971   2.615   3.215   1.263  0.3571  0.1252  0.2782
 6098SOL     OW28972   0.365   2.469   2.968 -0.1420  0.0130  0.1792
 6098SOL    HW128973   0.454   2.425   2.956 -0.1347  0.0549  0.0823
 6098SOL    HW228974   0.293   2.410   2.932  0.1359  1.4273 -2.8067
 6099SOL     OW28975   2.607   6.444   4.472  0.3114 -0.4795 -0.6669
 6099SOL    HW128976   2.586   6.526   4.524  0.8180  0.0710 -1.3162
 6099SOL    HW228977   2.573   6.453   4.378  3.0231  0.2805 -1.6361
 6100SOL     OW28978   0.354   0.995   5.620  0.0723  0.9294  0.0955
 6100SOL    HW128979   0.427   1.062   5.633  1.5977 -0.8591  0.8833
 6100SOL    HW228980   0.272   1.042   5.586  1.6652  2.9097 -1.1371
 6101SOL     OW28981   0.387   7.408   0.355 -0.6153 -0.1785  0.4260
 6101SOL    HW128982   0.329   7.347   0.301 -1.0892 -0.2851  1.0561
 6101SOL    HW228983   0.395   7.373   0.448 -1.8089  1.3058  1.1160
 6102SOL     OW28984   3.992   8.296   2.541  0.2579 -0.3217 -0.8681
 6102SOL    HW128985   4.053   8.372   2.518  0.0326  0.1087 -0.0790
 6102SOL    HW228986   4.036   8.238   2.610 -0.7346  0.7225  0.6758
 6103SOL     OW28987   9.054   8.165   3.899 -0.0753  0.4750  0.1806
 6103SOL    HW128988   9.131   8.194   3.955  0.6851  1.3195 -1.2587
 6103SOL    HW228989   9.019   8.244   3.848 -0.1455 -0.4543 -1.2292
 6104SOL     OW28990   4.784   4.388   5.510 -0.0362  0.2244  0.0697
 6104SOL    HW128991   4.777   4.312   5.445  0.9710  0.0354  0.1815
 6104SOL    HW228992   4.872   4.433   5.499 -0.1391  0.6222  0.8440
 6105SOL     OW28993   7.455   0.887   2.487  0.0915  0.8239  0.3678
 6105SOL    HW128994   7.473   0.845   2.398  0.3275  3.0636 -0.6720
 6105SOL    HW228995   7.402   0.971   2.474 -1.5138  0.1845  2.5088
 6106SOL     OW28996   8.336   7.492   0.890 -0.9066  0.3978  0.7752
 6106SOL    HW128997   8.292   7.444   0.814 -0.4020  0.8843  0.1667
 6106SOL    HW228998   8.415   7.543   0.856  1.8970 -2.7262  2.2515
 6107SOL     OW28999   0.548   5.735   2.685 -0.5345 -0.3073 -0.6595
 6107SOL    HW129000   0.509   5.697   2.768  1.5809  0.8251  0.9243
 6107SOL    HW229001   0.601   5.665   2.637 -0.5063 -0.5639 -0.2477
 6108SOL     OW29002   0.829   5.724   1.062 -0.3237 -0.0741 -0.7013
 6108SOL    HW129003   0.868   5.694   0.975  2.8021  0.0972  0.5745
 6108SOL    HW229004   0.865   5.814   1.085  1.6208 -1.5838  2.4129
 6109SOL     OW29005   7.909   7.690   2.017  0.3340  0.0285 -0.1139
 6109SOL    HW129006   7.974   7.763   2.036  0.0450  0.1806  0.3115
 6109SOL    HW229007   7.822   7.710   2.062  0.4094 -0.8289  0.4402
 6110SOL     OW29008   8.138   9.552   2.674 -0.3503 -0.1376 -0.1818
 6110SOL    HW129009   8.183   9.638   2.649  1.9609 -0.0953  3.7374
 6110SOL    HW229010   8.078   9.566   2.752  1.6439 -2.3895  1.8638
 6111SOL     OW29011   4.758   0.994   4.535  0.6243  0.4820  0.2071
 6111SOL    HW129012   4.731   0.898   4.539  1.7930  0.0992 -0.6498
 6111SOL    HW229013   4.715   1.037   4.455  0.2984  0.6074  0.4494
 6112SOL     OW29014   3.848   1.369   4.794 -0.7355 -0.1324  0.1621
 6112SOL    HW129015   3.804   1.362   4.704 -0.8148 -1.5284  0.2926
 6112SOL    HW229016   3.930   1.426   4.786 -2.1360  1.8743 -0.2317
 6113SOL     OW29017   8.328   1.627   1.476 -0.1564 -0.5191  0.1974
 6113SOL    HW129018   8.372   1.619   1.387 -2.6551  1.2319 -1.2466
 6113SOL    HW229019   8.259   1.556   1.487 -0.3890 -0.2648  0.4162
 6114SOL     OW29020   2.164   4.758   0.792  0.6301 -0.7625 -0.1121
 6114SOL    HW129021   2.131   4.749   0.698 -0.7365  2.1890 -0.0034
 6114SOL    HW229022   2.087   4.748   0.855  0.4300  2.7736  0.3335
 6115SOL     OW29023   1.990   2.723   4.994 -0.4045  0.3550  0.0922
 6115SOL    HW129024   1.985   2.818   4.964 -0.4425  0.3628  0.1218
 6115SOL    HW229025   2.016   2.720   5.090 -0.0583  0.3217 -0.0036
 6116SOL     OW29026   7.308   6.704   3.376  0.1020  0.0992 -0.0276
 6116SOL    HW129027   7.294   6.643   3.298  0.2170 -1.3063  1.0186
 6116SOL    HW229028   7.402   6.738   3.376 -0.3493  1.3580 -1.3682
 6117SOL     OW29029   9.209   1.833   2.728  0.3481  0.0629 -0.0522
 6117SOL    HW129030   9.309   1.835   2.729  0.3288  2.5012  0.7057
 6117SOL    HW229031   9.175   1.790   2.812  0.7427  0.0874  0.1217
 6118SOL     OW29032   2.432   7.080   3.177  0.2016  0.2031  0.2352
 6118SOL    HW129033   2.452   7.178   3.183  0.3133  0.2322 -0.5480
 6118SOL    HW229034   2.499   7.036   3.117  0.7209 -0.5233  1.3269
 6119SOL     OW29035   0.629   0.946   1.497  0.1080  0.2766  0.3698
 6119SOL    HW129036   0.532   0.925   1.492 -0.1279  1.3682  0.1678
 6119SOL    HW229037   0.650   0.983   1.588  0.3885 -0.2275  0.5100
 6120SOL     OW29038   3.957   3.676   5.627 -0.2265  0.2871  0.4585
 6120SOL    HW129039   4.039   3.651   5.678 -0.5346  0.2142  0.9291
 6120SOL    HW229040   3.900   3.595   5.614 -1.7096  0.8782  2.8705
 6121SOL     OW29041   1.215   7.286   4.041 -0.2276 -0.1890 -0.3685
 6121SOL    HW129042   1.177   7.338   3.964  0.8778  1.3399  0.0869
 6121SOL    HW229043   1.233   7.192   4.012 -0.7848  0.0996 -1.6849
 6122SOL     OW29044   9.570   9.929   3.051 -0.0412  0.3120 -0.0116
 6122SOL    HW129045   9.622   9.989   2.990  1.1986  0.8858  1.5662
 6122SOL    HW229046   9.564   9.970   3.142 -0.8813 -1.0444  0.5755
 6123SOL     OW29047   6.830   8.269   3.877  0.2246  0.0501 -0.4883
 6123SOL    HW129048   6.924   8.288   3.847  0.4828 -3.1541 -1.9376
 6123SOL    HW229049   6.766   8.320   3.821  1.0056  0.5506 -0.9407
 6124SOL     OW29050   7.338   6.479   2.651  1.2061  0.5398  0.0155
 6124SOL    HW129051   7.386   6.428   2.723 -0.0074  0.1210  0.5458
 6124SOL    HW229052   7.364   6.576   2.656  0.1187  0.7533  1.8955
 6125SOL     OW29053   8.549   1.966   0.074  0.7105  0.9444 -0.0818
 6125SOL    HW129054   8.473   2.029   0.061  1.1532  1.1306 -1.9217
 6125SOL    HW229055   8.520   1.890   0.132 -1.0291  0.7436 -1.1932
 6126SOL     OW29056   7.419   0.911   4.613 -0.2857  0.0596 -0.1585
 6126SOL    HW129057   7.519   0.902   4.615 -0.3286 -0.3753  0.0144
 6126SOL    HW229058   7.389   0.922   4.518  0.0261  1.3701 -0.1189
 6127SOL     OW29059   8.499   8.195   1.523 -0.3229  0.1666 -0.5146
 6127SOL    HW129060   8.509   8.182   1.622 -0.4515  0.1895 -0.4992
 6127SOL    HW229061   8.585   8.232   1.486  0.2584 -1.2951 -0.6625
 6128SOL     OW29062   7.690   9.818   5.153 -0.2483 -0.7658  0.7046
 6128SOL    HW129063   7.627   9.865   5.214 -1.4036 -3.0360  1.3426
 6128SOL    HW229064   7.656   9.823   5.059  0.2086  0.5784  0.6055
 6129SOL     OW29065   6.404   1.001   4.067  0.2345 -0.3064 -0.1056
 6129SOL    HW129066   6.362   0.940   4.000 -1.4603  0.2166  0.4527
 6129SOL    HW229067   6.348   1.003   4.150  1.0421  0.8915  0.4254
 6130SOL     OW29068   2.191   0.715   4.472  0.6204 -0.2587 -0.5212
 6130SOL    HW129069   2.236   0.804   4.463  1.3268 -0.6775 -1.1154
 6130SOL    HW229070   2.216   0.674   4.560  1.4444 -0.5146 -0.8731
 6131SOL     OW29071   0.298   2.582   2.279  0.6134 -0.3028 -0.4200
 6131SOL    HW129072   0.318   2.485   2.265  1.9337  0.0947 -1.3502
 6131SOL    HW229073   0.230   2.592   2.352  0.9686 -1.8899  0.1408
 6132SOL     OW29074   2.335   7.604   4.875 -0.4785 -0.5166 -0.0174
 6132SOL    HW129075   2.292   7.667   4.940 -1.1973 -0.5509 -0.4535
 6132SOL    HW229076   2.420   7.645   4.841 -0.3893 -0.2516  0.5150
 6133SOL     OW29077   3.810   4.330   0.872  0.0724 -0.8201  0.7602
 6133SOL    HW129078   3.864   4.395   0.926  3.5127 -2.0059 -1.1127
 6133SOL    HW229079   3.837   4.236   0.896 -0.8699 -1.4310 -0.4951
 6134SOL     OW29080   8.668   1.280   2.850  0.5473 -0.2423 -0.2402
 6134SOL    HW129081   8.745   1.273   2.786 -0.6209  1.0131 -1.8083
 6134SOL    HW229082   8.589   1.319   2.803 -1.7062 -3.3991  0.7920
 6135SOL     OW29083   8.510   8.337   1.793  0.2024 -0.0375 -0.6275
 6135SOL    HW129084   8.411   8.348   1.790 -0.0423 -2.2924 -3.1393
 6135SOL    HW229085   8.553   8.424   1.815 -2.3127  1.1319 -0.2413
 6136SOL     OW29086   3.223   8.899   4.793  0.4341 -0.7540  0.1488
 6136SOL    HW129087   3.176   8.867   4.875 -0.8295 -1.0851 -0.6880
 6136SOL    HW229088   3.313   8.934   4.818 -0.0047 -0.6849  1.7009
 6137SOL     OW29089   0.722   2.168   3.437  0.1332  0.1082 -0.2137
 6137SOL    HW129090   0.629   2.140   3.460  0.2460  0.6711  0.9554
 6137SOL    HW229091   0.734   2.265   3.457  0.7827  0.1894 -0.9660
 6138SOL     OW29092   3.742   9.482   3.793 -0.0619 -0.2502  0.0186
 6138SOL    HW129093   3.812   9.413   3.775 -0.2655 -0.2871 -0.6889
 6138SOL    HW229094   3.653   9.438   3.807 -0.0688 -0.1698  0.2307
 6139SOL     OW29095   5.088   8.082   3.748  0.7815  0.2859 -0.1786
 6139SOL    HW129096   5.087   8.011   3.818  1.0705 -0.0915 -0.5483
 6139SOL    HW229097   5.045   8.047   3.665  1.3422  0.3755 -0.5152
 6140SOL     OW29098   5.679   0.697   0.656 -0.1534  0.2034 -0.1441
 6140SOL    HW129099   5.683   0.653   0.746 -0.4459 -0.1329 -0.2951
 6140SOL    HW229100   5.769   0.689   0.612 -0.0065  0.3814  0.1218
 6141SOL     OW29101   9.211   2.117   1.073 -0.0433 -0.0175  0.2139
 6141SOL    HW129102   9.283   2.131   1.006  0.0213 -0.4359  0.1974
 6141SOL    HW229103   9.184   2.021   1.074  1.3132 -0.4007  2.1651
 6142SOL     OW29104   1.563   6.265   2.119 -0.1295 -0.1437 -0.8906
 6142SOL    HW129105   1.593   6.340   2.179 -2.1801 -1.1159  1.4590
 6142SOL    HW229106   1.586   6.287   2.024  1.1116  2.5324 -0.0359
 6143SOL     OW29107   3.299   8.493   3.200 -0.5041  0.3198 -0.1653
 6143SOL    HW129108   3.213   8.509   3.247 -0.4112 -1.1439  0.5265
 6143SOL    HW229109   3.282   8.442   3.115 -0.6049  2.4290 -1.4624
 6144SOL     OW29110   7.675   2.380   1.302  0.2090  0.7110 -0.0072
 6144SOL    HW129111   7.592   2.325   1.312  1.2845 -1.0095 -0.3302
 6144SOL    HW229112   7.688   2.437   1.383 -1.3610  1.1004 -0.0245
 6145SOL     OW29113   8.775   6.260   1.750 -0.2885  0.3869  0.3777
 6145SOL    HW129114   8.804   6.351   1.720  0.5138  0.8087  2.3067
 6145SOL    HW229115   8.706   6.224   1.687 -0.4652  2.2416 -0.5290
 6146SOL     OW29116   8.582   9.163   3.871 -0.0727  0.2969  0.1630
 6146SOL    HW129117   8.493   9.180   3.913  0.1531 -0.3755  0.9222
 6146SOL    HW229118   8.579   9.190   3.775 -1.4636 -0.8198 -0.1356
 6147SOL     OW29119   2.357   3.026   1.101 -0.1751  0.0365  0.5102
 6147SOL    HW129120   2.377   2.929   1.116 -1.3107 -0.0711  1.3926
 6147SOL    HW229121   2.412   3.081   1.164  1.4277  0.0510 -0.8696
 6148SOL     OW29122   9.896   0.806   2.741 -0.6608  0.2104  0.8477
 6148SOL    HW129123   9.941   0.795   2.830  0.5574  1.0269  0.3445
 6148SOL    HW229124   9.956   0.857   2.679 -2.8028  2.5029  0.5628
 6149SOL     OW29125   8.521   1.642   2.109 -0.0169 -0.1029  0.0535
 6149SOL    HW129126   8.485   1.728   2.145 -1.5679 -0.8652  0.3616
 6149SOL    HW229127   8.598   1.661   2.047 -2.1878  1.6945 -2.1745
 6150SOL     OW29128   9.132   7.629   1.437  0.0008 -0.3721 -0.1717
 6150SOL    HW129129   9.168   7.570   1.509  0.7518 -0.1796 -0.3804
 6150SOL    HW229130   9.198   7.703   1.419 -0.0448 -0.5950 -1.2653
 6151SOL     OW29131   9.652   8.913   2.417 -0.7206  0.3471 -0.1402
 6151SOL    HW129132   9.588   8.866   2.356 -2.1893  3.4424 -1.0978
 6151SOL    HW229133   9.721   8.961   2.363  1.2637 -1.2969  0.8476
 6152SOL     OW29134   3.051   3.636   1.723 -0.2799 -0.2225  0.2119
 6152SOL    HW129135   3.122   3.690   1.678 -0.4321  0.4009  0.7262
 6152SOL    HW229136   2.961   3.668   1.695 -0.3951  1.0426  1.9773
 6153SOL     OW29137   2.212   9.869   0.757 -0.3836  0.0710 -0.6646
 6153SOL    HW129138   2.164   9.805   0.816 -1.2202  0.3448 -1.0463
 6153SOL    HW229139   2.305   9.883   0.792  0.1176 -2.0249 -1.0893
 6154SOL     OW29140   0.876   5.509   1.247  0.9825  0.3771 -0.4859
 6154SOL    HW129141   0.841   5.419   1.219 -0.1534  0.5368  0.3805
 6154SOL    HW229142   0.844   5.578   1.182 -0.4854  0.5454  0.3907
 6155SOL     OW29143   8.282   9.214   3.419  0.2709  0.0529  0.2675
 6155SOL    HW129144   8.338   9.137   3.451  1.2997  0.3717 -0.7127
 6155SOL    HW229145   8.196   9.216   3.469 -0.5207 -2.7857 -0.8367
 6156SOL     OW29146   3.340   0.913   3.233 -0.0884  0.2354 -0.3856
 6156SOL    HW129147   3.299   0.838   3.285 -0.2675  0.0748 -0.7572
 6156SOL    HW229148   3.440   0.909   3.241 -0.1188  0.2333 -0.0242
 6157SOL     OW29149   4.474   0.383   0.262  0.7183  0.2790 -0.0954
 6157SOL    HW129150   4.387   0.379   0.212  1.1435 -1.2721 -0.7564
 6157SOL    HW229151   4.467   0.451   0.335 -0.3730  1.6056 -1.3941
 6158SOL     OW29152   4.618   5.438   1.754 -0.0941 -0.1630  0.1185
 6158SOL    HW129153   4.709   5.411   1.723 -0.0933 -1.6058  1.3302
 6158SOL    HW229154   4.614   5.537   1.765  1.1076 -0.0266 -0.6010
 6159SOL     OW29155   3.152   3.561   4.742  0.3411 -0.0414 -0.2227
 6159SOL    HW129156   3.069   3.519   4.705 -0.9632  3.2491 -1.1857
 6159SOL    HW229157   3.210   3.593   4.666  1.1730  0.1594  0.4915
 6160SOL     OW29158   1.441   2.257   0.212  0.0628 -0.0300  0.3375
 6160SOL    HW129159   1.531   2.219   0.233 -0.3190 -1.2431 -0.1737
 6160SOL    HW229160   1.444   2.357   0.219  2.2690  0.1835 -2.7112
 6161SOL     OW29161   8.361   7.650   3.475 -0.2628  0.0915 -0.0644
 6161SOL    HW129162   8.416   7.656   3.391 -0.4766 -1.1466 -0.3099
 6161SOL    HW229163   8.389   7.569   3.527 -2.3152 -0.9653 -0.5501
 6162SOL     OW29164   7.754   0.023   4.645  0.0027  0.5503 -0.1543
 6162SOL    HW129165   7.821   0.011   4.718 -0.5249  0.4276  0.3107
 6162SOL    HW229166   7.662   0.025   4.684 -0.3097  0.0593 -0.8548
 6163SOL     OW29167   4.064   6.134   1.228 -0.1142  0.4710  0.4752
 6163SOL    HW129168   4.118   6.060   1.266 -0.2703  0.8677  1.4853
 6163SOL    HW229169   4.122   6.214   1.213 -0.0896  0.3743  0.0305
 6164SOL     OW29170   0.017   0.122   3.139  0.9308  0.1731 -0.2682
 6164SOL    HW129171  -0.014   0.147   3.231  1.2092 -1.1314  0.1902
 6164SOL    HW229172  -0.062   0.123   3.077  1.0202  2.6909 -0.4023
 6165SOL     OW29173   2.323   6.497   5.271  0.3530 -0.3360 -0.5048
 6165SOL    HW129174   2.275   6.509   5.184  0.1441  2.1742 -0.0598
 6165SOL    HW229175   2.421   6.486   5.253  0.4982  1.5965 -0.9990
 6166SOL     OW29176   7.264   0.522   3.820  0.3745  0.6446 -0.3660
 6166SOL    HW129177   7.352   0.497   3.862 -0.1792  1.5035  1.3632
 6166SOL    HW229178   7.233   0.448   3.761  1.2266 -0.5686  0.6737
 6167SOL     OW29179   1.492   5.638   2.967  0.5523  0.3520 -0.5420
 6167SOL    HW129180   1.539   5.670   2.885  1.6328  0.7946  0.2363
 6167SOL    HW229181   1.528   5.685   3.047 -1.3533  0.8217  0.0653
 6168SOL     OW29182   9.870   7.086   2.594  0.0713 -0.2161  0.0021
 6168SOL    HW129183   9.880   7.176   2.635  1.1711 -0.0222 -0.6537
 6168SOL    HW229184   9.773   7.060   2.591 -0.2388  0.9065  0.2560
 6169SOL     OW29185   9.093   0.072   0.727 -0.1892  0.0850 -0.3355
 6169SOL    HW129186   9.130  -0.008   0.680  0.0336 -0.1241  0.1905
 6169SOL    HW229187   9.010   0.103   0.680  0.0148 -0.1313 -0.8539
 6170SOL     OW29188   0.093   1.257   1.487 -0.1563  0.4556  0.0855
 6170SOL    HW129189   0.173   1.284   1.433 -0.9548  0.0548 -1.3206
 6170SOL    HW229190   0.122   1.228   1.577  1.3692 -0.3869 -0.6639
 6171SOL     OW29191   2.132   2.190   2.175  0.2789  0.0333  0.3944
 6171SOL    HW129192   2.127   2.090   2.183  1.0938  0.0421  1.1810
 6171SOL    HW229193   2.197   2.215   2.104  0.2505  0.0069  0.3591
 6172SOL     OW29194   9.850   9.251   5.321 -0.3294  0.0672 -0.1738
 6172SOL    HW129195   9.764   9.297   5.302  0.0113  0.4703 -0.7936
 6172SOL    HW229196   9.843   9.155   5.294 -0.8284 -0.0801  0.4905
 6173SOL     OW29197   9.546   0.653   3.291  0.6445  0.1026 -0.2843
 6173SOL    HW129198   9.593   0.633   3.377 -0.6278 -0.8086  0.2100
 6173SOL    HW229199   9.572   0.585   3.222  0.2323 -0.2580 -0.0823
 6174SOL     OW29200   3.761   7.235   2.264  0.3003 -0.1417  0.1946
 6174SOL    HW129201   3.687   7.168   2.262 -0.1049  0.2676  1.1579
 6174SOL    HW229202   3.728   7.320   2.306  0.6176  0.9025 -1.6369
 6175SOL     OW29203   5.193   9.482   3.301  0.2064  0.1210  0.2402
 6175SOL    HW129204   5.118   9.547   3.307  2.4483  2.9320 -0.9161
 6175SOL    HW229205   5.279   9.531   3.285  2.3338 -2.9671  1.5418
 6176SOL     OW29206   4.774   3.345   0.726  0.0116 -0.5562  1.0248
 6176SOL    HW129207   4.699   3.284   0.752  0.7855 -2.3462 -0.7739
 6176SOL    HW229208   4.738   3.437   0.709 -1.7239 -1.2841  0.6285
 6177SOL     OW29209   8.618   1.655   0.645  0.0040  0.4777  0.1684
 6177SOL    HW129210   8.536   1.639   0.700 -0.4694 -1.4205 -1.0504
 6177SOL    HW229211   8.599   1.727   0.578 -0.6952 -0.0065 -0.1616
 6178SOL     OW29212   9.132   1.781   3.602  0.1219 -0.1024 -1.0602
 6178SOL    HW129213   9.189   1.795   3.684  0.1603  1.6644 -1.3689
 6178SOL    HW229214   9.188   1.792   3.520 -0.7530  2.1157 -1.3774
 6179SOL     OW29215   8.698   4.459   1.832  0.3389  0.0350 -0.3536
 6179SOL    HW129216   8.711   4.361   1.815 -0.6167 -0.4319  1.4660
 6179SOL    HW229217   8.610   4.488   1.794  0.5359  0.1598 -0.7230
 6180SOL     OW29218   8.150   3.948   1.889 -0.4554  0.1123 -0.0786
 6180SOL    HW129219   8.077   4.004   1.849  1.1902  1.9198 -0.6228
 6180SOL    HW229220   8.180   3.989   1.975 -0.6735 -1.1057  0.5840
 6181SOL     OW29221   2.703   0.930   0.735 -0.6623  0.0466  0.3216
 6181SOL    HW129222   2.637   0.862   0.702 -0.4161  0.0023 -0.0802
 6181SOL    HW229223   2.655   1.012   0.766 -0.8975  0.0492 -0.0559
 6182SOL     OW29224   0.042   4.915   2.909  0.7291  0.0418  0.2004
 6182SOL    HW129225   0.118   4.955   2.857  1.1626  0.8206  1.4100
 6182SOL    HW229226   0.058   4.928   3.007 -1.3388  0.9285  0.4566
 6183SOL     OW29227   0.054   8.163   2.300 -0.0506  0.2304 -0.6370
 6183SOL    HW129228   0.116   8.212   2.361 -0.3668 -0.8579  0.5808
 6183SOL    HW229229   0.068   8.064   2.312  0.7354  0.0014 -3.2084
 6184SOL     OW29230   6.455   1.769   3.478 -0.0434  0.0954 -0.1596
 6184SOL    HW129231   6.491   1.677   3.465 -0.9914  0.1114 -3.3961
 6184SOL    HW229232   6.508   1.834   3.423 -1.3512  0.9928 -0.3834
 6185SOL     OW29233   2.387   6.701   4.555  0.5169  0.9759  0.3596
 6185SOL    HW129234   2.399   6.722   4.458  1.8490  0.7336  0.4506
 6185SOL    HW229235   2.323   6.625   4.566  0.5064  0.8838 -0.3438
 6186SOL     OW29236   7.118   9.598   2.229  0.0413  0.0487  0.4489
 6186SOL    HW129237   7.172   9.646   2.161  0.5607  0.9608  1.4882
 6186SOL    HW229238   7.175   9.532   2.277 -0.0188  0.2646  0.8217
 6187SOL     OW29239   1.142   0.238   2.526 -0.2658 -0.2678 -0.2249
 6187SOL    HW129240   1.048   0.230   2.559  0.1150  2.0923  1.5416
 6187SOL    HW229241   1.167   0.334   2.520  1.8033 -0.8546 -1.4528
 6188SOL     OW29242   8.931   3.727   1.786  0.3202 -0.4070  0.3355
 6188SOL    HW129243   8.878   3.676   1.719  1.1731 -0.8393 -0.0213
 6188SOL    HW229244   8.895   3.709   1.878 -0.2825 -0.5208  0.0770
 6189SOL     OW29245   9.266   8.507   0.623 -0.1363  0.0359  0.4102
 6189SOL    HW129246   9.363   8.485   0.617 -0.3859 -0.8945 -0.3742
 6189SOL    HW229247   9.239   8.515   0.719  0.3504 -1.4226  0.6893
 6190SOL     OW29248   3.803   1.023   5.117 -0.1315 -0.3367  0.3487
 6190SOL    HW129249   3.752   1.063   5.041  0.1118 -1.1503 -0.2523
 6190SOL    HW229250   3.739   0.985   5.184 -0.3268 -0.7206 -0.0549
 6191SOL     OW29251   7.903   0.862   3.990  0.3646  0.7463  0.4427
 6191SOL    HW129252   7.956   0.927   4.044  0.1195  0.8026  0.6142
 6191SOL    HW229253   7.853   0.911   3.918  0.0233  0.7710  0.6968
 6192SOL     OW29254   1.028   7.206   3.098 -0.7527 -0.3728  0.0419
 6192SOL    HW129255   1.070   7.285   3.142 -1.8196  1.2535 -1.7343
 6192SOL    HW229256   1.096   7.157   3.044 -0.1406 -0.5262  0.9503
 6193SOL     OW29257   2.046   5.225   1.089  0.2345 -0.0812  0.0264
 6193SOL    HW129258   2.030   5.292   1.016 -1.6437  0.5389  0.9738
 6193SOL    HW229259   2.145   5.215   1.104  0.5708  1.9618 -0.6123
 6194SOL     OW29260   2.873   3.137   3.011  0.2824 -0.4372  0.2091
 6194SOL    HW129261   2.869   3.039   3.030  0.9361  0.1248  3.6245
 6194SOL    HW229262   2.781   3.175   3.005  0.0318 -1.2376 -1.1320
 6195SOL     OW29263   0.807   8.601   3.279  0.1650 -0.4010  0.1170
 6195SOL    HW129264   0.896   8.623   3.320  0.1818 -0.5970  0.1896
 6195SOL    HW229265   0.801   8.642   3.188  0.9424 -1.6567 -0.5149
 6196SOL     OW29266   3.825   9.220   2.914 -0.4935  0.1760 -0.5059
 6196SOL    HW129267   3.761   9.218   2.991  0.8333 -0.0339  0.6057
 6196SOL    HW229268   3.774   9.233   2.828 -2.1108 -1.1002  0.2501
 6197SOL     OW29269   2.737   2.951   2.042 -0.0524 -0.2140  0.1513
 6197SOL    HW129270   2.807   2.996   1.987  0.8716 -2.3344 -0.4754
 6197SOL    HW229271   2.770   2.941   2.136  0.4714 -1.1325 -0.1229
 6198SOL     OW29272   1.238   8.454   3.607  0.1269  0.0184 -0.8829
 6198SOL    HW129273   1.261   8.395   3.683  2.2516  3.0786  0.9495
 6198SOL    HW229274   1.316   8.460   3.544 -0.9786 -1.0711 -2.4021
 6199SOL     OW29275   1.787   7.603   5.291  0.4128  0.2860 -0.0744
 6199SOL    HW129276   1.726   7.673   5.328 -0.5753 -1.3652  1.5071
 6199SOL    HW229277   1.751   7.571   5.204 -0.5230 -0.0517  0.4265
 6200SOL     OW29278   4.516   3.951   5.438  0.2225  0.4434  0.3128
 6200SOL    HW129279   4.451   3.918   5.507 -0.1308 -0.9498 -0.6734
 6200SOL    HW229280   4.466   3.991   5.362  0.5789  1.0095  0.3782
 6201SOL     OW29281   2.321   4.927   0.431 -0.1610  0.0322 -0.3323
 6201SOL    HW129282   2.352   5.018   0.461 -0.3361  0.0760 -0.2874
 6201SOL    HW229283   2.258   4.936   0.354 -0.5398 -0.0264 -0.0302
 6202SOL     OW29284   1.092   1.924   5.276  0.1805 -0.0351 -0.2990
 6202SOL    HW129285   1.082   1.843   5.334 -1.2029 -0.3892 -1.0002
 6202SOL    HW229286   1.189   1.943   5.261  0.5162 -1.6670 -0.2670
 6203SOL     OW29287   4.704   0.222   4.345  0.5285 -0.1847 -0.5166
 6203SOL    HW129288   4.625   0.162   4.357  0.1095  0.6517  1.1380
 6203SOL    HW229289   4.705   0.259   4.253  0.2608 -1.9743 -1.2498
 6204SOL     OW29290   5.340   9.475   3.550 -0.0614  0.1905 -0.2670
 6204SOL    HW129291   5.344   9.375   3.558 -0.8784  0.1635 -0.2266
 6204SOL    HW229292   5.317   9.500   3.457  0.2095  0.3495 -0.2935
 6205SOL     OW29293   1.988   7.943   3.030  0.5362  0.0779  0.3779
 6205SOL    HW129294   1.937   7.976   3.110  1.4432 -0.7513  1.3149
 6205SOL    HW229295   1.938   7.867   2.988  0.7856 -0.4696  1.0565
 6206SOL     OW29296   8.715   2.036   0.283 -0.1514 -0.1405 -0.5102
 6206SOL    HW129297   8.630   2.031   0.230  0.0288 -3.5090 -0.5365
 6206SOL    HW229298   8.793   2.027   0.222  0.1083 -1.5668  0.0176
 6207SOL     OW29299   2.873   6.223   1.133  0.3035 -0.3536  0.0108
 6207SOL    HW129300   2.870   6.287   1.056  1.4866 -2.1627 -1.5807
 6207SOL    HW229301   2.959   6.235   1.183 -0.6553  1.1246  1.3621
 6208SOL     OW29302   3.696   8.835   3.890 -0.2590  0.1329  0.0059
 6208SOL    HW129303   3.663   8.764   3.827  1.0789  0.4140 -1.0443
 6208SOL    HW229304   3.781   8.804   3.933 -1.3377 -0.1937  1.9500
 6209SOL     OW29305   1.323   1.183   4.865 -0.1014  0.2302 -0.5794
 6209SOL    HW129306   1.223   1.173   4.862  0.0458 -1.6049 -0.3801
 6209SOL    HW229307   1.355   1.226   4.781 -0.8382 -1.5612 -1.8149
 6210SOL     OW29308   9.712   2.863   3.740  0.0140 -0.1928 -0.5162
 6210SOL    HW129309   9.673   2.772   3.736  0.6281 -0.4968  0.3291
 6210SOL    HW229310   9.639   2.931   3.736 -0.6852 -0.7549  1.8754
 6211SOL     OW29311   7.104   7.561   3.518 -0.4229  0.3545 -0.6891
 6211SOL    HW129312   7.190   7.553   3.468 -0.7923 -2.0443 -1.0028
 6211SOL    HW229313   7.121   7.547   3.615 -0.3902  0.4278 -0.6838
 6212SOL     OW29314   1.956   3.964   5.050 -0.0301 -0.1361 -0.3010
 6212SOL    HW129315   1.913   4.053   5.066  0.4251  0.0235  0.0650
 6212SOL    HW229316   1.944   3.907   5.132 -2.1123 -1.1635 -1.2810
 6213SOL     OW29317   4.186   9.364   4.099  0.3525 -0.2522  0.5704
 6213SOL    HW129318   4.138   9.434   4.150  1.7309  0.0280  1.4902
 6213SOL    HW229319   4.260   9.326   4.154  0.0604 -1.9515 -0.1602
 6214SOL     OW29320   8.708   0.131   5.013 -0.0898  0.1572 -0.5875
 6214SOL    HW129321   8.680   0.150   4.919  1.4725  2.4653 -0.6367
 6214SOL    HW229322   8.638   0.077   5.059 -0.4539 -1.8018 -3.3425
 6215SOL     OW29323   8.049   1.339   0.378  0.2270 -0.0785  0.0004
 6215SOL    HW129324   8.110   1.278   0.428  1.0594  0.2694 -0.5772
 6215SOL    HW229325   8.092   1.429   0.369 -0.1343  0.0092 -0.8872
 6216SOL     OW29326   2.709   4.252   1.488 -0.4918 -0.1821  0.2359
 6216SOL    HW129327   2.615   4.225   1.469 -0.9609 -0.5051  2.8387
 6216SOL    HW229328   2.771   4.179   1.456 -1.2567 -0.9402  0.4640
 6217SOL     OW29329   3.501   8.151   0.829 -0.2189  0.4770  0.2486
 6217SOL    HW129330   3.571   8.082   0.843  1.0152  1.3753 -1.3611
 6217SOL    HW229331   3.434   8.117   0.761  0.6961  1.0657 -0.9626
 6218SOL     OW29332   9.821   3.735   3.272  0.5185 -0.4030 -0.0371
 6218SOL    HW129333   9.903   3.678   3.279  0.3724 -0.8509 -1.6657
 6218SOL    HW229334   9.747   3.681   3.231  0.5394  1.0921 -2.1359
 6219SOL     OW29335   8.428   9.413   4.278  0.0486  0.1694 -0.3678
 6219SOL    HW129336   8.402   9.321   4.249 -0.3045 -0.6616  2.3836
 6219SOL    HW229337   8.527   9.417   4.291  0.1168  0.3156 -0.9323
 6220SOL     OW29338   5.400   0.613   2.832 -0.0897  0.1864  0.8262
 6220SOL    HW129339   5.458   0.541   2.793 -0.0797  0.0213  1.1425
 6220SOL    HW229340   5.375   0.678   2.760 -0.2913 -0.2628  0.4810
 6221SOL     OW29341   0.800   0.935   2.967  0.2129  0.1100 -0.0921
 6221SOL    HW129342   0.764   0.925   3.060  0.9315  1.3354  0.3293
 6221SOL    HW229343   0.800   0.846   2.922 -1.5964 -0.2390  0.5357
 6222SOL     OW29344   0.165   2.579   5.318  0.1677 -0.0018 -0.4815
 6222SOL    HW129345   0.084   2.571   5.260  0.3031  0.3389 -0.7198
 6222SOL    HW229346   0.240   2.620   5.265  0.5006 -0.3308 -0.2679
 6223SOL     OW29347   7.503   6.515   2.333  0.3024  1.0274 -0.1734
 6223SOL    HW129348   7.405   6.506   2.314  0.0938  0.5449  1.0861
 6223SOL    HW229349   7.554   6.449   2.280 -0.1449  0.6254 -0.1047
 6224SOL     OW29350   1.800   0.383   5.024  0.4152 -0.1354 -0.0757
 6224SOL    HW129351   1.806   0.357   4.928 -1.6852  1.3488 -0.6516
 6224SOL    HW229352   1.780   0.481   5.031  1.3344 -0.0605  1.8897
 6225SOL     OW29353   8.198   8.919   1.392  0.1556  0.5958 -0.3416
 6225SOL    HW129354   8.242   8.829   1.392  1.2278  1.1082  0.3266
 6225SOL    HW229355   8.108   8.912   1.433 -0.6985 -0.6038 -2.3713
 6226SOL     OW29356   3.064   0.225   0.345 -0.3193  0.6691  0.4618
 6226SOL    HW129357   3.007   0.216   0.263 -3.0190  1.6052  2.1593
 6226SOL    HW229358   3.148   0.173   0.333 -0.0857  1.7892 -3.3800
 6227SOL     OW29359   3.134   3.787   0.206  0.0193 -0.4660  0.0026
 6227SOL    HW129360   3.095   3.784   0.298  0.0734 -1.5467  0.0029
 6227SOL    HW229361   3.071   3.833   0.144  0.5879  1.5364  0.8533
 6228SOL     OW29362   9.313   2.670   0.791  0.0925 -0.1070 -0.0962
 6228SOL    HW129363   9.341   2.729   0.867  1.0802  1.0788 -1.3641
 6228SOL    HW229364   9.391   2.614   0.762 -0.5185 -1.1949  0.3126
 6229SOL     OW29365   2.721   2.256   0.108  0.1940  0.3812 -0.4363
 6229SOL    HW129366   2.747   2.293   0.197 -1.1947  0.8632 -0.2226
 6229SOL    HW229367   2.766   2.309   0.035 -1.4085  2.2240 -0.1187
 6230SOL     OW29368   8.584   9.183   4.473  0.4064 -0.1696 -0.0174
 6230SOL    HW129369   8.549   9.090   4.467  1.7882 -0.6894 -0.1222
 6230SOL    HW229370   8.657   9.196   4.406  2.2614  0.0595  2.0092
 6231SOL     OW29371   4.019   8.465   3.619 -0.0850 -0.0407 -0.1881
 6231SOL    HW129372   4.115   8.475   3.644 -0.0312  0.4521 -0.5818
 6231SOL    HW229373   3.980   8.555   3.600 -0.4672 -0.2976 -0.6197
 6232SOL     OW29374   4.336   2.935   4.082  0.4607  0.2941 -0.2528
 6232SOL    HW129375   4.350   3.018   4.027  1.5167 -0.2338 -0.7937
 6232SOL    HW229376   4.287   2.959   4.166  0.0863  1.3428 -0.7514
 6233SOL     OW29377   2.487   0.197   3.742 -0.3913  0.7664 -0.3719
 6233SOL    HW129378   2.513   0.187   3.646 -0.3259  2.3054 -0.5315
 6233SOL    HW229379   2.558   0.249   3.790 -0.1735 -0.4320  0.6361
 6234SOL     OW29380   2.171   7.375   1.891  0.6023 -0.5209  0.1606
 6234SOL    HW129381   2.176   7.469   1.925 -1.0359  0.2530 -1.5829
 6234SOL    HW229382   2.176   7.311   1.967 -3.7419  1.1259  2.0446
 6235SOL     OW29383   4.280   0.756   4.704  0.3815  0.6164  0.1523
 6235SOL    HW129384   4.350   0.686   4.720  0.3143  0.5011 -0.0612
 6235SOL    HW229385   4.248   0.791   4.792  1.6933  1.6544  0.2406
 6236SOL     OW29386   2.696   5.219   2.400 -0.2076 -0.0182 -0.1885
 6236SOL    HW129387   2.610   5.267   2.382  0.8298  1.3704 -1.6535
 6236SOL    HW229388   2.708   5.208   2.498 -1.6820  0.4508  0.0665
 6237SOL     OW29389   9.360   1.062   3.053 -0.0851 -0.4234  0.2877
 6237SOL    HW129390   9.265   1.053   3.023 -0.3836 -1.5410  1.5215
 6237SOL    HW229391   9.379   1.158   3.076 -1.5630 -0.5522  2.1212
 6238SOL     OW29392   0.397   6.609   1.359 -0.2378 -0.0942 -0.3854
 6238SOL    HW129393   0.326   6.548   1.323 -1.7115  0.3634  1.6523
 6238SOL    HW229394   0.359   6.664   1.433  2.3495 -0.0925  0.9965
 6239SOL     OW29395   9.915   6.005   3.199 -0.4127 -0.3794  0.2848
 6239SOL    HW129396   9.910   6.104   3.191 -0.0449 -0.3815  0.0541
 6239SOL    HW229397   9.825   5.970   3.227 -0.3339  0.0857  1.1265
 6240SOL     OW29398   9.148   5.014   3.039 -0.9349  0.1922  0.3678
 6240SOL    HW129399   9.113   5.064   2.959 -0.4888 -0.5365 -0.2962
 6240SOL    HW229400   9.170   5.078   3.112 -0.9730  0.9026 -0.2424
 6241SOL     OW29401   3.192   5.650   2.509 -0.0784  0.2009  0.3156
 6241SOL    HW129402   3.225   5.744   2.511 -1.5767  0.7473  0.1414
 6241SOL    HW229403   3.243   5.598   2.440  0.9850  0.7811  0.6469
 6242SOL     OW29404   4.334   7.810   5.067 -0.2971  0.5023  0.0536
 6242SOL    HW129405   4.254   7.858   5.102  0.0209 -0.4580  2.1446
 6242SOL    HW229406   4.417   7.854   5.102 -0.0106 -1.9302  2.5896
 6243SOL     OW29407   9.391   9.144   0.940  0.4174  0.3240 -0.6691
 6243SOL    HW129408   9.411   9.239   0.965  0.3859  0.0549  0.4419
 6243SOL    HW229409   9.300   9.120   0.974  1.7075 -1.0863  2.0100
 6244SOL     OW29410   3.315   1.381   2.401 -0.1696  0.0366 -0.0645
 6244SOL    HW129411   3.390   1.437   2.439 -0.0482  0.3364 -0.7416
 6244SOL    HW229412   3.340   1.350   2.310 -1.7770  2.0005 -1.2118
 6245SOL     OW29413   0.961   9.388   0.962  0.0711 -0.1276 -0.6581
 6245SOL    HW129414   0.984   9.292   0.973 -0.1708 -0.1116  0.0039
 6245SOL    HW229415   0.914   9.421   1.044 -0.1554  0.4620 -1.0230
 6246SOL     OW29416   9.514   9.030   3.090 -0.1203 -0.4480 -0.3690
 6246SOL    HW129417   9.509   9.027   2.990  1.2173  0.0509 -0.4595
 6246SOL    HW229418   9.455   8.959   3.128 -1.1479 -0.2053 -1.4955
 6247SOL     OW29419   1.453   7.020   0.401 -0.3994 -0.4214 -0.3101
 6247SOL    HW129420   1.536   7.073   0.384  0.4340 -1.0551  1.6583
 6247SOL    HW229421   1.378   7.056   0.344  0.5154  1.9067 -0.0987
 6248SOL     OW29422   2.526   2.545   1.343 -0.4549  0.0604 -0.2263
 6248SOL    HW129423   2.543   2.590   1.256 -0.9345  0.4615 -0.1113
 6248SOL    HW229424   2.588   2.581   1.412 -0.0875 -0.2445 -0.3921
 6249SOL     OW29425   3.125   3.074   3.412 -0.4846 -0.2968  0.0552
 6249SOL    HW129426   3.121   3.112   3.505 -1.1606 -0.1949 -0.0144
 6249SOL    HW229427   3.073   3.132   3.350 -0.1720 -0.4598 -0.3604
 6250SOL     OW29428   2.571   7.936   3.548 -0.9494 -0.3715 -0.3804
 6250SOL    HW129429   2.629   7.917   3.627 -1.6507  0.1161  0.2537
 6250SOL    HW229430   2.496   7.871   3.545 -0.5713 -0.7802 -1.0003
 6251SOL     OW29431   4.069   0.128   5.096  0.0511 -0.3014  0.0095
 6251SOL    HW129432   4.094   0.186   5.019 -0.2927 -0.1149  0.0367
 6251SOL    HW229433   4.050   0.185   5.176 -2.7824 -0.2771 -0.6467
 6252SOL     OW29434   0.402   2.959   1.130  0.5045 -0.4387 -0.3711
 6252SOL    HW129435   0.463   3.017   1.185  2.2803  0.1178 -2.8330
 6252SOL    HW229436   0.426   2.863   1.145  1.0218 -0.2939 -0.2442
 6253SOL     OW29437   1.747   1.511   0.582 -0.0293 -0.0535 -0.0332
 6253SOL    HW129438   1.690   1.586   0.546 -0.2780 -0.8656 -1.3839
 6253SOL    HW229439   1.730   1.429   0.528  2.3597 -0.3437 -0.3579
 6254SOL     OW29440   3.760   9.476   1.338  0.7355 -0.5395  0.5579
 6254SOL    HW129441   3.707   9.416   1.398 -0.1156  0.6169  1.0024
 6254SOL    HW229442   3.698   9.519   1.272  1.3957 -0.4754 -0.0183
 6255SOL     OW29443   7.458   8.647   1.078  0.6569  0.6314  0.1767
 6255SOL    HW129444   7.482   8.560   1.122 -2.5221 -0.0303  0.7236
 6255SOL    HW229445   7.451   8.719   1.147  0.4744  0.7048  0.0808
 6256SOL     OW29446   6.908   7.099   3.595 -0.5032 -0.7575  0.2218
 6256SOL    HW129447   6.930   7.191   3.563 -1.5777 -0.4540  0.3208
 6256SOL    HW229448   6.992   7.046   3.608  0.0819  0.0277 -0.3742
 6257SOL     OW29449   1.256   9.433   1.277  0.1792 -0.4044 -1.2508
 6257SOL    HW129450   1.351   9.430   1.309 -0.7080 -1.0384  1.4369
 6257SOL    HW229451   1.215   9.342   1.286 -0.5688 -0.2240 -2.7803
 6258SOL     OW29452   8.385   7.393   1.152 -0.3157  0.2385 -0.8507
 6258SOL    HW129453   8.368   7.389   1.053 -2.2689 -0.4141 -0.5095
 6258SOL    HW229454   8.347   7.478   1.188 -2.1708 -0.8352 -0.2154
 6259SOL     OW29455   7.853   0.827   2.560 -0.0158 -0.0753 -0.5696
 6259SOL    HW129456   7.810   0.739   2.541 -1.1927  0.2247  0.5821
 6259SOL    HW229457   7.789   0.885   2.610  0.7216  1.4740 -1.3853
 6260SOL     OW29458   0.277   1.352   0.584  0.1123 -0.2466  0.7710
 6260SOL    HW129459   0.372   1.385   0.579  0.9356 -2.8029 -3.9282
 6260SOL    HW229460   0.215   1.427   0.562  1.1380  0.9600  1.8853
 6261SOL     OW29461   2.589   8.827   3.359  0.0031 -0.0319  0.3927
 6261SOL    HW129462   2.562   8.853   3.266  0.7122 -1.7918 -0.3216
 6261SOL    HW229463   2.679   8.784   3.357  0.6492  1.1886  2.0957
 6262SOL     OW29464   9.519   6.590   2.977  0.1306 -0.0512  0.7884
 6262SOL    HW129465   9.465   6.638   2.909  1.2320  0.0500 -0.0310
 6262SOL    HW229466   9.571   6.656   3.031 -0.4142 -0.1578  1.4409
 6263SOL     OW29467   2.412   1.200   3.193 -1.0071  0.2068 -0.0394
 6263SOL    HW129468   2.394   1.146   3.111  0.5886 -0.7895  0.2257
 6263SOL    HW229469   2.413   1.297   3.170  0.1750 -0.1015 -1.3731
 6264SOL     OW29470   9.123   2.992   0.769  0.4574 -0.1316 -0.0725
 6264SOL    HW129471   9.198   2.975   0.705  0.8288 -0.8875  0.5484
 6264SOL    HW229472   9.050   2.925   0.752  0.7105 -0.5615  0.5248
 6265SOL     OW29473   9.077   0.356   4.719  0.3002 -0.1129  0.5809
 6265SOL    HW129474   9.009   0.428   4.731  1.1504  0.9087 -0.5541
 6265SOL    HW229475   9.048   0.274   4.768 -2.0990  0.0595 -0.4751
 6266SOL     OW29476   1.911   6.587   4.880  0.0622  0.7509 -0.3778
 6266SOL    HW129477   1.853   6.598   4.799 -0.4401  2.0475  0.1492
 6266SOL    HW229478   1.855   6.594   4.962  0.3882 -1.6659  0.0973
 6267SOL     OW29479   9.811   5.265   2.415  0.2424  0.0207  0.0964
 6267SOL    HW129480   9.842   5.331   2.347  0.4244  0.5930  0.7210
 6267SOL    HW229481   9.824   5.172   2.381 -2.0402  0.3054 -1.6866
 6268SOL     OW29482   3.529   2.488   1.627  0.3495 -0.0004  0.0521
 6268SOL    HW129483   3.471   2.455   1.702  0.2161  0.4015  0.1259
 6268SOL    HW229484   3.624   2.488   1.657  0.4792 -1.4259 -0.3372
 6269SOL     OW29485   2.417   7.253   2.822  0.6917 -0.3539  0.0225
 6269SOL    HW129486   2.329   7.212   2.845  0.9155 -0.2803  1.0687
 6269SOL    HW229487   2.415   7.287   2.729  0.0952 -1.6547 -0.4584
 6270SOL     OW29488   5.508   0.128   2.727  0.1729 -0.5069 -0.3673
 6270SOL    HW129489   5.564   0.092   2.802 -1.8991  0.8736  1.9127
 6270SOL    HW229490   5.527   0.225   2.715  1.1722 -0.9084 -2.3189
 6271SOL     OW29491   2.762   4.781   2.179 -0.4407  0.1102  0.0664
 6271SOL    HW129492   2.822   4.706   2.208  0.7315  1.7006  1.9054
 6271SOL    HW229493   2.674   4.773   2.225 -0.3404 -0.1604  0.2105
 6272SOL     OW29494   9.226   5.534   3.075 -0.0697  0.3051  0.0801
 6272SOL    HW129495   9.216   5.529   3.174 -2.7732 -3.1076 -0.2524
 6272SOL    HW229496   9.298   5.470   3.046 -0.5370 -0.0812 -0.2559
 6273SOL     OW29497   3.399   9.608   2.665  0.6111 -0.2267 -0.1468
 6273SOL    HW129498   3.468   9.679   2.682  0.1100  0.4779 -1.0041
 6273SOL    HW229499   3.397   9.545   2.742  0.4322  1.2205  1.0707
 6274SOL     OW29500   1.856   7.244   2.792  0.1391  0.5256  0.5766
 6274SOL    HW129501   1.890   7.213   2.881  1.0157 -1.6274 -0.4577
 6274SOL    HW229502   1.853   7.343   2.790  1.6170  0.6349  2.4730
 6275SOL     OW29503   1.659   2.079   1.662  0.2893  0.0703 -0.0277
 6275SOL    HW129504   1.735   2.045   1.717  0.4325  0.0297 -0.2489
 6275SOL    HW229505   1.646   2.018   1.583  1.5848  1.4163 -1.3120
 6276SOL     OW29506   0.560   7.424   5.208  0.1782 -0.0384  0.5351
 6276SOL    HW129507   0.565   7.325   5.220 -0.8324 -0.0002  1.3804
 6276SOL    HW229508   0.469   7.456   5.234 -1.3658  0.4576 -4.8774
 6277SOL     OW29509   3.967   9.267   5.503  0.1087 -0.4266 -0.1512
 6277SOL    HW129510   3.935   9.361   5.516  3.2298  0.4696  1.4929
 6277SOL    HW229511   3.897   9.204   5.535 -1.5138  1.3537 -0.0678
 6278SOL     OW29512   6.385   8.476   3.330  0.2502 -0.3855  0.3440
 6278SOL    HW129513   6.435   8.416   3.268  1.0540 -0.2250  0.8252
 6278SOL    HW229514   6.419   8.569   3.322 -0.0507 -0.2503  0.5945
 6279SOL     OW29515   3.086   2.532   0.769 -0.0527  0.1283 -0.1196
 6279SOL    HW129516   3.078   2.543   0.868  0.8778  1.6660 -0.1914
 6279SOL    HW229517   3.178   2.559   0.740 -0.6638  0.7540 -1.5177
 6280SOL     OW29518   6.130   1.151   3.967 -0.8094 -0.0866 -0.7378
 6280SOL    HW129519   6.214   1.117   4.011  0.0439  0.1436 -2.1704
 6280SOL    HW229520   6.154   1.204   3.886 -2.3695 -0.3542 -1.3896
 6281SOL     OW29521   3.067   7.456   0.647  0.4965 -0.2892  0.4898
 6281SOL    HW129522   3.018   7.538   0.675 -1.1767 -0.6757 -1.1864
 6281SOL    HW229523   3.034   7.377   0.699 -1.2784 -0.6859 -1.1832
 6282SOL     OW29524   0.727   8.099   3.564 -0.1233  0.4736 -0.2277
 6282SOL    HW129525   0.706   8.083   3.660  0.4583  1.5206  0.0752
 6282SOL    HW229526   0.661   8.049   3.507  0.3171 -1.2111  0.6981
 6283SOL     OW29527   3.314   8.326   4.096  0.8823 -0.4309  0.3848
 6283SOL    HW129528   3.245   8.398   4.102  2.4020  0.8321  3.2408
 6283SOL    HW229529   3.270   8.237   4.103 -0.6863  0.2753 -0.2770
 6284SOL     OW29530   3.766   8.107   3.862 -0.2523  0.0339 -0.3539
 6284SOL    HW129531   3.854   8.151   3.845  0.8573 -1.5279  1.1858
 6284SOL    HW229532   3.714   8.161   3.928  0.0685  0.2900 -0.3087
 6285SOL     OW29533   1.213   2.643   2.649  0.2211  0.4113  0.7349
 6285SOL    HW129534   1.113   2.643   2.659  0.2175  0.2404  0.6982
 6285SOL    HW229535   1.253   2.582   2.717  0.0735 -2.3417 -1.5358
 6286SOL     OW29536   4.194   0.608   4.421 -0.3033  0.3178 -0.2654
 6286SOL    HW129537   4.188   0.695   4.469  0.7835 -0.3257  1.0510
 6286SOL    HW229538   4.120   0.548   4.452 -0.6247  0.5000 -0.6614
 6287SOL     OW29539   7.396   9.391   1.649 -0.2718  0.5523 -0.4575
 6287SOL    HW129540   7.491   9.418   1.635  0.3169 -1.4901 -0.6247
 6287SOL    HW229541   7.365   9.420   1.739  1.0071 -0.0598  0.1976
 6288SOL     OW29542   0.500   0.680   5.221 -0.3925  0.3315 -0.0717
 6288SOL    HW129543   0.526   0.651   5.314  0.4102 -1.7607 -0.9040
 6288SOL    HW229544   0.580   0.719   5.176  0.2651 -2.1246 -1.1410
 6289SOL     OW29545   4.554   6.376   0.911 -0.2205 -0.3394 -0.7835
 6289SOL    HW129546   4.618   6.377   0.988 -0.8658 -0.7479 -0.2389
 6289SOL    HW229547   4.483   6.445   0.926  0.8138  1.0388 -2.0173
 6290SOL     OW29548   2.529   7.120   4.684 -0.4589 -0.3088 -0.6793
 6290SOL    HW129549   2.518   7.089   4.589 -0.8143 -0.5597 -0.5567
 6290SOL    HW229550   2.441   7.116   4.731 -0.4670  0.7005 -0.5985
 6291SOL     OW29551   7.341   7.474   4.075  0.2402  0.8532  0.1559
 6291SOL    HW129552   7.434   7.474   4.111 -0.2534  1.4458  1.4530
 6291SOL    HW229553   7.311   7.380   4.059  0.8919  0.6421  0.1915
 6292SOL     OW29554   9.508   7.556   4.600  0.7333  0.3239  0.3775
 6292SOL    HW129555   9.500   7.552   4.700  1.3397 -1.0909  0.3906
 6292SOL    HW229556   9.586   7.613   4.575  0.5952  0.6600  0.7166
 6293SOL     OW29557   9.069   6.946   1.542 -0.1512 -0.0122 -0.3638
 6293SOL    HW129558   9.153   6.983   1.583  0.1107  1.3364 -2.0515
 6293SOL    HW229559   9.085   6.926   1.446 -1.8136  0.4710 -0.7585
 6294SOL     OW29560   3.817   0.675   4.158  0.1367  0.0864 -0.2845
 6294SOL    HW129561   3.724   0.682   4.124 -0.2114  1.0880  0.8569
 6294SOL    HW229562   3.829   0.588   4.206 -0.4953  0.3936  0.4327
 6295SOL     OW29563   7.935   0.700   0.181  0.2768 -0.1108  0.3201
 6295SOL    HW129564   7.927   0.775   0.115  0.5279 -0.4697 -0.1123
 6295SOL    HW229565   7.989   0.626   0.142  0.8878 -0.0992  1.1269
 6296SOL     OW29566   3.278   3.232   2.764 -0.6164  0.2773 -0.4574
 6296SOL    HW129567   3.204   3.165   2.774  0.0836 -0.4226  0.0633
 6296SOL    HW229568   3.366   3.186   2.773 -0.1117  1.1074 -1.1129
 6297SOL     OW29569   1.055   2.271   3.061 -0.5099  0.0086  0.0703
 6297SOL    HW129570   1.124   2.284   3.132 -0.4713 -0.5240  0.1318
 6297SOL    HW229571   0.978   2.219   3.099 -0.7197  0.1660 -0.1374
 6298SOL     OW29572   4.676   4.193   5.207  0.4215 -0.1770  0.0827
 6298SOL    HW129573   4.699   4.158   5.297 -1.6241 -2.5043 -0.2509
 6298SOL    HW229574   4.719   4.137   5.136  0.1586  0.2465 -0.4244
 6299SOL     OW29575   7.051   8.716   4.023 -0.0798 -0.5510  0.2311
 6299SOL    HW129576   7.024   8.802   4.066  0.7155  0.8997 -2.0403
 6299SOL    HW229577   6.972   8.674   3.978 -0.4223 -0.9075  1.1590
 6300SOL     OW29578   0.740   0.788   3.230  1.0617  0.3401 -0.0551
 6300SOL    HW129579   0.786   0.719   3.174 -0.0564 -1.2500  0.9545
 6300SOL    HW229580   0.750   0.765   3.327  1.0917  1.8719  0.3212
 6301SOL     OW29581   1.502   5.895   3.502  0.5391 -1.0692  0.3782
 6301SOL    HW129582   1.594   5.935   3.494  1.0258 -2.1507  0.5774
 6301SOL    HW229583   1.435   5.969   3.508  1.3167 -0.2656 -0.6244
 6302SOL     OW29584   1.076   2.298   2.573  0.1052 -0.1864  0.3979
 6302SOL    HW129585   1.119   2.379   2.534  1.7095 -1.3731 -0.3452
 6302SOL    HW229586   1.095   2.293   2.671 -1.0692  0.9890  0.7021
 6303SOL     OW29587   4.826   8.088   4.339 -0.0229  0.9190 -0.1504
 6303SOL    HW129588   4.729   8.069   4.355  0.5604 -1.3263  0.8750
 6303SOL    HW229589   4.855   8.164   4.397 -1.6014  2.8433 -1.8354
 6304SOL     OW29590   3.479   8.703   5.068 -0.6390  0.0903 -0.1868
 6304SOL    HW129591   3.475   8.619   5.014 -0.4880 -0.6898  0.9974
 6304SOL    HW229592   3.563   8.704   5.122  0.0992  1.7166 -1.3193
 6305SOL     OW29593   7.516   9.710   3.435 -0.7136 -0.2997 -0.8368
 6305SOL    HW129594   7.449   9.753   3.495  0.1621  0.9719 -0.7315
 6305SOL    HW229595   7.514   9.756   3.346  1.8489  1.5531  0.0075
 6306SOL     OW29596   4.425   8.368   2.413  0.0558  0.0925 -0.6315
 6306SOL    HW129597   4.419   8.298   2.342 -1.4042 -0.4079 -0.0403
 6306SOL    HW229598   4.443   8.324   2.501  0.0896  0.5488 -0.4090
 6307SOL     OW29599   6.428   0.856   3.217 -0.1688 -0.3899  0.5589
 6307SOL    HW129600   6.516   0.902   3.209  1.1887 -2.7797  1.1290
 6307SOL    HW229601   6.388   0.844   3.126  1.0898 -1.0907  0.0873
 6308SOL     OW29602   4.947   9.645   0.751  0.1481  0.3514  0.5440
 6308SOL    HW129603   4.854   9.634   0.715  0.6016 -0.0420 -0.5213
 6308SOL    HW229604   4.943   9.692   0.840 -1.0359  0.6845  0.3242
 6309SOL     OW29605   9.888   0.519   1.395 -0.2209  0.0064  0.8473
 6309SOL    HW129606   9.840   0.439   1.431  0.8557 -0.6439  0.8555
 6309SOL    HW229607   9.974   0.532   1.445  0.5544  0.0010 -0.4648
 6310SOL     OW29608   0.678   2.239   1.079 -0.6438  0.1132 -0.4751
 6310SOL    HW129609   0.717   2.268   0.991  0.9975 -0.3147  0.0957
 6310SOL    HW229610   0.743   2.180   1.126 -1.0228  1.2551  1.5426
 6311SOL     OW29611   4.302   2.063   0.464  0.1413  0.0553  0.2976
 6311SOL    HW129612   4.226   2.088   0.524 -1.2850  2.7462 -2.4565
 6311SOL    HW229613   4.265   2.015   0.384  1.7496 -1.4437  0.4215
 6312SOL     OW29614   4.972   9.326   2.395 -0.1826  0.3343  0.1652
 6312SOL    HW129615   4.937   9.378   2.473  1.2325  0.0116  1.0165
 6312SOL    HW229616   4.932   9.362   2.310 -2.3776  0.1391  1.0887
 6313SOL     OW29617   3.507   7.929   1.615 -0.0689  0.0811  0.4506
 6313SOL    HW129618   3.570   7.876   1.672 -0.2336 -0.4290  0.1608
 6313SOL    HW229619   3.426   7.953   1.668  1.4198  2.8374  1.5895
 6314SOL     OW29620   2.641   7.741   4.987 -0.3230 -0.5723 -0.6540
 6314SOL    HW129621   2.640   7.714   4.890  3.2607 -1.3537 -0.5516
 6314SOL    HW229622   2.635   7.660   5.044  1.5333 -0.4817 -0.2879
 6315SOL     OW29623   3.087   0.798   5.294  0.2604 -0.5547 -0.3551
 6315SOL    HW129624   3.041   0.757   5.373  0.6057 -0.0441  0.1136
 6315SOL    HW229625   3.022   0.805   5.218 -0.4701  0.2256  0.3258
 6316SOL     OW29626   0.467   3.059   1.557 -0.0417 -0.5482  0.1390
 6316SOL    HW129627   0.553   3.108   1.544 -0.7488  0.1384 -2.2540
 6316SOL    HW229628   0.392   3.125   1.565 -0.5813 -1.1765  0.3210
 6317SOL     OW29629   0.419   2.343   2.152 -0.4160 -0.2749 -0.3532
 6317SOL    HW129630   0.495   2.388   2.105 -0.6010 -0.1236 -0.5098
 6317SOL    HW229631   0.338   2.342   2.092 -0.7754  0.2913  0.1185
 6318SOL     OW29632   9.223   9.419   4.789 -0.2457  0.4440 -0.0863
 6318SOL    HW129633   9.204   9.509   4.828 -0.6509  0.1464  0.4068
 6318SOL    HW229634   9.303   9.379   4.834 -1.7952 -0.6688  1.7008
 6319SOL     OW29635   0.914   8.950   0.594 -0.3842 -0.5778 -0.4015
 6319SOL    HW129636   0.833   9.008   0.595  0.7297  1.0269 -0.3413
 6319SOL    HW229637   0.908   8.885   0.518 -1.2460  0.2360 -1.0445
 6320SOL     OW29638   6.070   7.013   3.403 -0.1192  0.0864  0.3591
 6320SOL    HW129639   5.985   7.026   3.352  0.4910  1.5575 -0.3261
 6320SOL    HW229640   6.136   7.082   3.375  2.1670 -2.5503 -0.8729
 6321SOL     OW29641   1.445   2.062   2.677  0.3022 -0.4867  0.0138
 6321SOL    HW129642   1.501   2.037   2.755  0.4730 -1.5155 -0.4306
 6321SOL    HW229643   1.464   2.000   2.601  0.2570  0.6076 -0.8967
 6322SOL     OW29644   5.289   8.920   4.190 -0.3914 -0.2608  0.3183
 6322SOL    HW129645   5.255   8.870   4.269  0.2241 -1.8422 -0.3897
 6322SOL    HW229646   5.375   8.966   4.214 -0.0183 -1.0317  0.4715
 6323SOL     OW29647   9.742   1.631   3.214  0.2011 -0.1966 -0.0507
 6323SOL    HW129648   9.840   1.649   3.209  0.0514  0.5330 -0.4747
 6323SOL    HW229649   9.705   1.669   3.299  0.1874  0.0338 -0.1589
 6324SOL     OW29650   9.701   8.773   4.324 -0.3628  0.2648  0.1755
 6324SOL    HW129651   9.656   8.697   4.370 -0.5610  0.5157  0.4005
 6324SOL    HW229652   9.704   8.852   4.386  1.3962 -0.1039  0.5835
 6325SOL     OW29653   8.449   2.285   3.711  0.0231  0.1082 -0.3859
 6325SOL    HW129654   8.541   2.247   3.700 -0.5249 -1.0510 -1.0128
 6325SOL    HW229655   8.417   2.319   3.623  1.0484  3.3480  0.4054
 6326SOL     OW29656   3.198   8.456   5.490 -0.0554  0.5220  0.5277
 6326SOL    HW129657   3.149   8.402   5.559  0.8463 -1.7844 -0.5630
 6326SOL    HW229658   3.246   8.532   5.534  0.4573 -0.8759  2.4485
 6327SOL     OW29659   2.300   3.931   4.162  0.5455 -0.2189  0.0135
 6327SOL    HW129660   2.242   3.958   4.238  3.6138  2.4903  1.5340
 6327SOL    HW229661   2.267   3.975   4.078 -0.7820 -0.3919  0.4336
 6328SOL     OW29662   3.109   8.530   2.913  0.0721 -0.9369 -0.0424
 6328SOL    HW129663   3.091   8.577   3.000  1.5256  0.3425 -0.4147
 6328SOL    HW229664   3.143   8.438   2.932 -2.1421 -1.6459  0.6984
 6329SOL     OW29665   5.256   8.616   1.904 -0.1516 -0.8322  0.6503
 6329SOL    HW129666   5.172   8.594   1.955 -1.0472  3.4429  1.2448
 6329SOL    HW229667   5.236   8.615   1.806 -0.2718 -2.1977  0.6860
 6330SOL     OW29668   7.237   9.830   5.604 -0.2022  0.1534 -0.5668
 6330SOL    HW129669   7.247   9.738   5.565  2.0346  0.4969 -0.8798
 6330SOL    HW229670   7.161   9.877   5.560 -0.2734 -0.9501 -1.6448
 6331SOL     OW29671   3.673   1.496   0.799 -0.3308  0.5404 -0.6625
 6331SOL    HW129672   3.621   1.455   0.874  0.9729 -0.5364 -0.3367
 6331SOL    HW229673   3.672   1.596   0.808 -2.8786  0.5825 -1.0275
 6332SOL     OW29674   1.820   8.742   4.283  0.7283 -0.1426 -0.3657
 6332SOL    HW129675   1.841   8.646   4.301 -0.8632 -0.6205 -0.9157
 6332SOL    HW229676   1.898   8.786   4.240  1.6717 -1.0521  0.4017
 6333SOL     OW29677   9.126   1.300   5.192 -0.2878 -0.3455 -0.0757
 6333SOL    HW129678   9.102   1.388   5.151  0.9543  0.6736  1.3476
 6333SOL    HW229679   9.152   1.236   5.119  2.4211  1.5984 -0.9123
 6334SOL     OW29680   2.271   8.553   1.245  0.3246 -0.1256 -0.2785
 6334SOL    HW129681   2.206   8.584   1.176  0.4510 -0.7576 -0.6860
 6334SOL    HW229682   2.286   8.626   1.312 -2.3639 -0.6532  0.9789
 6335SOL     OW29683   7.664   1.402   3.101  0.1617 -0.4311 -0.0531
 6335SOL    HW129684   7.594   1.369   3.164 -0.4311  0.6652 -0.1266
 6335SOL    HW229685   7.623   1.424   3.013  0.8910 -1.3955 -0.6426
 6336SOL     OW29686   8.327   2.868   0.863 -0.3630  0.3280  0.3207
 6336SOL    HW129687   8.414   2.886   0.908 -0.3160  1.1982 -0.0991
 6336SOL    HW229688   8.341   2.864   0.764 -0.8514  0.7680  0.2325
 6337SOL     OW29689   3.938   8.982   2.409  0.8403  0.5133 -0.4044
 6337SOL    HW129690   3.885   8.995   2.492  0.4136 -0.1169 -0.5749
 6337SOL    HW229691   3.899   8.907   2.355  0.6879  1.3635 -1.5044
 6338SOL     OW29692   5.679   8.545   3.534 -0.3924  0.3531 -0.0822
 6338SOL    HW129693   5.682   8.574   3.630  0.8225 -1.1514  0.3538
 6338SOL    HW229694   5.727   8.458   3.524 -1.8969 -0.3154 -1.7841
 6339SOL     OW29695   3.463   9.803   2.103  0.4323 -0.1553 -0.0692
 6339SOL    HW129696   3.547   9.807   2.048  1.0595  0.2210  0.9097
 6339SOL    HW229697   3.429   9.709   2.105 -0.0312 -0.0362 -1.7494
 6340SOL     OW29698   4.953   4.050   0.316 -0.0010 -0.3220 -0.1636
 6340SOL    HW129699   4.890   4.084   0.386  0.7675 -3.0355  1.9825
 6340SOL    HW229700   5.031   4.006   0.361  1.2004 -0.9446 -2.7606
 6341SOL     OW29701   9.552   1.574   1.748  0.0809  0.0847  0.6435
 6341SOL    HW129702   9.468   1.527   1.723 -0.4242  1.1868  0.2206
 6341SOL    HW229703   9.543   1.672   1.729  1.6041  0.1607  0.2078
 6342SOL     OW29704   9.671   7.584   0.722  0.1003 -0.1456  0.7272
 6342SOL    HW129705   9.718   7.529   0.653  0.1453 -0.1553  0.7665
 6342SOL    HW229706   9.737   7.639   0.772 -0.0547  0.7723 -0.0564
 6343SOL     OW29707   2.623   8.166   4.546  0.0216 -0.4902  0.1073
 6343SOL    HW129708   2.668   8.254   4.561 -0.2600 -0.4683  0.8832
 6343SOL    HW229709   2.628   8.112   4.630 -2.5218  0.0334  0.6448
 6344SOL     OW29710   2.971   9.704   5.460  0.1971 -0.2594 -0.1799
 6344SOL    HW129711   2.917   9.623   5.438  0.9211 -0.4210 -1.4404
 6344SOL    HW229712   3.042   9.717   5.390  1.2878  0.3957  1.0290
 6345SOL     OW29713   8.182   0.988   0.783 -0.1497 -0.4707 -0.0052
 6345SOL    HW129714   8.277   0.981   0.810  0.3094 -0.0545 -1.4529
 6345SOL    HW229715   8.141   0.897   0.776  0.5040 -0.7170 -0.6253
 6346SOL     OW29716   9.838   1.433   1.062  0.1729 -0.2125 -0.5574
 6346SOL    HW129717   9.768   1.462   0.997  0.7719  0.6452 -0.8298
 6346SOL    HW229718   9.913   1.390   1.013  0.4873  0.1575 -0.3991
 6347SOL     OW29719   6.092   1.877   2.751 -0.5693  0.0044 -0.2704
 6347SOL    HW129720   6.037   1.843   2.828  1.2744 -0.6649  0.7936
 6347SOL    HW229721   6.063   1.832   2.667 -0.6242 -1.5432  0.5431
 6348SOL     OW29722   9.866   9.440   2.229 -0.0803  0.8062  0.4801
 6348SOL    HW129723   9.962   9.410   2.228 -0.4190 -0.7280  4.8004
 6348SOL    HW229724   9.857   9.519   2.290 -1.2208  2.4395 -1.7379
 6349SOL     OW29725   0.047   6.468   2.720  0.5499 -0.2122 -0.4713
 6349SOL    HW129726   0.142   6.485   2.746  0.7029 -0.4725 -0.8612
 6349SOL    HW229727  -0.014   6.498   2.794  0.8856  0.8431 -0.6249
 6350SOL     OW29728   2.024   9.428   3.985  0.0767 -0.1961  0.0908
 6350SOL    HW129729   2.048   9.441   4.081  0.5644  2.0457 -0.3038
 6350SOL    HW229730   2.106   9.435   3.928 -0.2333 -1.3094 -0.5030
 6351SOL     OW29731   6.955   6.605   3.226 -0.0537  0.3346  0.3984
 6351SOL    HW129732   7.044   6.632   3.190 -0.2829 -1.1510 -1.4136
 6351SOL    HW229733   6.909   6.684   3.266  1.3614  1.4854 -0.2207
 6352SOL     OW29734   1.787   9.846   2.902  0.2769  0.3024 -0.0456
 6352SOL    HW129735   1.798   9.936   2.943 -0.1799  0.6212 -0.6174
 6352SOL    HW229736   1.827   9.777   2.962 -1.1003  0.6685  1.3471
 6353SOL     OW29737   9.505   3.844   2.283  0.0891 -0.4253 -0.6698
 6353SOL    HW129738   9.475   3.928   2.239 -0.6549 -0.3264 -0.0038
 6353SOL    HW229739   9.425   3.786   2.301  0.3573 -0.4352  0.5793
 6354SOL     OW29740   7.029   8.137   3.113  0.2997  0.1500 -0.5592
 6354SOL    HW129741   6.963   8.101   3.177  1.6047  0.9502  1.2793
 6354SOL    HW229742   7.016   8.094   3.023 -1.4697 -1.0398  0.2483
 6355SOL     OW29743   8.049   1.488   0.857 -0.0758 -0.0645 -0.2800
 6355SOL    HW129744   8.079   1.415   0.796  1.2290  0.3349 -0.1322
 6355SOL    HW229745   7.988   1.451   0.927  0.6737 -1.0362 -0.1367
 6356SOL     OW29746   8.800   6.718   1.006  0.1739  0.4415  0.6135
 6356SOL    HW129747   8.767   6.633   0.965  0.8718  1.1104 -1.3886
 6356SOL    HW229748   8.895   6.707   1.035  1.4206  1.5217 -2.8051
 6357SOL     OW29749   3.395   4.438   2.741  0.2040 -0.2220 -0.3355
 6357SOL    HW129750   3.443   4.354   2.718  0.9284  0.7348 -2.3792
 6357SOL    HW229751   3.436   4.478   2.823  2.4466  0.1967 -1.6323
 6358SOL     OW29752   0.638   8.124   1.843  0.4769  0.0296  0.6204
 6358SOL    HW129753   0.659   8.029   1.819 -0.6613 -0.5333  1.7996
 6358SOL    HW229754   0.570   8.160   1.779  0.5768 -0.0904  0.4462
 6359SOL     OW29755   2.858   4.912   5.379 -0.1286  0.2814 -0.1566
 6359SOL    HW129756   2.847   4.880   5.285 -0.4856 -1.5356  0.4794
 6359SOL    HW229757   2.920   4.990   5.381  2.0203 -1.3197 -1.5902
 6360SOL     OW29758   1.687   5.120   1.805 -0.1765 -0.1653 -0.4484
 6360SOL    HW129759   1.620   5.138   1.877  0.0626  0.8616 -0.4806
 6360SOL    HW229760   1.688   5.196   1.740 -1.0126 -1.4834 -2.0377
 6361SOL     OW29761   0.868   7.871   2.452 -0.0043  0.3102 -0.4105
 6361SOL    HW129762   0.863   7.847   2.549 -1.1589 -0.2175 -0.5863
 6361SOL    HW229763   0.789   7.927   2.427 -0.3305 -0.5216 -1.2936
 6362SOL     OW29764   1.654   1.178   2.824  0.5853  0.2115 -0.5747
 6362SOL    HW129765   1.753   1.174   2.810  0.8257  0.9047  0.8756
 6362SOL    HW229766   1.613   1.089   2.800  1.6855 -0.4160 -0.1378
 6363SOL     OW29767   1.644   9.479   4.350 -0.2723 -0.1086  0.6418
 6363SOL    HW129768   1.567   9.537   4.376 -0.1990  0.0242  0.5638
 6363SOL    HW229769   1.707   9.470   4.428  0.3556  0.9463  0.2678
 6364SOL     OW29770   1.052   2.674   0.085 -0.4872 -0.1716 -0.1275
 6364SOL    HW129771   0.986   2.623   0.141 -2.4586  0.8405 -1.4801
 6364SOL    HW229772   1.119   2.611   0.046 -0.9984 -1.2913  0.7734
 6365SOL     OW29773   3.331   6.895   5.237  0.1141  0.5162 -0.2464
 6365SOL    HW129774   3.430   6.911   5.237 -0.1369  2.1766  2.0228
 6365SOL    HW229775   3.305   6.843   5.318 -1.0852  1.4725 -0.0022
 6366SOL     OW29776   1.098   9.834   3.240 -0.0012 -0.0947  0.0466
 6366SOL    HW129777   1.059   9.808   3.152  0.3393  0.1655 -0.1816
 6366SOL    HW229778   1.032   9.815   3.312 -1.0730  1.5387 -0.4714
 6367SOL     OW29779   2.729   6.241   2.889  0.6996 -0.0361  0.9353
 6367SOL    HW129780   2.745   6.337   2.866 -1.2998  0.4341  1.3693
 6367SOL    HW229781   2.718   6.231   2.988 -1.8793 -0.2256  0.6731
 6368SOL     OW29782   9.283   1.768   0.827  0.5545 -0.2479  0.2169
 6368SOL    HW129783   9.372   1.811   0.814  0.8689 -0.6205  1.1303
 6368SOL    HW229784   9.230   1.776   0.743  0.3259  2.5882  0.5843
 6369SOL     OW29785   4.155   7.422   4.004  0.3337  0.4665  0.5957
 6369SOL    HW129786   4.120   7.422   4.097  2.6190 -1.7039  1.5144
 6369SOL    HW229787   4.121   7.342   3.955 -0.6446  1.4561 -0.3615
 6370SOL     OW29788   9.029   9.256   1.417 -0.4583 -0.3448 -0.1849
 6370SOL    HW129789   9.019   9.282   1.513  0.6219 -1.3287  0.2122
 6370SOL    HW229790   9.059   9.160   1.412  0.4315 -0.0066 -1.4675
 6371SOL     OW29791   3.519   4.352   5.433  0.2810 -1.0401  0.3464
 6371SOL    HW129792   3.492   4.360   5.529 -1.2881 -1.4422 -0.0402
 6371SOL    HW229793   3.488   4.263   5.397 -0.2766 -0.3682 -0.8700
 6372SOL     OW29794   2.732   1.726   2.461  0.4281 -0.1139  0.3595
 6372SOL    HW129795   2.770   1.642   2.500  1.2892  0.5342  0.9614
 6372SOL    HW229796   2.681   1.775   2.532  0.7614  0.3466  0.2864
 6373SOL     OW29797   1.735   4.911   1.987  0.5307 -0.1637  0.0823
 6373SOL    HW129798   1.736   4.976   1.911 -0.2528 -0.1280  0.0959
 6373SOL    HW229799   1.675   4.834   1.964  0.5999 -0.3478  0.5103
 6374SOL     OW29800   3.751   2.587   0.103  0.5280 -0.0610  0.2135
 6374SOL    HW129801   3.727   2.601   0.199  1.1351 -1.6721  0.6263
 6374SOL    HW229802   3.804   2.665   0.069  0.3022  0.5196  1.1785
 6375SOL     OW29803   3.742   6.860   2.954  0.0981 -0.1516 -0.2995
 6375SOL    HW129804   3.695   6.783   2.998  0.1915 -0.0055  0.0631
 6375SOL    HW229805   3.812   6.825   2.892  0.2902 -0.3569  0.0286
 6376SOL     OW29806   3.444   0.467   0.279  0.0374  0.3305 -0.3329
 6376SOL    HW129807   3.366   0.460   0.341 -0.6574  4.0311 -0.6955
 6376SOL    HW229808   3.492   0.379   0.276 -2.5436 -1.2324  1.9228
 6377SOL     OW29809   4.521   0.364   2.424  0.0516 -0.0003  0.2106
 6377SOL    HW129810   4.433   0.375   2.471  1.0037  0.1591  1.9799
 6377SOL    HW229811   4.545   0.449   2.377 -0.1815  0.3396  0.7037
 6378SOL     OW29812   9.409   5.853   2.650 -0.6534 -0.4805  0.4348
 6378SOL    HW129813   9.451   5.882   2.736 -0.7108 -2.5111  1.1745
 6378SOL    HW229814   9.473   5.797   2.598 -1.5370 -1.4324  0.3561
 6379SOL     OW29815   3.066   7.220   2.913  0.3144 -0.0649 -0.2499
 6379SOL    HW129816   2.992   7.268   2.865  0.6860  0.2613 -0.5031
 6379SOL    HW229817   3.103   7.149   2.853  0.7145  0.2788 -0.4121
 6380SOL     OW29818   1.163   9.373   3.709 -0.2025  0.0295 -0.2086
 6380SOL    HW129819   1.068   9.343   3.700 -0.8735  1.8954  0.2122
 6380SOL    HW229820   1.173   9.463   3.666  0.3483  1.7553  3.3207
 6381SOL     OW29821   4.070   1.991   5.075  0.4008  0.3616 -0.3256
 6381SOL    HW129822   4.009   2.059   5.035 -1.3432 -1.4766 -0.8802
 6381SOL    HW229823   4.064   1.995   5.175 -1.8003 -0.7925 -0.3835
 6382SOL     OW29824   4.833   8.940   2.059 -0.1052 -0.1334  0.1066
 6382SOL    HW129825   4.782   8.871   2.007 -0.0233  0.1743 -0.3881
 6382SOL    HW229826   4.845   8.909   2.153 -1.5087 -0.0630  0.3194
 6383SOL     OW29827   2.820   0.786   3.810  0.0315  0.0196 -0.3976
 6383SOL    HW129828   2.754   0.821   3.877  0.9281  2.1573 -0.5980
 6383SOL    HW229829   2.846   0.859   3.748  1.5287 -1.1730 -1.2020
 6384SOL     OW29830   4.584   1.090   5.333  0.0488 -0.2728 -0.2423
 6384SOL    HW129831   4.567   1.011   5.393 -2.7560  1.4819  1.3708
 6384SOL    HW229832   4.646   1.153   5.379  0.6178 -0.5303 -0.6506
 6385SOL     OW29833   5.004   1.271   4.413 -0.1493 -0.1453 -0.4392
 6385SOL    HW129834   4.940   1.313   4.478  0.6124  0.3674 -0.0036
 6385SOL    HW229835   5.085   1.330   4.404  0.0004 -0.4977 -1.4252
 6386SOL     OW29836   2.379   8.981   1.849 -0.6129  0.3822 -0.1555
 6386SOL    HW129837   2.294   8.929   1.840 -1.9797  1.7228  4.0312
 6386SOL    HW229838   2.388   9.044   1.772 -3.4492  0.2779 -0.6253
 6387SOL     OW29839   5.246   7.848   1.732 -0.5965  0.0307  0.2184
 6387SOL    HW129840   5.330   7.898   1.711  0.1313 -0.5142  1.7232
 6387SOL    HW229841   5.167   7.895   1.693  0.3734  0.7882 -0.8199
 6388SOL     OW29842   1.723   4.017   2.212  0.6549 -0.0664 -0.4828
 6388SOL    HW129843   1.627   3.992   2.226  0.7103  0.1934  0.4271
 6388SOL    HW229844   1.728   4.114   2.188  0.7900  0.3128  1.0242
 6389SOL     OW29845   4.294   9.731   2.112  0.1549 -0.1384 -0.1004
 6389SOL    HW129846   4.341   9.651   2.149 -1.6468 -0.8658  0.6542
 6389SOL    HW229847   4.208   9.745   2.161 -0.2992  1.3316 -1.2810
 6390SOL     OW29848   3.947   1.547   3.317 -0.2314  0.0531 -0.4955
 6390SOL    HW129849   3.928   1.568   3.413 -2.3206 -3.2099 -0.1020
 6390SOL    HW229850   3.908   1.618   3.258  0.3514  1.6505  1.0057
 6391SOL     OW29851   7.693   0.443   4.041 -0.1463  0.1117  0.4229
 6391SOL    HW129852   7.703   0.387   4.124 -0.2127  0.5069  0.6954
 6391SOL    HW229853   7.725   0.536   4.059  0.1867  0.1019 -0.1001
 6392SOL     OW29854   2.116   7.300   1.496 -0.5011 -0.2165 -0.0270
 6392SOL    HW129855   2.063   7.309   1.412 -1.4014  0.3790  0.5978
 6392SOL    HW229856   2.144   7.391   1.528 -1.3023 -0.3362  1.0331
 6393SOL     OW29857   9.915   3.935   1.562 -0.0631  0.0748 -0.4006
 6393SOL    HW129858   9.844   3.926   1.492 -0.3247  1.8397 -0.3817
 6393SOL    HW229859   9.991   3.875   1.540 -1.5769 -1.9120 -0.3747
 6394SOL     OW29860   8.221   3.179   0.938 -0.1380  0.2661  0.4587
 6394SOL    HW129861   8.265   3.089   0.928 -0.7471 -0.0871  0.9237
 6394SOL    HW229862   8.290   3.247   0.961  0.5590  0.2022 -1.3679
 6395SOL     OW29863   0.238   8.792   4.289 -0.0149  0.2448 -0.1102
 6395SOL    HW129864   0.302   8.727   4.249 -2.0274 -1.5747 -0.5000
 6395SOL    HW229865   0.207   8.757   4.378 -0.9897  0.7481 -0.2423
 6396SOL     OW29866   5.126   7.399   3.675  0.1802 -0.0689  0.0484
 6396SOL    HW129867   5.170   7.323   3.723 -0.4976 -0.2570  0.3726
 6396SOL    HW229868   5.031   7.374   3.654  0.1659  0.4175 -0.4649
 6397SOL     OW29869   3.539   1.510   2.485 -0.0529 -0.5375 -0.3768
 6397SOL    HW129870   3.533   1.519   2.585 -0.5192 -0.7526 -0.3808
 6397SOL    HW229871   3.619   1.454   2.462 -0.7453 -1.6995 -0.0424
 6398SOL     OW29872   1.738   0.969   3.175  0.5348 -0.1173 -0.7644
 6398SOL    HW129873   1.826   1.006   3.205  1.1219 -2.6501  0.7713
 6398SOL    HW229874   1.675   1.045   3.157  1.8407  1.6495  1.7120
 6399SOL     OW29875   3.762   7.131   3.004 -0.0684 -0.6205 -0.0293
 6399SOL    HW129876   3.815   7.168   2.928 -1.1910 -1.1357 -1.0896
 6399SOL    HW229877   3.733   7.037   2.983 -2.2474 -0.0101  0.0440
 6400SOL     OW29878   5.309   4.185   0.259 -0.6067  0.3547 -0.2107
 6400SOL    HW129879   5.258   4.105   0.225 -0.8027 -1.1459  3.4494
 6400SOL    HW229880   5.252   4.267   0.250 -1.7363 -0.4736 -0.7276
 6401SOL     OW29881   8.821   7.277   3.621  0.2154  0.9040 -0.1054
 6401SOL    HW129882   8.754   7.203   3.629  0.7386  0.2871 -1.4050
 6401SOL    HW229883   8.914   7.239   3.625  0.4959  1.6041  0.2421
 6402SOL     OW29884   6.365   8.497   1.428  0.1682 -0.0094  0.2718
 6402SOL    HW129885   6.423   8.419   1.407 -0.9643  0.0617 -3.4808
 6402SOL    HW229886   6.418   8.581   1.418 -0.1552 -0.0215 -1.7018
 6403SOL     OW29887   1.157   8.921   3.424 -0.1141  0.0962  0.6056
 6403SOL    HW129888   1.187   8.992   3.361 -1.3885 -0.4736 -0.6952
 6403SOL    HW229889   1.209   8.837   3.408 -0.6685 -0.1500  0.0579
 6404SOL     OW29890   9.797   6.693   1.410  0.2697 -0.3297 -0.2046
 6404SOL    HW129891   9.778   6.709   1.313  1.4257 -1.9467 -0.7057
 6404SOL    HW229892   9.727   6.632   1.448 -0.5891  0.8706  0.1714
 6405SOL     OW29893   0.374   2.763   4.388 -0.0823 -0.0067 -0.0241
 6405SOL    HW129894   0.454   2.702   4.393 -1.0232 -1.1744  1.0760
 6405SOL    HW229895   0.345   2.786   4.481 -1.6401 -0.4043 -0.4106
 6406SOL     OW29896   3.166   6.349   2.633 -0.0677 -0.3090 -0.3491
 6406SOL    HW129897   3.264   6.328   2.638  0.4170  1.1614 -2.9935
 6406SOL    HW229898   3.148   6.435   2.680 -0.1429 -0.6770  0.3071
 6407SOL     OW29899   1.699   3.292   3.672 -0.2922  0.4991 -0.0927
 6407SOL    HW129900   1.687   3.200   3.711  0.1431 -0.5171 -2.2532
 6407SOL    HW229901   1.796   3.308   3.655 -0.5147  0.6868 -1.2385
 6408SOL     OW29902   7.085   8.731   2.549 -0.0426 -0.3189 -0.5214
 6408SOL    HW129903   7.034   8.804   2.504  1.4140  0.9494 -0.1430
 6408SOL    HW229904   7.084   8.744   2.648  2.3236  0.6433 -0.5794
 6409SOL     OW29905   4.665   4.025   2.478 -0.5776  0.0660 -0.2878
 6409SOL    HW129906   4.692   3.941   2.524 -2.2126  0.3623  1.2582
 6409SOL    HW229907   4.726   4.041   2.400 -0.2301 -2.5298 -0.6040
 6410SOL     OW29908   1.168   7.655   1.992 -0.0229 -0.4230 -0.0521
 6410SOL    HW129909   1.191   7.739   2.043 -0.1199 -0.1378 -0.4752
 6410SOL    HW229910   1.244   7.591   1.999 -0.4278 -0.7755  1.2614
 6411SOL     OW29911   4.305   0.920   3.464  0.4953 -0.1984  0.2649
 6411SOL    HW129912   4.300   0.916   3.564  0.6359 -1.9554  0.2151
 6411SOL    HW229913   4.330   0.830   3.428 -1.3162 -0.0393 -1.4591
 6412SOL     OW29914   8.613   6.276   2.248  0.0103 -0.1656  0.0558
 6412SOL    HW129915   8.693   6.222   2.273  0.5576  0.7955  0.4361
 6412SOL    HW229916   8.611   6.290   2.149 -0.5429 -1.5036 -0.1241
 6413SOL     OW29917   3.134   1.863   0.821 -0.1526  0.2276 -0.2640
 6413SOL    HW129918   3.145   1.773   0.778 -1.2893  1.0754 -2.4264
 6413SOL    HW229919   3.198   1.927   0.779 -0.6025  0.8574  0.0156
 6414SOL     OW29920   8.382   8.883   5.476 -0.3278 -0.1312  0.5993
 6414SOL    HW129921   8.472   8.926   5.482 -1.1790  1.7308  0.4091
 6414SOL    HW229922   8.347   8.869   5.569 -0.8640  1.4121  0.6548
 6415SOL     OW29923   1.822   4.399   3.778  0.4482  0.5840 -0.4673
 6415SOL    HW129924   1.886   4.470   3.808  0.3025  0.0999  1.0611
 6415SOL    HW229925   1.775   4.361   3.858 -0.9367  0.1567 -1.4605
 6416SOL     OW29926   9.245   2.134   0.384  0.4804 -0.5475 -0.1756
 6416SOL    HW129927   9.164   2.159   0.330 -0.7691 -4.1979 -0.1433
 6416SOL    HW229928   9.256   2.198   0.460 -1.6685  0.7119 -0.8824
 6417SOL     OW29929   3.011   2.677   3.156  0.3602  0.4366 -0.3408
 6417SOL    HW129930   2.972   2.589   3.182 -0.6747  1.3028  1.0803
 6417SOL    HW229931   3.026   2.732   3.238  3.3090  0.6533 -0.9644
 6418SOL     OW29932   1.867   0.869   2.351 -0.5362  0.0892 -0.2564
 6418SOL    HW129933   1.898   0.831   2.264 -2.0586 -0.9250 -0.3763
 6418SOL    HW229934   1.873   0.969   2.348 -0.7586  0.0725 -1.6081
 6419SOL     OW29935   4.151   7.280   3.712  0.1547  0.2030  0.4999
 6419SOL    HW129936   4.214   7.252   3.640  1.4938  1.5311  1.1350
 6419SOL    HW229937   4.057   7.275   3.677  0.6558 -0.8433 -0.7636
 6420SOL     OW29938   8.998   2.339   2.070  0.0564 -0.3183 -0.9485
 6420SOL    HW129939   9.068   2.357   2.001  0.9011 -0.2026 -0.0731
 6420SOL    HW229940   9.042   2.326   2.159 -1.0997  0.4234 -0.2659
 6421SOL     OW29941   0.723   6.589   0.932 -0.2320 -0.2917 -0.0796
 6421SOL    HW129942   0.631   6.552   0.914  0.8973 -3.4131  0.1880
 6421SOL    HW229943   0.758   6.631   0.848 -1.2904 -0.5306 -0.6621
 6422SOL     OW29944   3.129   3.634   0.725 -0.4620  0.4133 -0.0547
 6422SOL    HW129945   3.223   3.623   0.756 -1.4437 -1.7023  2.3604
 6422SOL    HW229946   3.113   3.573   0.647  0.3009  1.1988 -0.8392
 6423SOL     OW29947   1.132   9.458   4.027 -0.2356 -0.8441 -0.1566
 6423SOL    HW129948   1.101   9.391   3.959  0.6837 -1.8607  0.4228
 6423SOL    HW229949   1.228   9.480   4.011 -0.9798  1.7606 -1.4901
 6424SOL     OW29950   9.640   7.323   0.889 -0.5816  0.0288  0.3823
 6424SOL    HW129951   9.611   7.415   0.864 -1.6434 -0.0593  1.2490
 6424SOL    HW229952   9.654   7.318   0.988 -2.3053 -1.2076  0.5909
 6425SOL     OW29953   0.592   1.959   4.668  0.4783  0.2069  0.0354
 6425SOL    HW129954   0.611   2.055   4.691  1.1730  0.5525 -1.8741
 6425SOL    HW229955   0.664   1.901   4.705  0.6598  0.5545  0.2277
 6426SOL     OW29956   1.223   2.332   1.121 -0.0253  0.0798  0.2498
 6426SOL    HW129957   1.144   2.393   1.117  1.5488  2.2089  0.5927
 6426SOL    HW229958   1.266   2.339   1.211  0.8294 -0.6764 -0.0913
 6427SOL     OW29959   0.344   0.286   4.808 -0.1741  0.0440 -0.5150
 6427SOL    HW129960   0.265   0.333   4.849  0.3107 -0.0857  0.5894
 6427SOL    HW229961   0.338   0.292   4.709 -1.4161  0.3107 -0.4367
 6428SOL     OW29962   5.044   0.089   3.167 -0.1637  0.1678  0.2202
 6428SOL    HW129963   5.108   0.030   3.117  1.5714  1.1901  1.1734
 6428SOL    HW229964   4.961   0.037   3.188  1.6017 -2.2412  1.6654
 6429SOL     OW29965   1.544   1.992   0.441 -0.1048 -0.0319 -0.0119
 6429SOL    HW129966   1.574   2.078   0.482 -0.7838  0.4176 -0.4605
 6429SOL    HW229967   1.595   1.976   0.356 -1.3681  0.9083 -0.9599
 6430SOL     OW29968   3.094   2.926   5.214 -0.3349  1.3962  0.0209
 6430SOL    HW129969   3.109   3.017   5.176  0.6061  0.6284 -1.5377
 6430SOL    HW229970   3.151   2.860   5.165 -1.4974 -0.1344  0.6800
 6431SOL     OW29971   2.834   7.158   4.617  0.4477  0.6085 -0.1711
 6431SOL    HW129972   2.752   7.189   4.665 -0.2524  2.0075 -2.2418
 6431SOL    HW229973   2.817   7.068   4.577 -0.4954  1.3848 -1.5647
 6432SOL     OW29974   0.345   5.203   3.215  0.1245 -0.0060  0.6126
 6432SOL    HW129975   0.261   5.242   3.178 -0.4150 -1.3486  0.3765
 6432SOL    HW229976   0.424   5.241   3.166 -0.3791  0.8339  0.4548
 6433SOL     OW29977   1.771   9.354   0.920 -0.0190  0.0005 -0.5160
 6433SOL    HW129978   1.849   9.386   0.866 -0.2415  0.1350 -0.7554
 6433SOL    HW229979   1.804   9.322   1.009  0.3419 -0.1915 -0.7164
 6434SOL     OW29980   8.664   0.355   3.633 -0.0267 -0.2139  0.3575
 6434SOL    HW129981   8.750   0.305   3.642 -0.5723 -1.5765 -1.6179
 6434SOL    HW229982   8.682   0.446   3.597  0.4214 -1.3765 -2.5108
 6435SOL     OW29983   1.977   6.292   3.578 -0.2884  0.1839 -0.9516
 6435SOL    HW129984   1.920   6.341   3.512 -2.5521 -0.4177  0.4618
 6435SOL    HW229985   2.034   6.357   3.628 -0.4917  0.9398 -1.6979
 6436SOL     OW29986   8.352   0.561   1.747 -0.2952 -0.0633 -0.1495
 6436SOL    HW129987   8.373   0.655   1.775  0.0858 -0.0198 -0.5705
 6436SOL    HW229988   8.326   0.507   1.828  1.7403 -0.1859  0.4589
 6437SOL     OW29989   1.473   6.267   2.815  0.6363 -0.6339  0.3753
 6437SOL    HW129990   1.541   6.243   2.746  0.7652  0.3708  0.1588
 6437SOL    HW229991   1.465   6.192   2.881  0.5153 -1.5985 -0.7213
 6438SOL     OW29992   4.007   7.297   2.165 -0.2304 -0.4335 -0.2172
 6438SOL    HW129993   3.909   7.278   2.164 -0.2832 -0.1420 -1.7962
 6438SOL    HW229994   4.057   7.215   2.135 -0.1558  0.2038 -1.8920
 6439SOL     OW29995   3.627   0.291   4.933  0.0824  0.4318 -0.6384
 6439SOL    HW129996   3.592   0.362   4.994 -1.9494 -0.8690 -0.2286
 6439SOL    HW229997   3.676   0.222   4.988 -1.0472 -0.3179 -0.5473
 6440SOL     OW29998   5.541   9.270   1.685 -0.0103 -0.2040 -0.4076
 6440SOL    HW129999   5.575   9.241   1.775  0.9600 -0.5337 -0.8708
 6440SOL    HW230000   5.614   9.318   1.636 -1.4617  2.7309  0.1982
 6441SOL     OW30001   4.177   7.655   2.357  0.7720 -0.1160 -0.3340
 6441SOL    HW130002   4.276   7.671   2.362  0.2733  2.5630  1.9713
 6441SOL    HW230003   4.140   7.699   2.275  1.2622  0.1299 -0.4238
 6442SOL     OW30004   0.424   2.938   3.298 -0.4327  0.0645  0.1200
 6442SOL    HW130005   0.421   3.001   3.220 -2.5025  1.7832  1.5158
 6442SOL    HW230006   0.436   2.990   3.383  0.9671 -1.7117  1.0462
 6443SOL     OW30007   8.413   0.037   4.077  0.2982 -0.0704  0.1277
 6443SOL    HW130008   8.391  -0.058   4.056 -0.5660 -0.0599  0.9587
 6443SOL    HW230009   8.339   0.096   4.045  0.9012  0.3421 -0.5233
 6444SOL     OW30010   8.318   0.119   1.305 -0.3477 -0.1152  0.0783
 6444SOL    HW130011   8.291   0.025   1.327 -0.2768  0.1927  1.5136
 6444SOL    HW230012   8.238   0.179   1.311 -0.6355 -0.2643 -1.9855
 6445SOL     OW30013   8.696   0.238   3.242 -0.2785 -0.3702 -0.2765
 6445SOL    HW130014   8.747   0.228   3.156  0.3424 -1.6025  0.2210
 6445SOL    HW230015   8.729   0.319   3.290 -0.1640 -0.0466 -0.8876
 6446SOL     OW30016   5.192   9.057   3.002  0.1749 -0.9037  1.0091
 6446SOL    HW130017   5.099   9.069   2.967  0.7995 -1.7068 -0.9479
 6446SOL    HW230018   5.258   9.073   2.929  1.8048  3.3073  3.2279
 6447SOL     OW30019   2.064   4.007   3.562 -0.3573  0.0105 -0.7082
 6447SOL    HW130020   2.133   3.969   3.500 -1.1358  0.3261 -1.7995
 6447SOL    HW230021   2.109   4.060   3.634  0.5492  0.0158 -1.2677
 6448SOL     OW30022   3.266   4.566   2.107  0.1952 -0.2969  0.0396
 6448SOL    HW130023   3.238   4.470   2.110  2.2462 -0.8974  0.7905
 6448SOL    HW230024   3.216   4.613   2.034 -2.2247 -1.4624  0.9144
 6449SOL     OW30025   1.138   7.946   2.462  0.3694  0.3960 -0.1115
 6449SOL    HW130026   1.054   7.892   2.453  0.3343  0.8062 -2.6253
 6449SOL    HW230027   1.117   8.042   2.448  1.0699  0.6355  0.4872
 6450SOL     OW30028   8.471   2.257   1.270  0.1868 -0.1472 -0.8796
 6450SOL    HW130029   8.400   2.309   1.222  0.3272 -0.0032 -0.9295
 6450SOL    HW230030   8.558   2.265   1.222  0.3631  0.1204 -0.5201
 6451SOL     OW30031   5.853   9.021   3.493 -0.3714 -0.3170  0.8565
 6451SOL    HW130032   5.865   9.000   3.396 -1.7545 -0.6958  0.7507
 6451SOL    HW230033   5.910   8.960   3.548 -1.3801 -1.7100  0.3777
 6452SOL     OW30034   5.987   9.675   3.891 -0.3474 -0.0214  0.3404
 6452SOL    HW130035   6.080   9.713   3.898 -0.7154  0.4516  3.0209
 6452SOL    HW230036   5.925   9.746   3.858 -0.6688  1.2403  3.4841
 6453SOL     OW30037   7.148   8.949   1.783 -0.0631 -0.0798 -0.0236
 6453SOL    HW130038   7.187   8.971   1.693  0.1363  0.7607  0.2701
 6453SOL    HW230039   7.174   9.019   1.849 -0.2469 -0.6776  0.6860
 6454SOL     OW30040   9.638   6.511   3.359  0.3507 -0.4136 -0.2220
 6454SOL    HW130041   9.578   6.586   3.386  1.7221  0.3964  0.6000
 6454SOL    HW230042   9.611   6.428   3.407 -2.1706 -0.8753 -2.3069
 6455SOL     OW30043   5.862   0.904   1.925  0.0201 -0.4532  0.1716
 6455SOL    HW130044   5.889   0.904   2.021  0.8047  0.1285 -0.0395
 6455SOL    HW230045   5.914   0.974   1.876 -1.5180  0.3519 -0.3544
 6456SOL     OW30046   3.306   7.480   3.220 -0.0899  0.5331  1.0186
 6456SOL    HW130047   3.377   7.516   3.280  1.1583  1.2310 -0.8380
 6456SOL    HW230048   3.332   7.389   3.187  2.0016  2.4385 -2.9289
 6457SOL     OW30049   0.124   7.897   3.996  0.4155 -0.3279  0.2307
 6457SOL    HW130050   0.099   7.803   4.018 -1.1163  0.2152  0.9178
 6457SOL    HW230051   0.194   7.898   3.925  0.8465 -1.9880  0.6274
 6458SOL     OW30052   3.490   7.284   4.559 -0.3736 -0.0392 -0.1662
 6458SOL    HW130053   3.524   7.249   4.646  1.5799  0.9117 -0.5355
 6458SOL    HW230054   3.451   7.208   4.507  0.2108 -0.9626  0.7156
 6459SOL     OW30055   4.694   0.607   5.396  0.0986  0.2891 -0.1072
 6459SOL    HW130056   4.633   0.547   5.448  0.5360 -0.4778 -0.4670
 6459SOL    HW230057   4.723   0.560   5.312  0.9824  0.7463 -0.0634
 6460SOL     OW30058   1.253   2.078   3.663  0.3278 -0.1042 -0.4009
 6460SOL    HW130059   1.166   2.072   3.615  0.8017 -0.5195 -1.2110
 6460SOL    HW230060   1.302   2.160   3.633  0.2679  0.0666 -0.0331
 6461SOL     OW30061   7.804   3.568   2.948  0.3633 -0.0517  0.8223
 6461SOL    HW130062   7.720   3.515   2.959 -0.2540  1.1440  2.0393
 6461SOL    HW230063   7.849   3.578   3.037  0.3747  1.6062  0.6454
 6462SOL     OW30064   3.507   0.187   3.912 -0.3247  0.2459 -0.3259
 6462SOL    HW130065   3.471   0.129   3.985 -0.6046 -0.3180 -0.8929
 6462SOL    HW230066   3.455   0.272   3.908 -2.4804 -1.0894 -1.9431
 6463SOL     OW30067   0.342   6.692   0.971 -0.6387 -0.5678 -0.4895
 6463SOL    HW130068   0.246   6.680   0.995  0.1194 -2.5667  1.7037
 6463SOL    HW230069   0.381   6.768   1.023 -0.8467 -0.2322 -0.8258
 6464SOL     OW30070   1.982   2.946   3.794  0.3166  0.5001 -0.5486
 6464SOL    HW130071   2.034   2.878   3.845 -2.9470  0.2414  2.6265
 6464SOL    HW230072   1.925   2.901   3.726  1.2863  0.4546 -1.3394
 6465SOL     OW30073   8.379   1.250   1.721 -0.1272  0.3433  0.1812
 6465SOL    HW130074   8.342   1.168   1.765  0.8594  0.7423  1.8275
 6465SOL    HW230075   8.389   1.322   1.789  2.0257  0.7886 -0.5481
 6466SOL     OW30076   1.410   9.017   4.638 -0.4101 -0.4374 -0.1858
 6466SOL    HW130077   1.421   9.029   4.540 -0.4313  0.2626 -0.1098
 6466SOL    HW230078   1.442   8.926   4.665  2.1474  0.3471 -0.4538
 6467SOL     OW30079   0.397   2.841   2.871  0.2703 -0.1360 -0.2355
 6467SOL    HW130080   0.315   2.790   2.900 -0.4126  0.1279 -1.6416
 6467SOL    HW230081   0.479   2.793   2.902 -0.4288 -0.2716  1.4179
 6468SOL     OW30082   2.640   7.714   2.068 -0.6480 -0.2110  0.8735
 6468SOL    HW130083   2.650   7.800   2.019 -0.7232 -0.1730  0.9248
 6468SOL    HW230084   2.582   7.728   2.149  1.3534  0.2496  2.2736
 6469SOL     OW30085   2.037   1.488   5.535  0.6766 -0.3882 -0.6350
 6469SOL    HW130086   2.082   1.519   5.619 -3.5008  2.6949  0.6108
 6469SOL    HW230087   2.063   1.548   5.459  0.2066  0.2228 -0.3214
 6470SOL     OW30088   1.298   1.310   3.456 -0.6424 -0.7845 -0.3732
 6470SOL    HW130089   1.254   1.399   3.466  1.6007  0.0906  2.1405
 6470SOL    HW230090   1.252   1.259   3.382 -2.0139  2.3716 -1.8202
 6471SOL     OW30091   9.284   8.598   1.774  0.4687 -0.8373 -0.1833
 6471SOL    HW130092   9.375   8.558   1.763  1.0157 -0.4727  2.7200
 6471SOL    HW230093   9.227   8.539   1.831 -0.3086  0.1297  0.0710
 6472SOL     OW30094   2.447   4.591   3.376  0.0930  0.3408  0.0950
 6472SOL    HW130095   2.389   4.542   3.312  0.1569  0.6759 -0.2214
 6472SOL    HW230096   2.393   4.660   3.424 -0.1121 -0.3727  0.9052
 6473SOL     OW30097   2.298   9.575   1.063  0.2524  0.0495 -0.4104
 6473SOL    HW130098   2.208   9.617   1.054  1.2571  1.7651 -2.8417
 6473SOL    HW230099   2.366   9.630   1.014  2.7546 -0.8815  1.8555
 6474SOL     OW30100   1.224   9.797   0.316  0.2882  0.0594 -0.1474
 6474SOL    HW130101   1.135   9.767   0.283  0.4465 -1.2875  0.6621
 6474SOL    HW230102   1.296   9.745   0.270  0.5711 -0.6000  1.0429
 6475SOL     OW30103   8.935   4.776   2.361 -0.7221  0.1597 -0.2121
 6475SOL    HW130104   8.916   4.715   2.285  0.9151  0.5811 -0.9805
 6475SOL    HW230105   8.851   4.790   2.415 -1.9255 -0.0210 -2.0084
 6476SOL     OW30106   3.238   1.947   3.175  0.1392 -0.9093 -0.2828
 6476SOL    HW130107   3.199   1.968   3.086  1.0905  0.6200 -0.3457
 6476SOL    HW230108   3.302   1.871   3.167  0.3847 -0.6354 -0.9535
 6477SOL     OW30109   4.294   0.919   4.496 -0.0513  0.3073  0.1003
 6477SOL    HW130110   4.288   0.866   4.581 -0.4896 -0.3367 -0.3314
 6477SOL    HW230111   4.377   0.975   4.498  0.4373 -0.4230  0.5436
 6478SOL     OW30112   1.590   3.308   2.719 -0.3883  1.0878  0.3214
 6478SOL    HW130113   1.601   3.369   2.797 -0.3966  1.9208 -0.3284
 6478SOL    HW230114   1.600   3.359   2.634 -1.8962  0.4889 -0.2412
 6479SOL     OW30115   3.598   0.633   1.757  0.2752 -0.5781 -0.1845
 6479SOL    HW130116   3.583   0.669   1.665  2.8209  0.3101 -0.2876
 6479SOL    HW230117   3.596   0.533   1.754 -0.8140 -0.5341 -0.9950
 6480SOL     OW30118   9.508   2.714   2.894  0.3705  0.2046 -0.3797
 6480SOL    HW130119   9.607   2.730   2.889  0.4185 -0.2899 -1.0499
 6480SOL    HW230120   9.466   2.783   2.952  1.2144 -0.0098  0.4913
 6481SOL     OW30121   4.539   0.579   2.235 -0.1900 -0.0111  0.3420
 6481SOL    HW130122   4.474   0.654   2.222 -1.5167 -1.4470 -1.4331
 6481SOL    HW230123   4.578   0.553   2.146 -2.1525 -3.5567  0.4387
 6482SOL     OW30124   1.470   8.187   2.235 -0.3778 -0.0365 -0.1120
 6482SOL    HW130125   1.501   8.121   2.303  0.5286 -0.7367 -1.1845
 6482SOL    HW230126   1.509   8.277   2.256 -0.8022 -0.0520  0.7785
 6483SOL     OW30127   2.208   1.644   3.275  0.6808 -0.4206  0.1860
 6483SOL    HW130128   2.258   1.604   3.353 -0.4820 -1.7750  0.2452
 6483SOL    HW230129   2.115   1.608   3.272  1.0566 -1.2615 -2.5168
 6484SOL     OW30130   2.946   1.466   4.095  0.2412 -0.0580 -0.6735
 6484SOL    HW130131   2.879   1.530   4.132  0.3599 -0.1773 -0.2426
 6484SOL    HW230132   2.909   1.420   4.014 -0.5536 -0.8029  0.1071
 6485SOL     OW30133   1.486   6.666   1.555 -0.1199 -0.1403 -0.1832
 6485SOL    HW130134   1.476   6.662   1.456 -0.2245  1.4833 -0.2551
 6485SOL    HW230135   1.398   6.689   1.597 -0.4904 -2.5550  0.4303
 6486SOL     OW30136   5.524   9.230   4.021  0.7766 -0.0945 -0.9358
 6486SOL    HW130137   5.621   9.248   4.009  0.5879  1.3500 -0.4414
 6486SOL    HW230138   5.473   9.316   4.011 -0.1739 -0.3074  1.6084
 6487SOL     OW30139   1.477   5.397   2.124  0.1219 -0.6283 -0.3480
 6487SOL    HW130140   1.459   5.491   2.096 -0.6874 -0.7009 -0.0671
 6487SOL    HW230141   1.574   5.376   2.109  0.1226 -0.0288 -1.2140
 6488SOL     OW30142   3.625   8.971   1.469 -0.3533  0.3150  0.2145
 6488SOL    HW130143   3.597   8.934   1.557 -0.9857 -0.1890 -0.1889
 6488SOL    HW230144   3.590   8.913   1.396 -0.9672  1.4563 -0.4200
 6489SOL     OW30145   1.086   3.545   1.684 -0.1349  0.2330 -0.3106
 6489SOL    HW130146   1.035   3.506   1.760 -0.0123 -1.0820 -0.8876
 6489SOL    HW230147   1.134   3.473   1.635 -0.8290  0.9395 -2.1060
 6490SOL     OW30148   0.803   4.308   3.654  0.8751 -0.0974  0.2222
 6490SOL    HW130149   0.761   4.315   3.563  2.0281  1.5430 -0.2221
 6490SOL    HW230150   0.732   4.309   3.724  0.0136 -0.5411 -0.6437
 6491SOL     OW30151   3.760   3.694   1.532 -0.3179  0.0636 -0.3124
 6491SOL    HW130152   3.805   3.644   1.457 -1.2519 -1.0328 -0.1636
 6491SOL    HW230153   3.808   3.676   1.618  1.4513  2.2490 -0.8128
 6492SOL     OW30154   0.016   8.827   3.737  0.3285  0.1152  0.4897
 6492SOL    HW130155   0.088   8.759   3.750  0.1114 -0.4425 -1.2033
 6492SOL    HW230156  -0.072   8.782   3.731  0.1709  0.5484 -0.5404
 6493SOL     OW30157   0.313   7.976   3.708  0.2278 -0.5706 -0.1804
 6493SOL    HW130158   0.400   7.995   3.754  1.0714 -1.9982 -1.1714
 6493SOL    HW230159   0.328   7.912   3.633 -1.5214 -0.0331 -1.0117
 6494SOL     OW30160   9.010   3.741   3.136 -0.1437  0.3233  0.4577
 6494SOL    HW130161   9.090   3.738   3.195  0.5983 -0.3900 -0.5734
 6494SOL    HW230162   9.007   3.660   3.079 -2.3888 -0.3506  1.4728
 6495SOL     OW30163   5.929   1.742   2.954  0.2251 -0.4141 -0.0597
 6495SOL    HW130164   5.969   1.670   2.898 -0.2522 -0.7849  0.0788
 6495SOL    HW230165   5.921   1.710   3.049 -1.5070 -0.7780 -0.3090
 6496SOL     OW30166   9.850   6.976   2.201 -0.3992  0.4423 -0.1111
 6496SOL    HW130167   9.872   6.993   2.105 -0.3622 -3.0415 -0.7758
 6496SOL    HW230168   9.929   6.935   2.246 -1.1835 -0.0665  0.8095
 6497SOL     OW30169   7.387   0.380   3.527 -0.1167  0.7169 -0.4532
 6497SOL    HW130170   7.291   0.370   3.555 -0.9397  2.2634 -2.5976
 6497SOL    HW230171   7.408   0.476   3.512  1.6301  0.3424 -0.5301
 6498SOL     OW30172   1.920   4.043   1.013  0.1340  0.0196 -0.2599
 6498SOL    HW130173   1.832   4.074   0.976  0.8014 -0.2142 -2.1056
 6498SOL    HW230174   1.959   3.974   0.952  0.9524 -0.8889  1.2778
 6499SOL     OW30175   7.036   3.417   0.600  0.7610 -0.0478  0.0731
 6499SOL    HW130176   7.021   3.394   0.697 -0.4651  0.9025  0.1285
 6499SOL    HW230177   6.996   3.507   0.581  2.0661  0.3057 -1.0420
 6500SOL     OW30178   7.100   7.891   2.537  0.4698 -0.6307 -0.4866
 6500SOL    HW130179   7.181   7.931   2.579 -1.5709 -0.6029  3.6322
 6500SOL    HW230180   7.033   7.963   2.520 -1.1023 -1.4569  1.9852
 6501SOL     OW30181   1.610   7.474   2.202  0.2583  0.4477  0.2428
 6501SOL    HW130182   1.560   7.547   2.249  1.2373  0.8459  0.6838
 6501SOL    HW230183   1.572   7.461   2.110 -0.7470  0.6373  0.6247
 6502SOL     OW30184   9.338   9.235   3.089  0.1581  0.0403 -0.2421
 6502SOL    HW130185   9.415   9.264   3.146  1.6428 -0.6678 -1.8035
 6502SOL    HW230186   9.345   9.136   3.072 -0.5542  0.1386 -1.1655
 6503SOL     OW30187   7.224   9.168   1.241 -0.1677 -0.2476 -0.0468
 6503SOL    HW130188   7.244   9.266   1.254 -0.9687  0.0505 -0.9865
 6503SOL    HW230189   7.301   9.114   1.274 -0.3749  0.6392  1.9540
 6504SOL     OW30190   3.687   8.549   1.669  0.4914  0.4112  0.0743
 6504SOL    HW130191   3.600   8.571   1.715  0.2458 -1.5887  0.5994
 6504SOL    HW230192   3.678   8.566   1.571 -0.5749 -0.0396  0.0910
 6505SOL     OW30193   0.635   0.659   1.021 -0.6578 -0.4309  0.4589
 6505SOL    HW130194   0.586   0.684   0.937  2.0344  1.9249 -0.5242
 6505SOL    HW230195   0.706   0.592   1.000  2.0454  2.3647  0.1052
 6506SOL     OW30196   9.266   1.855   0.310  0.1736 -0.4262 -0.1512
 6506SOL    HW130197   9.255   1.952   0.332  0.2537 -0.3068 -0.6275
 6506SOL    HW230198   9.224   1.800   0.382 -0.9145 -0.0266 -0.4664
 6507SOL     OW30199   3.286   9.188   5.367  0.2016  0.3581  0.5877
 6507SOL    HW130200   3.338   9.102   5.368  1.1226  0.9104  1.8638
 6507SOL    HW230201   3.193   9.171   5.335  1.0808 -0.6970 -1.4783
 6508SOL     OW30202   4.782   3.176   0.308  0.4722 -0.6263  0.5962
 6508SOL    HW130203   4.806   3.080   0.289  0.1114 -0.8836  1.4216
 6508SOL    HW230204   4.857   3.235   0.281  0.7936 -1.1639  0.2965
 6509SOL     OW30205   8.816   0.063   0.559 -0.3998  0.3203  0.2299
 6509SOL    HW130206   8.742   0.126   0.582  0.0984  0.4099  1.6416
 6509SOL    HW230207   8.782  -0.031   0.559 -0.9232  0.5073 -0.9234
 6510SOL     OW30208   1.467   8.584   2.915 -0.3019 -0.1781  0.9029
 6510SOL    HW130209   1.563   8.608   2.897 -0.6835  1.6214  1.1828
 6510SOL    HW230210   1.432   8.640   2.990 -2.5058  1.4694 -1.2739
 6511SOL     OW30211   0.844   6.189   3.329  0.1232 -0.1078  0.2165
 6511SOL    HW130212   0.847   6.119   3.400  1.1256 -1.4313 -1.1252
 6511SOL    HW230213   0.797   6.270   3.365 -1.7866 -1.7298  1.5190
 6512SOL     OW30214   2.147   3.080   0.913  0.5328  0.2160  0.3890
 6512SOL    HW130215   2.067   3.093   0.972 -0.7728 -0.6452 -1.1521
 6512SOL    HW230216   2.229   3.073   0.969 -0.3546  1.9915  1.9545
 6513SOL     OW30217   6.610   9.190   3.070  0.0527  0.0363  0.1668
 6513SOL    HW130218   6.701   9.202   3.109  0.4629 -0.1301 -0.7161
 6513SOL    HW230219   6.575   9.279   3.041  0.0621  0.0636  0.2377
 6514SOL     OW30220   7.833   8.357   1.321 -0.4961  0.7748  0.1363
 6514SOL    HW130221   7.866   8.434   1.376  1.1597  0.0582  0.1495
 6514SOL    HW230222   7.868   8.272   1.359 -0.6658  0.1538 -1.0806
 6515SOL     OW30223   8.644   9.396   2.375  0.2373  0.1455 -0.1066
 6515SOL    HW130224   8.558   9.437   2.406  0.5001  1.4073 -1.0274
 6515SOL    HW230225   8.679   9.447   2.297  1.4740 -0.7943 -0.1757
 6516SOL     OW30226   1.635   7.595   2.576  0.4077  0.6799  0.8833
 6516SOL    HW130227   1.557   7.650   2.604  0.3779  0.3912  1.3866
 6516SOL    HW230228   1.636   7.586   2.477 -0.6335  0.0453  0.9222
 6517SOL     OW30229   0.988   7.729   3.349 -0.7098  0.1798 -0.1185
 6517SOL    HW130230   1.056   7.789   3.309  0.1469  0.6773  2.0334
 6517SOL    HW230231   0.939   7.777   3.422 -1.8435 -0.8845 -0.1581
 6518SOL     OW30232   0.581   5.059   2.025  0.1916 -0.3065 -0.7479
 6518SOL    HW130233   0.600   4.979   1.967  0.0202 -0.9067  0.0211
 6518SOL    HW230234   0.512   5.035   2.093  1.5134 -0.0622  0.7141
 6519SOL     OW30235   9.659   1.615   0.869  0.5406 -0.1347 -0.0909
 6519SOL    HW130236   9.574   1.592   0.822  0.6631 -2.3164  0.6808
 6519SOL    HW230237   9.724   1.655   0.804 -1.6220  3.1224 -0.3467
 6520SOL     OW30238   8.534   6.261   2.630 -0.2359  0.0009 -0.1284
 6520SOL    HW130239   8.570   6.290   2.719  0.7437  0.7603 -0.7515
 6520SOL    HW230240   8.600   6.285   2.559 -0.9568 -0.7118 -1.0480
 6521SOL     OW30241   0.321   1.113   2.262  0.5093  0.8320  0.2681
 6521SOL    HW130242   0.338   1.211   2.271 -0.7879  0.9858  1.0860
 6521SOL    HW230243   0.340   1.068   2.349  1.8296  0.2387 -0.3155
 6522SOL     OW30244   8.780   9.701   0.297  0.5190 -0.3553 -0.1996
 6522SOL    HW130245   8.816   9.611   0.275  0.3451 -0.1628 -1.2662
 6522SOL    HW230246   8.839   9.771   0.258  0.2612 -0.0112  0.0243
 6523SOL     OW30247   1.351   6.331   0.140 -0.4095 -0.3202 -0.7033
 6523SOL    HW130248   1.413   6.315   0.063 -0.7091  0.5765 -1.1392
 6523SOL    HW230249   1.272   6.385   0.110  0.2060  1.3462  0.5189
 6524SOL     OW30250   1.561   7.572   1.432 -0.0401  0.0465  0.4263
 6524SOL    HW130251   1.622   7.619   1.369 -0.8516  0.2113 -0.2450
 6524SOL    HW230252   1.474   7.623   1.438  0.0635  0.0888  1.7412
 6525SOL     OW30253   1.229   9.724   0.825 -0.6107  0.0533  0.4637
 6525SOL    HW130254   1.290   9.796   0.860  0.3085  0.0346 -1.0303
 6525SOL    HW230255   1.227   9.648   0.890 -1.0534  1.1245  1.7355
 6526SOL     OW30256   3.503   7.527   1.652  0.5417  0.1280 -0.3336
 6526SOL    HW130257   3.548   7.600   1.703 -0.7591  0.1955  0.7469
 6526SOL    HW230258   3.436   7.482   1.711  1.8684 -2.4441 -0.7393
 6527SOL     OW30259   9.858   8.253   2.801 -0.2653  0.5914  0.3662
 6527SOL    HW130260   9.782   8.201   2.764 -0.6817 -0.5441  2.7074
 6527SOL    HW230261   9.826   8.342   2.833  0.1262  1.6417 -2.0611
 6528SOL     OW30262   0.125   6.557   3.286  0.3899 -0.0335 -0.5498
 6528SOL    HW130263   0.182   6.531   3.363  1.7446  1.2089 -1.1053
 6528SOL    HW230264   0.105   6.477   3.230 -1.3671 -1.1375  1.5397
 6529SOL     OW30265   3.830   8.511   2.370  0.3048 -0.1402  1.0367
 6529SOL    HW130266   3.770   8.557   2.435 -0.0650 -0.5668  1.0009
 6529SOL    HW230267   3.779   8.438   2.324  1.1416 -1.1829  1.7541
 6530SOL     OW30268   1.938   7.615   3.654 -0.5153  0.9589  0.2631
 6530SOL    HW130269   1.912   7.531   3.606 -0.0343  2.1288 -2.0831
 6530SOL    HW230270   1.882   7.624   3.737 -1.6552 -0.8736 -0.2787
 6531SOL     OW30271   5.517   8.222   2.534  0.2062  0.8559 -0.0379
 6531SOL    HW130272   5.566   8.295   2.581 -1.2252  2.1483 -0.5159
 6531SOL    HW230273   5.424   8.216   2.568  0.0280 -0.1372 -0.6608
 6532SOL     OW30274   3.923   8.611   1.790 -0.3130 -0.0597  0.3600
 6532SOL    HW130275   3.848   8.569   1.739 -1.1872  0.5130  1.1607
 6532SOL    HW230276   3.980   8.664   1.726  0.3991 -1.8647 -0.5254
 6533SOL     OW30277   8.577   9.398   0.817  0.3915  0.5969 -0.2295
 6533SOL    HW130278   8.481   9.372   0.814  0.3641  0.8453 -1.8317
 6533SOL    HW230279   8.586   9.489   0.856  0.1466 -0.1349  1.5922
 6534SOL     OW30280   8.454   2.216   1.712  0.5093 -0.5989 -0.7825
 6534SOL    HW130281   8.522   2.149   1.742 -0.1607 -0.2404  1.6071
 6534SOL    HW230282   8.418   2.189   1.623  0.8913 -2.9512 -0.2480
 6535SOL     OW30283   7.887   0.000   4.891 -0.2618 -0.1228  0.0870
 6535SOL    HW130284   7.963   0.057   4.922 -0.0241  0.2557 -1.1550
 6535SOL    HW230285   7.904  -0.095   4.916  0.3510  0.0428  0.2988
 6536SOL     OW30286   7.029   7.685   3.887  0.5103 -0.1409  0.4345
 6536SOL    HW130287   7.121   7.720   3.869  0.3222  0.0629 -0.1585
 6536SOL    HW230288   7.029   7.585   3.880  0.0355  0.0348 -2.7030
 6537SOL     OW30289   9.899   4.562   1.789 -0.0639  0.1256 -0.5049
 6537SOL    HW130290   9.991   4.523   1.783 -1.0622 -3.0103  2.7809
 6537SOL    HW230291   9.833   4.497   1.752 -1.0505  2.0543 -2.1684
 6538SOL     OW30292   1.930   5.867   0.606 -0.3267 -0.2757 -0.6145
 6538SOL    HW130293   1.853   5.887   0.545 -0.1886  0.7171 -0.4645
 6538SOL    HW230294   1.977   5.952   0.630 -0.4947 -0.6384  1.0361
 6539SOL     OW30295   4.900   1.125   1.582  0.0007 -0.4922 -0.2478
 6539SOL    HW130296   4.809   1.087   1.597 -0.8105  0.8067 -1.8735
 6539SOL    HW230297   4.953   1.062   1.524 -0.4902 -0.3438 -0.8554
 6540SOL     OW30298   7.580   1.002   4.175 -0.1277  0.4235 -0.1938
 6540SOL    HW130299   7.622   1.022   4.086 -0.1857 -1.1761 -0.5960
 6540SOL    HW230300   7.481   1.003   4.166 -0.2131  3.6066  0.6232
 6541SOL     OW30301   8.837   5.768   1.817  0.0759  0.3425  0.2722
 6541SOL    HW130302   8.761   5.731   1.763  1.3407 -1.7023 -0.1590
 6541SOL    HW230303   8.887   5.836   1.762 -1.3515  1.6298  0.5261
 6542SOL     OW30304   0.240   7.139   2.640 -0.2651 -0.1215  0.5941
 6542SOL    HW130305   0.161   7.110   2.588  1.5036 -2.4047 -0.9038
 6542SOL    HW230306   0.238   7.097   2.731 -0.4456 -0.6583  0.3396
 6543SOL     OW30307   3.052   4.947   2.425  0.5113 -0.4548 -0.0982
 6543SOL    HW130308   3.122   4.902   2.370  1.7447  1.1454  0.1311
 6543SOL    HW230309   2.966   4.949   2.374  0.2934 -3.4958  0.1079
 6544SOL     OW30310   7.062   6.565   2.949  0.0993  0.9202 -0.3195
 6544SOL    HW130311   6.963   6.579   2.951 -0.0561 -0.2114  0.3985
 6544SOL    HW230312   7.086   6.505   2.872 -0.0023 -0.3510  0.6112
 6545SOL     OW30313   2.140   4.905   2.987 -0.0486  0.2172 -0.1539
 6545SOL    HW130314   2.140   4.944   3.080  0.6213  1.2376 -0.5709
 6545SOL    HW230315   2.067   4.838   2.979 -0.9310  1.0582  0.7283
 6546SOL     OW30316   7.797   0.734   5.466  0.3717  0.6385 -1.0782
 6546SOL    HW130317   7.759   0.646   5.437  0.3237  0.9075 -1.8293
 6546SOL    HW230318   7.726   0.787   5.512  1.0194 -0.6808  1.5228
 6547SOL     OW30319   1.468   0.507   3.207 -0.3901 -0.1336 -0.5348
 6547SOL    HW130320   1.523   0.544   3.282 -1.8060  0.1997  0.3592
 6547SOL    HW230321   1.383   0.560   3.198 -1.3915 -1.7226 -0.7261
 6548SOL     OW30322   2.170   2.625   2.024 -0.0879  0.2376  0.1888
 6548SOL    HW130323   2.085   2.641   2.073 -1.0592 -1.2128 -0.9755
 6548SOL    HW230324   2.149   2.590   1.933  1.7630 -0.0040 -0.1541
 6549SOL     OW30325   6.861   9.864   3.233  0.3570 -0.2495 -0.3505
 6549SOL    HW130326   6.821   9.806   3.304 -1.5195 -0.9316 -1.9202
 6549SOL    HW230327   6.904   9.806   3.164 -1.5270  0.1911 -1.9301
 6550SOL     OW30328   7.544   7.255   3.984  0.2670  0.0139  0.0617
 6550SOL    HW130329   7.460   7.225   4.030 -1.6331  2.4621 -1.6814
 6550SOL    HW230330   7.532   7.249   3.885  1.8883  1.1162 -0.2323
 6551SOL     OW30331   3.912   2.865   4.003  0.1063 -0.2359 -0.4217
 6551SOL    HW130332   3.948   2.944   4.052 -0.0653  0.0816 -0.8070
 6551SOL    HW230333   3.840   2.894   3.940 -0.5357 -0.8139  0.0377
 6552SOL     OW30334   9.200   0.437   1.180  0.2174 -0.3388 -0.0849
 6552SOL    HW130335   9.230   0.375   1.252 -2.4085 -0.9953  0.4744
 6552SOL    HW230336   9.243   0.411   1.093  0.7300 -1.6522  0.5574
 6553SOL     OW30337   8.860   2.285   0.716  0.4919  0.2126  0.0326
 6553SOL    HW130338   8.781   2.249   0.668 -0.3854  1.3820  0.5771
 6553SOL    HW230339   8.921   2.209   0.741 -0.8861 -0.8017  0.3989
 6554SOL     OW30340   7.454   6.456   1.978 -0.0993 -0.2542 -0.2000
 6554SOL    HW130341   7.377   6.483   2.036 -0.9801 -1.1087 -0.9530
 6554SOL    HW230342   7.501   6.378   2.020  0.0779 -0.0205  0.0355
 6555SOL     OW30343   6.550   8.546   2.749  0.4977 -0.0656 -0.1387
 6555SOL    HW130344   6.538   8.542   2.650 -1.1333  3.1086 -0.1111
 6555SOL    HW230345   6.465   8.519   2.794  0.5687  0.5372  0.3635
 6556SOL     OW30346   8.332   0.000   0.506 -0.3087 -0.4251 -0.1268
 6556SOL    HW130347   8.356  -0.097   0.510 -1.3973 -0.6647  0.9238
 6556SOL    HW230348   8.266   0.021   0.579 -1.3486  0.7382 -1.3811
 6557SOL     OW30349   8.639   0.053   3.857  0.1377  0.1574 -0.5007
 6557SOL    HW130350   8.671   0.144   3.885 -0.8274  0.9113 -1.7617
 6557SOL    HW230351   8.548   0.037   3.894  0.6122 -0.6139  0.3406
 6558SOL     OW30352   2.929   3.920   2.592  0.0942 -0.1544  0.6143
 6558SOL    HW130353   3.008   3.947   2.646  1.4289  1.4753 -2.0517
 6558SOL    HW230354   2.846   3.935   2.645  1.3939  0.9642  2.3902
 6559SOL     OW30355   9.638   9.042   2.037 -0.2135  0.1788 -0.4775
 6559SOL    HW130356   9.565   9.006   2.095  0.3534 -0.1904  0.0156
 6559SOL    HW230357   9.601   9.065   1.947 -1.0692  0.6168 -0.0163
 6560SOL     OW30358   3.185   3.748   1.149 -0.4014 -0.1715  0.1895
 6560SOL    HW130359   3.235   3.822   1.105  2.4122 -1.4802  1.0490
 6560SOL    HW230360   3.087   3.759   1.133  0.1256  2.5876 -1.3803
 6561SOL     OW30361   2.629   9.351   2.473  0.2087  0.1473  0.0299
 6561SOL    HW130362   2.658   9.313   2.385 -0.5369 -0.5987  0.0972
 6561SOL    HW230363   2.534   9.325   2.491  0.9867 -1.4462  2.0194
 6562SOL     OW30364   1.455   1.240   2.243  0.0848 -0.0066  0.3836
 6562SOL    HW130365   1.484   1.281   2.329 -1.3107 -2.9376  2.3129
 6562SOL    HW230366   1.364   1.273   2.219 -0.8085 -1.4950  1.6534
 6563SOL     OW30367   0.489   7.654   1.334 -0.6763 -0.1598 -0.2047
 6563SOL    HW130368   0.528   7.695   1.253 -1.4050 -1.6541 -1.3440
 6563SOL    HW230369   0.561   7.613   1.390 -0.0509  1.8680  0.5046
 6564SOL     OW30370   1.629   2.790   2.714  0.1926  0.1323 -0.2837
 6564SOL    HW130371   1.704   2.800   2.779  3.1443 -2.4280 -3.1523
 6564SOL    HW230372   1.630   2.697   2.676 -3.9486  0.3054 -1.0583
 6565SOL     OW30373   9.315   3.895   2.809  0.0090 -0.6309  0.2776
 6565SOL    HW130374   9.349   3.802   2.804 -0.7783 -1.1210  3.1474
 6565SOL    HW230375   9.368   3.946   2.877 -1.5685  0.0956  0.9826
 6566SOL     OW30376   1.763   9.876   1.415 -0.5390 -0.1796  0.6369
 6566SOL    HW130377   1.757   9.975   1.412  1.4866 -0.0477  0.3527
 6566SOL    HW230378   1.684   9.836   1.368  0.3482  1.3344 -2.2460
 6567SOL     OW30379   7.752   0.174   5.037 -0.1233 -0.1120  0.0339
 6567SOL    HW130380   7.796   0.097   4.991  1.0677  0.5491  0.0268
 6567SOL    HW230381   7.653   0.161   5.038  0.0254 -1.3403 -0.4995
 6568SOL     OW30382   2.620   6.313   2.509 -0.4445  0.1903 -0.3080
 6568SOL    HW130383   2.682   6.260   2.568  1.6467  0.9948 -1.6915
 6568SOL    HW230384   2.665   6.399   2.483 -2.4587  1.1154 -0.7860
 6569SOL     OW30385   0.900   2.161   2.440 -0.1664 -0.2909  0.2574
 6569SOL    HW130386   0.927   2.135   2.347 -0.3559 -1.5448  0.5476
 6569SOL    HW230387   0.974   2.214   2.482 -0.2453  0.6483 -0.7490
 6570SOL     OW30388   6.147   8.286   3.666  0.0812  0.7215  0.3623
 6570SOL    HW130389   6.097   8.219   3.720 -0.0182  0.1666 -0.4202
 6570SOL    HW230390   6.242   8.290   3.698  0.1003  0.1761  0.3739
 6571SOL     OW30391   4.622   9.045   3.675  0.1579 -0.1666  0.1043
 6571SOL    HW130392   4.598   9.047   3.772 -0.2019  0.1704  0.0124
 6571SOL    HW230393   4.548   9.086   3.622 -0.2926 -1.6677 -0.4504
 6572SOL     OW30394   0.822   8.810   0.359  0.1640 -0.8791  0.5617
 6572SOL    HW130395   0.776   8.739   0.305  0.2034  0.1838 -0.8810
 6572SOL    HW230396   0.785   8.899   0.335  0.1118 -0.4006  2.3840
 6573SOL     OW30397   9.096   6.069   2.322  0.0269 -0.0458  0.2172
 6573SOL    HW130398   9.166   5.998   2.317  0.9117  0.8413 -0.2551
 6573SOL    HW230399   9.065   6.092   2.230  1.5436  1.9102  0.1645
 6574SOL     OW30400   2.495   8.458   3.091 -0.1985 -0.0801 -0.0783
 6574SOL    HW130401   2.408   8.484   3.049 -0.8838 -0.7008  0.9581
 6574SOL    HW230402   2.498   8.359   3.105  0.8017 -0.1048 -0.3796
 6575SOL     OW30403   4.315   2.147   5.570 -0.1253  0.7635 -0.1629
 6575SOL    HW130404   4.378   2.210   5.615 -0.2302  1.1060 -0.4823
 6575SOL    HW230405   4.224   2.189   5.566 -0.4963  0.0452  0.7840
 6576SOL     OW30406   0.499   0.533   4.790 -0.6484 -0.2550  0.0742
 6576SOL    HW130407   0.446   0.467   4.842 -0.9674 -0.0680 -0.0122
 6576SOL    HW230408   0.596   0.520   4.808 -0.6048 -1.8012 -1.1590
 6577SOL     OW30409   4.088   2.294   5.464  0.1465 -0.7875  0.6099
 6577SOL    HW130410   4.022   2.328   5.531  1.0539 -3.0433  2.6849
 6577SOL    HW230411   4.086   2.354   5.383 -4.3466 -0.7038  0.6360
 6578SOL     OW30412   9.216   7.483   2.607 -0.4395  0.1640 -0.1789
 6578SOL    HW130413   9.290   7.549   2.612  0.6039 -0.9746 -0.2137
 6578SOL    HW230414   9.211   7.444   2.515 -0.1762 -0.7611  0.1878
 6579SOL     OW30415   2.683   0.262   3.964  0.3250  0.0458 -0.2067
 6579SOL    HW130416   2.743   0.341   3.963 -0.0512  0.3476  1.3097
 6579SOL    HW230417   2.669   0.230   4.058  1.3180 -2.4645 -0.8572
 6580SOL     OW30418   2.414   1.052   5.316  0.7277 -0.3384 -0.2307
 6580SOL    HW130419   2.464   1.062   5.230  0.3794  0.3542 -0.3614
 6580SOL    HW230420   2.348   1.127   5.325  0.2828 -0.7921  0.3182
 6581SOL     OW30421   0.894   1.131   1.627  0.1216 -0.0531  0.1049
 6581SOL    HW130422   0.817   1.104   1.685  0.8274 -0.4712  0.8695
 6581SOL    HW230423   0.884   1.227   1.602 -1.3009 -0.4381 -0.8640
 6582SOL     OW30424   5.920   8.860   3.709  0.0343  0.1837 -0.2683
 6582SOL    HW130425   5.837   8.903   3.747 -1.4054 -0.8702 -2.1274
 6582SOL    HW230426   5.924   8.764   3.739 -0.3675 -0.2598 -1.5992
 6583SOL     OW30427   8.776   7.569   3.234 -0.8417 -0.3559 -0.4821
 6583SOL    HW130428   8.840   7.603   3.304 -1.5759 -1.6144  0.8266
 6583SOL    HW230429   8.682   7.589   3.263 -1.1579 -1.0239 -1.0440
 6584SOL     OW30430   7.375   9.559   5.245 -0.3470 -0.1591 -0.6449
 6584SOL    HW130431   7.416   9.596   5.328 -0.1448  0.0718 -0.8434
 6584SOL    HW230432   7.290   9.607   5.225 -0.2818 -0.0615 -0.6902
 6585SOL     OW30433   5.502   0.890   2.898 -0.3480  0.9337 -0.4155
 6585SOL    HW130434   5.501   0.797   2.860 -0.0040  0.5606  0.4795
 6585SOL    HW230435   5.578   0.941   2.859  0.8427  0.1154  0.7892
 6586SOL     OW30436   5.012   7.814   3.589  0.2728 -0.4035  0.1716
 6586SOL    HW130437   5.015   7.761   3.504 -0.6523 -0.7147  0.3309
 6586SOL    HW230438   4.919   7.813   3.625  0.6072 -0.0284  1.0361
 6587SOL     OW30439   3.694   0.956   1.142 -0.2869 -0.0555 -0.0943
 6587SOL    HW130440   3.742   0.870   1.158 -0.8262 -0.3579 -0.0596
 6587SOL    HW230441   3.597   0.943   1.163 -0.4870  0.3693 -0.7460
 6588SOL     OW30442   1.481   3.282   0.420  0.4822  0.0029 -0.1972
 6588SOL    HW130443   1.410   3.212   0.417 -0.6825  1.0348  1.7060
 6588SOL    HW230444   1.484   3.330   0.332 -1.8182  0.5229 -0.0349
 6589SOL     OW30445   5.721   8.665   1.986  0.0281  0.1302  0.4811
 6589SOL    HW130446   5.637   8.673   1.933 -0.0775  0.9250  0.7568
 6589SOL    HW230447   5.788   8.611   1.936 -1.0652 -1.5211  0.7748
 6590SOL     OW30448   4.189   2.375   4.151 -0.0563  0.3245 -0.1061
 6590SOL    HW130449   4.234   2.329   4.074 -2.0155 -0.6434 -0.7089
 6590SOL    HW230450   4.127   2.445   4.116  1.6271  2.2998  0.7522
 6591SOL     OW30451   6.864   0.466   3.246 -0.8897 -0.1038  0.6819
 6591SOL    HW130452   6.875   0.409   3.327 -0.2088 -0.9748  0.0059
 6591SOL    HW230453   6.769   0.463   3.215 -1.2375  0.5512  1.6623
 6592SOL     OW30454   2.715   9.151   1.574 -0.1307 -0.0471  0.3607
 6592SOL    HW130455   2.617   9.145   1.591  0.0077 -0.4809  1.0221
 6592SOL    HW230456   2.731   9.163   1.476 -0.8088 -0.7785  0.1549
 6593SOL     OW30457   1.788   4.921   1.172  0.3347  0.1164  0.3376
 6593SOL    HW130458   1.764   4.825   1.188  0.6494  0.1684  1.1422
 6593SOL    HW230459   1.879   4.939   1.210  0.5896  0.5538 -0.4607
 6594SOL     OW30460   0.923   0.742   5.406  0.1849  0.5457 -0.0441
 6594SOL    HW130461   0.888   0.784   5.322  0.3811 -0.8797 -0.8435
 6594SOL    HW230462   0.975   0.660   5.384  0.6299  0.4037  1.4470
 6595SOL     OW30463   2.489   9.594   3.814 -0.3836  0.1611 -0.2649
 6595SOL    HW130464   2.557   9.529   3.781 -0.4462  0.4760 -1.0399
 6595SOL    HW230465   2.535   9.677   3.846 -0.3383 -0.0431  0.1973
 6596SOL     OW30466   0.770   0.095   2.568 -0.1123  0.0144  0.4120
 6596SOL    HW130467   0.844   0.030   2.556  0.1226 -0.1182  2.3959
 6596SOL    HW230468   0.694   0.051   2.616 -1.0616  0.4349 -0.6884
 6597SOL     OW30469   0.913   6.558   5.461  0.0153  0.3861  0.0684
 6597SOL    HW130470   0.860   6.615   5.523 -0.5843  1.7842 -1.6777
 6597SOL    HW230471   0.857   6.481   5.431  0.5443 -0.6906  1.7783
 6598SOL     OW30472   2.377   4.549   2.310 -0.3318  0.1184  0.5005
 6598SOL    HW130473   2.297   4.597   2.275  0.5998  1.9227  0.7724
 6598SOL    HW230474   2.363   4.451   2.303 -1.6461  0.4310 -1.5187
 6599SOL     OW30475   9.348   8.276   1.730  0.1774  0.1028  0.6485
 6599SOL    HW130476   9.265   8.220   1.739  0.3629 -0.1172  0.9698
 6599SOL    HW230477   9.363   8.298   1.633  0.8249 -1.4880  0.3861
 6600SOL     OW30478   3.894   1.560   3.846  0.5864  0.2596  0.2726
 6600SOL    HW130479   3.963   1.621   3.886 -0.3415  1.2644  0.3528
 6600SOL    HW230480   3.901   1.470   3.889  2.6514 -0.0203 -0.5720
 6601SOL     OW30481   1.450   8.357   5.402 -0.2333 -0.7353 -0.1753
 6601SOL    HW130482   1.457   8.267   5.444 -0.5724 -1.5553 -1.8142
 6601SOL    HW230483   1.356   8.370   5.368 -0.2359  0.3171  0.2330
 6602SOL     OW30484   0.247   7.453   5.312 -0.0524  0.2260 -0.0302
 6602SOL    HW130485   0.234   7.387   5.238  2.1632  0.7411 -0.9265
 6602SOL    HW230486   0.204   7.540   5.288 -1.6433 -0.4084  0.4769
 6603SOL     OW30487   1.359   9.784   4.045 -0.1764 -0.3803 -0.2249
 6603SOL    HW130488   1.384   9.694   4.008  0.9020 -0.0427 -0.3088
 6603SOL    HW230489   1.353   9.778   4.145 -1.0269 -0.7688 -0.2897
 6604SOL     OW30490   1.294   2.554   1.368  0.0699  0.0319 -0.1020
 6604SOL    HW130491   1.341   2.466   1.375 -0.9213 -0.5306 -0.4443
 6604SOL    HW230492   1.241   2.570   1.452  2.6685  1.7415  1.3017
 6605SOL     OW30493   3.864   2.823   0.892  0.6092  0.1570 -0.3437
 6605SOL    HW130494   3.880   2.799   0.796 -1.1555 -0.6753 -0.4604
 6605SOL    HW230495   3.769   2.855   0.903  0.6444 -0.2194  1.2109
 6606SOL     OW30496   4.117   2.023   5.361  0.1257  0.0205  0.2243
 6606SOL    HW130497   4.072   1.973   5.434 -2.4564  1.4120 -0.3346
 6606SOL    HW230498   4.127   2.119   5.388  2.2295 -0.1346  0.0744
 6607SOL     OW30499   4.844   8.432   2.171  0.1618 -0.0584 -0.3877
 6607SOL    HW130500   4.781   8.354   2.175 -0.8417  0.7784  0.3097
 6607SOL    HW230501   4.889   8.444   2.259 -2.5010  2.4296  0.6938
 6608SOL     OW30502   3.332   9.886   1.844 -0.0763  0.0692  0.2271
 6608SOL    HW130503   3.363   9.795   1.873 -1.7377 -0.3391  0.7665
 6608SOL    HW230504   3.243   9.905   1.884  0.9768  2.6314  1.4423
 6609SOL     OW30505   4.468   1.259   3.858 -0.4248 -0.1413 -0.1540
 6609SOL    HW130506   4.460   1.188   3.788 -1.1568  0.4247 -0.6515
 6609SOL    HW230507   4.536   1.231   3.926 -0.5500 -1.2177 -0.4611
 6610SOL     OW30508   6.557   8.748   1.497  0.1649 -0.5227 -0.2722
 6610SOL    HW130509   6.605   8.797   1.570 -1.4352 -0.9266  1.0728
 6610SOL    HW230510   6.566   8.799   1.412  1.4073  0.3565  0.3637
 6611SOL     OW30511   3.399   2.271   0.839  0.5493  0.1179  0.4122
 6611SOL    HW130512   3.379   2.365   0.869  2.1611  0.5138  0.2997
 6611SOL    HW230513   3.459   2.274   0.759 -1.2235 -0.9900 -0.9722
 6612SOL     OW30514   0.243   2.248   5.576  0.1580  0.2937 -0.4695
 6612SOL    HW130515   0.170   2.288   5.632  0.5069  0.2155  0.0432
 6612SOL    HW230516   0.265   2.156   5.611  1.7688  1.0371  0.5287
 6613SOL     OW30517   5.198   4.592   0.588  0.1615 -0.3793 -0.8565
 6613SOL    HW130518   5.129   4.596   0.515 -0.8971  0.2036  0.1522
 6613SOL    HW230519   5.210   4.498   0.618 -1.2637 -0.3252 -0.0638
 6614SOL     OW30520   3.675   0.553   3.198  0.0013  0.1825  0.1731
 6614SOL    HW130521   3.655   0.537   3.295  0.1249  0.0471  0.1756
 6614SOL    HW230522   3.695   0.466   3.153 -1.6076  0.0589 -0.3302
 6615SOL     OW30523   1.437   5.807   2.429  0.3199 -0.5602  0.2938
 6615SOL    HW130524   1.473   5.891   2.389 -0.6759  0.7140  2.0043
 6615SOL    HW230525   1.446   5.732   2.363 -0.5060  1.2751 -1.9742
 6616SOL     OW30526   8.726   8.574   4.640  0.2100  0.2667  0.3121
 6616SOL    HW130527   8.781   8.658   4.631  0.2788  0.4147  1.9392
 6616SOL    HW230528   8.632   8.598   4.663  0.6469 -0.1418  2.6281
 6617SOL     OW30529   8.416   9.663   4.419  0.1738  0.2109 -0.3298
 6617SOL    HW130530   8.463   9.646   4.332 -0.2655 -0.5509 -0.4137
 6617SOL    HW230531   8.324   9.624   4.416 -0.2254  1.0910  0.0965
 6618SOL     OW30532   0.196   3.109   1.230  0.0728 -0.4334  0.5427
 6618SOL    HW130533   0.108   3.091   1.186  0.7978  1.1687 -1.6488
 6618SOL    HW230534   0.260   3.035   1.207  0.1001 -0.2046 -0.1249
 6619SOL     OW30535   3.052   5.211   0.969  0.1329  0.4299  0.4605
 6619SOL    HW130536   3.018   5.170   1.054 -1.1937 -1.2285 -0.8117
 6619SOL    HW230537   2.985   5.194   0.896 -0.2411  4.5508 -0.2421
 6620SOL     OW30538   8.681   1.575   2.900 -0.0071  0.3050  0.3011
 6620SOL    HW130539   8.627   1.613   2.975  1.8272  0.6769  1.4871
 6620SOL    HW230540   8.676   1.475   2.902 -1.5202  0.3696 -0.2754
 6621SOL     OW30541   1.408   8.895   2.793  0.3056  0.1332  0.0853
 6621SOL    HW130542   1.428   8.810   2.843 -2.5489 -1.3403 -1.2069
 6621SOL    HW230543   1.318   8.928   2.818  1.0094  2.3062 -0.1669
 6622SOL     OW30544   1.550   9.753   3.434 -0.5513  0.1977 -0.3375
 6622SOL    HW130545   1.504   9.675   3.477 -4.4356  1.6964 -1.5886
 6622SOL    HW230546   1.614   9.794   3.500  0.2793 -2.9211  0.8980
 6623SOL     OW30547   5.277   0.079   2.078 -0.0672  0.0285  0.6462
 6623SOL    HW130548   5.288   0.079   2.178 -1.6304  0.0618  0.8394
 6623SOL    HW230549   5.348   0.135   2.036  1.1837 -0.7655  1.6726
 6624SOL     OW30550   1.943   7.353   1.281  0.1565  0.0841 -0.1224
 6624SOL    HW130551   1.963   7.281   1.215  0.6513 -0.9311  1.1343
 6624SOL    HW230552   1.844   7.365   1.288  0.0619 -0.7192 -0.0714
 6625SOL     OW30553   4.462   1.019   2.308 -0.4134  0.1998 -0.4905
 6625SOL    HW130554   4.431   0.951   2.242 -0.4887  0.5873 -0.8530
 6625SOL    HW230555   4.475   1.107   2.263 -1.4058  0.7129  0.1925
 6626SOL     OW30556   3.768   1.620   1.086  0.3856  0.2651 -0.7653
 6626SOL    HW130557   3.712   1.559   1.029 -1.2148  0.9119  0.0591
 6626SOL    HW230558   3.762   1.590   1.182  0.6535  0.9443 -0.5366
 6627SOL     OW30559   9.791   2.528   5.505 -0.1273 -0.0212 -0.0897
 6627SOL    HW130560   9.827   2.436   5.516 -0.9876 -0.4133 -0.4889
 6627SOL    HW230561   9.847   2.592   5.557  0.8408 -0.6792 -0.3145
 6628SOL     OW30562   0.168   2.521   4.039 -0.0007  0.2458  0.2224
 6628SOL    HW130563   0.135   2.612   4.014  0.6992  0.2374 -0.7977
 6628SOL    HW230564   0.146   2.502   4.134 -1.1646  1.0231  0.1213
 6629SOL     OW30565   1.842   3.725   2.442 -0.1379  0.6714  0.4474
 6629SOL    HW130566   1.860   3.773   2.528 -0.4786  1.8954 -0.1585
 6629SOL    HW230567   1.926   3.718   2.389  0.6447 -2.3442  1.9867
 6630SOL     OW30568   9.641   4.973   2.686  0.5745  0.0340 -0.7281
 6630SOL    HW130569   9.674   4.920   2.608  0.3988  0.0533 -0.8178
 6630SOL    HW230570   9.639   5.070   2.662  3.4558  0.3859  0.3484
 6631SOL     OW30571   1.724   5.968   0.450  0.3525 -0.0709  0.3218
 6631SOL    HW130572   1.760   6.057   0.420  0.3981 -0.1073  0.2709
 6631SOL    HW230573   1.652   5.983   0.518 -1.4240  0.0724 -1.5616
 6632SOL     OW30574   1.070   3.762   3.422 -0.6120 -0.2297  0.8823
 6632SOL    HW130575   1.109   3.848   3.457  0.1486 -0.6017  0.9638
 6632SOL    HW230576   1.015   3.719   3.493 -1.2157  0.3289  0.7511
 6633SOL     OW30577   5.562   7.250   3.633  0.1859  0.4021 -0.1489
 6633SOL    HW130578   5.647   7.241   3.686  0.6521  1.1366 -0.7709
 6633SOL    HW230579   5.568   7.329   3.573 -0.2215 -0.6059 -1.5435
 6634SOL     OW30580   6.282   9.254   3.633  0.3930  0.6159  0.2312
 6634SOL    HW130581   6.218   9.308   3.578 -0.6914 -0.1875  0.6840
 6634SOL    HW230582   6.295   9.164   3.592  1.0794  0.7053  0.2503
 6635SOL     OW30583   1.405   0.171   0.832  0.2154  0.2708 -0.5171
 6635SOL    HW130584   1.318   0.216   0.852 -0.7893 -2.1694  0.8204
 6635SOL    HW230585   1.433   0.193   0.738 -2.2435  0.4889 -1.2391
 6636SOL     OW30586   9.246   9.501   1.720  0.8377 -0.4863 -0.5935
 6636SOL    HW130587   9.293   9.445   1.652 -0.0368 -2.0501  0.0696
 6636SOL    HW230588   9.148   9.504   1.699  0.6064 -0.7474  0.4400
 6637SOL     OW30589   1.055   0.569   2.497  0.4197 -0.2438  0.1054
 6637SOL    HW130590   1.044   0.665   2.471  0.2865 -0.1177  0.6394
 6637SOL    HW230591   1.018   0.554   2.588 -0.8341 -1.0932 -0.5153
 6638SOL     OW30592   6.988   6.679   2.616 -0.5672 -0.1769  0.3660
 6638SOL    HW130593   6.996   6.594   2.667 -0.2344  0.3146  1.1497
 6638SOL    HW230594   6.896   6.687   2.578 -0.3006 -1.3372 -0.5378
 6639SOL     OW30595   7.264   6.511   3.173 -0.1542  0.2357 -0.1861
 6639SOL    HW130596   7.214   6.457   3.241 -0.2848  1.8426  1.0223
 6639SOL    HW230597   7.218   6.504   3.084 -0.1763 -1.6037 -0.0424
 6640SOL     OW30598   0.856   3.517   2.585 -0.2363  0.2984  0.1828
 6640SOL    HW130599   0.826   3.502   2.680 -0.0392 -1.6589 -0.0338
 6640SOL    HW230600   0.948   3.556   2.586  1.2633 -3.0255  0.8531
 6641SOL     OW30601   4.767   2.719   0.492  0.2843 -0.7601  0.5222
 6641SOL    HW130602   4.682   2.737   0.441 -0.2449 -3.3209  0.4528
 6641SOL    HW230603   4.835   2.788   0.467 -0.7642 -0.5018 -1.8034
 6642SOL     OW30604   8.337   3.984   1.538  0.1804  0.5155  0.1585
 6642SOL    HW130605   8.379   3.927   1.467 -1.5211 -0.7479  0.1197
 6642SOL    HW230606   8.253   3.940   1.570  0.1274  1.8232  1.8928
 6643SOL     OW30607   9.536   8.454   0.625  0.1574 -0.1519  0.7771
 6643SOL    HW130608   9.562   8.392   0.699 -1.3920 -0.8869  0.7122
 6643SOL    HW230609   9.555   8.411   0.537 -1.8346 -0.9647  0.7196
 6644SOL     OW30610   3.556   7.752   4.684  1.1201  0.3711  0.3374
 6644SOL    HW130611   3.601   7.713   4.765  2.4765 -0.3448 -0.7456
 6644SOL    HW230612   3.502   7.682   4.638 -0.4242  1.0099  1.1225
 6645SOL     OW30613   0.539   9.413   2.583 -0.1324  0.3481 -0.5063
 6645SOL    HW130614   0.624   9.361   2.594 -0.1213  0.5367  0.2665
 6645SOL    HW230615   0.514   9.456   2.669 -1.4167 -0.3169 -0.5296
 6646SOL     OW30616   0.940   6.979   1.810  0.1115  0.3025 -0.4331
 6646SOL    HW130617   1.021   6.942   1.765  0.1425  1.2217 -1.1655
 6646SOL    HW230618   0.965   7.059   1.863 -0.2679  0.4300 -0.4427
 6647SOL     OW30619   4.267   1.822   3.471  0.3377 -1.1091 -0.2464
 6647SOL    HW130620   4.261   1.723   3.484 -0.2137 -1.0324  0.0518
 6647SOL    HW230621   4.357   1.854   3.502  0.3857 -1.4631 -0.0189
 6648SOL     OW30622   8.668   2.494   2.818 -0.2725  0.5583  0.4542
 6648SOL    HW130623   8.584   2.529   2.860 -1.5466 -0.0023 -1.5531
 6648SOL    HW230624   8.673   2.395   2.831 -1.6188  0.0830 -2.1842
 6649SOL     OW30625   5.505   0.612   3.398  0.4702 -0.2030  0.5555
 6649SOL    HW130626   5.447   0.668   3.457  1.7497  2.8349 -0.9367
 6649SOL    HW230627   5.467   0.610   3.305  1.4702 -0.1465  0.1327
 6650SOL     OW30628   1.556   6.478   2.973 -0.1238 -0.3173 -0.0891
 6650SOL    HW130629   1.480   6.434   2.925 -1.4443  1.7743  0.0229
 6650SOL    HW230630   1.531   6.572   2.994  1.5755 -0.3368  2.1197
 6651SOL     OW30631   7.572   2.376   0.638 -0.4976  0.1484  0.1656
 6651SOL    HW130632   7.619   2.461   0.664 -1.8918  0.9245  0.2219
 6651SOL    HW230633   7.633   2.299   0.652  0.6695  1.1096  0.4854
 6652SOL     OW30634   0.493   0.592   1.521  0.0921  0.1336  0.4429
 6652SOL    HW130635   0.525   0.515   1.575  0.2320 -1.1737 -1.4721
 6652SOL    HW230636   0.550   0.602   1.439 -0.7432  1.4284 -0.0053
 6653SOL     OW30637   4.539   2.841   0.796 -0.3206 -0.0964  0.2391
 6653SOL    HW130638   4.496   2.888   0.873 -1.0334 -0.5397  0.1184
 6653SOL    HW230639   4.469   2.788   0.746 -0.2465  1.7277 -1.8654
 6654SOL     OW30640   3.144   4.755   1.261 -0.3408 -0.5806  0.3446
 6654SOL    HW130641   3.208   4.768   1.186 -0.2559  0.6277  0.6166
 6654SOL    HW230642   3.103   4.664   1.255 -0.1016 -0.6052 -0.9780
 6655SOL     OW30643   4.209   3.450   4.343 -0.1320  0.1796  0.6259
 6655SOL    HW130644   4.183   3.546   4.345 -0.9268 -0.0426  2.7244
 6655SOL    HW230645   4.264   3.432   4.262 -0.6146  2.2249 -0.1897
 6656SOL     OW30646   0.181   3.431   1.351  0.7833  0.4367 -0.5860
 6656SOL    HW130647   0.167   3.332   1.357  3.0279  0.1002 -0.3049
 6656SOL    HW230648   0.279   3.450   1.339  0.4804  2.6589  0.1712
 6657SOL     OW30649   5.209   9.218   3.238  0.1142  0.7981 -0.0632
 6657SOL    HW130650   5.206   9.318   3.234  0.8183  0.8096 -0.4560
 6657SOL    HW230651   5.187   9.181   3.147  0.3273  0.6143 -0.0415
 6658SOL     OW30652   7.956   4.130   1.808  0.1352 -0.0801 -0.7778
 6658SOL    HW130653   7.952   4.222   1.771 -2.4109 -0.9697 -2.8827
 6658SOL    HW230654   7.929   4.132   1.905 -3.4531  0.9991 -1.7169
 6659SOL     OW30655   8.801   2.718   2.915  0.0945 -0.4133  0.3471
 6659SOL    HW130656   8.770   2.631   2.876 -2.3246  0.6657 -0.2311
 6659SOL    HW230657   8.833   2.777   2.841  0.9389 -0.4810  0.6520
 6660SOL     OW30658   2.184   1.182   4.631 -0.1038  0.0672 -0.6820
 6660SOL    HW130659   2.170   1.146   4.539  0.4433 -0.6973 -0.4710
 6660SOL    HW230660   2.271   1.148   4.668  0.7051  2.0431 -0.6815
 6661SOL     OW30661   3.681   7.621   3.594 -0.0612 -0.4134  0.3737
 6661SOL    HW130662   3.728   7.708   3.605 -1.7008  0.4847  0.4596
 6661SOL    HW230663   3.720   7.554   3.657  2.2536 -0.1922 -0.8045
 6662SOL     OW30664   2.174   2.488   3.869  0.0800 -0.1147  0.1823
 6662SOL    HW130665   2.095   2.435   3.900 -0.9682  0.6366 -1.1780
 6662SOL    HW230666   2.258   2.438   3.892 -0.8857 -2.2589 -0.8613
 6663SOL     OW30667   8.484   5.182   2.609 -0.0619 -0.1031 -0.3258
 6663SOL    HW130668   8.400   5.213   2.566 -0.4539  1.1967  1.3304
 6663SOL    HW230669   8.463   5.113   2.678  0.2048  0.3743  0.2360
 6664SOL     OW30670   1.231   0.873   0.785 -0.2270 -0.6011 -0.3174
 6664SOL    HW130671   1.142   0.875   0.740  0.0332  0.6539 -0.7844
 6664SOL    HW230672   1.263   0.967   0.800 -0.0781 -0.9881  2.0170
 6665SOL     OW30673   1.884   8.616   1.765  0.1244 -0.4735 -0.7579
 6665SOL    HW130674   1.841   8.612   1.675 -0.5396  1.9406 -0.5750
 6665SOL    HW230675   1.866   8.531   1.814 -1.3424 -0.9378 -2.0658
 6666SOL     OW30676   3.729   2.254   1.569  0.9346  0.0739  0.1806
 6666SOL    HW130677   3.732   2.219   1.663 -0.5078 -0.8238 -0.0938
 6666SOL    HW230678   3.641   2.297   1.553  0.0132 -2.3803 -1.6543
 6667SOL     OW30679   3.192   6.385   3.041 -0.2387  0.1443 -0.6945
 6667SOL    HW130680   3.193   6.379   3.140 -0.2272  0.2478 -0.6894
 6667SOL    HW230681   3.130   6.315   3.004 -0.3185  0.1733 -0.6114
 6668SOL     OW30682   8.059   6.931   1.874  0.3082 -0.1503  0.1134
 6668SOL    HW130683   8.104   6.976   1.797 -1.0872  2.0013  0.5275
 6668SOL    HW230684   8.114   6.941   1.957 -0.3694  1.5104  0.3748
 6669SOL     OW30685   2.609   4.392   4.452 -0.2143  0.0344 -0.1409
 6669SOL    HW130686   2.624   4.305   4.499 -0.1051  0.0206 -0.2006
 6669SOL    HW230687   2.697   4.435   4.433 -0.1930 -0.5251 -1.3821
 6670SOL     OW30688   4.448   0.625   1.224  0.5543 -0.9098 -0.0293
 6670SOL    HW130689   4.399   0.561   1.165 -1.8421  0.7886  0.0260
 6670SOL    HW230690   4.443   0.594   1.319  1.3733 -1.8150 -0.2774
 6671SOL     OW30691   8.810   5.594   2.157 -0.1752  0.6670 -0.2530
 6671SOL    HW130692   8.776   5.564   2.246  0.5330  0.5820 -0.0082
 6671SOL    HW230693   8.739   5.583   2.088 -0.2928 -0.5005  0.0510
 6672SOL     OW30694   2.747   2.340   2.100 -0.0981 -0.1125 -0.0330
 6672SOL    HW130695   2.735   2.395   2.018  1.0759  1.8293  1.0706
 6672SOL    HW230696   2.660   2.296   2.124 -1.2842  1.9713 -0.4325
 6673SOL     OW30697   6.834   7.987   3.312  0.1282 -0.2123 -0.5414
 6673SOL    HW130698   6.859   8.080   3.339  0.2293 -0.3362 -0.1950
 6673SOL    HW230699   6.872   7.922   3.379 -0.4415 -0.4613 -0.4564
 6674SOL     OW30700   4.228   9.965   5.253 -0.4043  0.5278  0.3600
 6674SOL    HW130701   4.175  10.012   5.183  0.7864  0.8529 -0.3409
 6674SOL    HW230702   4.325   9.967   5.229 -0.2434 -1.6595  0.7002
 6675SOL     OW30703   3.237   4.918   1.022  1.0060 -0.3291  0.0653
 6675SOL    HW130704   3.292   4.936   1.103 -0.3025  0.6185  0.7785
 6675SOL    HW230705   3.234   5.001   0.965 -0.0811 -0.1967  0.2954
 6676SOL     OW30706   2.971   0.163   4.284  0.1396 -0.1487 -0.1259
 6676SOL    HW130707   2.925   0.248   4.259  2.9816  0.8914 -1.9746
 6676SOL    HW230708   3.028   0.179   4.365 -0.9850 -0.8917  0.8419
 6677SOL     OW30709   9.113   0.733   3.437 -0.4960  0.0229 -0.1519
 6677SOL    HW130710   9.022   0.768   3.416 -0.1246  1.3939  0.4435
 6677SOL    HW230711   9.171   0.809   3.468  0.4887 -1.0534  0.6702
 6678SOL     OW30712   0.963   1.408   2.566 -0.0182  0.7572 -0.2487
 6678SOL    HW130713   0.984   1.385   2.471 -2.2475  2.5619 -1.2199
 6678SOL    HW230714   0.931   1.502   2.572  1.5686  1.1908  2.5378
 6679SOL     OW30715   2.412   3.363   2.476  0.6181  0.1437  0.4066
 6679SOL    HW130716   2.481   3.305   2.434 -0.0904 -1.8759  1.9428
 6679SOL    HW230717   2.357   3.309   2.540 -1.2110  2.1155  0.5709
 6680SOL     OW30718   3.786   6.065   3.008  0.3648 -0.5619  0.2618
 6680SOL    HW130719   3.715   6.001   2.976  0.6892 -1.2068  0.8168
 6680SOL    HW230720   3.742   6.143   3.052 -0.0449 -0.2521 -0.6679
 6681SOL     OW30721   9.001   9.512   0.039 -0.2933  0.3485  0.5963
 6681SOL    HW130722   8.961   9.600   0.013 -0.0363  0.4479  0.5411
 6681SOL    HW230723   8.941   9.467   0.105 -1.5082 -0.3952 -0.9803
 6682SOL     OW30724   6.252   9.030   2.979 -0.6126  0.5078 -0.6027
 6682SOL    HW130725   6.277   9.123   3.009  1.9216 -0.2872 -0.1131
 6682SOL    HW230726   6.317   8.999   2.909 -2.0162 -0.5502 -1.4647
 6683SOL     OW30727   4.714   3.601   0.642 -0.2669 -0.0429 -0.2458
 6683SOL    HW130728   4.616   3.615   0.627 -0.3147 -0.6198 -0.4806
 6683SOL    HW230729   4.765   3.663   0.582 -0.4864  0.9411  0.5646
 6684SOL     OW30730   0.640   0.157   0.760 -0.2962  0.0263 -0.1911
 6684SOL    HW130731   0.613   0.192   0.849  0.4670  0.0716  0.0273
 6684SOL    HW230732   0.590   0.072   0.741 -0.1149 -0.2380  0.4903
 6685SOL     OW30733   1.899   5.393   2.420  0.0430  0.0280  0.0404
 6685SOL    HW130734   1.970   5.449   2.379 -0.0464  0.1571  0.0622
 6685SOL    HW230735   1.930   5.359   2.509  0.0121  0.2214  0.1251
 6686SOL     OW30736   0.019   9.233   2.094  0.1648  0.3091 -0.7559
 6686SOL    HW130737   0.095   9.175   2.068 -1.7769 -2.2026 -0.9951
 6686SOL    HW230738  -0.034   9.188   2.166 -1.2812  1.8567 -0.8174
 6687SOL     OW30739   3.509   3.274   5.401 -0.3636 -0.0105  0.8686
 6687SOL    HW130740   3.498   3.356   5.458  2.7129  0.7525  0.4547
 6687SOL    HW230741   3.499   3.193   5.459 -0.9443  0.6879  1.7752
 6688SOL     OW30742   8.517   7.870   3.036  0.3310 -0.0396  0.3627
 6688SOL    HW130743   8.590   7.938   3.033  1.2431 -1.0230  0.2453
 6688SOL    HW230744   8.436   7.907   2.991  0.5552  1.2814  1.0109
 6689SOL     OW30745   3.186   9.076   2.699 -0.0778  0.0125 -0.0027
 6689SOL    HW130746   3.102   9.128   2.713 -0.0214  0.5475 -1.4719
 6689SOL    HW230747   3.165   8.980   2.683 -0.3427 -0.0234  0.5741
 6690SOL     OW30748   7.751   3.926   1.782  0.3900  0.4730 -0.2282
 6690SOL    HW130749   7.782   3.835   1.808  1.1055  0.2145 -1.9610
 6690SOL    HW230750   7.825   3.992   1.794 -0.3688  0.9980  1.8122
 6691SOL     OW30751   9.793   5.211   1.717 -0.6528  0.2435 -0.3794
 6691SOL    HW130752   9.751   5.273   1.782  0.4688  1.0266 -0.3939
 6691SOL    HW230753   9.860   5.153   1.763 -2.1156 -1.3885 -0.2487
 6692SOL     OW30754   3.007   8.695   3.115 -0.1127 -0.0404 -0.1535
 6692SOL    HW130755   2.989   8.696   3.214  1.8149  2.8788  0.2120
 6692SOL    HW230756   2.922   8.674   3.066 -2.4838  4.2311  1.8909
 6693SOL     OW30757   1.383   4.562   1.786  0.0134 -0.2271  0.1822
 6693SOL    HW130758   1.299   4.552   1.731 -0.1438 -2.0091  0.6981
 6693SOL    HW230759   1.378   4.500   1.864  2.0366 -0.7328 -0.0729
 6694SOL     OW30760   2.618   7.540   0.114  0.1707  0.3286 -0.1081
 6694SOL    HW130761   2.608   7.598   0.194  1.8309 -1.7902  1.7052
 6694SOL    HW230762   2.528   7.505   0.086 -0.1536 -0.9492  2.4088
 6695SOL     OW30763   8.543   8.336   4.732 -0.3717  0.6997 -0.0827
 6695SOL    HW130764   8.609   8.378   4.670  0.0905  0.8551  0.5136
 6695SOL    HW230765   8.473   8.289   4.679  0.7679 -0.3118 -0.7011
 6696SOL     OW30766   7.306   9.332   3.880 -0.1943  0.0227  0.4779
 6696SOL    HW130767   7.378   9.270   3.847 -1.4942 -1.5695  0.5664
 6696SOL    HW230768   7.297   9.409   3.817  1.6960  0.3364  0.5555
 6697SOL     OW30769   9.695   0.462   2.326 -0.8175 -0.2696 -0.0625
 6697SOL    HW130770   9.701   0.418   2.416 -0.4860  1.3362  0.7241
 6697SOL    HW230771   9.608   0.438   2.283 -1.0228 -0.9708  0.7379
 6698SOL     OW30772   9.533   8.549   4.469 -0.5163  0.8476 -0.0907
 6698SOL    HW130773   9.560   8.463   4.425  0.9815  0.6566  1.1702
 6698SOL    HW230774   9.437   8.543   4.496  0.1915 -1.3630  2.1341
 6699SOL     OW30775   2.799   6.704   2.056 -0.4439 -0.5896 -0.8252
 6699SOL    HW130776   2.780   6.661   1.968 -1.3111  0.3363 -1.0936
 6699SOL    HW230777   2.715   6.711   2.110 -0.2143  0.2394 -0.5539
 6700SOL     OW30778   3.555   4.018   1.274 -0.1096  0.2470 -0.0502
 6700SOL    HW130779   3.580   4.016   1.371  2.3104 -0.7764 -0.6492
 6700SOL    HW230780   3.502   3.936   1.252 -1.0868  0.7252  0.5090
 6701SOL     OW30781   9.462   7.640   1.703  0.2581  0.0208 -0.3719
 6701SOL    HW130782   9.473   7.635   1.802 -0.7607  0.7261 -0.2255
 6701SOL    HW230783   9.464   7.736   1.674  0.8044 -0.1946 -1.0686
 6702SOL     OW30784   8.061   4.121   1.511  0.2642  0.1889 -0.2954
 6702SOL    HW130785   8.047   4.066   1.593 -2.5358  1.8853  0.4153
 6702SOL    HW230786   8.080   4.215   1.536 -0.8656  0.7795 -1.5794
 6703SOL     OW30787   2.136   8.701   1.711 -0.4220  0.8275  0.3545
 6703SOL    HW130788   2.199   8.660   1.776  0.1935 -0.5943 -1.1152
 6703SOL    HW230789   2.042   8.677   1.736 -0.2612  1.1352  1.2842
 6704SOL     OW30790   4.627   9.144   0.025 -0.0412  0.6630  0.1966
 6704SOL    HW130791   4.698   9.074   0.023 -0.1192  0.6129 -1.2456
 6704SOL    HW230792   4.537   9.100   0.030 -0.0380  0.6918  0.4957
 6705SOL     OW30793   5.692   1.319   2.867  0.6135 -0.3718  0.2144
 6705SOL    HW130794   5.657   1.371   2.946 -1.5733 -1.9731  0.3452
 6705SOL    HW230795   5.712   1.382   2.792  0.3359  0.9061  1.1956
 6706SOL     OW30796   3.350   2.095   4.864 -0.0155  0.2791  0.2663
 6706SOL    HW130797   3.268   2.040   4.848 -1.1270  2.1671 -0.8212
 6706SOL    HW230798   3.338   2.185   4.821  2.3258  0.8574  0.7614
 6707SOL     OW30799   2.739   7.160   2.381  0.2103 -0.0491  0.2973
 6707SOL    HW130800   2.797   7.173   2.461  1.0608  1.9110 -0.6148
 6707SOL    HW230801   2.660   7.220   2.387  1.5282  1.9357 -1.4723
 6708SOL     OW30802   3.374   9.595   0.930  0.0980  0.0203  0.1559
 6708SOL    HW130803   3.275   9.594   0.947  0.2698  2.6422  1.5642
 6708SOL    HW230804   3.390   9.604   0.832 -1.0520 -0.4502 -0.0888
 6709SOL     OW30805   4.016   8.586   2.885  0.2258  0.1854  0.1439
 6709SOL    HW130806   4.075   8.663   2.860 -0.2152 -0.1824 -2.1284
 6709SOL    HW230807   3.920   8.614   2.879  0.0666 -0.5278 -0.6176
 6710SOL     OW30808   4.913   7.921   2.373  0.1913  0.3503 -0.5312
 6710SOL    HW130809   4.847   7.891   2.305 -0.0548 -2.1419  0.7462
 6710SOL    HW230810   4.869   7.985   2.436 -0.6828 -0.3721 -0.4011
 6711SOL     OW30811   0.288   3.423   2.945 -0.6045 -0.7427 -0.0601
 6711SOL    HW130812   0.212   3.363   2.918  0.6714 -2.2836 -0.3218
 6711SOL    HW230813   0.365   3.409   2.882  0.2024  0.1909  0.7105
 6712SOL     OW30814   3.661   4.126   1.729  0.2731 -0.1128  0.1059
 6712SOL    HW130815   3.590   4.152   1.663 -0.5419 -0.5337  0.8152
 6712SOL    HW230816   3.621   4.114   1.819  1.3419  0.1671  0.6337
 6713SOL     OW30817   6.540   7.196   2.486  0.2444  0.2030  0.3252
 6713SOL    HW130818   6.497   7.117   2.531  0.3263 -0.1962 -0.2933
 6713SOL    HW230819   6.471   7.266   2.470  0.1365  0.1921  0.7290
 6714SOL     OW30820   0.338   2.779   2.584  0.2820 -0.2242 -0.5506
 6714SOL    HW130821   0.363   2.826   2.669 -0.7843 -0.8378  0.1010
 6714SOL    HW230822   0.374   2.831   2.506 -0.4474  1.4100  0.1829
 6715SOL     OW30823   2.367   8.359   4.037 -0.2515 -0.0518  0.0286
 6715SOL    HW130824   2.303   8.298   4.085 -0.0365 -0.0510  0.3176
 6715SOL    HW230825   2.411   8.420   4.103  0.4185 -0.3895 -0.0892
 6716SOL     OW30826   6.920   0.424   2.965  0.0454 -0.5602 -0.0700
 6716SOL    HW130827   6.989   0.355   2.946  0.6545 -0.0108  0.1127
 6716SOL    HW230828   6.910   0.434   3.064 -0.0315 -0.3837 -0.0955
 6717SOL     OW30829   8.471   2.494   1.662 -0.0621 -0.1228  0.2080
 6717SOL    HW130830   8.472   2.396   1.681  0.6875  0.0163  0.9309
 6717SOL    HW230831   8.377   2.527   1.660 -0.2201 -0.3654  2.6294
 6718SOL     OW30832   9.754   2.549   0.748 -0.1097  0.1539 -0.1469
 6718SOL    HW130833   9.818   2.576   0.676  0.3769 -3.9024 -1.3570
 6718SOL    HW230834   9.785   2.586   0.836  2.2272  0.7878 -1.1940
 6719SOL     OW30835   8.817   7.957   3.756  1.0015 -0.0983  0.1330
 6719SOL    HW130836   8.892   7.999   3.808  1.6043 -0.1326 -0.6993
 6719SOL    HW230837   8.855   7.909   3.676  0.0890 -0.1443 -0.2765
 6720SOL     OW30838   7.968   0.840   0.553 -0.2364 -0.0527  0.2774
 6720SOL    HW130839   7.895   0.779   0.524  0.7511 -0.2838 -1.7920
 6720SOL    HW230840   8.025   0.794   0.621  0.3541 -1.3612 -1.0821
 6721SOL     OW30841   5.111   0.077   4.366 -0.4267 -0.5839  0.1976
 6721SOL    HW130842   5.036   0.105   4.427 -1.5413 -0.0079 -1.3985
 6721SOL    HW230843   5.090   0.105   4.272  2.9182  1.7985  0.0604
 6722SOL     OW30844   3.710   1.026   3.015  0.6758  0.1007  0.0507
 6722SOL    HW130845   3.747   0.953   2.957  1.8822  1.5069 -0.9822
 6722SOL    HW230846   3.650   1.084   2.960  1.9060  1.5079  0.1823
 6723SOL     OW30847   1.923   5.672   1.099  0.6515 -0.5046  0.1957
 6723SOL    HW130848   1.828   5.667   1.132  0.9747 -4.3386  0.6766
 6723SOL    HW230849   1.923   5.687   1.001 -0.4204  0.6108  0.3495
 6724SOL     OW30850   3.326   8.265   4.558 -0.1803 -0.3714  0.4447
 6724SOL    HW130851   3.303   8.171   4.533 -0.8209  0.0988 -0.7658
 6724SOL    HW230852   3.324   8.275   4.658 -2.2945 -1.0802  0.4845
 6725SOL     OW30853   3.152   0.772   0.387 -0.1543  0.3587  0.4353
 6725SOL    HW130854   3.249   0.790   0.402 -0.3333  0.1856  1.8461
 6725SOL    HW230855   3.141   0.724   0.300  0.9421  1.1056 -0.1307
 6726SOL     OW30856   6.971   1.494   2.512 -0.1474  0.4491 -0.1913
 6726SOL    HW130857   6.890   1.438   2.498  1.0135 -0.9920 -1.3701
 6726SOL    HW230858   6.980   1.560   2.436 -0.9871  1.6134  0.6964
 6727SOL     OW30859   1.554   8.759   0.743 -0.2337  0.3622 -0.2858
 6727SOL    HW130860   1.518   8.674   0.779  0.9402  0.5352  1.3465
 6727SOL    HW230861   1.503   8.785   0.661 -0.8192 -1.7178 -0.6082
 6728SOL     OW30862   9.313   9.195   2.310  0.0435  0.1627 -0.0725
 6728SOL    HW130863   9.226   9.151   2.288  0.1022  0.1962 -0.3687
 6728SOL    HW230864   9.328   9.272   2.249  1.7697 -1.7416 -2.1534
 6729SOL     OW30865   9.853   8.237   3.396  0.0890 -0.0057  0.5440
 6729SOL    HW130866   9.795   8.199   3.468 -0.1062  0.0476  0.4143
 6729SOL    HW230867   9.901   8.318   3.432  0.5556 -0.4059  0.8389
 6730SOL     OW30868   1.082   8.310   3.444 -0.2875 -0.2295 -0.4240
 6730SOL    HW130869   0.993   8.313   3.489 -0.3859 -0.5278 -0.5952
 6730SOL    HW230870   1.144   8.374   3.489  0.6174 -2.9022  2.3191
 6731SOL     OW30871   3.523   4.037   2.261  0.0246  0.3071 -0.1533
 6731SOL    HW130872   3.543   3.939   2.267 -1.2282 -0.0869 -2.1131
 6731SOL    HW230873   3.526   4.066   2.166 -3.7327  1.2850 -0.0570
 6732SOL     OW30874   3.308   0.502   5.185  0.1140  0.0640 -0.1932
 6732SOL    HW130875   3.313   0.554   5.270  1.0323  0.0425 -0.2298
 6732SOL    HW230876   3.400   0.474   5.157 -0.1606  0.2531 -1.3049
 6733SOL     OW30877   8.673   0.287   4.009  0.3992 -0.5311  0.2480
 6733SOL    HW130878   8.767   0.302   4.042  0.6363 -0.5891 -0.4027
 6733SOL    HW230879   8.610   0.292   4.086  0.8559  0.3073  0.5758
 6734SOL     OW30880   0.892   9.819   0.032  0.2741  0.0001 -0.0850
 6734SOL    HW130881   0.847   9.823  -0.058 -0.7732 -0.8400  0.3936
 6734SOL    HW230882   0.957   9.895   0.039  0.6219 -0.1174 -1.6847
 6735SOL     OW30883   0.831   7.214   2.833  0.2249 -0.2253  0.1752
 6735SOL    HW130884   0.766   7.146   2.799 -1.4392  0.7169  1.4159
 6735SOL    HW230885   0.862   7.188   2.924  0.6425 -0.0507  0.0811
 6736SOL     OW30886   2.575   1.134   1.080 -0.3008 -0.6630  0.0921
 6736SOL    HW130887   2.617   1.207   1.134  1.1992 -3.1201  2.3004
 6736SOL    HW230888   2.623   1.048   1.095 -2.2020 -2.2264 -2.2774
 6737SOL     OW30889   3.975   0.224   3.525 -0.0177 -0.6743 -0.4165
 6737SOL    HW130890   3.949   0.283   3.448 -1.9124  0.4782  1.0858
 6737SOL    HW230891   4.022   0.278   3.594 -1.4882 -0.9828  0.8353
 6738SOL     OW30892   1.012   4.315   1.426  0.3610 -0.1843 -0.3849
 6738SOL    HW130893   0.927   4.262   1.429  0.6525 -0.5918  1.2929
 6738SOL    HW230894   1.003   4.387   1.358 -1.2922 -0.2889 -0.3180
 6739SOL     OW30895   8.873   1.405   0.627 -0.2080  0.3857 -0.6798
 6739SOL    HW130896   8.879   1.415   0.528  0.7277  1.7974 -0.4888
 6739SOL    HW230897   8.852   1.494   0.668  2.9552  0.5541  0.6598
 6740SOL     OW30898   0.316   1.484   4.108  0.7131  0.0683  0.0800
 6740SOL    HW130899   0.365   1.398   4.096 -0.5911 -0.5637 -0.8532
 6740SOL    HW230900   0.291   1.495   4.204 -1.3431 -1.8548 -0.1971
 6741SOL     OW30901   3.769   2.475   1.198 -0.6215 -0.2949  0.0027
 6741SOL    HW130902   3.715   2.526   1.131  0.4384 -0.4068 -0.9369
 6741SOL    HW230903   3.755   2.516   1.289 -0.5432  1.0635 -0.5875
 6742SOL     OW30904   2.545   3.473   0.350 -0.6440 -0.2814 -0.0157
 6742SOL    HW130905   2.513   3.404   0.285  1.3960 -0.8352 -0.4584
 6742SOL    HW230906   2.557   3.560   0.302 -2.2578  0.1606  0.3357
 6743SOL     OW30907   0.975   1.639   1.006 -0.3990 -0.3001  0.5358
 6743SOL    HW130908   0.898   1.597   1.055  0.5999 -1.7334  0.9152
 6743SOL    HW230909   1.060   1.619   1.055  0.1286  2.0844  0.6440
 6744SOL     OW30910   2.381   4.194   4.560  0.1883 -0.0976  0.5168
 6744SOL    HW130911   2.467   4.156   4.594  1.0297  2.4278  1.2717
 6744SOL    HW230912   2.391   4.292   4.542 -1.6059 -0.3801 -2.5374
 6745SOL     OW30913   1.431   9.532   3.939 -0.4145  0.4071  0.2836
 6745SOL    HW130914   1.389   9.449   3.904 -1.3163  0.7727  0.4731
 6745SOL    HW230915   1.520   9.511   3.979 -0.4281 -0.3830 -0.1012
 6746SOL     OW30916   5.175   0.697   3.380  0.3324  0.3222  0.1290
 6746SOL    HW130917   5.215   0.675   3.291  0.7426  1.4979  0.0130
 6746SOL    HW230918   5.090   0.646   3.392  2.0266 -2.5188  0.5398
 6747SOL     OW30919   3.368   5.729   2.073  0.1246 -0.3299 -0.0355
 6747SOL    HW130920   3.317   5.713   1.988  1.7410 -0.6261 -0.9677
 6747SOL    HW230921   3.372   5.827   2.091 -1.8318 -0.3547  0.7337
 6748SOL     OW30922   0.138   0.990   0.959  0.4643 -0.4479 -0.0773
 6748SOL    HW130923   0.194   1.073   0.962 -0.6254  0.3097 -0.0191
 6748SOL    HW230924   0.185   0.916   1.008  0.9611  0.4531  0.8387
 6749SOL     OW30925   3.795   2.916   5.054 -0.0655 -0.2476 -0.6401
 6749SOL    HW130926   3.724   2.927   5.123 -0.8062 -2.6020 -0.9617
 6749SOL    HW230927   3.768   2.844   4.990  1.6357  0.3255 -2.0326
 6750SOL     OW30928   0.488   7.703   4.911  0.0588 -0.3534 -0.5004
 6750SOL    HW130929   0.441   7.641   4.849 -1.8168 -0.7790  1.2826
 6750SOL    HW230930   0.427   7.726   4.987  0.9392  3.1580 -0.7795
 6751SOL     OW30931   9.524   3.512   3.752 -0.0809 -0.8182  0.1153
 6751SOL    HW130932   9.488   3.568   3.676 -0.5534 -1.5165 -0.1842
 6751SOL    HW230933   9.552   3.572   3.826  0.8310 -0.0915 -0.7958
 6752SOL     OW30934   7.482   2.801   1.086 -0.4994  0.0706  0.5745
 6752SOL    HW130935   7.463   2.797   0.988  2.2124  0.5067 -0.0074
 6752SOL    HW230936   7.483   2.708   1.123  1.4826 -0.3693 -0.4790
 6753SOL     OW30937   2.734   9.554   0.985 -0.0460  0.0214  0.4400
 6753SOL    HW130938   2.708   9.480   1.046  0.3082  0.1168  0.7109
 6753SOL    HW230939   2.802   9.612   1.030  1.6291 -0.9810 -0.7353
 6754SOL     OW30940   0.524   8.508   2.739 -0.0844 -0.5127  0.0817
 6754SOL    HW130941   0.519   8.475   2.833  0.4565  0.0497  0.3094
 6754SOL    HW230942   0.492   8.603   2.735 -1.6543 -1.0549 -0.5745
 6755SOL     OW30943   3.379   7.739   4.323  0.2139  0.6109 -0.1557
 6755SOL    HW130944   3.400   7.686   4.405  0.2543  1.0836  0.1404
 6755SOL    HW230945   3.460   7.745   4.265  0.3308  0.7064  0.0166
 6756SOL     OW30946   1.739   6.851   2.624  0.1542 -0.1066 -0.2365
 6756SOL    HW130947   1.735   6.752   2.635 -0.3969  0.0800  1.5887
 6756SOL    HW230948   1.659   6.882   2.572 -0.4994 -0.4856  0.5232
 6757SOL     OW30949   7.775   3.043   1.941 -0.0543  0.2927  0.2995
 6757SOL    HW130950   7.758   2.982   1.863  1.2290  0.5087 -0.1594
 6757SOL    HW230951   7.737   3.002   2.024 -1.8448  0.2727 -0.5027
 6758SOL     OW30952   7.214   0.740   2.271  0.5231  0.1812  0.3997
 6758SOL    HW130953   7.275   0.810   2.233  1.0009 -0.3043  0.2637
 6758SOL    HW230954   7.268   0.659   2.295 -0.0731 -0.2544  0.2590
 6759SOL     OW30955   3.400   8.785   4.138  0.1939  0.3620  0.0730
 6759SOL    HW130956   3.491   8.744   4.150  0.2111  0.8512  1.8201
 6759SOL    HW230957   3.393   8.824   4.046  1.9921  0.8712  0.1239
 6760SOL     OW30958   1.118   0.014   1.492 -0.2051  0.5193  0.1907
 6760SOL    HW130959   1.158   0.104   1.478 -0.6545  0.4361 -1.7814
 6760SOL    HW230960   1.067   0.013   1.578 -0.9401  2.4175 -0.2013
 6761SOL     OW30961   9.886   9.206   0.261  0.4595 -0.1123  0.2327
 6761SOL    HW130962   9.798   9.158   0.261  0.3397  0.1068  0.7043
 6761SOL    HW230963   9.876   9.294   0.307  0.6303  0.4594 -0.8277
 6762SOL     OW30964   9.771   8.083   1.722  0.4201 -0.3300  0.3144
 6762SOL    HW130965   9.794   8.168   1.674  1.4663 -0.1307  1.1510
 6762SOL    HW230966   9.750   8.103   1.817 -3.0868 -0.5359 -0.3352
 6763SOL     OW30967   2.275   4.807   3.382 -0.1970 -0.2668  0.6777
 6763SOL    HW130968   2.315   4.802   3.290 -0.9697 -0.0057  0.3236
 6763SOL    HW230969   2.273   4.902   3.413  0.9116 -0.4543  1.3485
 6764SOL     OW30970   1.951   1.631   0.923  0.2066 -0.1460 -0.1841
 6764SOL    HW130971   2.031   1.673   0.966 -0.4361  1.5700 -0.6172
 6764SOL    HW230972   1.981   1.566   0.853  1.2231  0.5091 -0.3663
 6765SOL     OW30973   8.747   2.336   2.194  1.1113 -0.2139 -0.3369
 6765SOL    HW130974   8.674   2.296   2.138  0.2724  1.2541 -0.3130
 6765SOL    HW230975   8.834   2.326   2.147  0.5826 -0.0681 -1.3617
 6766SOL     OW30976   7.359   9.898   3.541  0.2293 -0.1537 -0.6400
 6766SOL    HW130977   7.411   9.974   3.579  0.5064  0.3606 -2.0246
 6766SOL    HW230978   7.288   9.870   3.606 -1.0310  2.4318 -0.8475
 6767SOL     OW30979   7.585   7.795   3.846  0.3003 -0.1792 -0.1907
 6767SOL    HW130980   7.568   7.696   3.843 -0.2245 -0.0713 -0.8703
 6767SOL    HW230981   7.521   7.842   3.785  1.4668  0.4462 -0.9655
 6768SOL     OW30982   1.553   3.035   0.794  0.1694 -0.1614  0.2962
 6768SOL    HW130983   1.519   2.944   0.820 -1.5667 -0.0567 -1.5473
 6768SOL    HW230984   1.612   3.027   0.713 -0.9628  0.5000 -0.5994
 6769SOL     OW30985   1.266   6.869   2.073 -0.1591  0.4804 -0.0133
 6769SOL    HW130986   1.181   6.848   2.122  0.7345 -0.9407  0.9691
 6769SOL    HW230987   1.328   6.916   2.135 -0.1008  1.2327 -0.6407
 6770SOL     OW30988   7.897   9.825   1.755 -0.2583  0.2274 -0.0689
 6770SOL    HW130989   7.927   9.912   1.717  0.5435 -0.0869 -0.1755
 6770SOL    HW230990   7.848   9.841   1.841 -2.3410  0.9589 -1.3666
 6771SOL     OW30991   0.749   3.194   2.768  0.2021  0.1080  0.3534
 6771SOL    HW130992   0.818   3.251   2.811 -0.6566  1.0416  0.5156
 6771SOL    HW230993   0.765   3.191   2.669  0.6715  0.0511  0.4340
 6772SOL     OW30994   3.510   3.147   0.306  0.3869  0.6586 -0.2884
 6772SOL    HW130995   3.473   3.067   0.259 -1.3668  0.9457  0.5496
 6772SOL    HW230996   3.585   3.119   0.366 -0.8704 -0.5421  0.7691
 6773SOL     OW30997   1.747   2.496   3.570  0.1317  0.2899  0.2057
 6773SOL    HW130998   1.769   2.476   3.474 -0.9330  1.0965 -0.2328
 6773SOL    HW230999   1.780   2.422   3.628  1.5744  0.2119 -0.6856
 6774SOL     OW31000   1.630   2.567   2.072  0.3116  0.3604  0.5145
 6774SOL    HW131001   1.624   2.482   2.124  1.8406  2.0920  3.6999
 6774SOL    HW231002   1.566   2.634   2.110  2.0938  1.9530  0.8101
 6775SOL     OW31003   4.422   9.533   4.018  0.0851 -0.2642 -0.2029
 6775SOL    HW131004   4.350   9.468   4.044 -0.3135  0.7727  1.3357
 6775SOL    HW231005   4.392   9.626   4.040  1.8324  0.1862  0.3224
 6776SOL     OW31006   2.681   2.752   1.065 -0.2602  0.3584 -0.0752
 6776SOL    HW131007   2.592   2.767   1.108 -0.6260  1.0173 -1.0241
 6776SOL    HW231008   2.693   2.818   0.991  0.8850  0.0609 -0.1623
 6777SOL     OW31009   4.120   7.759   2.106 -0.5785 -0.2502 -0.4883
 6777SOL    HW131010   4.080   7.849   2.090  0.9452  0.6759  0.6964
 6777SOL    HW231011   4.205   7.751   2.052 -0.8955 -1.1146 -0.8626
 6778SOL     OW31012   0.240   7.066   4.181  0.1656 -0.2565 -0.6694
 6778SOL    HW131013   0.246   7.165   4.176  0.2239 -0.1226  1.5409
 6778SOL    HW231014   0.168   7.040   4.245  0.4160 -1.6368 -0.9273
 6779SOL     OW31015   2.390   9.582   2.257  0.0946  0.0804  0.1248
 6779SOL    HW131016   2.413   9.522   2.180 -0.5732 -1.0037  0.7438
 6779SOL    HW231017   2.432   9.672   2.244  1.7523 -0.7623 -0.4457
 6780SOL     OW31018   3.841   8.637   0.946  0.1166  0.1693  0.0510
 6780SOL    HW131019   3.904   8.681   1.010 -0.9536  0.9996  0.5567
 6780SOL    HW231020   3.887   8.561   0.901  0.9362 -0.3672  1.7298
 6781SOL     OW31021   3.702   0.035   4.985  0.7632  0.0229  0.3381
 6781SOL    HW131022   3.771   0.014   5.055 -0.0181  0.2698  1.1881
 6781SOL    HW231023   3.611   0.016   5.021  0.1431  3.1799  0.5190
 6782SOL     OW31024   0.772   0.505   4.852 -0.3833  0.1090  0.8236
 6782SOL    HW131025   0.820   0.510   4.764 -0.4709  1.2762  0.8380
 6782SOL    HW231026   0.787   0.414   4.892  0.3913 -0.1305  0.0263
 6783SOL     OW31027   0.294   9.773   2.223 -0.3240 -0.4715 -0.7491
 6783SOL    HW131028   0.278   9.710   2.147 -0.7096 -0.4381 -0.6975
 6783SOL    HW231029   0.212   9.828   2.238 -0.1166 -0.2170 -0.5518
 6784SOL     OW31030   0.505   6.898   2.687 -0.4265  0.4210  0.1060
 6784SOL    HW131031   0.509   6.856   2.596 -0.3319  0.2461  0.1904
 6784SOL    HW231032   0.523   6.996   2.679 -0.4555  0.4126 -0.0696
 6785SOL     OW31033   8.523   1.269   0.983 -0.1474 -0.2395  0.3035
 6785SOL    HW131034   8.433   1.313   0.982 -0.3881 -0.6664  1.8847
 6785SOL    HW231035   8.527   1.203   1.058  1.0590 -1.1322 -0.5322
 6786SOL     OW31036   7.406   0.097   3.110 -0.7507 -0.2902  1.0029
 6786SOL    HW131037   7.432   0.165   3.178 -1.1616  1.4422 -0.5575
 6786SOL    HW231038   7.315   0.118   3.074  1.2889  1.5916 -3.4762
 6787SOL     OW31039   9.533   3.212   1.500  0.1012  0.2127  0.6995
 6787SOL    HW131040   9.497   3.282   1.562 -0.7261  0.1380  0.3109
 6787SOL    HW231041   9.563   3.255   1.415 -0.2094  0.1238  0.5447
 6788SOL     OW31042   0.366   3.131   3.834 -0.6094  0.1499  0.5387
 6788SOL    HW131043   0.267   3.136   3.829 -0.5907  0.4667  0.4552
 6788SOL    HW231044   0.393   3.059   3.898 -0.8840 -0.5970 -0.1803
 6789SOL     OW31045   9.362   4.099   2.238 -0.0681 -0.4350 -0.8305
 6789SOL    HW131046   9.345   4.195   2.214 -1.6177 -0.4099  0.2725
 6789SOL    HW231047   9.301   4.041   2.183 -1.3026 -0.5785  0.6501
 6790SOL     OW31048   0.908   8.339   0.129 -0.0399  0.1165  0.0466
 6790SOL    HW131049   0.857   8.387   0.058  1.8767  0.3037 -1.2211
 6790SOL    HW231050   0.998   8.380   0.140  0.8470 -1.8647  0.4158
 6791SOL     OW31051   0.084   7.272   0.978 -0.4005 -0.3063  0.0786
 6791SOL    HW131052   0.009   7.239   0.921 -1.7697 -0.4076  1.9140
 6791SOL    HW231053   0.095   7.371   0.966 -2.8160  0.2301  2.0618
 6792SOL     OW31054   2.295   9.521   1.415  0.1434  0.0332 -0.1872
 6792SOL    HW131055   2.256   9.532   1.507 -0.4955 -2.4420 -0.1399
 6792SOL    HW231056   2.299   9.611   1.370 -0.8967  1.0579  1.6937
 6793SOL     OW31057   2.181   5.932   2.668 -0.1975 -0.0333  0.2697
 6793SOL    HW131058   2.138   6.021   2.682  1.5328  0.8864 -0.0884
 6793SOL    HW231059   2.197   5.917   2.570  0.6772 -0.1761  0.4293
 6794SOL     OW31060   9.580   8.740   1.119  0.2271  0.1880  0.2012
 6794SOL    HW131061   9.483   8.736   1.098  0.2475 -0.8215  0.2735
 6794SOL    HW231062   9.632   8.754   1.034  0.0115  1.0391  0.2004
 6795SOL     OW31063   2.853   1.430   1.670 -0.3249  0.0229  0.5828
 6795SOL    HW131064   2.851   1.363   1.744 -2.9669  0.1227  0.6480
 6795SOL    HW231065   2.890   1.516   1.704 -0.0956 -0.3968  1.4060
 6796SOL     OW31066   2.856   1.276   4.317  0.2252 -0.3084  0.3383
 6796SOL    HW131067   2.927   1.327   4.268 -0.3823  0.0015 -0.2185
 6796SOL    HW231068   2.800   1.225   4.252 -0.2401 -0.3306  0.7519
 6797SOL     OW31069   1.865   5.679   0.801 -0.9697  0.1127  0.2180
 6797SOL    HW131070   1.781   5.728   0.823 -0.3195  1.1393  0.4205
 6797SOL    HW231071   1.901   5.712   0.714 -1.4686 -1.2493 -0.5307
 6798SOL     OW31072   8.629   2.230   0.917 -0.9228  0.2337  0.0179
 6798SOL    HW131073   8.652   2.230   1.014  1.3501 -1.7214 -0.4784
 6798SOL    HW231074   8.693   2.289   0.868 -0.1283 -1.2182 -0.7028
 6799SOL     OW31075   5.977   1.179   2.946 -0.6042  0.2899  0.2119
 6799SOL    HW131076   5.977   1.178   2.846  1.9422 -0.7275  0.1713
 6799SOL    HW231077   6.048   1.241   2.979  0.0273 -1.0091  1.3633
 6800SOL     OW31078   4.928   9.883   1.314 -0.1193 -0.2098 -0.2513
 6800SOL    HW131079   4.971   9.917   1.398  1.5587 -2.4125 -0.1629
 6800SOL    HW231080   4.937   9.951   1.241 -0.3231  1.1252  0.9579
 6801SOL     OW31081   5.191   9.957   3.421 -0.1647 -0.5512 -0.3557
 6801SOL    HW131082   5.182  10.037   3.363  0.2658 -0.2462 -0.0060
 6801SOL    HW231083   5.287   9.932   3.429 -0.0623  0.3238  1.4295
 6802SOL     OW31084   1.548   9.788   0.070  0.4759  0.0530 -0.3357
 6802SOL    HW131085   1.460   9.815   0.030  0.2031 -0.1666  0.1090
 6802SOL    HW231086   1.609   9.757  -0.002 -0.4859 -1.6528 -0.4393
 6803SOL     OW31087   2.476   7.791   3.021 -0.1707  0.0999 -0.1055
 6803SOL    HW131088   2.392   7.797   2.968 -0.7954 -2.0062  0.5780
 6803SOL    HW231089   2.479   7.865   3.089 -1.4199  0.2233 -0.1879
 6804SOL     OW31090   1.675   8.035   1.162  0.1710 -0.2598 -0.2518
 6804SOL    HW131091   1.644   8.118   1.208  2.2834  1.7471 -2.3262
 6804SOL    HW231092   1.639   8.032   1.069 -0.0640 -1.8047 -0.1356
 6805SOL     OW31093   1.509   2.020   3.858 -0.6658 -0.2753 -0.6235
 6805SOL    HW131094   1.472   1.938   3.902  1.3407 -0.0062  1.6903
 6805SOL    HW231095   1.609   2.011   3.851 -0.3142  2.4298  0.6160
 6806SOL     OW31096   3.412   0.193   4.796 -0.2260 -0.3854 -0.1856
 6806SOL    HW131097   3.497   0.246   4.804  0.1067 -1.1061  1.0768
 6806SOL    HW231098   3.406   0.127   4.870 -2.8223  0.9279  0.8308
 6807SOL     OW31099   3.952   1.888   1.780  0.3579  0.4523  0.1984
 6807SOL    HW131100   3.938   1.850   1.688  2.4617  0.8622 -0.3151
 6807SOL    HW231101   3.958   1.987   1.774  0.9946  0.4426  0.7185
 6808SOL     OW31102   1.862   7.968   1.359  0.0080  0.2679 -0.1589
 6808SOL    HW131103   1.949   7.926   1.333  0.0845 -0.2050  0.8402
 6808SOL    HW231104   1.804   7.978   1.279 -1.9153 -6.0643  0.1708
 6809SOL     OW31105   9.836   2.539   2.558  0.5678 -0.3202 -0.6285
 6809SOL    HW131106   9.916   2.596   2.575 -0.9660  1.5715  0.5188
 6809SOL    HW231107   9.786   2.574   2.479  0.3933 -0.9762 -0.8167
 6810SOL     OW31108   8.580   0.911   0.575  0.7679 -0.0818 -0.1320
 6810SOL    HW131109   8.499   0.852   0.569  1.0951 -0.3730 -1.9062
 6810SOL    HW231110   8.656   0.858   0.613  1.1285 -0.8906 -1.9498
 6811SOL     OW31111   8.947   8.906   1.053 -0.1214 -0.1055  0.4587
 6811SOL    HW131112   9.043   8.920   1.079 -0.7220 -0.0231  2.6979
 6811SOL    HW231113   8.932   8.810   1.032  0.1704 -0.3190  1.2392
 6812SOL     OW31114   4.981   8.301   3.551 -0.2261  0.2767  0.0598
 6812SOL    HW131115   4.910   8.371   3.543  0.0947  0.6194  0.1448
 6812SOL    HW231116   4.949   8.215   3.513  0.2087  1.0724 -2.1617
 6813SOL     OW31117   1.155   8.970   0.256 -1.0446  0.2527  0.9028
 6813SOL    HW131118   1.144   9.012   0.346  0.5035  0.5618  0.9513
 6813SOL    HW231119   1.247   8.931   0.247 -1.3668 -0.2656 -0.3426
 6814SOL     OW31120   9.241   3.339   3.367 -0.2356 -1.1179  0.6719
 6814SOL    HW131121   9.337   3.326   3.394 -0.8983 -0.7163  3.4120
 6814SOL    HW231122   9.186   3.267   3.409 -1.4547  0.0672  1.1276
 6815SOL     OW31123   1.608   9.304   3.625  0.1306 -0.3313 -0.4657
 6815SOL    HW131124   1.593   9.215   3.581 -0.7988 -0.7747  0.7164
 6815SOL    HW231125   1.596   9.295   3.723 -1.5373  1.4338 -0.4710
 6816SOL     OW31126   6.121   1.226   2.259  0.3386 -0.7163  0.3630
 6816SOL    HW131127   6.142   1.130   2.245  1.1665 -0.5322  0.3337
 6816SOL    HW231128   6.095   1.268   2.173  2.6390 -0.2673 -0.1444
 6817SOL     OW31129   8.492   0.915   0.894  0.1226 -0.2658  0.1751
 6817SOL    HW131130   8.510   0.828   0.847 -4.7519 -1.5798  0.4835
 6817SOL    HW231131   8.578   0.963   0.910  2.8160 -4.4181 -1.1943
 6818SOL     OW31132   1.152   1.474   2.145 -0.1142  0.1386  1.0382
 6818SOL    HW131133   1.058   1.489   2.175 -0.3472 -0.6507  0.7249
 6818SOL    HW231134   1.213   1.477   2.224 -0.1517  2.4887  1.0161
 6819SOL     OW31135   1.617   0.935   4.907 -0.6133  0.3714  0.3212
 6819SOL    HW131136   1.618   1.029   4.942 -0.2765  0.2464  0.6465
 6819SOL    HW231137   1.710   0.908   4.882 -0.8515  0.4563 -0.6594
 6820SOL     OW31138   1.348   6.614   5.357 -0.5028 -0.0788  0.6310
 6820SOL    HW131139   1.419   6.581   5.419  0.9554 -0.1476 -1.0234
 6820SOL    HW231140   1.391   6.657   5.278 -2.3315  0.4209 -0.1202
 6821SOL     OW31141   9.422   3.415   3.158 -0.2545 -0.7536 -0.0494
 6821SOL    HW131142   9.372   3.339   3.200 -1.8078  0.2221 -0.1163
 6821SOL    HW231143   9.362   3.465   3.095  0.5097  0.9686  0.5401
 6822SOL     OW31144   1.337   7.287   3.773 -0.6069  0.3266 -0.6769
 6822SOL    HW131145   1.315   7.200   3.817  0.7793  0.3991  0.1882
 6822SOL    HW231146   1.253   7.335   3.749 -1.3734 -0.4383  0.4717
 6823SOL     OW31147   8.733   0.257   0.206 -0.4739  0.4482  0.9140
 6823SOL    HW131148   8.809   0.211   0.251  0.1524  1.9145  1.3601
 6823SOL    HW231149   8.647   0.221   0.243 -0.0306 -1.4476  0.1667
 6824SOL     OW31150   2.289   7.821   5.411 -0.2628 -0.1757  0.0634
 6824SOL    HW131151   2.286   7.723   5.388 -0.2560 -0.1449 -0.0668
 6824SOL    HW231152   2.263   7.833   5.507  0.5094 -0.3824  0.3073
 6825SOL     OW31153   7.439   3.923   0.786 -0.5564 -0.0458  0.7844
 6825SOL    HW131154   7.378   4.001   0.801  0.3996  0.8389  0.1373
 6825SOL    HW231155   7.495   3.908   0.867 -1.4140 -0.6882  1.2760
 6826SOL     OW31156   1.690   9.600   1.625 -0.8562 -0.3892  0.2558
 6826SOL    HW131157   1.676   9.699   1.627  0.4167 -0.2112  0.7741
 6826SOL    HW231158   1.601   9.553   1.626 -1.4678  0.7484 -0.3673
 6827SOL     OW31159   3.663   9.512   3.178  0.2228  0.7950 -0.7063
 6827SOL    HW131160   3.712   9.590   3.140 -0.8854  1.5737 -0.5473
 6827SOL    HW231161   3.727   9.437   3.193  1.9607  2.7250  2.1091
 6828SOL     OW31162   9.564   6.925   1.025  0.0311 -0.2537 -0.2194
 6828SOL    HW131163   9.641   6.975   0.985  0.5475  0.1169  1.2274
 6828SOL    HW231164   9.532   6.972   1.107  0.0359 -1.8899  0.7423
 6829SOL     OW31165   0.359   8.996   4.720  0.8316  0.1810 -0.3074
 6829SOL    HW131166   0.265   8.962   4.707  0.4239  1.2217 -0.0925
 6829SOL    HW231167   0.357   9.095   4.731  1.8379  0.0786  0.9203
 6830SOL     OW31168   7.998   0.574   4.356  0.1405  0.0832 -0.2026
 6830SOL    HW131169   7.900   0.561   4.373  0.1356  0.8491  0.3667
 6830SOL    HW231170   8.024   0.526   4.273 -0.6037 -0.6167 -0.0374
 6831SOL     OW31171   0.845   1.078   1.017 -0.7094 -0.6213  0.0551
 6831SOL    HW131172   0.906   1.104   0.942  0.1462  2.0996  1.5978
 6831SOL    HW231173   0.896   1.078   1.103 -2.3849 -0.4842  1.0712
 6832SOL     OW31174   1.363   4.684   1.190  0.6396  0.4140 -0.1468
 6832SOL    HW131175   1.374   4.589   1.160 -0.4990  0.4575 -0.7516
 6832SOL    HW231176   1.331   4.739   1.113  0.0296  1.0280  0.5378
 6833SOL     OW31177   3.815   9.429   4.075  0.0908  0.6934 -0.6852
 6833SOL    HW131178   3.875   9.501   4.111 -1.9316  2.3529 -0.5178
 6833SOL    HW231179   3.788   9.452   3.981  1.9103 -1.4461 -1.7510
 6834SOL     OW31180   9.112   7.544   3.993 -0.6785  0.1731  0.1044
 6834SOL    HW131181   9.015   7.553   3.971 -0.7261  0.8439  0.5511
 6834SOL    HW231182   9.122   7.511   4.087 -0.4831  1.0071  0.3861
 6835SOL     OW31183   4.326   0.284   5.159  0.2056 -0.4431 -0.5144
 6835SOL    HW131184   4.271   0.281   5.075  0.2200 -0.3807 -0.5256
 6835SOL    HW231185   4.369   0.195   5.173  0.6060 -0.3048 -0.8416
 6836SOL     OW31186   9.938   8.517   5.515 -0.0072 -0.5213 -0.2155
 6836SOL    HW131187   9.966   8.421   5.518  1.5594 -0.0318  1.9637
 6836SOL    HW231188  10.003   8.572   5.568 -1.1116  1.6978 -1.1064
 6837SOL     OW31189   4.006   3.052   4.196  0.1310 -0.5066 -0.0934
 6837SOL    HW131190   3.984   3.003   4.280  0.0571  1.9506  1.3696
 6837SOL    HW231191   4.021   3.148   4.217  0.4557  0.0796 -2.8599
 6838SOL     OW31192   9.270   2.294   0.650 -0.3147 -0.2077  0.1779
 6838SOL    HW131193   9.214   2.361   0.698  0.5568 -0.1772  1.1546
 6838SOL    HW231194   9.366   2.305   0.676  0.1531 -0.3370 -1.3886
 6839SOL     OW31195   0.319   0.445   2.265  0.1239  0.3944 -0.6697
 6839SOL    HW131196   0.292   0.369   2.206 -0.1881  0.7033 -0.9284
 6839SOL    HW231197   0.267   0.439   2.351 -1.4855  1.5143 -1.5364
 6840SOL     OW31198   3.891   1.935   3.111  0.7528 -0.2145  0.1919
 6840SOL    HW131199   3.889   2.011   3.176 -0.0537  0.4228 -0.5530
 6840SOL    HW231200   3.856   1.852   3.155 -0.6664  0.4285  0.3168
 6841SOL     OW31201   9.168   6.565   2.138 -0.1355 -0.0535  0.5611
 6841SOL    HW131202   9.190   6.600   2.047  0.9794 -1.0348  0.4444
 6841SOL    HW231203   9.074   6.533   2.140  0.0663 -0.7147 -0.4659
 6842SOL     OW31204   0.693   1.670   4.812  0.2273  0.2110  0.0110
 6842SOL    HW131205   0.782   1.693   4.773  0.2025  0.9808  0.3876
 6842SOL    HW231206   0.656   1.588   4.767  1.0474 -0.0136 -0.2567
 6843SOL     OW31207   4.964   8.758   4.190  0.3479  0.0781 -0.3385
 6843SOL    HW131208   5.018   8.675   4.175  1.8038  0.9069  0.2116
 6843SOL    HW231209   5.000   8.808   4.268  0.6732  2.1675 -1.7663
 6844SOL     OW31210   2.510   8.621   3.535  0.2204 -0.0344  0.8606
 6844SOL    HW131211   2.515   8.693   3.466  1.4305 -2.6886 -1.8730
 6844SOL    HW231212   2.534   8.660   3.624  1.6545  2.7675 -0.6673
 6845SOL     OW31213   2.406   5.613   1.288  0.3048  0.0333  0.3574
 6845SOL    HW131214   2.460   5.536   1.253 -0.1093  0.1222 -0.4742
 6845SOL    HW231215   2.309   5.594   1.276  0.1745  0.2652  1.0446
 6846SOL     OW31216   8.305   1.790   3.243 -0.5825 -0.1230  0.2792
 6846SOL    HW131217   8.293   1.732   3.324  1.8216  0.4834  1.1232
 6846SOL    HW231218   8.264   1.745   3.164 -0.4469 -2.0812  1.2764
 6847SOL     OW31219   1.787   0.905   0.984  0.0749 -0.5358 -0.7892
 6847SOL    HW131220   1.709   0.879   1.040 -0.4388  2.6049  0.0248
 6847SOL    HW231221   1.867   0.917   1.043  0.7094 -1.7513 -1.3716
 6848SOL     OW31222   9.132   6.695   2.681 -0.4148  0.1696  0.0852
 6848SOL    HW131223   9.189   6.615   2.659 -1.3804 -0.8300  1.2108
 6848SOL    HW231224   9.095   6.733   2.596 -1.1899 -1.5025 -0.3503
 6849SOL     OW31225   3.967   4.177   2.286 -0.1766  0.3122 -0.2457
 6849SOL    HW131226   3.933   4.084   2.298 -2.1922  1.0695  0.0217
 6849SOL    HW231227   3.950   4.230   2.369  1.4650  0.7867 -0.1884
 6850SOL     OW31228   4.166   0.049   3.476  0.1690 -0.7429  0.2038
 6850SOL    HW131229   4.107   0.129   3.475  0.4873 -0.5127 -0.0993
 6850SOL    HW231230   4.137  -0.012   3.550 -1.9249 -1.7602 -1.4349
 6851SOL     OW31231   4.610   9.750   4.620 -0.6641 -0.5349  0.0418
 6851SOL    HW131232   4.608   9.846   4.593  1.9462 -0.4693 -0.0509
 6851SOL    HW231233   4.560   9.695   4.552 -1.3128  0.6063 -0.4230
 6852SOL     OW31234   4.098   2.092   0.633  0.2916 -0.3734 -1.1563
 6852SOL    HW131235   4.121   2.093   0.730  1.6966 -0.1509 -1.4824
 6852SOL    HW231236   4.044   2.010   0.612 -0.7149 -0.0084 -0.0431
 6853SOL     OW31237   0.400   9.918   3.942  0.8402  0.4272 -0.1073
 6853SOL    HW131238   0.383  10.015   3.962  1.4060  0.2274  1.3427
 6853SOL    HW231239   0.470   9.883   4.003  1.0281 -0.7674 -1.0025
 6854SOL     OW31240   3.882   9.663   2.127 -0.2206  0.1800  0.0833
 6854SOL    HW131241   3.951   9.720   2.171 -2.4905  1.0852  2.6353
 6854SOL    HW231242   3.882   9.572   2.169  1.1145 -0.6485 -1.6696
 6855SOL     OW31243   8.807   4.040   2.803  0.0335 -0.3249  0.6172
 6855SOL    HW131244   8.710   4.066   2.797 -0.8370 -3.7303 -1.2428
 6855SOL    HW231245   8.833   4.034   2.899 -0.4226  4.4831  1.1636
 6856SOL     OW31246   2.979   0.816   5.584 -0.0511  0.9144 -0.2052
 6856SOL    HW131247   3.057   0.873   5.561 -1.6986  1.7559 -4.0588
 6856SOL    HW231248   2.925   0.861   5.656  0.8905  2.2117 -0.2966
 6857SOL     OW31249   4.371   7.935   1.125 -0.1342 -0.3970 -0.4612
 6857SOL    HW131250   4.454   7.985   1.101 -0.5185  0.4684  0.0226
 6857SOL    HW231251   4.300   7.954   1.057 -0.6352  0.5954  0.3386
 6858SOL     OW31252   2.628   7.862   1.364  0.4898 -0.2093  0.2060
 6858SOL    HW131253   2.702   7.874   1.430  0.6511  0.6118 -0.1210
 6858SOL    HW231254   2.657   7.894   1.274 -0.3066  0.2244  0.1018
 6859SOL     OW31255   2.077   1.903   0.395  0.3926  0.9717  0.2586
 6859SOL    HW131256   1.997   1.887   0.452  0.0040  0.5496 -0.3954
 6859SOL    HW231257   2.049   1.919   0.300  1.1606 -1.1288 -0.3607
 6860SOL     OW31258   8.321   8.507   5.339  0.2669 -0.4611  0.2545
 6860SOL    HW131259   8.272   8.565   5.275 -0.1440  0.5743  1.5061
 6860SOL    HW231260   8.268   8.496   5.423  1.5101 -0.4975  1.0569
 6861SOL     OW31261   3.732   8.887   3.166  0.1286 -0.0409 -0.0858
 6861SOL    HW131262   3.819   8.843   3.143  0.8594  1.2252  0.2214
 6861SOL    HW231263   3.668   8.818   3.200  0.8740 -1.0426 -0.6833
 6862SOL     OW31264   3.051   8.598   5.075  0.2007  0.1154 -0.8846
 6862SOL    HW131265   3.101   8.518   5.040 -1.6213 -1.0113 -0.9965
 6862SOL    HW231266   3.115   8.669   5.101  2.0197 -2.4005  1.7678
 6863SOL     OW31267   0.459   2.184   3.942 -0.7035 -0.2839 -0.0367
 6863SOL    HW131268   0.413   2.135   3.868  1.4722 -0.0370 -1.6169
 6863SOL    HW231269   0.522   2.122   3.989  0.0509  0.2785 -0.2877
 6864SOL     OW31270   8.915   6.466   2.184 -0.3421  0.1766 -0.4161
 6864SOL    HW131271   8.944   6.387   2.130 -1.7520 -1.5528  1.2374
 6864SOL    HW231272   8.824   6.495   2.155 -0.0589  0.8232 -0.6475
 6865SOL     OW31273   8.513   1.917   2.843  0.6008  0.3661  0.1403
 6865SOL    HW131274   8.572   1.874   2.774 -0.1114  1.3452 -1.1045
 6865SOL    HW231275   8.524   1.869   2.930  2.2325 -0.2975 -0.4019
 6866SOL     OW31276   1.218   5.014   2.151  0.4600  0.1481 -0.2267
 6866SOL    HW131277   1.254   5.022   2.244 -2.4213  0.9235  0.8836
 6866SOL    HW231278   1.187   5.103   2.119 -2.1719 -0.7778 -0.3874
 6867SOL     OW31279   6.732   8.100   1.324 -0.0525  0.7123 -0.2518
 6867SOL    HW131280   6.808   8.163   1.307  0.2957  0.6529  1.0510
 6867SOL    HW231281   6.761   8.029   1.388 -0.8725  0.0416 -0.6131
 6868SOL     OW31282   2.316   8.892   5.175  0.5412 -0.4810 -0.2977
 6868SOL    HW131283   2.394   8.874   5.234 -0.4583 -0.8019  0.9527
 6868SOL    HW231284   2.348   8.924   5.085  2.0638  0.9407  0.7227
 6869SOL     OW31285   1.626   9.449   5.218 -0.6758  0.2222 -0.3306
 6869SOL    HW131286   1.614   9.402   5.131 -1.2144 -0.1606 -0.0628
 6869SOL    HW231287   1.628   9.547   5.204 -0.6540  0.1564 -0.7852
 6870SOL     OW31288   3.686   4.651   0.030 -0.4419 -0.4135 -0.1472
 6870SOL    HW131289   3.719   4.569  -0.017  0.3773  0.2453 -0.7382
 6870SOL    HW231290   3.733   4.661   0.118 -0.4361 -0.4972 -0.1407
 6871SOL     OW31291   4.945   3.573   1.811 -0.5381  0.0743  0.0548
 6871SOL    HW131292   4.984   3.580   1.719 -1.1893  0.0207 -0.2266
 6871SOL    HW231293   4.926   3.665   1.846  1.9010  0.2110  1.0838
 6872SOL     OW31294   8.028   3.627   2.278 -0.0796  0.0162  0.0276
 6872SOL    HW131295   8.052   3.581   2.364 -0.4755  0.4870  0.3939
 6872SOL    HW231296   8.104   3.620   2.214  0.4759  0.2517  0.6603
 6873SOL     OW31297   0.898   8.249   1.348 -0.1468 -0.1587 -0.0350
 6873SOL    HW131298   0.812   8.292   1.378 -1.1517 -1.5805 -0.7865
 6873SOL    HW231299   0.943   8.208   1.428 -0.7406 -0.3688  0.2020
 6874SOL     OW31300   2.457   9.647   1.772 -0.0939  0.6959  0.5873
 6874SOL    HW131301   2.517   9.574   1.803 -2.5557 -1.2909  0.8283
 6874SOL    HW231302   2.477   9.669   1.676  0.7709 -0.2084  0.5594
 6875SOL     OW31303   9.298   2.509   3.211 -0.2341  0.3424  0.0878
 6875SOL    HW131304   9.340   2.433   3.161 -1.3127 -0.4693  0.3946
 6875SOL    HW231305   9.199   2.498   3.211 -0.3569  1.3739  0.7559
 6876SOL     OW31306   5.969   9.153   2.508  0.4676 -0.3265 -0.3752
 6876SOL    HW131307   5.889   9.164   2.567  1.8061  0.1979  1.3862
 6876SOL    HW231308   5.984   9.239   2.458  0.9851  0.2043  0.6681
 6877SOL     OW31309   2.599   6.535   3.461  0.0727  0.2643  0.0213
 6877SOL    HW131310   2.672   6.602   3.447 -0.0239  0.5553  0.8449
 6877SOL    HW231311   2.637   6.450   3.497 -0.0954  0.7347  1.3374
 6878SOL     OW31312   3.573   9.150   2.080 -0.6187  0.2620 -0.2796
 6878SOL    HW131313   3.604   9.185   1.992  0.0888  2.5875  0.8681
 6878SOL    HW231314   3.493   9.202   2.111  0.3604  0.8152  1.3819
 6879SOL     OW31315   9.946   9.598   2.738 -0.0820 -0.3405 -0.1133
 6879SOL    HW131316   9.847   9.594   2.753 -0.0457  1.0477  0.5070
 6879SOL    HW231317   9.990   9.525   2.790 -0.4450  1.3116  2.6070
 6880SOL     OW31318   7.022   2.336   1.957 -0.4630 -0.2718  0.0398
 6880SOL    HW131319   6.997   2.333   1.861  0.3202 -3.0483 -0.1201
 6880SOL    HW231320   6.943   2.364   2.012 -1.3287 -0.1635 -1.2542
 6881SOL     OW31321   9.573   1.076   2.692  0.0383 -0.4901 -0.5799
 6881SOL    HW131322   9.520   1.006   2.740 -0.5634  0.5904  0.3691
 6881SOL    HW231323   9.574   1.057   2.594  0.0662 -1.9350 -0.2969
 6882SOL     OW31324   3.556   0.739   0.905  0.2934  0.0853  0.3580
 6882SOL    HW131325   3.536   0.835   0.885  2.0737  0.4688  0.3066
 6882SOL    HW231326   3.607   0.733   0.991  0.6496 -0.7701  0.0912
 6883SOL     OW31327   9.926   0.184   1.222 -0.5461 -0.4242 -0.5113
 6883SOL    HW131328   9.919   0.233   1.135  0.7489  2.6602  1.0315
 6883SOL    HW231329  10.012   0.133   1.225 -0.4669 -0.3141 -0.9305
 6884SOL     OW31330   2.777   0.558   2.165 -0.2969 -0.3091 -0.3638
 6884SOL    HW131331   2.678   0.571   2.159  0.1734  3.6092 -0.7027
 6884SOL    HW231332   2.820   0.589   2.080  1.4667  0.9246  0.9526
 6885SOL     OW31333   2.563   4.030   5.478  0.1264 -0.2529 -0.5033
 6885SOL    HW131334   2.524   4.120   5.459  1.2500  0.4542  0.4503
 6885SOL    HW231335   2.502   3.959   5.443 -2.3261  0.8042  1.4311
 6886SOL     OW31336   3.409   9.204   0.986  0.2649 -0.2456  0.2343
 6886SOL    HW131337   3.494   9.163   0.952  0.8899  1.1815  0.0610
 6886SOL    HW231338   3.331   9.155   0.946  0.9730  1.2963 -3.2229
 6887SOL     OW31339   4.560   7.039   1.380  0.0647 -0.0003 -0.3701
 6887SOL    HW131340   4.642   7.082   1.342 -0.2302  2.6351  1.8059
 6887SOL    HW231341   4.549   7.067   1.475 -1.9914 -2.3676  0.1477
 6888SOL     OW31342   2.872   4.007   4.622  0.0147  0.1143 -0.1402
 6888SOL    HW131343   2.849   3.963   4.534 -0.6478 -0.0812  0.1284
 6888SOL    HW231344   2.953   4.064   4.610  0.5414 -0.7250 -0.6405
 6889SOL     OW31345   4.772   9.210   3.362 -0.0035  0.0292 -0.5060
 6889SOL    HW131346   4.859   9.201   3.409  0.5270  0.0957 -1.4569
 6889SOL    HW231347   4.704   9.249   3.424  0.7422  0.3441  0.1217
 6890SOL     OW31348   3.032   3.163   2.785  0.3270 -0.0667 -0.5476
 6890SOL    HW131349   3.000   3.137   2.876  0.1977  0.3791 -0.4624
 6890SOL    HW231350   2.957   3.207   2.735  0.5381  0.1368 -0.6866
 6891SOL     OW31351   0.488   5.299   1.945  0.0997 -0.0126  0.9690
 6891SOL    HW131352   0.388   5.287   1.945  0.3098 -2.0038 -0.1657
 6891SOL    HW231353   0.531   5.217   1.984  1.3983 -0.5208 -1.3974
 6892SOL     OW31354   7.940   8.967   1.413 -0.1741  0.0459 -0.3572
 6892SOL    HW131355   7.913   8.901   1.342  2.3263 -0.4596 -0.8978
 6892SOL    HW231356   7.977   9.049   1.369  0.1185  0.2904  0.3398
 6893SOL     OW31357   3.270   8.307   3.002  0.2277  0.8584  0.0621
 6893SOL    HW131358   3.250   8.286   2.907 -0.4182 -2.0483  0.7818
 6893SOL    HW231359   3.356   8.262   3.029 -0.9434 -0.5387  1.5554
 6894SOL     OW31360   6.750   9.853   4.483  0.4096 -0.1232 -0.3490
 6894SOL    HW131361   6.801   9.789   4.541  1.6750  0.2928 -0.9833
 6894SOL    HW231362   6.772   9.835   4.387 -0.2014  0.4447 -0.5986
 6895SOL     OW31363   7.759   8.600   3.794  0.3309 -0.2006  0.2258
 6895SOL    HW131364   7.829   8.605   3.723 -0.2361  1.0199 -0.2690
 6895SOL    HW231365   7.671   8.576   3.754 -0.0608  0.8180  0.4455
 6896SOL     OW31366   0.107   5.848   1.614 -0.3680  0.4621 -0.1793
 6896SOL    HW131367   0.179   5.875   1.679  0.1909  0.0189 -0.6052
 6896SOL    HW231368   0.149   5.815   1.530 -1.0277 -1.3891  0.1926
 6897SOL     OW31369   3.166   1.518   1.614 -0.0791 -0.1530  0.4163
 6897SOL    HW131370   3.113   1.547   1.693 -1.0923 -0.9955  0.0571
 6897SOL    HW231371   3.107   1.515   1.533  0.8947  0.5045 -0.3383
 6898SOL     OW31372   0.009   3.994   2.025  0.1947 -0.5251  0.0399
 6898SOL    HW131373  -0.042   4.020   1.943  0.5690 -0.9699 -0.3442
 6898SOL    HW231374  -0.038   4.027   2.106  0.2082  0.5639 -0.3944
 6899SOL     OW31375   0.841   3.349   5.377  0.3616  0.2193  0.2249
 6899SOL    HW131376   0.925   3.348   5.322  1.4451 -0.6427  1.8431
 6899SOL    HW231377   0.807   3.255   5.386 -0.1959  0.4421  0.4478
 6900SOL     OW31378   6.729   0.112   4.548 -0.2251 -0.4192 -0.3571
 6900SOL    HW131379   6.722   0.014   4.531  1.0089 -0.3825 -1.1653
 6900SOL    HW231380   6.825   0.139   4.545 -0.7621  1.4303 -3.8114
 6901SOL     OW31381   2.920   6.415   0.955  0.0726 -0.5124 -0.0170
 6901SOL    HW131382   2.884   6.482   0.889  0.2424 -2.7053 -2.3975
 6901SOL    HW231383   3.019   6.421   0.958  0.0550 -0.3017  0.1791
 6902SOL     OW31384   2.112   6.203   3.113 -0.0415 -0.7690 -0.5221
 6902SOL    HW131385   2.201   6.228   3.074  1.4745 -0.4382  3.0062
 6902SOL    HW231386   2.121   6.119   3.166 -1.9119 -0.8537 -0.2911
 6903SOL     OW31387   1.186   6.414   3.068 -0.2123  0.1191  0.3511
 6903SOL    HW131388   1.239   6.448   3.146 -2.3516 -1.6264  2.6613
 6903SOL    HW231389   1.202   6.316   3.057  1.3773  0.6553 -2.5358
 6904SOL     OW31390   6.011   7.438   1.584  0.3062 -0.0153  0.0623
 6904SOL    HW131391   6.097   7.389   1.602  0.0022 -0.7996 -0.6038
 6904SOL    HW231392   6.020   7.488   1.498  0.5154  0.8865  0.5995
 6905SOL     OW31393   0.680   7.223   3.578  0.7301 -0.1418 -0.6882
 6905SOL    HW131394   0.620   7.269   3.512  0.9975 -0.0532 -0.8717
 6905SOL    HW231395   0.681   7.124   3.559  0.0430 -0.2412 -0.2021
 6906SOL     OW31396   4.249   3.021   2.539  0.6307 -0.5028  0.3867
 6906SOL    HW131397   4.342   2.985   2.545 -0.3399 -3.3464 -0.8467
 6906SOL    HW231398   4.190   2.972   2.603 -0.3655  0.2201  0.0412
 6907SOL     OW31399   3.409   2.371   1.165  0.0398 -0.0157 -0.5977
 6907SOL    HW131400   3.447   2.282   1.140 -1.1609  0.0838 -2.9521
 6907SOL    HW231401   3.429   2.437   1.093  1.7152  1.9057  1.5511
 6908SOL     OW31402   1.934   1.390   3.472  0.8056 -0.6338  0.0389
 6908SOL    HW131403   1.858   1.329   3.449  0.5592 -0.1688 -0.3914
 6908SOL    HW231404   2.014   1.336   3.495  0.3394 -1.1333  0.5272
 6909SOL     OW31405   3.119   8.149   0.413  0.1109 -0.4581  0.2261
 6909SOL    HW131406   3.079   8.235   0.381 -0.0365 -1.1183 -1.4041
 6909SOL    HW231407   3.219   8.156   0.412  0.1447 -0.9943 -1.9053
 6910SOL     OW31408   3.307   4.024   0.490 -0.0124 -0.5542  0.7535
 6910SOL    HW131409   3.225   4.077   0.469  0.2668 -0.7312 -0.8521
 6910SOL    HW231410   3.360   4.010   0.407  1.3550 -0.9550  1.6682
 6911SOL     OW31411   0.945   8.561   0.858  0.7052  0.4841 -0.8893
 6911SOL    HW131412   0.978   8.487   0.800 -2.4810 -1.3984 -0.4451
 6911SOL    HW231413   0.964   8.539   0.954 -0.3696  0.1516 -0.7477
 6912SOL     OW31414   4.008   9.477   5.193 -0.0936  0.4490 -0.3803
 6912SOL    HW131415   3.978   9.433   5.278 -2.5321  0.9293 -0.9657
 6912SOL    HW231416   4.101   9.447   5.171 -0.1458 -1.1365  1.4590
 6913SOL     OW31417   2.159   6.233   1.857  0.0745 -0.2505 -0.2706
 6913SOL    HW131418   2.243   6.178   1.863 -0.4776 -0.9809  0.7951
 6913SOL    HW231419   2.117   6.240   1.947 -2.1162 -1.6025 -1.1535
 6914SOL     OW31420   8.893   7.259   3.297 -0.0143  0.0867 -0.1120
 6914SOL    HW131421   8.851   7.311   3.372  1.6944  0.6885  0.4389
 6914SOL    HW231422   8.857   7.166   3.297 -0.4029  0.2271  1.1477
 6915SOL     OW31423   4.406   1.697   3.895 -0.1216 -0.3789  0.0337
 6915SOL    HW131424   4.384   1.674   3.990 -0.9931  0.9159  0.1638
 6915SOL    HW231425   4.443   1.790   3.891 -2.0824  0.3820 -1.1350
 6916SOL     OW31426   3.068   7.889   4.578 -0.0179  0.6210  0.3063
 6916SOL    HW131427   2.998   7.922   4.642 -0.2520  0.6707  0.0214
 6916SOL    HW231428   3.024   7.845   4.500  0.2588  0.9966 -0.0606
 6917SOL     OW31429   2.735   2.981   1.527  0.2033 -0.1228 -0.3316
 6917SOL    HW131430   2.824   2.966   1.486 -0.4492 -0.7613 -1.5379
 6917SOL    HW231431   2.701   2.895   1.565  0.0027  0.0736 -0.0604
 6918SOL     OW31432   2.448   6.609   2.476 -0.2737  0.4397  0.2795
 6918SOL    HW131433   2.407   6.582   2.563 -1.4169 -0.0566 -0.3930
 6918SOL    HW231434   2.378   6.654   2.420 -0.4848 -2.3737 -1.7661
 6919SOL     OW31435   0.723   7.207   0.552  0.2598  0.3760  0.3306
 6919SOL    HW131436   0.750   7.179   0.644 -1.2770 -0.2816  0.6079
 6919SOL    HW231437   0.679   7.297   0.556 -0.4746  0.0247  0.3684
 6920SOL     OW31438   4.742   4.616   1.794  0.5750  0.4262  0.1424
 6920SOL    HW131439   4.768   4.678   1.868 -1.4322  0.1345  1.1107
 6920SOL    HW231440   4.729   4.668   1.710  0.9933  1.0274  0.4475
 6921SOL     OW31441   0.622   2.345   2.912  0.1893  0.7487 -0.0948
 6921SOL    HW131442   0.606   2.254   2.950  0.4767  1.3378  1.4961
 6921SOL    HW231443   0.718   2.355   2.887 -0.1128  0.1697 -1.5237
 6922SOL     OW31444   0.848   0.566   0.437  0.4218  0.0162  0.4167
 6922SOL    HW131445   0.921   0.623   0.475 -0.5172  1.0526  0.6871
 6922SOL    HW231446   0.884   0.513   0.360  1.2382  1.1894 -0.0213
 6923SOL     OW31447   3.894   7.150   2.757 -0.8943 -0.8484 -0.8031
 6923SOL    HW131448   3.936   7.080   2.701  1.1784 -0.6057  0.3755
 6923SOL    HW231449   3.885   7.235   2.704  0.9578 -0.6429 -0.8284
 6924SOL     OW31450   3.530   2.147   3.412 -0.5879 -0.0679  0.7445
 6924SOL    HW131451   3.455   2.175   3.473 -0.6368  0.0511  0.6309
 6924SOL    HW231452   3.590   2.225   3.397 -1.3883  0.3222 -0.5439
 6925SOL     OW31453   8.888   8.958   4.848 -0.0224  0.5168 -0.3693
 6925SOL    HW131454   8.967   9.013   4.821  0.5118 -0.3427 -0.6086
 6925SOL    HW231455   8.920   8.872   4.888 -0.8197  1.0200  1.3925
 6926SOL     OW31456   3.087   2.890   1.946 -0.2077  0.4343 -0.6807
 6926SOL    HW131457   3.041   2.965   1.896  0.7591  1.1652 -0.4875
 6926SOL    HW231458   3.072   2.901   2.044 -1.2232 -0.4117 -0.7333
 6927SOL     OW31459   1.886   0.452   3.971 -0.6857  0.2983  0.1868
 6927SOL    HW131460   1.913   0.356   3.982  0.9296  0.6428 -0.5384
 6927SOL    HW231461   1.816   0.475   4.038  1.0174 -0.6076  2.3733
 6928SOL     OW31462   5.698   0.828   1.096 -0.3343 -0.0925 -0.3586
 6928SOL    HW131463   5.768   0.781   1.041 -0.2063  0.9428 -1.1022
 6928SOL    HW231464   5.738   0.859   1.182  0.4236  1.4384 -1.2440
 6929SOL     OW31465   8.472   6.429   3.354 -0.4560 -0.2338  0.4878
 6929SOL    HW131466   8.423   6.496   3.409 -0.5577 -0.5870  0.8268
 6929SOL    HW231467   8.430   6.339   3.365 -0.4068 -0.3302 -0.0768
 6930SOL     OW31468   4.456   9.739   2.540  0.3817  0.0067  0.4570
 6930SOL    HW131469   4.362   9.717   2.566  0.2644 -0.4672 -0.3475
 6930SOL    HW231470   4.458   9.828   2.494  0.6972  1.2120  2.7262
 6931SOL     OW31471   0.710   1.731   2.100  0.0846 -1.0973 -1.0750
 6931SOL    HW131472   0.778   1.800   2.127  1.5215 -1.6602 -3.1517
 6931SOL    HW231473   0.637   1.729   2.168  1.5504  0.3334  0.6240
 6932SOL     OW31474   9.284   1.598   2.413 -0.6618 -0.0467 -0.5547
 6932SOL    HW131475   9.225   1.663   2.460  0.3020  0.2265  0.3146
 6932SOL    HW231476   9.280   1.510   2.460 -0.5541 -0.0920 -0.6299
 6933SOL     OW31477   1.225   9.651   1.590 -0.1036  0.6008 -0.3299
 6933SOL    HW131478   1.125   9.651   1.600 -0.1326 -2.5074  0.0661
 6933SOL    HW231479   1.249   9.628   1.496  0.2320  0.6285 -0.2516
 6934SOL     OW31480   2.157   8.404   5.310 -0.0895  0.1487  0.0058
 6934SOL    HW131481   2.169   8.480   5.373  0.3203  0.2306 -0.1682
 6934SOL    HW231482   2.146   8.319   5.362 -0.3404  0.2960  0.1945
 6935SOL     OW31483   2.583   8.306   2.753  0.6880  0.3781 -0.2942
 6935SOL    HW131484   2.637   8.347   2.680 -0.0042 -2.0811 -2.2560
 6935SOL    HW231485   2.644   8.278   2.828  1.5174  2.0566 -0.3290
 6936SOL     OW31486   7.125   0.863   0.729 -0.2145 -0.3677  0.1860
 6936SOL    HW131487   7.083   0.776   0.702 -0.3919 -0.1727 -0.1712
 6936SOL    HW231488   7.095   0.888   0.821 -1.1752 -0.0473 -0.2120
 6937SOL     OW31489   3.299   4.477   1.697 -0.0787  0.4466  0.0306
 6937SOL    HW131490   3.262   4.566   1.669  0.5243  0.3886 -0.9351
 6937SOL    HW231491   3.314   4.478   1.796 -1.7083  0.8236  0.2981
 6938SOL     OW31492   7.895   3.368   1.413 -0.3548 -0.4607 -0.1947
 6938SOL    HW131493   7.879   3.374   1.315  0.8858  2.4294 -0.2704
 6938SOL    HW231494   7.871   3.455   1.456  0.7611 -1.1031  1.7899
 6939SOL     OW31495   2.928   5.239   3.110 -0.2677 -0.2061  0.0990
 6939SOL    HW131496   2.965   5.224   3.202  1.2824 -4.0647 -1.0655
 6939SOL    HW231497   2.837   5.199   3.104 -0.3648  0.0399 -0.0962
 6940SOL     OW31498   6.141   8.756   3.541  0.2301  0.4320  0.4752
 6940SOL    HW131499   6.159   8.658   3.543 -1.5186  0.1073  0.5531
 6940SOL    HW231500   6.073   8.776   3.471 -0.0837  1.4844  1.0751
 6941SOL     OW31501   5.732   9.311   3.229  0.0506 -0.8757 -0.2507
 6941SOL    HW131502   5.766   9.318   3.136 -0.8384  0.4431 -0.4991
 6941SOL    HW231503   5.643   9.357   3.236  0.8626  0.5235  1.6034
 6942SOL     OW31504   7.395   9.524   4.745  0.0803 -0.4219 -0.0457
 6942SOL    HW131505   7.478   9.469   4.748 -1.7471 -3.4411 -2.4833
 6942SOL    HW231506   7.400   9.587   4.667 -0.3230 -1.3503 -0.8370
 6943SOL     OW31507   9.883   5.988   2.597 -0.0919  0.2471 -0.2387
 6943SOL    HW131508   9.807   5.931   2.566  0.8308 -1.3403  0.3520
 6943SOL    HW231509   9.944   6.007   2.521  0.7209 -1.3588 -0.0104
 6944SOL     OW31510   0.653   2.168   2.577  0.3112  0.0619  0.0947
 6944SOL    HW131511   0.729   2.166   2.512 -0.4728  0.5512 -0.8502
 6944SOL    HW231512   0.630   2.263   2.598 -0.3892 -0.0788 -0.0367
 6945SOL     OW31513   0.562   7.868   2.540  0.3171  0.3548  0.0368
 6945SOL    HW131514   0.579   7.850   2.443 -0.0219 -1.7680  0.3548
 6945SOL    HW231515   0.472   7.833   2.565  0.0547  1.6305  0.9508
 6946SOL     OW31516   0.786   6.211   1.202 -0.2863 -0.2830 -0.2737
 6946SOL    HW131517   0.819   6.197   1.295 -1.5050  0.1030  0.2277
 6946SOL    HW231518   0.797   6.307   1.176 -0.8297 -0.1885 -0.1700
 6947SOL     OW31519   2.772   0.909   0.125 -0.0472  0.0724 -0.0056
 6947SOL    HW131520   2.752   1.007   0.117  0.1263  0.0126 -1.4674
 6947SOL    HW231521   2.756   0.879   0.218 -2.4171  0.9907 -0.0840
 6948SOL     OW31522   0.680   8.002   5.429 -0.3551 -0.3511  0.4797
 6948SOL    HW131523   0.712   8.087   5.387  1.4334 -1.1060  0.2550
 6948SOL    HW231524   0.670   8.015   5.528  2.1635 -0.4793  0.8023
 6949SOL     OW31525   3.184   0.388   2.813 -0.2472  0.0168  0.0088
 6949SOL    HW131526   3.146   0.446   2.885 -2.5315 -0.7016 -0.5557
 6949SOL    HW231527   3.219   0.444   2.739  0.6874  0.7234  0.9622
 6950SOL     OW31528   1.457   3.935   2.497  0.2478  0.3725 -0.2600
 6950SOL    HW131529   1.530   3.920   2.563 -0.4925 -1.4228  0.1884
 6950SOL    HW231530   1.495   3.930   2.404  1.0038  1.3136 -0.0119
 6951SOL     OW31531   1.756   8.716   3.853 -0.2634 -0.1120 -0.1738
 6951SOL    HW131532   1.807   8.637   3.885 -2.7812 -0.2428  3.8631
 6951SOL    HW231533   1.688   8.687   3.785 -0.1750 -1.1987  0.1911
 6952SOL     OW31534   7.114   9.994   1.726  0.0152 -0.3971 -0.4055
 6952SOL    HW131535   7.212  10.007   1.712  0.5884 -3.2049  0.5637
 6952SOL    HW231536   7.088   9.903   1.691 -2.2045  0.2581 -0.4994
 6953SOL     OW31537   0.685   8.091   2.879 -0.3000  0.0107  0.5740
 6953SOL    HW131538   0.591   8.117   2.860 -0.3682  0.1418  1.1005
 6953SOL    HW231539   0.743   8.172   2.880 -0.2277 -0.0395  0.5299
 6954SOL     OW31540   2.918   5.773   2.524  0.9690 -0.8362 -0.0259
 6954SOL    HW131541   2.937   5.814   2.613  2.0308 -1.2540 -0.0523
 6954SOL    HW231542   2.960   5.682   2.519  0.2913 -1.1227 -0.6858
 6955SOL     OW31543   1.183   3.979   3.555  0.5964  0.0916 -0.0286
 6955SOL    HW131544   1.236   4.063   3.543 -0.1915  0.5262 -0.5359
 6955SOL    HW231545   1.228   3.920   3.622  2.4711 -0.1802 -1.4845
 6956SOL     OW31546   8.660   4.025   1.628  0.2875 -0.4144  0.0516
 6956SOL    HW131547   8.613   3.991   1.546  0.4634  0.2549 -0.3267
 6956SOL    HW231548   8.613   3.991   1.709 -2.9950  3.0819 -0.2446
 6957SOL     OW31549   2.790   1.077   2.482  0.3753 -0.4040 -0.2594
 6957SOL    HW131550   2.788   1.114   2.389  0.5675  0.2815  0.0023
 6957SOL    HW231551   2.761   0.982   2.481 -0.8567 -0.0328 -0.8562
 6958SOL     OW31552   1.364   9.600   0.180 -0.1216 -0.1041 -0.1162
 6958SOL    HW131553   1.298   9.567   0.112  0.5561 -1.3823 -0.1549
 6958SOL    HW231554   1.417   9.676   0.141  0.7919 -1.3252 -1.2924
 6959SOL     OW31555   8.742   1.833   1.168  0.5065 -0.4455  0.3952
 6959SOL    HW131556   8.745   1.899   1.243 -0.2506  0.8702 -0.6872
 6959SOL    HW231557   8.647   1.819   1.140  0.7670 -1.0514 -0.1951
 6960SOL     OW31558   9.779   5.439   2.196 -0.3276  0.5122  0.2218
 6960SOL    HW131559   9.684   5.451   2.222 -0.7279  1.4264 -1.6167
 6960SOL    HW231560   9.822   5.528   2.181 -0.4364  0.0731 -3.2580
 6961SOL     OW31561   0.406   0.221   3.979 -0.3666  0.0985 -0.4193
 6961SOL    HW131562   0.363   0.308   3.958 -0.7653  0.0994  0.3636
 6961SOL    HW231563   0.502   0.223   3.951 -0.3880  0.7774 -0.4388
 6962SOL     OW31564   4.422   8.125   1.434  0.5090  0.2549 -0.4128
 6962SOL    HW131565   4.376   8.106   1.521  0.5401 -0.8242 -0.6309
 6962SOL    HW231566   4.511   8.079   1.433  0.9282  1.0574 -0.6277
 6963SOL     OW31567   5.176   1.188   4.720  0.0945  0.2321 -0.2967
 6963SOL    HW131568   5.150   1.115   4.656  1.1449 -0.4628  0.0483
 6963SOL    HW231569   5.132   1.171   4.808 -1.7091  1.4356 -0.9523
 6964SOL     OW31570   0.948   7.617   0.549  0.4429 -0.2393  0.4962
 6964SOL    HW131571   1.017   7.545   0.561  1.9748  1.2647  0.8688
 6964SOL    HW231572   0.945   7.645   0.453  0.3930 -0.2713  0.4887
 6965SOL     OW31573   2.530   8.164   1.051  0.4074  0.6636  0.4121
 6965SOL    HW131574   2.472   8.245   1.035  1.6533  1.6901  1.0520
 6965SOL    HW231575   2.491   8.086   1.001 -1.6316  1.2806  0.9547
 6966SOL     OW31576   0.115   0.695   3.458  0.0534  0.2317  0.1721
 6966SOL    HW131577   0.168   0.667   3.378 -2.1152  0.3206 -1.3399
 6966SOL    HW231578   0.065   0.779   3.437  0.0516  0.6833  1.8921
 6967SOL     OW31579   6.021   7.028   2.054 -0.0722  0.3189 -0.3181
 6967SOL    HW131580   6.047   7.036   1.958 -0.6015 -2.4606 -0.7240
 6967SOL    HW231581   5.921   7.040   2.063  0.0016  0.7919 -0.0596
 6968SOL     OW31582   4.612   3.880   1.993  0.1473 -0.1072  0.5200
 6968SOL    HW131583   4.574   3.958   2.043  0.9457  0.2664  0.5534
 6968SOL    HW231584   4.578   3.795   2.033 -1.9759  0.2321 -0.5023
 6969SOL     OW31585   2.909   7.143   4.148 -0.1294 -0.1163 -0.2346
 6969SOL    HW131586   2.958   7.173   4.066 -1.9627  0.2478 -1.2078
 6969SOL    HW231587   2.916   7.044   4.156 -0.6148 -0.2429 -1.2688
 6970SOL     OW31588   4.428   8.606   3.103 -0.5922  0.9962  0.1763
 6970SOL    HW131589   4.458   8.649   3.018 -1.6859  1.2162 -0.1126
 6970SOL    HW231590   4.468   8.654   3.181  0.6443  0.6144 -0.2138
 6971SOL     OW31591   1.854   8.591   5.492 -0.4769  0.7473 -0.5195
 6971SOL    HW131592   1.947   8.569   5.522 -0.0173  0.8088 -1.8871
 6971SOL    HW231593   1.789   8.564   5.564  0.6115  0.9934  0.5706
 6972SOL     OW31594   2.846   9.391   1.966  0.2033  0.8257  0.0534
 6972SOL    HW131595   2.761   9.340   1.959 -0.2703  1.6651 -0.4195
 6972SOL    HW231596   2.882   9.408   1.875  1.7668 -0.9727  0.3090
 6973SOL     OW31597   0.826   3.519   0.494 -0.4760 -0.0571 -0.4735
 6973SOL    HW131598   0.848   3.450   0.424  0.1290 -0.1561 -0.1928
 6973SOL    HW231599   0.776   3.594   0.453 -1.2492 -0.7232 -0.7664
 6974SOL     OW31600   5.144   7.456   2.704 -0.1771  0.1395  0.0819
 6974SOL    HW131601   5.048   7.448   2.730  0.2133  0.9437  1.8105
 6974SOL    HW231602   5.152   7.519   2.626 -0.9009  1.2743  0.9063
 6975SOL     OW31603   5.833   9.788   3.680 -0.0425  0.2275  0.6928
 6975SOL    HW131604   5.904   9.791   3.611  0.3171  0.3660  1.0667
 6975SOL    HW231605   5.773   9.709   3.664  1.1049 -0.7756  1.2789
 6976SOL     OW31606   4.400   7.671   3.208  0.4228 -0.2272  0.8040
 6976SOL    HW131607   4.388   7.751   3.266 -0.8053 -1.4195  2.2266
 6976SOL    HW231608   4.314   7.620   3.204  0.2301  0.2397 -2.7065
 6977SOL     OW31609   8.211   8.488   0.210 -0.2979  0.4767 -0.4122
 6977SOL    HW131610   8.129   8.544   0.225  0.4893  1.0294  2.0550
 6977SOL    HW231611   8.227   8.429   0.289  1.9839  0.7655 -0.6093
 6978SOL     OW31612   7.229   9.517   4.976  0.4241 -0.5669  0.1896
 6978SOL    HW131613   7.276   9.528   4.889 -0.1071  1.4244  0.1270
 6978SOL    HW231614   7.243   9.425   5.011  0.3938 -1.4764 -2.1490
 6979SOL     OW31615   9.219   3.808   3.312  0.5180  0.1731 -0.3312
 6979SOL    HW131616   9.143   3.869   3.333  0.0203 -0.4632 -0.2698
 6979SOL    HW231617   9.293   3.860   3.268  0.4000  0.9553  0.3846
 6980SOL     OW31618   3.295   3.812   3.703 -0.3665 -0.3900 -0.6374
 6980SOL    HW131619   3.231   3.888   3.689 -1.0902 -0.7691  0.5937
 6980SOL    HW231620   3.286   3.747   3.628 -1.0899 -0.2045 -0.7147
 6981SOL     OW31621   3.011   8.366   0.296  0.7296  0.1588 -0.1685
 6981SOL    HW131622   2.934   8.423   0.326  0.3299 -0.8213  0.6753
 6981SOL    HW231623   3.021   8.374   0.197 -1.4705 -0.9584 -0.5030
 6982SOL     OW31624   1.247   3.175   3.427 -0.1627 -0.0002 -0.0861
 6982SOL    HW131625   1.329   3.152   3.480 -0.8393  0.7892  1.3515
 6982SOL    HW231626   1.176   3.208   3.489 -2.0043 -1.8281 -1.1944
 6983SOL     OW31627   3.120   8.887   2.180 -0.3185  0.3729 -0.0409
 6983SOL    HW131628   3.051   8.960   2.178 -0.7635 -0.0381  0.0980
 6983SOL    HW231629   3.169   8.891   2.267 -0.1069  0.7184 -0.1723
 6984SOL     OW31630   1.769   0.794   3.632  0.0458  0.5690 -0.3068
 6984SOL    HW131631   1.840   0.746   3.684 -0.3405 -0.0854 -0.3781
 6984SOL    HW231632   1.683   0.791   3.684 -0.7687 -1.5174 -1.6939
 6985SOL     OW31633   7.819   1.850   3.813  0.2912  0.2988  0.2022
 6985SOL    HW131634   7.734   1.841   3.864 -0.2340  1.5023 -0.4347
 6985SOL    HW231635   7.892   1.880   3.875 -0.3327  1.7000  0.2686
 6986SOL     OW31636   3.895   2.807   0.562 -0.2439  0.1906  0.1838
 6986SOL    HW131637   3.891   2.735   0.493 -0.2302 -1.8946  2.2963
 6986SOL    HW231638   3.990   2.832   0.580 -0.1437 -0.6080  0.7866
 6987SOL     OW31639   1.861   4.738   0.054 -0.2152  0.3350  0.1517
 6987SOL    HW131640   1.796   4.814   0.053 -0.1913  0.3521 -1.4683
 6987SOL    HW231641   1.814   4.653   0.034 -0.0712  0.0537  0.9794
 6988SOL     OW31642   2.399   6.074   1.810  0.4030 -0.1478  0.7707
 6988SOL    HW131643   2.483   6.104   1.856  0.4493 -0.8700  1.1568
 6988SOL    HW231644   2.378   5.980   1.837  1.1419 -1.0635 -1.6969
 6989SOL     OW31645   7.381   3.037   1.173 -0.0233  0.3852  0.4760
 6989SOL    HW131646   7.363   3.092   1.091  1.0366  0.5978  0.3731
 6989SOL    HW231647   7.395   2.942   1.146 -1.2998  0.1636  0.5918
 6990SOL     OW31648   2.423   2.702   2.515  0.8556  0.5540  0.3709
 6990SOL    HW131649   2.333   2.718   2.556 -1.1035 -1.3188 -3.0335
 6990SOL    HW231650   2.472   2.633   2.569 -1.8403 -2.1610 -0.4932
 6991SOL     OW31651   1.289   6.929   4.549 -0.6125  0.0816  0.1464
 6991SOL    HW131652   1.191   6.948   4.562 -0.2897  0.5989  2.0204
 6991SOL    HW231653   1.342   7.004   4.588  0.5264  0.4595 -2.0921
 6992SOL     OW31654   3.227   3.816   1.630  0.3645  0.1405  0.3128
 6992SOL    HW131655   3.272   3.827   1.719  0.5474 -0.5250  0.3086
 6992SOL    HW231656   3.176   3.899   1.608 -1.6313 -0.5521  2.1306
 6993SOL     OW31657   1.308   3.482   1.326 -0.4570  0.1456  0.2972
 6993SOL    HW131658   1.250   3.557   1.295  0.1983 -0.3506 -2.2635
 6993SOL    HW231659   1.399   3.517   1.348  0.1466  0.0327 -1.8296
 6994SOL     OW31660   1.932   2.724   0.481 -0.1599 -0.3637  0.6691
 6994SOL    HW131661   1.957   2.727   0.578  1.3795 -0.7722  0.2919
 6994SOL    HW231662   1.855   2.661   0.468  0.8370 -1.7275  1.3539
 6995SOL     OW31663   2.852   4.282   3.458 -0.1491  0.2741 -0.1252
 6995SOL    HW131664   2.819   4.254   3.368  1.7066  1.2625 -1.1561
 6995SOL    HW231665   2.785   4.342   3.501 -0.6754  0.4913 -1.2233
 6996SOL     OW31666   4.013   7.786   4.073 -0.5706  0.5598 -0.3394
 6996SOL    HW131667   4.094   7.756   4.122 -0.1473  1.4987 -0.4478
 6996SOL    HW231668   3.963   7.853   4.128 -0.5939  0.9178 -0.7915
 6997SOL     OW31669   4.535   7.387   2.942 -0.6415 -0.6387 -0.7161
 6997SOL    HW131670   4.631   7.358   2.945 -0.6441 -0.7582 -1.5709
 6997SOL    HW231671   4.483   7.322   2.886 -0.8824  0.3788 -1.6882
 6998SOL     OW31672   8.613   9.024   5.486 -0.4149 -0.3187 -0.1909
 6998SOL    HW131673   8.691   9.042   5.545 -1.6286  0.0188  1.3513
 6998SOL    HW231674   8.619   9.079   5.403 -0.0895  1.2760  0.8812
 6999SOL     OW31675   5.904   8.053   3.602  0.5627 -0.0369 -0.2849
 6999SOL    HW131676   5.806   8.066   3.594  0.3241 -1.0466  0.8861
 6999SOL    HW231677   5.928   8.038   3.698  1.5805 -1.9210 -0.8129
 7000SOL     OW31678   4.959   9.625   3.941 -0.2825 -0.9159 -0.0408
 7000SOL    HW131679   4.898   9.653   3.867 -0.0365 -3.2225 -1.1487
 7000SOL    HW231680   5.001   9.538   3.919  1.8437 -0.3641  1.6619
 7001SOL     OW31681   1.517   9.640   2.554 -0.1360 -0.1506 -0.0977
 7001SOL    HW131682   1.605   9.682   2.573 -0.7988  1.9663 -1.4612
 7001SOL    HW231683   1.444   9.706   2.571 -1.2544 -0.9123 -1.7525
 7002SOL     OW31684   8.168   2.773   2.017  0.6737 -0.1050  0.0985
 7002SOL    HW131685   8.120   2.739   2.097 -1.4611 -0.6784 -1.3761
 7002SOL    HW231686   8.140   2.867   1.998 -1.0165 -0.9015 -1.5745
 7003SOL     OW31687   8.351   0.488   3.116  0.2637  0.1266 -0.0775
 7003SOL    HW131688   8.393   0.397   3.121 -0.5756 -0.2453  0.3137
 7003SOL    HW231689   8.367   0.537   3.201  0.5892  0.2890 -0.2323
 7004SOL     OW31690   0.824   3.263   0.098 -0.0667  0.1889 -0.1782
 7004SOL    HW131691   0.797   3.330   0.028 -0.9284 -0.9097 -0.9249
 7004SOL    HW231692   0.786   3.173   0.074 -0.7295 -0.1134  1.9484
 7005SOL     OW31693   1.288   1.212   3.778 -0.4636  0.5845  0.0423
 7005SOL    HW131694   1.210   1.264   3.744 -0.7832  0.4504  0.5671
 7005SOL    HW231695   1.309   1.137   3.715 -1.6329 -0.2287  0.6062
 7006SOL     OW31696   2.719   4.310   3.946  0.0270  0.7892  0.1472
 7006SOL    HW131697   2.631   4.265   3.928  0.4709 -0.1095  0.1903
 7006SOL    HW231698   2.715   4.358   4.033  0.4912 -1.6546  1.5641
 7007SOL     OW31699   9.954   3.307   2.403  0.6139 -0.2318  0.0457
 7007SOL    HW131700   9.993   3.220   2.375  0.7543  0.2502 -1.2718
 7007SOL    HW231701   9.858   3.293   2.430  0.9589 -0.9772  0.9101
 7008SOL     OW31702   2.235   4.294   0.902  0.2744 -0.0730  0.8812
 7008SOL    HW131703   2.323   4.287   0.857  0.5591  0.9618  1.2513
 7008SOL    HW231704   2.193   4.204   0.910  1.1052 -0.5053  0.3237
 7009SOL     OW31705   8.876   8.382   0.600  0.3906  0.2056 -0.1817
 7009SOL    HW131706   8.891   8.472   0.641 -0.6938  1.3450 -2.1727
 7009SOL    HW231707   8.937   8.371   0.521 -0.3722 -0.2897 -0.7069
 7010SOL     OW31708   4.767   7.759   2.956  0.7450  0.1161 -0.1047
 7010SOL    HW131709   4.823   7.829   2.912  0.3309 -0.0330 -0.8793
 7010SOL    HW231710   4.827   7.692   3.000  1.2714 -1.3160 -2.8866
 7011SOL     OW31711   3.027   2.861   4.921 -0.1301  0.5108  0.7014
 7011SOL    HW131712   3.039   2.916   5.003  1.6073  0.4276  0.5317
 7011SOL    HW231713   2.981   2.775   4.945 -0.8927  1.0828  1.3292
 7012SOL     OW31714   2.912   5.888   2.763 -0.4826  0.4281  0.5533
 7012SOL    HW131715   2.827   5.901   2.813  0.7624  4.1012  1.8460
 7012SOL    HW231716   2.983   5.854   2.825 -0.0787  0.8016  0.3059
 7013SOL     OW31717   4.398   9.236   1.817 -0.1209 -0.4241 -0.4591
 7013SOL    HW131718   4.497   9.223   1.821 -0.0060  0.2688 -0.9525
 7013SOL    HW231719   4.378   9.333   1.807 -0.8523 -0.5758 -0.4747
 7014SOL     OW31720   2.436   5.796   2.763 -0.8527  0.4787 -0.2271
 7014SOL    HW131721   2.353   5.842   2.730 -1.3683 -0.3753 -0.1271
 7014SOL    HW231722   2.510   5.810   2.697 -1.0248  1.4018 -0.2258
 7015SOL     OW31723   0.811   9.741   3.941 -0.5862 -0.4910  0.5390
 7015SOL    HW131724   0.883   9.702   3.999  0.4569 -0.0824 -0.4721
 7015SOL    HW231725   0.751   9.798   3.997  0.0946 -0.5332  1.3242
 7016SOL     OW31726   2.872   5.594   0.911  0.0963 -0.8365 -0.0859
 7016SOL    HW131727   2.972   5.585   0.917 -0.1252 -3.3303  0.4106
 7016SOL    HW231728   2.842   5.668   0.971  1.6236 -0.1539 -0.1234
 7017SOL     OW31729   1.996   6.140   0.677 -0.0148 -0.0064  0.3080
 7017SOL    HW131730   1.990   6.236   0.701 -0.2570  0.1805 -0.4745
 7017SOL    HW231731   2.055   6.129   0.596 -0.5262 -0.4365 -0.0135
 7018SOL     OW31732   8.807   2.820   1.554 -0.1632  0.1596 -0.8967
 7018SOL    HW131733   8.765   2.732   1.532  1.2912 -0.6281 -0.5711
 7018SOL    HW231734   8.840   2.820   1.648  0.4705  0.8019 -1.1086
 7019SOL     OW31735   9.095   6.992   0.889 -0.1152 -0.2253 -0.3390
 7019SOL    HW131736   9.059   7.079   0.855 -1.2528 -0.8077 -0.6491
 7019SOL    HW231737   9.194   6.989   0.875 -0.2348  0.5296 -1.4020
 7020SOL     OW31738   2.368   0.071   2.326 -0.0256  0.3893 -0.2458
 7020SOL    HW131739   2.464   0.080   2.301 -0.0049  0.9713  0.0323
 7020SOL    HW231740   2.335  -0.020   2.301  0.5136  0.2976 -0.6214
 7021SOL     OW31741   7.663   1.209   3.949 -0.0324  0.0097 -0.5755
 7021SOL    HW131742   7.706   1.299   3.942  2.5795 -1.0689  1.0229
 7021SOL    HW231743   7.707   1.146   3.886 -0.5958 -0.6324 -0.3325
 7022SOL     OW31744   0.990   9.574   1.897 -0.3870 -0.0252  0.1077
 7022SOL    HW131745   0.969   9.619   1.984  0.1648 -0.5182  0.5033
 7022SOL    HW231746   1.005   9.643   1.826 -0.8811  0.3779  0.3979
 7023SOL     OW31747   2.827   5.298   3.850 -0.1574 -0.2627  0.0007
 7023SOL    HW131748   2.740   5.323   3.808 -0.7977 -1.4966  0.5478
 7023SOL    HW231749   2.902   5.331   3.793 -0.9976 -1.9707 -2.1845
 7024SOL     OW31750   6.886   0.732   3.249  0.2529  0.8521  0.0602
 7024SOL    HW131751   6.881   0.632   3.249  2.3225  0.7354 -0.1524
 7024SOL    HW231752   6.847   0.768   3.164 -0.1527  0.2104 -0.0235
 7025SOL     OW31753   2.893   8.122   5.169 -0.0985 -0.2056 -0.7288
 7025SOL    HW131754   2.982   8.120   5.123 -0.5829 -1.2289 -1.6491
 7025SOL    HW231755   2.823   8.086   5.107 -0.4399 -3.5404  1.4522
 7026SOL     OW31756   4.371   7.183   2.340 -0.1611  0.1981 -0.2176
 7026SOL    HW131757   4.436   7.224   2.403  0.2983  1.5291 -1.5387
 7026SOL    HW231758   4.416   7.167   2.252 -0.2343 -3.3880  0.3141
 7027SOL     OW31759   8.849   6.507   1.641  0.3870 -0.4046  0.6233
 7027SOL    HW131760   8.760   6.525   1.599  0.3503 -0.6628  0.5894
 7027SOL    HW231761   8.871   6.579   1.706  0.2488 -0.2295  0.4758
 7028SOL     OW31762   8.682   5.494   1.912  0.2714  0.8145 -0.2634
 7028SOL    HW131763   8.745   5.549   1.856 -0.0151  1.2046 -0.2046
 7028SOL    HW231764   8.617   5.447   1.853  0.3444  0.7536 -0.2954
 7029SOL     OW31765   9.988   9.711   4.863  0.2909  0.2651 -0.7978
 7029SOL    HW131766   9.894   9.738   4.886  0.2160 -0.9331  0.3962
 7029SOL    HW231767   9.985   9.631   4.803  0.5516 -0.4797  0.1736
 7030SOL     OW31768   1.306   1.054   1.147 -0.2140 -0.0200 -0.4746
 7030SOL    HW131769   1.248   0.975   1.126  0.6413 -0.5398 -0.8838
 7030SOL    HW231770   1.394   1.023   1.182  0.2734  0.7406 -1.0086
 7031SOL     OW31771   4.493   4.108   2.057 -0.3288 -0.2024  0.1432
 7031SOL    HW131772   4.436   4.136   2.135  0.0777 -2.1471  1.1757
 7031SOL    HW231773   4.542   4.188   2.022  0.5515  0.4845  2.7683
 7032SOL     OW31774   7.651   8.991   4.957  0.2337 -0.0197  0.3135
 7032SOL    HW131775   7.682   9.044   4.878 -1.3184  0.0367 -0.2873
 7032SOL    HW231776   7.685   9.032   5.041  2.3513 -0.3825 -0.3361
 7033SOL     OW31777   4.571   8.644   2.854  0.4408  0.4033  0.4041
 7033SOL    HW131778   4.569   8.739   2.887  0.1408  0.6831 -0.3922
 7033SOL    HW231779   4.492   8.628   2.795  1.6040  0.2901 -1.1757
 7034SOL     OW31780   1.356   1.635   4.750  0.0357 -0.8073 -0.2876
 7034SOL    HW131781   1.449   1.648   4.717  0.0562 -0.4776 -0.0955
 7034SOL    HW231782   1.304   1.719   4.740 -0.5845 -1.3275 -1.4883
 7035SOL     OW31783   8.011   5.719   2.772  0.3120 -0.5454  0.2331
 7035SOL    HW131784   8.068   5.752   2.847 -0.7438 -1.0603  1.2653
 7035SOL    HW231785   8.063   5.653   2.717  0.3092 -1.9426  1.8924
 7036SOL     OW31786   5.477   0.901   4.773 -0.4236  0.7734 -0.1812
 7036SOL    HW131787   5.551   0.899   4.841 -0.4408  1.0515 -0.1545
 7036SOL    HW231788   5.504   0.957   4.695 -0.8000  1.2856  0.0544
 7037SOL     OW31789   4.449   7.199   2.758 -0.2882 -0.2457  0.0437
 7037SOL    HW131790   4.496   7.230   2.675  0.4808 -0.7772  0.2788
 7037SOL    HW231791   4.354   7.230   2.756 -0.9309 -2.1781 -2.1398
 7038SOL     OW31792   0.788   4.677   2.381  0.3669 -0.0067  0.6732
 7038SOL    HW131793   0.854   4.706   2.311 -0.9904  0.1197 -0.5572
 7038SOL    HW231794   0.741   4.757   2.418 -0.3211 -0.2512  0.3287
 7039SOL     OW31795   1.808   4.073   3.435 -0.2054 -0.2611  0.3147
 7039SOL    HW131796   1.736   4.007   3.455 -0.6267  0.0072 -0.2791
 7039SOL    HW231797   1.895   4.041   3.472 -0.5646 -0.7625  0.7175
 7040SOL     OW31798   3.471   0.703   2.906  0.2243  0.5806 -0.0632
 7040SOL    HW131799   3.466   0.668   2.999 -1.3459  0.6866 -0.1036
 7040SOL    HW231800   3.534   0.646   2.853 -0.8609 -1.0423  0.3775
 7041SOL     OW31801   9.231   6.044   2.964  0.6126  0.2308 -0.8040
 7041SOL    HW131802   9.145   6.002   2.993  1.2781 -1.8744 -1.8217
 7041SOL    HW231803   9.237   6.042   2.864  0.2337  3.6589 -0.9657
 7042SOL     OW31804   6.541   9.470   3.016 -0.2854  0.0095  0.0438
 7042SOL    HW131805   6.638   9.482   3.037 -0.1488 -0.3313 -0.3770
 7042SOL    HW231806   6.511   9.541   2.952 -0.5272  0.6234  0.8336
 7043SOL     OW31807   0.718   2.943   3.472  1.0061  0.0185  0.7925
 7043SOL    HW131808   0.816   2.957   3.491  1.1469 -0.5312  0.4725
 7043SOL    HW231809   0.682   3.023   3.425  1.2254  0.3635  1.1996
 7044SOL     OW31810   8.215   5.388   1.788  0.0519  0.0296 -0.5590
 7044SOL    HW131811   8.255   5.301   1.817 -1.4191 -0.8739 -1.1859
 7044SOL    HW231812   8.252   5.462   1.844  2.0277 -0.8666 -0.6380
 7045SOL     OW31813   1.425   1.971   5.539  0.0535 -0.2616 -0.1616
 7045SOL    HW131814   1.510   2.015   5.512 -0.2089  0.2575 -0.1476
 7045SOL    HW231815   1.420   1.880   5.499  0.6088 -0.2858 -0.1712
 7046SOL     OW31816   6.586   8.865   1.259 -0.1083  0.0391  0.3119
 7046SOL    HW131817   6.677   8.907   1.258  0.3875 -0.9682  1.8728
 7046SOL    HW231818   6.572   8.813   1.174  0.9703 -0.2316  0.2991
 7047SOL     OW31819   8.902   7.000   3.389  0.1610  0.0486  0.0809
 7047SOL    HW131820   8.917   6.916   3.336 -0.7126  0.9183 -1.5839
 7047SOL    HW231821   8.990   7.033   3.424  0.4759 -1.6893  0.9674
 7048SOL     OW31822   1.707   6.684   4.252 -0.0391 -0.5756  0.1611
 7048SOL    HW131823   1.648   6.739   4.194  1.2768  0.9748  0.2677
 7048SOL    HW231824   1.780   6.644   4.197  1.6773  1.5384  0.8237
 7049SOL     OW31825   4.368   3.211   0.890  0.2573  0.1761  0.1513
 7049SOL    HW131826   4.446   3.197   0.828 -0.4084  0.2940 -0.7283
 7049SOL    HW231827   4.295   3.259   0.841 -0.2465  0.3425  1.0603
 7050SOL     OW31828   9.232   9.087   4.121  0.1493  0.2317 -0.2899
 7050SOL    HW131829   9.289   9.129   4.051  0.8673 -1.3212 -0.6588
 7050SOL    HW231830   9.153   9.042   4.079  1.1990 -1.7139 -0.2566
 7051SOL     OW31831   0.690   4.931   2.932  0.1490  0.2800 -0.1438
 7051SOL    HW131832   0.754   4.854   2.931 -0.3298 -0.1676  1.4299
 7051SOL    HW231833   0.691   4.974   3.022 -0.6280  1.2408 -0.5817
 7052SOL     OW31834   4.422   8.191   5.411  0.1098 -0.1630  0.4845
 7052SOL    HW131835   4.466   8.143   5.335 -0.1555 -0.8773  0.7736
 7052SOL    HW231836   4.336   8.232   5.380 -0.2475 -0.8836  0.5183
 7053SOL     OW31837   9.745   1.207   2.042  0.1581  0.1661 -0.1290
 7053SOL    HW131838   9.823   1.152   2.011  1.8694  1.4048  1.8390
 7053SOL    HW231839   9.759   1.234   2.137 -1.2088  3.0617 -0.6877
 7054SOL     OW31840   4.977   2.973   0.402  0.0617 -0.8909  0.4216
 7054SOL    HW131841   5.072   3.001   0.416 -0.1989  0.2142  0.0837
 7054SOL    HW231842   4.917   3.026   0.462 -0.6207  0.6687 -1.5503
 7055SOL     OW31843   5.265   9.413   2.975  0.4363 -0.1696 -0.1567
 7055SOL    HW131844   5.169   9.439   2.969  0.2722 -0.8115 -0.3341
 7055SOL    HW231845   5.277   9.319   2.943  0.5526 -1.3799  3.2336
 7056SOL     OW31846   6.036   6.956   2.576  0.1312 -0.0053  0.2357
 7056SOL    HW131847   5.939   6.933   2.573 -0.1461  1.0043  1.0671
 7056SOL    HW231848   6.051   7.045   2.533  0.4984  0.4144  1.2064
 7057SOL     OW31849   7.023   9.829   5.414 -0.2184 -0.1525 -0.0755
 7057SOL    HW131850   6.948   9.776   5.374  0.6142 -0.1850 -1.6387
 7057SOL    HW231851   7.044   9.906   5.355  0.9948 -0.1578  0.3372
 7058SOL     OW31852   3.741   6.724   1.273 -0.1626 -0.3720  0.1777
 7058SOL    HW131853   3.749   6.796   1.342 -0.3894 -0.2438  0.0725
 7058SOL    HW231854   3.720   6.637   1.318  0.2547 -0.4027  0.3161
 7059SOL     OW31855   1.083   2.676   3.297  0.2326  0.0861 -0.4963
 7059SOL    HW131856   1.173   2.633   3.304 -0.0050 -0.2398  0.6113
 7059SOL    HW231857   1.094   2.775   3.296  0.5525  0.0684  0.5391
 7060SOL     OW31858   2.599   4.001   1.950 -0.1532 -0.0874 -0.3183
 7060SOL    HW131859   2.533   3.989   1.877 -1.2147  0.6637  0.4960
 7060SOL    HW231860   2.563   3.963   2.035  0.8116 -0.4219 -0.0498
 7061SOL     OW31861   9.226   7.816   3.377 -0.4675 -0.4474  0.4142
 7061SOL    HW131862   9.202   7.734   3.430  0.5556  0.3103  2.1091
 7061SOL    HW231863   9.278   7.790   3.296 -0.0262 -1.4669  1.0194
 7062SOL     OW31864   8.497   0.887   2.777  0.2676  0.2398  0.1173
 7062SOL    HW131865   8.522   0.921   2.867  1.9271  1.8806 -0.9364
 7062SOL    HW231866   8.413   0.933   2.746 -1.0288 -1.2557  1.3322
 7063SOL     OW31867   1.641   0.776   1.483 -0.0650 -0.0283  0.4030
 7063SOL    HW131868   1.702   0.820   1.416  0.8089  0.4855  1.5204
 7063SOL    HW231869   1.567   0.838   1.507 -2.0972 -1.2715 -2.2569
 7064SOL     OW31870   1.562   7.125   2.862 -0.4489  0.0318 -0.2459
 7064SOL    HW131871   1.645   7.163   2.823 -0.1837 -0.7223 -0.4250
 7064SOL    HW231872   1.584   7.075   2.946 -0.9712  1.4007  0.7421
 7065SOL     OW31873   3.674   1.171   1.301 -0.2233  0.2390 -0.0084
 7065SOL    HW131874   3.682   1.095   1.237 -1.5707  1.3311 -1.5105
 7065SOL    HW231875   3.579   1.184   1.327 -0.0647  1.6341 -0.0561
 7066SOL     OW31876   3.039   9.273   5.146  0.4670  0.0334 -0.6937
 7066SOL    HW131877   2.983   9.335   5.091  0.2418  1.1861  0.7761
 7066SOL    HW231878   3.008   9.179   5.133  0.0706  0.3491 -2.1018
 7067SOL     OW31879   4.883   0.120   0.448 -0.2923  0.4881 -0.0909
 7067SOL    HW131880   4.857   0.032   0.489  0.0458  0.6286  0.4398
 7067SOL    HW231881   4.801   0.171   0.423 -0.5075  0.6078  0.8598
 7068SOL     OW31882   0.851   6.848   3.310  0.0751 -0.6971  0.5963
 7068SOL    HW131883   0.939   6.890   3.332 -0.3924  2.3222 -2.7562
 7068SOL    HW231884   0.866   6.759   3.267  1.3947 -1.1218  1.9251
 7069SOL     OW31885   6.023   0.483   2.430  0.3667  0.0443  0.8255
 7069SOL    HW131886   6.112   0.439   2.438  0.0380 -0.9488 -0.7008
 7069SOL    HW231887   6.000   0.494   2.333 -0.1806  2.3314  1.1928
 7070SOL     OW31888   2.127   8.313   4.183  0.4149 -0.3727 -0.0022
 7070SOL    HW131889   2.133   8.401   4.135  0.5515  0.0731  0.8225
 7070SOL    HW231890   2.139   8.328   4.281  3.5258 -1.6946 -0.1386
 7071SOL     OW31891   4.520   5.216   1.144  0.4784 -0.0082  0.1890
 7071SOL    HW131892   4.469   5.299   1.120 -0.2308 -1.2164 -2.6829
 7071SOL    HW231893   4.468   5.164   1.212 -1.2341 -0.2497 -1.2590
 7072SOL     OW31894   5.109   7.860   3.936  0.0255 -0.4073  0.3294
 7072SOL    HW131895   5.085   7.763   3.938  2.0899 -0.9316  0.3971
 7072SOL    HW231896   5.095   7.900   4.026  3.6730 -1.7899  1.5593
 7073SOL     OW31897   3.564   1.939   4.808  0.0014  0.2727  0.0647
 7073SOL    HW131898   3.589   1.923   4.713  1.0472 -0.4604  0.4642
 7073SOL    HW231899   3.479   1.992   4.811 -1.4889 -1.9301 -1.2794
 7074SOL     OW31900   9.440   1.922   2.138 -0.3236  0.2462  0.9606
 7074SOL    HW131901   9.459   1.955   2.046  1.7436  0.5784  1.4724
 7074SOL    HW231902   9.373   1.848   2.135  2.4276 -2.2373 -1.1472
 7075SOL     OW31903   8.808   8.058   4.263 -0.6823  0.6864 -0.3091
 7075SOL    HW131904   8.742   8.010   4.321  0.2292  1.1779  1.1415
 7075SOL    HW231905   8.881   7.995   4.237  0.0892  1.0601  0.9337
 7076SOL     OW31906   7.164   8.533   1.515 -0.5587  0.5428 -0.2994
 7076SOL    HW131907   7.108   8.519   1.596 -1.5789 -1.3445 -1.3123
 7076SOL    HW231908   7.256   8.563   1.543 -0.8767 -0.1423  1.5366
 7077SOL     OW31909   2.104   8.333   0.026  0.4220  0.0593 -0.3755
 7077SOL    HW131910   2.083   8.265  -0.044  2.4805 -1.3936  0.3733
 7077SOL    HW231911   2.050   8.314   0.108  2.1885 -1.7463  0.4248
 7078SOL     OW31912   1.095   3.629   2.344 -0.4438 -0.5635 -0.4733
 7078SOL    HW131913   1.153   3.550   2.367  0.0495 -0.2441 -0.6044
 7078SOL    HW231914   1.020   3.598   2.285 -0.2651 -0.9425 -0.5090
 7079SOL     OW31915   9.733   8.856   0.043 -0.0624  0.1770  0.6928
 7079SOL    HW131916   9.738   8.956   0.038  1.8884  0.0024 -1.8984
 7079SOL    HW231917   9.804   8.822   0.106 -0.7277  0.4050  1.5738
 7080SOL     OW31918   9.084   0.500   3.721  0.0577  0.5630  0.6750
 7080SOL    HW131919   9.024   0.421   3.705  0.2634  0.8428 -1.6715
 7080SOL    HW231920   9.179   0.470   3.724  0.2225  0.8285 -1.2901
 7081SOL     OW31921   5.544   7.689   2.084 -0.3407  0.7195  0.0936
 7081SOL    HW131922   5.642   7.675   2.070 -0.2807  0.9475  0.2739
 7081SOL    HW231923   5.519   7.780   2.051 -0.3569  0.9331  0.6852
 7082SOL     OW31924   9.053   0.125   5.524  0.0552 -0.7925 -0.4709
 7082SOL    HW131925   8.953   0.128   5.533  0.2743  0.8143  1.9544
 7082SOL    HW231926   9.077   0.094   5.432 -2.6540 -2.9668 -0.5310
 7083SOL     OW31927   2.563   9.389   4.775 -0.0024  0.0076 -0.5698
 7083SOL    HW131928   2.553   9.296   4.740  0.5610  0.1803 -1.1940
 7083SOL    HW231929   2.509   9.452   4.721  0.6567  0.2349 -0.9691
 7084SOL     OW31930   9.771   7.033   0.856  0.7972 -0.8471 -0.1612
 7084SOL    HW131931   9.846   6.969   0.837  1.7756  0.5028 -0.9172
 7084SOL    HW231932   9.762   7.098   0.780 -0.4933 -0.3617  0.3864
 7085SOL     OW31933   2.187   7.209   4.657 -0.2065  0.2109  0.0926
 7085SOL    HW131934   2.219   7.122   4.695 -0.3002  0.5230  0.8806
 7085SOL    HW231935   2.157   7.194   4.562  0.7456 -0.4087 -0.1212
 7086SOL     OW31936   9.920   1.600   0.730  0.2148 -0.0473 -0.0357
 7086SOL    HW131937  10.008   1.581   0.686  0.2805 -1.0921  0.5289
 7086SOL    HW231938   9.863   1.653   0.668  0.9506 -0.0253 -0.7085
 7087SOL     OW31939   3.474   2.416   3.661  0.3251  0.0244 -0.5700
 7087SOL    HW131940   3.514   2.325   3.648  1.9815  0.7475 -0.7517
 7087SOL    HW231941   3.467   2.463   3.573 -1.4680 -0.2856 -0.6142
 7088SOL     OW31942   0.364   8.465   0.651 -0.2105 -0.7010 -0.3284
 7088SOL    HW131943   0.289   8.457   0.585 -1.5086  0.7417  0.9227
 7088SOL    HW231944   0.450   8.479   0.602 -0.9389 -1.0046 -1.7379
 7089SOL     OW31945   7.864   1.716   1.374  0.2117 -0.1570  0.3705
 7089SOL    HW131946   7.961   1.738   1.386  0.4102 -0.8638  0.1309
 7089SOL    HW231947   7.855   1.644   1.305 -0.5514  0.5394 -0.2673
 7090SOL     OW31948   1.320   3.354   3.210  0.0821  0.0936 -0.1702
 7090SOL    HW131949   1.328   3.311   3.119 -3.2191  1.4923 -1.1901
 7090SOL    HW231950   1.277   3.290   3.273  0.0018  0.0289 -0.2901
 7091SOL     OW31951   0.782   4.202   1.586  0.0341  0.3222  0.4050
 7091SOL    HW131952   0.701   4.146   1.572 -0.2745  0.8549  0.0457
 7091SOL    HW231953   0.759   4.283   1.640  0.6789 -0.3791  1.7356
 7092SOL     OW31954   1.614   4.212   2.665  0.7555 -0.7303 -0.0121
 7092SOL    HW131955   1.523   4.217   2.625  0.8586  0.1850 -0.1425
 7092SOL    HW231956   1.672   4.284   2.627  0.6037  0.7219  2.3812
 7093SOL     OW31957   3.749   2.577   3.412 -0.3977 -0.2945  0.3370
 7093SOL    HW131958   3.764   2.633   3.493  0.6072 -0.0458 -0.0090
 7093SOL    HW231959   3.728   2.636   3.334 -1.9311 -0.5662  0.5322
 7094SOL     OW31960   5.299   1.298   3.080 -0.3308  0.4150  0.7231
 7094SOL    HW131961   5.370   1.343   3.134  1.2743  1.1341 -1.8768
 7094SOL    HW231962   5.330   1.205   3.057 -0.1409  0.7740 -0.5158
 7095SOL     OW31963   7.322   0.619   0.980 -0.2421 -0.5179  0.0161
 7095SOL    HW131964   7.348   0.715   0.991  0.9878 -0.8947  0.4040
 7095SOL    HW231965   7.288   0.604   0.887  1.7625 -0.2236 -0.7698
 7096SOL     OW31966   6.599   7.220   2.010  0.0470  0.9769  0.4845
 7096SOL    HW131967   6.516   7.191   1.963 -0.4555  1.5174  1.0248
 7096SOL    HW231968   6.642   7.141   2.055 -0.1506  0.6871  0.1620
 7097SOL     OW31969   6.768   0.058   0.567  0.2970 -0.4683 -0.1750
 7097SOL    HW131970   6.847   0.015   0.524  0.9620  0.7874 -0.2207
 7097SOL    HW231971   6.798   0.111   0.646 -0.8741 -2.4869  1.6964
 7098SOL     OW31972   3.759   1.132   4.860 -0.1966  0.5187 -0.3694
 7098SOL    HW131973   3.797   1.220   4.832  0.3513  0.4136  0.0226
 7098SOL    HW231974   3.826   1.060   4.843 -0.2704  0.3100  0.1959
 7099SOL     OW31975   3.656   2.936   1.617  0.1039  0.6370  0.1831
 7099SOL    HW131976   3.584   2.950   1.684 -0.0770  0.4550  0.0267
 7099SOL    HW231977   3.679   3.023   1.574 -0.3430  0.6223 -0.0934
 7100SOL     OW31978   6.833   1.450   4.179  0.3130 -0.9550  0.0895
 7100SOL    HW131979   6.880   1.436   4.267 -2.3562 -0.1399  1.7098
 7100SOL    HW231980   6.740   1.415   4.186 -0.5949  0.9903 -1.7500
 7101SOL     OW31981   2.773   8.170   3.976 -0.1367 -0.2303 -0.1047
 7101SOL    HW131982   2.784   8.072   3.992  1.4348  0.0940  0.9291
 7101SOL    HW231983   2.676   8.194   3.978 -0.5928 -1.9343 -1.4245
 7102SOL     OW31984   3.915   9.835   1.203 -0.5331 -0.2182  0.6861
 7102SOL    HW131985   3.828   9.789   1.186 -0.8054  0.5507 -0.0491
 7102SOL    HW231986   3.911   9.929   1.168  0.8963 -0.4490 -0.1586
 7103SOL     OW31987   7.889   2.105   1.514  0.3816 -0.4055 -0.1142
 7103SOL    HW131988   7.929   2.176   1.456  3.8178 -2.6853 -0.6333
 7103SOL    HW231989   7.916   2.015   1.481 -1.2691 -1.9021  2.4201
 7104SOL     OW31990   2.811   9.941   2.167 -0.2444 -0.1198  0.3972
 7104SOL    HW131991   2.897   9.894   2.182  0.8196  1.0479 -1.8159
 7104SOL    HW231992   2.770   9.910   2.081 -0.0393  2.1812 -0.5667
 7105SOL     OW31993   4.563   3.001   5.369 -0.0787  0.0547 -0.1499
 7105SOL    HW131994   4.619   3.079   5.397  0.5785  0.0567 -1.4654
 7105SOL    HW231995   4.558   2.996   5.270  1.5270 -2.7429 -0.1524
 7106SOL     OW31996   8.507   1.921   3.824 -0.3997 -0.4828 -0.2836
 7106SOL    HW131997   8.578   1.975   3.870  0.3338 -3.0516  1.6787
 7106SOL    HW231998   8.502   1.948   3.727  2.3687  0.6173 -0.1540
 7107SOL     OW31999   4.788   6.516   2.511 -0.1876  0.4645 -0.5312
 7107SOL    HW132000   4.707   6.525   2.569  0.6058  0.2604  0.6216
 7107SOL    HW232001   4.847   6.596   2.523  1.0324 -0.5760  0.6081
 7108SOL     OW32002   9.965   0.195   3.400 -0.0480 -0.2007 -0.9262
 7108SOL    HW132003  10.002   0.281   3.436  2.6620 -1.3149 -0.9361
 7108SOL    HW232004   9.965   0.126   3.472  1.3152 -1.2191 -1.8712
 7109SOL     OW32005   0.156   9.447   4.507 -0.0366  0.6324  1.0044
 7109SOL    HW132006   0.133   9.499   4.425 -1.8101 -0.3856  0.8314
 7109SOL    HW232007   0.255   9.433   4.510 -0.0327 -0.2723 -1.5614
 7110SOL     OW32008   9.858   3.495   2.999 -0.4282  0.9494 -0.3326
 7110SOL    HW132009   9.945   3.520   3.042  0.4003  0.7956 -1.8953
 7110SOL    HW232010   9.785   3.501   3.068  0.8893  0.4827  1.1471
 7111SOL     OW32011   2.658   3.830   1.096  0.2034 -0.0175 -0.5982
 7111SOL    HW132012   2.617   3.881   1.021  0.9761  0.7760 -0.4925
 7111SOL    HW232013   2.635   3.875   1.183  1.0953  0.3030 -0.5246
 7112SOL     OW32014   6.585   9.440   4.590  0.0489  0.6728  0.2937
 7112SOL    HW132015   6.663   9.480   4.638  0.1912  0.5943  0.1300
 7112SOL    HW232016   6.618   9.381   4.517 -0.1593 -0.9317  1.4866
 7113SOL     OW32017   9.577   8.114   3.125 -0.4131 -0.2644 -0.5267
 7113SOL    HW132018   9.536   8.095   3.214 -0.3960  1.0043 -0.2435
 7113SOL    HW232019   9.522   8.181   3.076  1.1620  1.2420 -0.2662
 7114SOL     OW32020   3.164   8.926   0.808  0.0722 -0.8165 -0.1339
 7114SOL    HW132021   3.263   8.912   0.807 -0.0696 -1.9100  0.5669
 7114SOL    HW232022   3.118   8.838   0.815 -0.9326 -0.2303  0.7212
 7115SOL     OW32023   2.948   6.363   2.289  0.0663  0.1048  0.5640
 7115SOL    HW132024   2.940   6.275   2.336  1.4524 -1.0751 -1.3406
 7115SOL    HW232025   3.042   6.376   2.258 -0.7041  1.0056 -1.5291
 7116SOL     OW32026   9.937   2.299   1.407 -0.0835 -0.3628 -0.2071
 7116SOL    HW132027  10.029   2.274   1.376  1.5141  1.9015  2.4670
 7116SOL    HW232028   9.917   2.393   1.379 -1.1089 -0.4232  0.2981
 7117SOL     OW32029   7.588   9.744   1.728  0.0956  0.2143 -0.3643
 7117SOL    HW132030   7.678   9.783   1.750 -0.1244  0.3663  0.2635
 7117SOL    HW232031   7.517   9.789   1.782 -0.2396 -0.6021 -0.1055
 7118SOL     OW32032   4.632   1.655   1.145 -0.2601  0.0171  0.3961
 7118SOL    HW132033   4.616   1.752   1.164 -1.1460 -0.0933  0.2401
 7118SOL    HW232034   4.544   1.607   1.141  0.1514 -0.7169  0.0720
 7119SOL     OW32035   0.159   6.829   3.114  0.4035 -0.3181 -0.2623
 7119SOL    HW132036   0.060   6.835   3.130  0.3601  2.8404 -1.2231
 7119SOL    HW232037   0.177   6.776   3.032 -0.4630 -1.1243  0.0615
 7120SOL     OW32038   4.990   9.701   3.327 -0.2543  0.1919  0.3628
 7120SOL    HW132039   4.943   9.770   3.271 -1.6600 -1.4475 -0.5227
 7120SOL    HW232040   4.978   9.724   3.423 -1.6744  0.5844  0.1097
 7121SOL     OW32041   6.507   7.291   2.906 -0.1431  0.5387  0.3957
 7121SOL    HW132042   6.461   7.368   2.950  1.9169  1.0070  1.7960
 7121SOL    HW232043   6.440   7.219   2.886 -1.7723  1.9423  0.7056
 7122SOL     OW32044   8.913   8.406   2.800 -0.2379  0.2805 -0.4941
 7122SOL    HW132045   8.907   8.308   2.780 -0.3023 -0.0985  1.2750
 7122SOL    HW232046   8.945   8.419   2.894 -1.3630  1.9325 -0.3111
 7123SOL     OW32047   6.889   8.565   2.296 -0.8294  0.6915  0.1834
 7123SOL    HW132048   6.949   8.606   2.365 -1.5825  0.0710  1.2224
 7123SOL    HW232049   6.801   8.611   2.297 -1.0371  0.2974  0.0365
 7124SOL     OW32050   2.459   8.280   1.698 -0.2531 -1.0056  0.3174
 7124SOL    HW132051   2.558   8.299   1.694 -0.4086 -0.3137 -0.6475
 7124SOL    HW232052   2.443   8.194   1.746  0.6454  0.1294  2.7251
 7125SOL     OW32053   9.407   1.076   0.337  0.1837 -0.0459  0.3557
 7125SOL    HW132054   9.422   1.109   0.430  2.7386  0.0502 -0.0451
 7125SOL    HW232055   9.495   1.070   0.289 -1.1136  0.3466 -2.2057
 7126SOL     OW32056   9.531   0.795   5.356  0.3661 -0.6052 -0.3109
 7126SOL    HW132057   9.436   0.797   5.326  0.4977 -0.4168 -0.7073
 7126SOL    HW232058   9.542   0.724   5.426  0.0635 -1.0329 -0.6960
 7127SOL     OW32059   2.651   8.865   1.913 -0.6897  0.1935 -0.1296
 7127SOL    HW132060   2.561   8.895   1.881 -0.3048 -1.5374 -3.0300
 7127SOL    HW232061   2.717   8.939   1.900 -1.5932  1.3818  1.7735
 7128SOL     OW32062   9.475   2.239   4.077 -0.7637 -0.2629 -0.0132
 7128SOL    HW132063   9.550   2.306   4.084  0.7577 -1.4706 -3.7240
 7128SOL    HW232064   9.412   2.267   4.004 -3.8267  0.5334  2.8013
 7129SOL     OW32065   8.397   7.019   1.442 -0.1260  0.2393  0.0054
 7129SOL    HW132066   8.478   7.009   1.385  1.2154  2.2915  1.4848
 7129SOL    HW232067   8.365   7.114   1.440 -0.6025  0.1456  1.9115
 7130SOL     OW32068   4.049   0.128   4.429  0.1448  0.4220  0.8640
 7130SOL    HW132069   3.950   0.128   4.443 -0.1667 -0.7391 -1.1359
 7130SOL    HW232070   4.085   0.035   4.441  0.8752  0.6962  0.8540
 7131SOL     OW32071   6.390   9.609   1.448  0.3682  0.5768  0.1302
 7131SOL    HW132072   6.466   9.642   1.504  0.9343  0.1926 -0.3931
 7131SOL    HW232073   6.349   9.528   1.490  1.3169 -0.1997 -0.4038
 7132SOL     OW32074   1.862   2.757   3.619  0.8433  0.0778 -0.1121
 7132SOL    HW132075   1.811   2.799   3.544 -0.5784  0.8140  1.2620
 7132SOL    HW232076   1.829   2.663   3.633  0.3590  0.3134  0.3151
 7133SOL     OW32077   7.606   9.786   4.428  0.0340  0.2877  0.3413
 7133SOL    HW132078   7.658   9.867   4.401  1.3231 -0.4271  0.6496
 7133SOL    HW232079   7.619   9.714   4.361 -1.2632  0.3877 -0.0294
 7134SOL     OW32080   1.762   9.596   0.617  0.3272  0.5617  0.1827
 7134SOL    HW132081   1.734   9.588   0.522  2.3150 -1.7895 -0.2274
 7134SOL    HW232082   1.681   9.612   0.674 -0.9760  1.0574 -1.7532
 7135SOL     OW32083   1.148   1.061   1.609 -0.6231 -0.3843  0.1232
 7135SOL    HW132084   1.055   1.096   1.618 -0.2461  1.1942 -1.6550
 7135SOL    HW232085   1.195   1.069   1.697 -1.6092  0.4897  0.5827
 7136SOL     OW32086   3.940   9.012   1.947  0.2721 -0.0574  0.2992
 7136SOL    HW132087   3.911   9.078   2.016 -1.1718  0.7321 -1.0226
 7136SOL    HW232088   4.033   9.035   1.917  0.2139  0.6815  0.6638
 7137SOL     OW32089   1.660   0.332   1.379  0.2619 -0.2835  0.1401
 7137SOL    HW132090   1.663   0.265   1.305  0.9971  1.4678 -1.4792
 7137SOL    HW232091   1.747   0.332   1.428 -0.1897 -1.3786  0.9399
 7138SOL     OW32092   3.181   1.817   1.080  0.4954 -0.0689  0.1776
 7138SOL    HW132093   3.129   1.849   1.002  0.5032 -2.3194 -0.8031
 7138SOL    HW232094   3.186   1.889   1.150  1.1519  2.2404 -2.1819
 7139SOL     OW32095   8.793   2.605   3.386  0.4118 -0.4818 -0.1462
 7139SOL    HW132096   8.712   2.594   3.328  0.0755 -0.2829  0.2868
 7139SOL    HW232097   8.797   2.699   3.420  0.6415 -0.5849  0.1085
 7140SOL     OW32098   4.582   8.622   5.263  0.0376 -0.1371 -0.3005
 7140SOL    HW132099   4.509   8.580   5.319  0.6982 -1.8472 -0.6924
 7140SOL    HW232100   4.580   8.583   5.171  1.7719 -0.5718 -0.1649
 7141SOL     OW32101   5.404   9.779   3.813  0.3421 -0.0781 -0.5165
 7141SOL    HW132102   5.383   9.806   3.907 -0.3794  1.4374 -1.0925
 7141SOL    HW232103   5.331   9.721   3.778  0.8638 -1.0763  0.0180
 7142SOL     OW32104   3.354   9.619   3.569 -0.1209 -0.1347 -0.8466
 7142SOL    HW132105   3.327   9.714   3.584 -0.2862 -0.3032 -0.0678
 7142SOL    HW232106   3.454   9.612   3.565 -0.1086  0.0611 -0.8767
 7143SOL     OW32107   6.658   0.417   4.076 -0.0993 -0.0777 -0.0765
 7143SOL    HW132108   6.757   0.420   4.092  0.2567 -2.1433 -1.6427
 7143SOL    HW232109   6.610   0.419   4.164  1.4894 -2.9174  0.9463
 7144SOL     OW32110   4.319   7.685   1.930  0.1930 -0.4176 -0.2268
 7144SOL    HW132111   4.397   7.738   1.963  0.2470 -0.7548  0.1845
 7144SOL    HW232112   4.325   7.676   1.830  1.3583 -1.5202 -0.0617
 7145SOL     OW32113   0.410   9.152   1.155  0.3494  0.3909  0.1363
 7145SOL    HW132114   0.437   9.161   1.060 -0.5924  0.4442 -0.1270
 7145SOL    HW232115   0.476   9.199   1.214  1.1400  0.0216 -0.4598
 7146SOL     OW32116   0.251   4.109   2.064 -0.5324 -0.1253 -0.1356
 7146SOL    HW132117   0.159   4.072   2.053 -0.7400 -0.0548  1.2219
 7146SOL    HW232118   0.251   4.176   2.138  0.3235  0.9033 -1.0531
 7147SOL     OW32119   8.170   8.343   2.275  0.1527  0.1990 -0.8746
 7147SOL    HW132120   8.221   8.261   2.296 -0.4744 -0.1041 -0.5219
 7147SOL    HW232121   8.214   8.392   2.199  0.1562 -0.7962 -1.5135
 7148SOL     OW32122   0.689   7.020   4.394  0.0184  0.5926  0.2386
 7148SOL    HW132123   0.762   6.964   4.356  0.2511  0.1468  1.3100
 7148SOL    HW232124   0.711   7.116   4.382 -0.2138  0.4545 -1.2973
 7149SOL     OW32125   8.188   1.830   0.055 -0.0311 -0.4067  0.3536
 7149SOL    HW132126   8.251   1.759   0.026 -0.2521 -0.4117 -0.1262
 7149SOL    HW232127   8.196   1.845   0.153  3.6721  2.4276 -0.2421
 7150SOL     OW32128   2.911   9.377   0.499 -0.1424 -0.0172  0.2551
 7150SOL    HW132129   2.873   9.468   0.483  0.4382  0.3983  1.2063
 7150SOL    HW232130   2.944   9.370   0.593  3.6204  0.1923 -0.9498
 7151SOL     OW32131   4.875   3.086   0.632  0.0337  0.0315 -0.3935
 7151SOL    HW132132   4.972   3.063   0.644  0.0837  0.5890  0.3230
 7151SOL    HW232133   4.862   3.183   0.652 -0.6264  0.0203 -0.7747
 7152SOL     OW32134   0.921   2.042   2.856 -0.5364 -0.3121  0.0814
 7152SOL    HW132135   1.021   2.043   2.856 -0.5217  0.2928 -1.4964
 7152SOL    HW232136   0.889   1.992   2.775 -1.5011  1.2861 -0.5372
 7153SOL     OW32137   9.378   1.727   0.090  0.4632  0.5096  0.3775
 7153SOL    HW132138   9.346   1.789   0.162 -0.7146 -0.8194  1.0364
 7153SOL    HW232139   9.332   1.750   0.004 -0.1206  0.4311  0.6654
 7154SOL     OW32140   1.178   1.911   0.200 -0.3668 -0.2310  0.6801
 7154SOL    HW132141   1.223   1.899   0.288 -0.1119  1.1210  0.7453
 7154SOL    HW232142   1.211   1.995   0.157  0.5397 -1.5987 -1.3355
 7155SOL     OW32143   7.695   0.399   3.403 -0.8020  0.2207 -0.2868
 7155SOL    HW132144   7.789   0.427   3.419 -0.3739 -1.0168 -0.5636
 7155SOL    HW232145   7.637   0.430   3.479  0.0821 -0.2630  0.5909
 7156SOL     OW32146   0.933   3.160   1.775 -0.0436 -0.1490 -0.8145
 7156SOL    HW132147   0.992   3.237   1.799  2.7420 -1.7529 -2.2976
 7156SOL    HW232148   0.944   3.087   1.843 -1.5467  0.1213 -0.2431
 7157SOL     OW32149   8.395   2.198   0.271 -0.5311 -0.2103  0.1600
 7157SOL    HW132150   8.331   2.182   0.196  0.3176  3.3703 -1.4504
 7157SOL    HW232151   8.488   2.206   0.234  0.0480  0.4721  1.7296
 7158SOL     OW32152   2.673   8.695   1.162 -0.0145 -0.6272  0.3066
 7158SOL    HW132153   2.756   8.748   1.142 -0.5902 -0.3736 -1.5769
 7158SOL    HW232154   2.694   8.598   1.154  0.0316 -0.5560 -0.4922
 7159SOL     OW32155   6.816   7.139   3.984  0.0629 -0.2442  0.2167
 7159SOL    HW132156   6.772   7.192   3.912 -0.3620  0.7390  1.1722
 7159SOL    HW232157   6.749   7.076   4.024  0.4337 -1.1475 -0.5894
 7160SOL     OW32158   6.679   9.166   2.175  0.3282 -0.0678 -0.6246
 7160SOL    HW132159   6.756   9.109   2.145 -0.2875 -0.7315 -0.9740
 7160SOL    HW232160   6.620   9.185   2.097  1.1050  1.9701 -0.7250
 7161SOL     OW32161   9.995   1.957   0.550  0.3223 -0.1253  0.3416
 7161SOL    HW132162   9.983   2.056   0.556  0.5192 -0.1312  0.9557
 7161SOL    HW232163  10.079   1.936   0.500  0.9088  0.0496  1.2366
 7162SOL     OW32164   0.941   7.906   3.577 -0.1344 -0.2189  0.0555
 7162SOL    HW132165   1.029   7.954   3.576 -0.5107  0.4619 -0.4177
 7162SOL    HW232166   0.869   7.967   3.545 -0.6688 -1.0051 -0.2580
 7163SOL     OW32167   4.635   0.410   4.798  0.0388 -0.0810  0.1440
 7163SOL    HW132168   4.669   0.395   4.891  0.1368  1.4068  0.3480
 7163SOL    HW232169   4.575   0.334   4.773 -0.1840 -0.3741  1.5119
 7164SOL     OW32170   0.434   1.560   3.536  0.0861  0.0056  0.3599
 7164SOL    HW132171   0.407   1.619   3.460  0.1257  0.8862  1.0238
 7164SOL    HW232172   0.401   1.599   3.622 -2.1075 -2.2717  0.5745
 7165SOL     OW32173   7.587   8.117   3.822  0.4268 -0.6467 -0.0230
 7165SOL    HW132174   7.644   8.198   3.838  0.5911 -1.0461  1.5937
 7165SOL    HW232175   7.523   8.107   3.899  0.2032 -1.8713 -0.3710
 7166SOL     OW32176   3.471   3.455   3.103  0.2785 -0.3243  0.7021
 7166SOL    HW132177   3.554   3.488   3.148  0.2359 -0.3761  0.8163
 7166SOL    HW232178   3.395   3.517   3.123 -0.1011 -1.1824  1.9562
 7167SOL     OW32179   2.351   3.967   3.287 -0.7612  0.3353  0.2616
 7167SOL    HW132180   2.329   4.057   3.327  1.3511  0.9083  0.1649
 7167SOL    HW232181   2.332   3.895   3.354 -0.8572  0.9898  0.9449
 7168SOL     OW32182   4.071   0.374   0.228 -0.1165 -0.5072 -0.0602
 7168SOL    HW132183   4.014   0.455   0.217 -0.4342 -0.5235  1.4128
 7168SOL    HW232184   4.025   0.307   0.286  0.2337 -1.6651 -1.0926
 7169SOL     OW32185   4.294   8.305   3.542 -0.5102 -0.3034 -0.0817
 7169SOL    HW132186   4.259   8.352   3.623  0.7064  0.8054 -0.1866
 7169SOL    HW232187   4.360   8.363   3.496 -2.4755 -0.1850 -2.8751
 7170SOL     OW32188   5.436   4.463   0.849 -0.3956  0.1582  0.4412
 7170SOL    HW132189   5.436   4.561   0.827 -1.1680  0.0655  0.0198
 7170SOL    HW232190   5.407   4.451   0.944 -0.0006  0.3523  0.5916
 7171SOL     OW32191   9.955   8.161   2.053 -0.2500  0.1929 -0.5676
 7171SOL    HW132192  10.008   8.162   2.137 -1.2770 -0.0372  0.0890
 7171SOL    HW232193   9.982   8.083   1.997 -1.3610 -1.1234  0.7104
 7172SOL     OW32194   2.274   1.068   1.576 -0.2422  0.2540 -0.6505
 7172SOL    HW132195   2.272   1.022   1.664 -1.3382  0.0545 -0.7672
 7172SOL    HW232196   2.354   1.038   1.524 -0.6975 -1.1901 -0.5492
 7173SOL     OW32197   4.456   8.572   3.992  0.3026  0.4953 -0.6976
 7173SOL    HW132198   4.489   8.482   4.020 -2.1227 -0.5216 -0.9191
 7173SOL    HW232199   4.410   8.616   4.069 -1.0699  0.2680 -1.3620
 7174SOL     OW32200   7.352   1.354   2.677  0.4557  0.1076 -0.4699
 7174SOL    HW132201   7.430   1.413   2.655  1.8507 -1.4890  0.1096
 7174SOL    HW232202   7.384   1.275   2.728 -1.4387 -1.0241 -1.0145
 7175SOL     OW32203   0.347   0.882   1.528 -0.1779 -0.2983  0.0544
 7175SOL    HW132204   0.336   0.903   1.625 -0.1758 -1.2951  0.2799
 7175SOL    HW232205   0.292   0.802   1.505 -2.0860  1.3590 -1.3245
 7176SOL     OW32206   8.037   9.573   2.939 -0.0042  0.4054 -0.2332
 7176SOL    HW132207   7.980   9.655   2.947  0.0658  0.4764 -0.4771
 7176SOL    HW232208   8.069   9.547   3.030 -0.5098  0.3053 -0.0805
 7177SOL     OW32209   1.904   0.009   2.402 -0.3025  0.3209 -0.7537
 7177SOL    HW132210   1.938  -0.031   2.317  0.3014 -0.4298 -0.1634
 7177SOL    HW232211   1.901   0.108   2.393  1.3668  0.3570 -1.0797
 7178SOL     OW32212   6.623   0.489   2.085 -0.1393  0.4416  0.5133
 7178SOL    HW132213   6.710   0.478   2.132  0.4438  1.9143 -0.2220
 7178SOL    HW232214   6.562   0.546   2.141  0.0405  0.9855  0.1546
 7179SOL     OW32215   9.877   2.126   2.589  0.3848  0.1061 -0.2757
 7179SOL    HW132216   9.898   2.133   2.492 -0.1312 -0.3622 -0.4291
 7179SOL    HW232217   9.813   2.198   2.615  1.5469  1.0491  0.0186
 7180SOL     OW32218   0.912   5.873   1.910  0.5406  0.6968 -0.3784
 7180SOL    HW132219   0.916   5.775   1.890 -0.8535  0.8698 -1.6062
 7180SOL    HW232220   0.910   5.925   1.825 -1.4807  1.6521  0.2093
 7181SOL     OW32221   1.586   8.436   5.630  0.2440 -0.1783 -0.6758
 7181SOL    HW132222   1.612   8.364   5.694 -2.4697 -1.0933 -0.5112
 7181SOL    HW232223   1.572   8.396   5.540  1.8976  0.7304 -1.3455
 7182SOL     OW32224   1.560   1.925   3.550  0.0351 -0.3197  0.5707
 7182SOL    HW132225   1.652   1.946   3.583 -0.7301  1.0104  1.8966
 7182SOL    HW232226   1.494   1.941   3.623 -1.1524 -2.3103 -0.0313
 7183SOL     OW32227   2.864   4.054   1.986 -0.4825 -0.1726 -0.7476
 7183SOL    HW132228   2.867   4.143   2.031  2.4824 -0.3587 -0.4510
 7183SOL    HW232229   2.771   4.035   1.954 -1.2204  2.8383 -0.4943
 7184SOL     OW32230   2.205   5.800   1.929  0.4113  0.3294  0.4272
 7184SOL    HW132231   2.139   5.855   1.980 -0.7703 -0.2949 -0.4226
 7184SOL    HW232232   2.183   5.703   1.941 -0.4860  0.2026 -2.0641
 7185SOL     OW32233   0.958   9.906   2.660 -0.1812  0.2653  0.0052
 7185SOL    HW132234   0.987   9.966   2.735 -2.2549 -1.0455  1.9028
 7185SOL    HW232235   1.038   9.871   2.613  1.1481  1.5519  1.2450
 7186SOL     OW32236   2.480   3.411   4.072  0.1090 -0.7012  0.0406
 7186SOL    HW132237   2.434   3.350   4.007  0.5403 -1.6070  0.5787
 7186SOL    HW232238   2.543   3.471   4.023  0.8086 -1.7248 -0.3256
 7187SOL     OW32239   0.093   9.568   4.236  1.0639 -0.6739 -0.4403
 7187SOL    HW132240   0.175   9.623   4.221  0.5077  0.6443  1.1227
 7187SOL    HW232241   0.012   9.627   4.232  0.2457 -1.8295 -1.2362
 7188SOL     OW32242   0.634   0.957   5.475 -0.2544  0.0202  0.0939
 7188SOL    HW132243   0.552   0.917   5.517 -0.8256  1.1658  0.0622
 7188SOL    HW232244   0.620   0.967   5.377 -0.3540  0.9176  0.2024
 7189SOL     OW32245   0.542   0.762   3.867 -0.5514  0.1836 -0.1160
 7189SOL    HW132246   0.535   0.859   3.846 -0.7069  0.0704 -0.6201
 7189SOL    HW232247   0.553   0.711   3.781 -0.8869 -0.2737  0.1100
 7190SOL     OW32248   2.139   2.795   5.581 -0.3077  0.2680  0.1116
 7190SOL    HW132249   2.210   2.754   5.637 -0.3092 -0.4913 -0.4296
 7190SOL    HW232250   2.110   2.882   5.621 -1.1533 -0.8338  1.9341
 7191SOL     OW32251   2.885   0.760   3.085 -0.5192  0.1754 -0.0630
 7191SOL    HW132252   2.847   0.842   3.041  1.6850  0.2090 -2.0241
 7191SOL    HW232253   2.864   0.762   3.182 -1.8581  2.2880 -0.3566
 7192SOL     OW32254   3.825   4.291   1.537 -0.4623 -0.1984  0.2426
 7192SOL    HW132255   3.789   4.200   1.558 -2.8079  0.3418 -1.2811
 7192SOL    HW232256   3.765   4.360   1.578  0.4888  0.6862  0.1467
 7193SOL     OW32257   2.093   0.165   1.698  0.1446  0.0769  0.1413
 7193SOL    HW132258   2.087   0.165   1.798 -0.2072 -1.0342  0.1205
 7193SOL    HW232259   2.182   0.199   1.670 -0.5880  2.6386  0.7860
 7194SOL     OW32260   4.476   0.003   2.458  0.3887  0.2330  0.4845
 7194SOL    HW132261   4.434   0.020   2.369  0.3109 -0.7550  0.3317
 7194SOL    HW232262   4.564   0.051   2.463 -0.3353  1.5794  0.4771
 7195SOL     OW32263   6.626   8.160   2.977 -0.4693 -0.0302  0.2024
 7195SOL    HW132264   6.540   8.180   2.931 -1.4053  2.0766  2.7253
 7195SOL    HW232265   6.702   8.188   2.918 -1.5920  1.3510 -0.6367
 7196SOL     OW32266   2.055   3.872   0.814  0.1458  0.3218 -0.1279
 7196SOL    HW132267   2.049   3.807   0.738  0.2068  2.5821 -2.1400
 7196SOL    HW232268   2.149   3.904   0.822  0.3777 -0.7886  1.6920
 7197SOL     OW32269   7.525   9.700   5.484  0.2427  0.0844 -0.8649
 7197SOL    HW132270   7.512   9.788   5.439  0.5969  1.5265  1.7116
 7197SOL    HW232271   7.623   9.677   5.487  0.0873 -0.7938 -2.2265
 7198SOL     OW32272   1.457   6.088   1.365 -0.2356  0.0473 -0.1070
 7198SOL    HW132273   1.364   6.051   1.356  0.9977 -2.7969 -1.9201
 7198SOL    HW232274   1.500   6.052   1.447 -0.0924 -0.1106 -0.2507
 7199SOL     OW32275   7.557   0.822   1.484 -0.4141 -0.0549 -0.2274
 7199SOL    HW132276   7.474   0.877   1.474 -0.4899 -0.4264 -1.7220
 7199SOL    HW232277   7.568   0.797   1.580 -2.4297 -0.6121 -0.1094
 7200SOL     OW32278   8.889   9.254   2.990  0.1085  0.1801  0.6078
 7200SOL    HW132279   8.964   9.311   2.957 -0.0799  0.0879  0.0113
 7200SOL    HW232280   8.826   9.236   2.915  0.0044 -0.5530  0.8715
 7201SOL     OW32281   3.283   7.632   2.282 -0.0788  0.3140  0.6776
 7201SOL    HW132282   3.354   7.629   2.212 -1.7137 -0.2956 -0.9799
 7201SOL    HW232283   3.290   7.552   2.341  0.0891 -0.1903 -0.0213
 7202SOL     OW32284   2.780   9.931   1.508 -0.1197  0.5978  0.1467
 7202SOL    HW132285   2.863   9.941   1.453 -1.1219 -0.4381 -1.6198
 7202SOL    HW232286   2.782   9.842   1.554  0.3424  1.1279  1.1807
 7203SOL     OW32287   9.968   2.261   5.208  0.2692 -0.6749 -0.3289
 7203SOL    HW132288  10.052   2.257   5.263  0.6594  0.6207 -0.8012
 7203SOL    HW232289   9.954   2.355   5.177 -0.5013 -1.1956 -1.5843
 7204SOL     OW32290   4.171   1.980   3.278  0.3291 -0.3792 -0.5836
 7204SOL    HW132291   4.167   2.073   3.314  1.8808 -0.5954  0.2057
 7204SOL    HW232292   4.218   1.921   3.344 -2.3342 -2.1621 -0.2018
 7205SOL     OW32293   9.901   9.864   5.192  0.6710 -0.2307 -0.1308
 7205SOL    HW132294   9.836   9.838   5.263  2.8210 -0.5897  1.7587
 7205SOL    HW232295   9.962   9.787   5.172  2.2030  0.9107  0.0227
 7206SOL     OW32296   0.572   9.841   1.269  0.4798 -0.1555  0.0178
 7206SOL    HW132297   0.580   9.921   1.209  0.6377  1.1133  1.7137
 7206SOL    HW232298   0.476   9.813   1.274  0.3725  0.1446 -0.2835
 7207SOL     OW32299   9.157   9.138   2.663  0.2063 -0.7009 -0.2830
 7207SOL    HW132300   9.083   9.102   2.606 -0.9254  0.7368  0.2477
 7207SOL    HW232301   9.223   9.185   2.605  0.3374 -1.3698 -0.6828
 7208SOL     OW32302   4.833   7.100   1.514 -0.8223 -0.3904  0.3833
 7208SOL    HW132303   4.793   7.055   1.595 -0.9583  0.7665  0.9639
 7208SOL    HW232304   4.932   7.095   1.520 -0.8460 -1.9018 -0.2887
 7209SOL     OW32305   2.054   9.796   2.510 -0.3013  0.3606  0.0824
 7209SOL    HW132306   1.974   9.854   2.497 -0.1285  0.8556  1.2234
 7209SOL    HW232307   2.084   9.799   2.605 -0.4991 -1.8801  0.2516
 7210SOL     OW32308   0.684   9.190   2.974  0.2724 -0.2112  0.3791
 7210SOL    HW132309   0.658   9.159   3.065 -0.8010  0.6523  0.3787
 7210SOL    HW232310   0.647   9.128   2.905  0.4530 -0.4464  0.4944
 7211SOL     OW32311   8.632   6.303   3.152 -0.1478  0.2138  0.0093
 7211SOL    HW132312   8.724   6.315   3.114  0.3339  0.6751  1.2883
 7211SOL    HW232313   8.622   6.360   3.233 -1.4251 -0.1667  0.1329
 7212SOL     OW32314   4.577   0.263   1.488 -0.1013 -0.1374 -0.4287
 7212SOL    HW132315   4.665   0.230   1.522 -0.9706 -1.1107  0.9588
 7212SOL    HW232316   4.505   0.240   1.555 -1.2749  1.3997 -1.1275
 7213SOL     OW32317   1.557   7.882   2.938 -0.1290 -0.3317 -0.0963
 7213SOL    HW132318   1.465   7.849   2.960 -0.4690 -0.3358 -1.4786
 7213SOL    HW232319   1.571   7.971   2.981 -0.9837 -0.0843 -0.3124
 7214SOL     OW32320   8.368   0.689   0.080 -0.5094 -0.1675  0.2766
 7214SOL    HW132321   8.438   0.663   0.147 -0.0074 -1.1172 -0.6103
 7214SOL    HW232322   8.352   0.788   0.085  1.3568  0.1661  0.0371
 7215SOL     OW32323   7.688   6.109   2.819 -0.4310 -0.1685  0.1563
 7215SOL    HW132324   7.765   6.071   2.767 -1.3851 -0.6063 -0.9588
 7215SOL    HW232325   7.659   6.195   2.778 -0.9022 -0.2990  0.2079
 7216SOL     OW32326   7.601   8.128   2.427 -0.3320 -0.0877 -0.6121
 7216SOL    HW132327   7.701   8.131   2.419 -0.2439  1.3700  0.6468
 7216SOL    HW232328   7.570   8.033   2.424  1.0791 -0.5410 -1.2039
 7217SOL     OW32329   3.344   8.054   3.252  0.6479  0.0250  0.1398
 7217SOL    HW132330   3.387   8.119   3.190 -0.2968  0.6180  0.0982
 7217SOL    HW232331   3.364   8.081   3.347  0.0184  0.5358  0.1264
 7218SOL     OW32332   4.149   8.504   1.891  0.4127  0.0153  0.0455
 7218SOL    HW132333   4.059   8.541   1.867 -0.2865  0.0062  2.5068
 7218SOL    HW232334   4.181   8.444   1.818 -2.0234 -0.7392 -0.4501
 7219SOL     OW32335   1.841   8.955   4.488  0.3610  0.0848  0.0640
 7219SOL    HW132336   1.812   9.041   4.446 -0.8307 -0.0375  0.6448
 7219SOL    HW232337   1.850   8.885   4.417 -0.3012  0.2440 -0.1775
 7220SOL     OW32338   9.878   2.538   2.226  0.0183 -0.1174  0.2990
 7220SOL    HW132339   9.838   2.447   2.223 -0.4393  0.0878  0.0484
 7220SOL    HW232340   9.822   2.601   2.171  0.0994  0.4041  0.8094
 7221SOL     OW32341   3.555   2.325   0.623  0.1419 -0.6310  0.6978
 7221SOL    HW132342   3.471   2.330   0.570 -0.7701 -1.0333  2.0925
 7221SOL    HW232343   3.628   2.286   0.566 -0.0294  1.6486 -1.1871
 7222SOL     OW32344   9.342   8.410   3.170 -0.5008  0.0437 -0.0968
 7222SOL    HW132345   9.377   8.356   3.094 -1.1067  0.3563 -0.5991
 7222SOL    HW232346   9.280   8.480   3.136  0.3133  1.0956  0.5410
 7223SOL     OW32347   4.208   2.174   4.886 -0.2597 -0.3944 -0.3077
 7223SOL    HW132348   4.166   2.163   4.796 -1.8051  1.5664  0.1611
 7223SOL    HW232349   4.162   2.113   4.952  0.0456 -0.9064 -0.5626
 7224SOL     OW32350   4.574   6.601   3.158 -0.6315 -0.1060  0.2744
 7224SOL    HW132351   4.582   6.662   3.237 -0.7510  1.0098 -0.5622
 7224SOL    HW232352   4.664   6.585   3.118 -0.2403 -2.5528  2.0027
 7225SOL     OW32353   8.718   5.520   2.400  0.6757  0.0977 -0.1570
 7225SOL    HW132354   8.706   5.570   2.486  1.6607  1.5353 -0.8194
 7225SOL    HW232355   8.711   5.422   2.417 -0.2688  0.4025  1.3636
 7226SOL     OW32356   3.995   3.586   3.671 -0.6844 -0.2038 -0.4623
 7226SOL    HW132357   4.087   3.573   3.709 -1.3740 -0.2372  1.2159
 7226SOL    HW232358   3.985   3.529   3.590  0.4954 -0.8417 -0.1730
 7227SOL     OW32359   4.194   7.480   3.168  0.3397 -0.2118  0.2874
 7227SOL    HW132360   4.140   7.499   3.250 -0.1268  1.1306 -0.3278
 7227SOL    HW232361   4.177   7.386   3.139  0.1665 -0.5553  1.4718
 7228SOL     OW32362   0.828   9.335   2.581 -0.2192 -0.0560  0.2502
 7228SOL    HW132363   0.920   9.294   2.585 -0.2262 -0.7917 -3.8914
 7228SOL    HW232364   0.837   9.434   2.567  0.0679 -0.3418 -1.8917
 7229SOL     OW32365   1.450   1.020   4.599  1.1797 -0.1538  0.2440
 7229SOL    HW132366   1.438   1.059   4.690  1.7950  0.5822  0.0138
 7229SOL    HW232367   1.366   1.033   4.546  1.3439  0.7936  0.1998
 7230SOL     OW32368   3.425   7.222   3.506  0.4770 -0.5289  0.0765
 7230SOL    HW132369   3.395   7.213   3.411 -0.1121 -1.3615  0.3325
 7230SOL    HW232370   3.388   7.306   3.546 -2.0858 -1.8441  0.5811
 7231SOL     OW32371   0.928   1.219   2.085  0.0127 -0.0449 -0.2493
 7231SOL    HW132372   0.912   1.285   2.011  0.6479  1.0286  0.5623
 7231SOL    HW232373   0.843   1.205   2.136 -0.4264 -0.7743 -1.1489
 7232SOL     OW32374   1.860   6.216   0.349  0.0000  0.8374 -0.2131
 7232SOL    HW132375   1.899   6.293   0.297  0.6663  0.8857  0.3527
 7232SOL    HW232376   1.764   6.235   0.370  0.3255  1.7894  0.4507
 7233SOL     OW32377   1.346   7.659   4.065  0.0009  0.3535 -0.4517
 7233SOL    HW132378   1.264   7.707   4.034  0.3889  1.5131  0.3152
 7233SOL    HW232379   1.414   7.660   3.991 -0.0450  0.8652 -0.4917
 7234SOL     OW32380   3.802   6.477   3.597 -0.2878  0.3818 -0.2787
 7234SOL    HW132381   3.852   6.429   3.526 -0.3838  1.0891 -0.8307
 7234SOL    HW232382   3.866   6.514   3.664 -0.2074 -0.4139  0.0887
 7235SOL     OW32383   2.287   9.944   2.736  0.2888 -0.3201  0.3468
 7235SOL    HW132384   2.231   9.871   2.775 -2.7292  0.9202 -1.4597
 7235SOL    HW232385   2.346   9.906   2.664 -0.6325 -1.1353  0.0120
 7236SOL     OW32386   9.472   0.911   3.264 -0.9211  0.1537  0.0123
 7236SOL    HW132387   9.481   0.811   3.268 -1.2161  0.1389  0.3648
 7236SOL    HW232388   9.419   0.937   3.183 -2.1089 -0.0678  0.7084
 7237SOL     OW32389   6.756   6.856   2.544 -0.1080  0.4159  0.0918
 7237SOL    HW132390   6.792   6.938   2.589  2.2055 -0.6789  0.3271
 7237SOL    HW232391   6.805   6.841   2.459  0.9223 -1.8258  1.0351
 7238SOL     OW32392   1.417   8.007   4.375  0.1999 -0.1724 -0.6170
 7238SOL    HW132393   1.412   8.054   4.287  1.0409 -1.0256 -1.1340
 7238SOL    HW232394   1.385   7.913   4.363  0.4096 -0.3183 -0.0253
 7239SOL     OW32395   9.759   5.009   2.945 -0.0281  0.3404 -0.5488
 7239SOL    HW132396   9.857   5.004   2.926 -0.1322 -2.1311 -0.6365
 7239SOL    HW232397   9.708   5.004   2.859 -0.2247  2.4700 -0.5680
 7240SOL     OW32398   3.827   8.751   4.261  0.6507  0.6802 -0.0955
 7240SOL    HW132399   3.870   8.688   4.325 -0.4712 -0.0701 -0.0473
 7240SOL    HW232400   3.793   8.699   4.182  1.1430  1.4543 -0.8165
 7241SOL     OW32401   3.708   1.813   0.194 -0.5703  0.5844 -0.3019
 7241SOL    HW132402   3.730   1.724   0.154  2.1439  1.3725 -0.6824
 7241SOL    HW232403   3.692   1.879   0.120  2.4519  1.5583 -0.1814
 7242SOL     OW32404   2.068   0.676   0.713  0.0388  0.4775 -0.1727
 7242SOL    HW132405   2.081   0.734   0.632  0.1775  1.8053  0.7946
 7242SOL    HW232406   1.970   0.664   0.730  0.0079  1.3690  0.2898
 7243SOL     OW32407   5.894   9.461   4.204  0.7165  0.1630 -0.8286
 7243SOL    HW132408   5.992   9.466   4.190  0.8205  0.6907  0.0717
 7243SOL    HW232409   5.875   9.432   4.298  0.0081  1.1533 -0.6619
 7244SOL     OW32410   8.444   0.402   3.837  0.4078  0.0396 -0.1957
 7244SOL    HW132411   8.521   0.362   3.787  0.7495  0.3334  0.0958
 7244SOL    HW232412   8.419   0.343   3.913  0.3889 -0.0214 -0.2492
 7245SOL     OW32413   4.661   4.360   1.362 -0.1001 -0.0136  0.4908
 7245SOL    HW132414   4.663   4.381   1.460 -0.6163  0.0424  0.4890
 7245SOL    HW232415   4.567   4.355   1.331  0.0249 -1.2182  0.2554
 7246SOL     OW32416   8.145   5.432   2.358 -0.1506  0.1459  0.4511
 7246SOL    HW132417   8.066   5.438   2.297  0.1439 -0.9552 -0.0602
 7246SOL    HW232418   8.229   5.445   2.304  0.0700  0.1521  0.7955
 7247SOL     OW32419   9.227   6.903   3.924 -0.0578  0.1351 -0.1176
 7247SOL    HW132420   9.145   6.846   3.922  0.2742 -0.3366 -0.2215
 7247SOL    HW232421   9.309   6.845   3.922  0.2792  0.6096 -0.2337
 7248SOL     OW32422   1.506   2.219   5.097  0.4529 -0.1587 -0.0833
 7248SOL    HW132423   1.605   2.221   5.095  0.4154  0.4209 -1.8144
 7248SOL    HW232424   1.471   2.312   5.108  0.1194 -0.5324  2.1829
 7249SOL     OW32425   9.595   7.046   3.942 -0.2685  0.3705 -0.0863
 7249SOL    HW132426   9.689   7.023   3.969 -0.1397  0.2231 -0.6602
 7249SOL    HW232427   9.551   6.965   3.904 -0.5376  0.5126 -0.0775
 7250SOL     OW32428   2.262   3.596   0.392 -0.4276  0.5133 -0.1301
 7250SOL    HW132429   2.262   3.628   0.486  0.6665  1.5005 -0.4544
 7250SOL    HW232430   2.356   3.574   0.364 -0.4827  2.0062 -1.5787
 7251SOL     OW32431   3.252   9.469   5.061  0.4008 -0.3723  0.0912
 7251SOL    HW132432   3.164   9.425   5.081  0.4360 -0.3067  0.3830
 7251SOL    HW232433   3.327   9.410   5.093  0.4349  0.1970  1.0546
 7252SOL     OW32434   9.679   9.150   0.040 -0.3236 -0.0505 -0.4513
 7252SOL    HW132435   9.688   9.155   0.140  0.0229  0.5629 -0.5154
 7252SOL    HW232436   9.594   9.195   0.012  0.8379  2.0395 -0.6645
 7253SOL     OW32437   4.205   8.613   4.577  0.4187 -0.2558 -0.1280
 7253SOL    HW132438   4.207   8.680   4.504 -1.6818 -0.5185 -0.4743
 7253SOL    HW232439   4.198   8.660   4.665 -2.1550 -0.0049 -0.4375
 7254SOL     OW32440   2.104   4.480   1.080  0.2837  0.0776 -0.2900
 7254SOL    HW132441   2.012   4.489   1.043  1.1792  2.4339 -2.1318
 7254SOL    HW232442   2.159   4.424   1.019  0.5218  0.1119 -0.1076
 7255SOL     OW32443   6.972   2.317   3.057  0.0522  0.1720 -0.0875
 7255SOL    HW132444   6.949   2.235   3.004 -0.5619  0.2244  0.0939
 7255SOL    HW232445   6.891   2.349   3.105  0.1506  1.2119 -0.5967
 7256SOL     OW32446   4.156   3.940   4.179  0.1112 -0.6180  0.0244
 7256SOL    HW132447   4.230   4.003   4.154 -1.4571  0.6609 -1.5538
 7256SOL    HW232448   4.113   3.971   4.264 -0.9018  0.7112 -0.9441
 7257SOL     OW32449   1.421   6.028   2.952  0.0328 -0.0175  0.1025
 7257SOL    HW132450   1.415   5.965   2.874 -1.4077 -0.0987  0.2684
 7257SOL    HW232451   1.467   5.982   3.028 -0.1632 -0.5499 -0.0952
 7258SOL     OW32452   8.917   7.337   3.046 -0.3173 -0.1530 -0.0115
 7258SOL    HW132453   8.828   7.355   3.003 -1.4765 -3.5240  0.7792
 7258SOL    HW232454   8.903   7.319   3.143  1.4178  0.5481  0.3747
 7259SOL     OW32455   1.652   6.650   4.724  0.0295 -0.4209 -0.1727
 7259SOL    HW132456   1.566   6.664   4.675  0.4625 -0.5151 -0.9855
 7259SOL    HW232457   1.658   6.714   4.800 -0.4070  0.1244 -0.5864
 7260SOL     OW32458   8.465   9.646   0.266 -0.2918  0.2951 -0.1293
 7260SOL    HW132459   8.375   9.642   0.223 -0.9887 -1.5877  1.4428
 7260SOL    HW232460   8.516   9.724   0.230 -2.4407  1.2117 -1.2343
 7261SOL     OW32461   8.272   8.973   3.064  0.2305 -0.6994 -0.0400
 7261SOL    HW132462   8.351   9.015   3.108  0.4026 -1.0462 -0.0126
 7261SOL    HW232463   8.192   8.979   3.124  1.2617 -4.2421  1.8493
 7262SOL     OW32464   6.216   4.245   0.016  0.4678 -0.3756 -0.2986
 7262SOL    HW132465   6.205   4.264   0.113  0.3756 -0.4375 -0.2976
 7262SOL    HW232466   6.189   4.325  -0.037 -1.3594 -1.0182 -0.3623
 7263SOL     OW32467   4.466   9.231   5.028 -0.1344  0.0880  0.4361
 7263SOL    HW132468   4.528   9.221   5.106  0.2488  0.2136  0.1474
 7263SOL    HW232469   4.373   9.249   5.061  0.0619  0.3208  0.8624
 7264SOL     OW32470   6.048   9.815   3.499 -0.1517 -0.1544  0.1955
 7264SOL    HW132471   6.099   9.890   3.458 -0.9666  1.5469  2.1899
 7264SOL    HW232472   6.089   9.727   3.473  1.7734  1.0383 -0.8597
 7265SOL     OW32473   5.561   9.629   3.631 -0.3384 -0.3894 -0.5480
 7265SOL    HW132474   5.516   9.670   3.710 -0.8561 -1.2341 -0.3863
 7265SOL    HW232475   5.493   9.577   3.578  0.6542 -2.6183  0.3141
 7266SOL     OW32476   2.592   8.592   1.623  0.4951 -0.2969  0.0199
 7266SOL    HW132477   2.591   8.655   1.545 -3.2809 -0.2466  0.0225
 7266SOL    HW232478   2.647   8.511   1.600  1.6538  0.9183 -1.6476
 7267SOL     OW32479   8.487   3.027   2.576  0.2605 -0.0689  0.3754
 7267SOL    HW132480   8.436   3.012   2.660  0.5458 -2.6313  0.1384
 7267SOL    HW232481   8.477   3.123   2.547 -0.4994  0.6321  2.8464
 7268SOL     OW32482   2.073   6.449   0.994  0.2935 -0.3895 -0.1858
 7268SOL    HW132483   2.081   6.542   1.028  1.5368 -0.2188 -0.8979
 7268SOL    HW232484   2.164   6.408   0.988 -0.1493 -1.2872 -0.8520
 7269SOL     OW32485   8.122   8.648   1.115 -0.4552 -0.8424  0.0772
 7269SOL    HW132486   8.135   8.632   1.212 -0.9017 -0.1143  0.2619
 7269SOL    HW232487   8.174   8.729   1.087 -2.0814  0.2706  0.1824
 7270SOL     OW32488   8.300   0.004   4.337  0.3364  0.2468 -0.8041
 7270SOL    HW132489   8.375   0.028   4.275 -0.0746 -0.6130 -1.6485
 7270SOL    HW232490   8.337  -0.044   4.417  0.9561  2.0351  0.0117
 7271SOL     OW32491   0.714   1.819   0.213  0.2832 -0.2521  0.1733
 7271SOL    HW132492   0.630   1.834   0.264  0.0378 -1.6044  0.1908
 7271SOL    HW232493   0.793   1.846   0.269 -0.0201 -1.1093  1.0196
 7272SOL     OW32494   5.020   9.369   3.937  0.1211  0.8004 -0.0868
 7272SOL    HW132495   4.961   9.331   4.008 -0.1805 -0.5012 -1.0039
 7272SOL    HW232496   5.096   9.307   3.921  0.3363  1.2212 -0.7052
 7273SOL     OW32497   2.287   5.555   3.348 -0.2320  0.0418 -0.2898
 7273SOL    HW132498   2.308   5.600   3.261 -0.8564  0.0713 -0.4315
 7273SOL    HW232499   2.235   5.618   3.406 -1.2869 -0.5506 -0.5655
 7274SOL     OW32500   8.323   9.110   4.796  0.3099  0.0321  0.2871
 7274SOL    HW132501   8.353   9.186   4.854 -0.8805  0.8922 -0.2131
 7274SOL    HW232502   8.259   9.052   4.847  0.4529 -0.0875  0.3328
 7275SOL     OW32503   1.010   5.696   0.854  0.1588 -0.4350  0.3186
 7275SOL    HW132504   1.013   5.792   0.827  0.5609 -0.2726  0.9467
 7275SOL    HW232505   1.073   5.643   0.797  2.0696  0.1341  1.8528
 7276SOL     OW32506   3.768   1.357   2.457  0.7324 -0.6930  0.4492
 7276SOL    HW132507   3.783   1.272   2.505  0.8901 -0.8491  0.1262
 7276SOL    HW232508   3.826   1.429   2.495  2.1593 -1.2358 -0.6512
 7277SOL     OW32509   7.725   0.116   3.581 -0.3243  0.0791 -0.2309
 7277SOL    HW132510   7.780   0.080   3.656 -0.4202  1.3894  0.4784
 7277SOL    HW232511   7.706   0.042   3.516  2.1141 -0.4386 -0.4094
 7278SOL     OW32512   4.665   5.973   1.478 -0.3489 -0.2141 -0.2612
 7278SOL    HW132513   4.573   6.010   1.490 -0.1213 -0.3853  2.3887
 7278SOL    HW232514   4.704   6.007   1.393 -1.9677  1.7666 -0.2534
 7279SOL     OW32515   2.919   7.255   0.732  0.3918  0.6037  0.0666
 7279SOL    HW132516   2.914   7.161   0.764  1.9485  1.0885  1.7729
 7279SOL    HW232517   2.827   7.294   0.729 -0.2710 -0.9616 -0.7264
 7280SOL     OW32518   4.484   1.301   2.216 -0.1365  0.4837 -0.5388
 7280SOL    HW132519   4.572   1.283   2.173  0.5964 -0.7917  1.4242
 7280SOL    HW232520   4.418   1.329   2.146  1.3991 -0.0367 -2.2494
 7281SOL     OW32521   6.289   9.310   2.779 -0.3172 -0.0313 -0.2492
 7281SOL    HW132522   6.271   9.225   2.729  1.7256 -0.7153  0.0835
 7281SOL    HW232523   6.343   9.371   2.722  0.5155 -0.0907  0.4546
 7282SOL     OW32524   8.262   1.384   2.941  0.1736 -0.1621 -0.0865
 7282SOL    HW132525   8.217   1.333   2.868 -1.2597 -1.3079  1.5667
 7282SOL    HW232526   8.260   1.331   3.025  1.6102  1.2330  0.8622
 7283SOL     OW32527   1.451   0.443   0.536 -0.0683 -0.1485  0.0643
 7283SOL    HW132528   1.517   0.393   0.480 -0.4385  0.2113 -0.6914
 7283SOL    HW232529   1.398   0.505   0.479 -0.3299  0.3530  0.8410
 7284SOL     OW32530   0.738   6.897   5.421 -0.0957 -0.0912  0.2838
 7284SOL    HW132531   0.692   6.970   5.471  0.8442 -0.8382  2.2914
 7284SOL    HW232532   0.740   6.814   5.476  0.2234 -1.1966 -1.3445
 7285SOL     OW32533   9.382   4.494   2.406 -0.7198  0.3919 -0.3307
 7285SOL    HW132534   9.335   4.434   2.471 -0.0664  0.2813  0.0411
 7285SOL    HW232535   9.370   4.589   2.434  0.8871  0.2728  0.8644
 7286SOL     OW32536   9.635   3.583   3.145 -0.0644  0.0770 -0.0366
 7286SOL    HW132537   9.558   3.527   3.178  0.5843  0.1510  1.6982
 7286SOL    HW232538   9.607   3.636   3.066 -1.0654 -1.7920 -0.9584
 7287SOL     OW32539   1.954   6.606   2.354 -0.1819  0.0283  0.4711
 7287SOL    HW132540   1.873   6.665   2.353  0.3384  0.7436 -0.5223
 7287SOL    HW232541   2.032   6.658   2.389  0.4810  0.2146 -1.2474
 7288SOL     OW32542   7.639   9.595   3.093 -0.6433  0.3375  0.5641
 7288SOL    HW132543   7.544   9.565   3.103 -1.5533  3.2189  1.1642
 7288SOL    HW232544   7.663   9.655   3.170  1.9160 -0.9181  0.8024
 7289SOL     OW32545   2.298   7.725   3.904 -0.1770 -0.0617 -0.0967
 7289SOL    HW132546   2.291   7.707   3.805  0.9810 -0.2955 -0.1461
 7289SOL    HW232547   2.212   7.762   3.937 -0.5705  0.0470 -1.2118
 7290SOL     OW32548   5.951   0.121   1.726 -0.1046  0.2720 -0.2620
 7290SOL    HW132549   5.987   0.198   1.778 -1.3990  0.5413  0.2309
 7290SOL    HW232550   5.883   0.153   1.661 -1.8514 -0.6543  1.0810
 7291SOL     OW32551   2.837   4.551   4.413  0.3449 -0.4302 -0.4483
 7291SOL    HW132552   2.796   4.641   4.395 -0.3431 -0.7305 -0.3959
 7291SOL    HW232553   2.840   4.534   4.511 -0.7437 -1.0227 -0.5138
 7292SOL     OW32554   2.587   4.853   5.503  0.7100  0.7343  0.6105
 7292SOL    HW132555   2.575   4.898   5.592  1.6060 -0.3154  1.2628
 7292SOL    HW232556   2.656   4.902   5.450  0.6371  0.9795  0.7395
 7293SOL     OW32557   0.244   9.400   3.658  0.0786 -0.3745  0.2939
 7293SOL    HW132558   0.252   9.301   3.644 -3.7528 -0.6815 -0.3924
 7293SOL    HW232559   0.244   9.420   3.756  1.6879 -0.9687  0.4142
 7294SOL     OW32560   0.074   2.876   1.589 -0.6151 -0.8534  0.6237
 7294SOL    HW132561   0.098   2.895   1.684  0.1630 -2.1991  0.7209
 7294SOL    HW232562  -0.022   2.846   1.584 -1.1243  0.7423  0.7682
 7295SOL     OW32563   2.755   7.604   4.019 -0.4879 -0.4867 -0.1103
 7295SOL    HW132564   2.778   7.538   3.948 -0.0295  0.1561 -0.5698
 7295SOL    HW232565   2.795   7.576   4.106  1.2677  0.1477 -0.7042
 7296SOL     OW32566   5.474   0.506   1.011 -0.2493 -0.0874 -0.0522
 7296SOL    HW132567   5.414   0.427   0.996  0.2948 -1.0820  2.7411
 7296SOL    HW232568   5.419   0.587   1.030 -0.7944  0.1158 -2.3459
 7297SOL     OW32569   0.913   5.973   1.107 -0.6178 -0.0709 -0.5135
 7297SOL    HW132570   1.011   5.992   1.115 -0.8647  1.5114 -0.9177
 7297SOL    HW232571   0.861   6.055   1.133 -1.8236 -0.8098 -0.5524
 7298SOL     OW32572   3.248   4.826   1.638 -0.3342 -0.7603  0.2856
 7298SOL    HW132573   3.157   4.815   1.598 -0.3357  3.0366 -0.9128
 7298SOL    HW232574   3.299   4.894   1.586  1.8970 -0.2182  3.1041
 7299SOL     OW32575   4.118   6.810   1.831  0.5996 -0.2675  0.2752
 7299SOL    HW132576   4.102   6.771   1.922  2.4939 -2.0791 -0.1311
 7299SOL    HW232577   4.199   6.868   1.834 -1.3820  2.5589  0.5346
 7300SOL     OW32578   6.384   1.717   2.671 -0.2017 -0.0577 -0.2224
 7300SOL    HW132579   6.467   1.765   2.644  0.3431 -0.0458  1.4169
 7300SOL    HW232580   6.330   1.775   2.732 -0.1146 -1.0392  0.8194
 7301SOL     OW32581   7.784   7.355   4.043 -0.5832 -0.5475  0.8521
 7301SOL    HW132582   7.846   7.311   3.978 -0.3242 -0.0118  0.7421
 7301SOL    HW232583   7.690   7.325   4.024 -0.7150  0.9129 -0.8398
 7302SOL     OW32584   6.396   0.472   2.939  0.0321 -0.0792 -0.3038
 7302SOL    HW132585   6.481   0.459   2.889 -0.6889 -0.2881 -1.5015
 7302SOL    HW232586   6.337   0.392   2.925 -0.6569  0.3845 -0.0824
 7303SOL     OW32587   3.537   9.020   5.126 -0.5486 -0.1895 -0.1816
 7303SOL    HW132588   3.552   8.954   5.199  0.3138  0.1040 -0.0831
 7303SOL    HW232589   3.605   9.092   5.132 -2.1969  1.3513  0.4176
 7304SOL     OW32590   2.484   5.397   1.153 -0.0694  1.1996 -0.3593
 7304SOL    HW132591   2.419   5.333   1.112  0.9317 -0.3691  0.4561
 7304SOL    HW232592   2.556   5.418   1.088 -0.8489  2.1892 -0.9261
 7305SOL     OW32593   8.747   1.096   0.460  0.4694  0.6806 -0.1623
 7305SOL    HW132594   8.738   1.181   0.513  0.4833 -0.2439  1.3539
 7305SOL    HW232595   8.697   1.023   0.506  0.9087 -0.2708 -1.1768
 7306SOL     OW32596   5.156   7.262   2.318 -0.4866  0.1759  0.3552
 7306SOL    HW132597   5.127   7.166   2.316 -0.1991  0.0919  0.1404
 7306SOL    HW232598   5.256   7.267   2.313 -0.4345  0.4493  1.5250
 7307SOL     OW32599   3.685   1.833   2.258  0.0045 -0.2762 -0.1286
 7307SOL    HW132600   3.725   1.840   2.166 -0.4567 -0.0676 -0.3162
 7307SOL    HW232601   3.603   1.775   2.254  0.6607 -1.2421  0.3781
 7308SOL     OW32602   8.564   3.638   2.234  0.2320 -0.6726 -0.0400
 7308SOL    HW132603   8.595   3.721   2.189 -1.1538  0.4593  1.0341
 7308SOL    HW232604   8.494   3.594   2.179 -1.2149  0.5256  0.8148
 7309SOL     OW32605   0.619   8.495   1.136  0.4983 -0.0452 -0.5269
 7309SOL    HW132606   0.696   8.549   1.169 -0.3007  1.3801 -0.9603
 7309SOL    HW232607   0.627   8.482   1.037 -0.5158  1.2875 -0.7997
 7310SOL     OW32608   1.700   2.197   0.193 -0.3300 -0.0784  0.1513
 7310SOL    HW132609   1.782   2.247   0.166 -0.6636  0.3255 -0.1235
 7310SOL    HW232610   1.715   2.099   0.179  0.7994 -0.1812  1.9430
 7311SOL     OW32611   8.093   7.969   3.514 -0.0287  0.6038 -0.2981
 7311SOL    HW132612   8.068   8.053   3.562  0.0409 -0.4032  1.5509
 7311SOL    HW232613   8.154   7.914   3.572 -1.1499 -1.3533 -0.9290
 7312SOL     OW32614   3.190   6.382   3.466  0.3422  0.0742 -0.3731
 7312SOL    HW132615   3.168   6.455   3.532 -1.2753 -0.2098 -0.5842
 7312SOL    HW232616   3.134   6.394   3.384 -2.5119 -3.3963  0.9753
 7313SOL     OW32617   4.691   0.342   5.290  0.0562  0.2982  0.2805
 7313SOL    HW132618   4.732   0.390   5.213  1.1636 -0.9430  0.0896
 7313SOL    HW232619   4.593   0.331   5.273  0.4420 -0.7746 -1.3883
 7314SOL     OW32620   3.005   1.486   1.367  0.7802  0.1538  0.1657
 7314SOL    HW132621   2.980   1.398   1.407 -0.2524  0.6563  0.6245
 7314SOL    HW232622   2.968   1.492   1.274  2.4931 -0.6808 -0.5905
 7315SOL     OW32623   9.884   8.227   5.038  0.3447 -0.0045 -0.6274
 7315SOL    HW132624   9.841   8.297   5.094  0.9479  0.0677 -0.2489
 7315SOL    HW232625   9.828   8.144   5.038  1.2097 -0.6197  1.5267
 7316SOL     OW32626   9.557   9.349   3.223  0.4375 -0.4778 -0.3774
 7316SOL    HW132627   9.524   9.364   3.316 -0.4708  0.5669 -0.8552
 7316SOL    HW232628   9.646   9.393   3.212  0.5428 -0.5955  0.0094
 7317SOL     OW32629   8.947   2.066   3.909  0.0587  0.7801  0.2091
 7317SOL    HW132630   8.856   2.053   3.946  0.5224 -1.4486  0.6115
 7317SOL    HW232631   9.004   2.115   3.976  0.5807 -2.2793  2.0716
 7318SOL     OW32632   3.626   9.861   4.290  0.2713  0.3100 -0.5833
 7318SOL    HW132633   3.621   9.776   4.341 -0.2164  0.2122 -0.7944
 7318SOL    HW232634   3.666   9.843   4.200  3.2624  0.8536  0.5738
 7319SOL     OW32635   7.191   9.425   1.455  0.6073 -0.1714  0.6681
 7319SOL    HW132636   7.261   9.406   1.523 -0.9006  0.0707  2.3112
 7319SOL    HW232637   7.196   9.522   1.429  1.5338 -0.3877  0.0058
 7320SOL     OW32638   5.954   0.360   2.900 -0.0351 -0.5109 -0.6372
 7320SOL    HW132639   5.972   0.399   2.811  0.4338 -1.2815 -0.8837
 7320SOL    HW232640   5.884   0.415   2.947 -1.0286 -0.6845 -1.8819
 7321SOL     OW32641   0.257   9.143   4.392 -0.1210  0.1055 -0.1869
 7321SOL    HW132642   0.324   9.197   4.443 -1.2871 -0.8416  2.4576
 7321SOL    HW232643   0.222   9.197   4.315  1.8040  1.5368 -0.0917
 7322SOL     OW32644   0.089   4.343   2.601 -0.5173  0.2992 -0.3236
 7322SOL    HW132645   0.018   4.342   2.532  0.2098  0.2782 -1.0788
 7322SOL    HW232646   0.151   4.419   2.584 -1.2839  1.3032  1.2852
 7323SOL     OW32647   1.872   1.511   2.003  0.7562  0.4256  0.2595
 7323SOL    HW132648   1.874   1.510   2.103  0.6603  0.5356  0.2623
 7323SOL    HW232649   1.794   1.456   1.971  0.7192  0.4839  0.2481
 7324SOL     OW32650   0.619   0.901   4.739 -0.1575 -0.0717  0.3116
 7324SOL    HW132651   0.658   0.870   4.652  0.5756  1.5560  0.0215
 7324SOL    HW232652   0.584   0.994   4.728  0.3351  0.3145  1.8679
 7325SOL     OW32653   6.848   9.585   2.173 -0.5785  0.0139  1.2333
 7325SOL    HW132654   6.844   9.498   2.123 -2.2863  0.0280  1.3067
 7325SOL    HW232655   6.942   9.602   2.203  0.4122 -0.1701 -1.6397
 7326SOL     OW32656   9.090   8.425   1.856 -0.1273  0.3028  0.2480
 7326SOL    HW132657   9.008   8.435   1.799 -0.4097  0.9845  0.7716
 7326SOL    HW232658   9.082   8.340   1.909  0.2265 -0.4342 -0.8589
 7327SOL     OW32659   2.887   0.455   0.426 -0.1542 -0.5330  0.0599
 7327SOL    HW132660   2.955   0.396   0.384  0.0088 -0.1668 -0.1878
 7327SOL    HW232661   2.894   0.449   0.526  1.6153  1.0747  0.0585
 7328SOL     OW32662   6.986   1.845   1.924 -0.3552 -0.1917  0.3784
 7328SOL    HW132663   6.998   1.746   1.925 -0.8091 -0.2363  1.3508
 7328SOL    HW232664   6.906   1.870   1.977  0.6572  0.8238  1.4694
 7329SOL     OW32665   1.564   1.484   3.617 -0.8049  0.4904 -0.2342
 7329SOL    HW132666   1.622   1.407   3.645 -2.2992 -0.9164 -0.9143
 7329SOL    HW232667   1.475   1.449   3.588 -1.3399  2.4560 -1.0066
 7330SOL     OW32668   0.500   7.154   1.416 -0.0698  0.2420  0.3521
 7330SOL    HW132669   0.595   7.140   1.388 -0.4725  1.5221 -1.8163
 7330SOL    HW232670   0.439   7.105   1.353 -0.8446 -0.9772  2.0104
 7331SOL     OW32671   5.910   8.703   3.248  0.0359 -0.1254  0.0195
 7331SOL    HW132672   5.851   8.624   3.232 -0.4212  0.2950 -0.4000
 7331SOL    HW232673   5.984   8.704   3.181 -0.2590  0.0881 -0.3047
 7332SOL     OW32674   1.989   0.570   2.952 -0.4659  0.1723 -0.1804
 7332SOL    HW132675   2.058   0.575   2.880 -1.4525 -1.3444 -1.2791
 7332SOL    HW232676   1.931   0.651   2.949 -0.0874  0.4287 -0.6756
 7333SOL     OW32677   4.058   4.077   5.385  0.2178 -0.0198 -0.0142
 7333SOL    HW132678   4.067   4.176   5.384 -0.1814  0.0434  1.3593
 7333SOL    HW232679   4.133   4.036   5.332 -0.5275  1.0503 -1.9071
 7334SOL     OW32680   5.514   7.526   2.513 -0.3382 -0.2098  0.4416
 7334SOL    HW132681   5.522   7.514   2.612 -0.3640 -0.5410  0.4023
 7334SOL    HW232682   5.603   7.552   2.475 -0.6011  1.1435  0.7268
 7335SOL     OW32683   1.733   0.203   5.459  0.6645  0.1542  0.1208
 7335SOL    HW132684   1.697   0.255   5.382  1.4488  1.2073  0.4571
 7335SOL    HW232685   1.668   0.207   5.535  0.7902  0.7655  0.1962
 7336SOL     OW32686   8.958   8.991   2.516  0.2155  0.0598  0.0918
 7336SOL    HW132687   8.996   8.913   2.467  1.0883  0.0539  0.7683
 7336SOL    HW232688   8.864   8.971   2.544  0.1485 -0.4167 -0.4727
 7337SOL     OW32689   3.385   3.131   3.305  0.3783  0.6013 -0.0161
 7337SOL    HW132690   3.306   3.104   3.361 -0.4616  0.9295 -1.0051
 7337SOL    HW232691   3.409   3.225   3.324 -1.2989  1.4291 -1.7183
 7338SOL     OW32692   8.842   6.086   2.831 -0.4191 -0.0771 -0.0287
 7338SOL    HW132693   8.887   6.014   2.778  2.2971  1.3539  0.2463
 7338SOL    HW232694   8.794   6.147   2.769  0.3197 -0.0627 -0.6005
 7339SOL     OW32695   7.374   9.759   1.209 -0.3918  0.0468 -0.0068
 7339SOL    HW132696   7.461   9.766   1.259  0.1461  0.7039 -1.0204
 7339SOL    HW232697   7.382   9.686   1.141 -1.6558 -1.9388  1.8831
 7340SOL     OW32698   2.252   2.506   4.546  0.0936 -0.3057  0.4600
 7340SOL    HW132699   2.222   2.470   4.458 -0.1854 -0.5106  0.6354
 7340SOL    HW232700   2.275   2.430   4.607  0.2637 -0.1666  0.5705
 7341SOL     OW32701   7.914   9.212   0.459  0.2132  0.1550  0.7777
 7341SOL    HW132702   7.830   9.212   0.406  0.9159  0.7571 -0.3578
 7341SOL    HW232703   7.985   9.162   0.408  1.7905  3.3991 -0.3062
 7342SOL     OW32704   0.533   4.627   1.380  0.5789 -0.1928  0.0389
 7342SOL    HW132705   0.434   4.636   1.384  0.5177 -0.6017 -0.4416
 7342SOL    HW232706   0.559   4.579   1.296  1.2984  1.4030 -0.6659
 7343SOL     OW32707   2.117   0.166   4.722 -0.0232  0.0103  0.2102
 7343SOL    HW132708   2.133   0.180   4.624 -0.0297  2.7931  0.5676
 7343SOL    HW232709   2.202   0.141   4.767  0.3787  0.6313 -0.2025
 7344SOL     OW32710   2.496   9.164   5.431  0.0470  0.2126  0.5083
 7344SOL    HW132711   2.568   9.105   5.395  0.1792  0.1415  0.8896
 7344SOL    HW232712   2.492   9.156   5.530  1.1521  2.0697  0.7222
 7345SOL     OW32713   9.674   8.374   0.844  0.0070 -0.0101  0.1590
 7345SOL    HW132714   9.651   8.412   0.934 -0.4419  0.2242 -0.0591
 7345SOL    HW232715   9.712   8.282   0.857  1.3674  0.6177  0.7051
 7346SOL     OW32716   6.030   8.205   2.564  0.3177 -0.5532 -0.1420
 7346SOL    HW132717   6.081   8.123   2.537 -0.0063 -0.8544  0.1490
 7346SOL    HW232718   5.949   8.214   2.505  0.4416 -0.3483 -0.2818
 7347SOL     OW32719   4.098   4.640   1.670 -0.8776 -0.7580 -0.2579
 7347SOL    HW132720   4.040   4.681   1.741 -1.1937 -0.1655 -0.8428
 7347SOL    HW232721   4.079   4.685   1.582  0.4172 -0.6206 -0.4741
 7348SOL     OW32722   1.963   6.746   1.697 -0.0915 -0.9657  0.2561
 7348SOL    HW132723   2.039   6.682   1.696  0.5800 -0.2588  2.2692
 7348SOL    HW232724   1.997   6.838   1.718 -1.5548 -0.7665  1.9394
 7349SOL     OW32725   0.990   7.061   3.977  0.0644  0.6960  0.4181
 7349SOL    HW132726   0.899   7.102   3.974  0.2121  1.1557  1.9653
 7349SOL    HW232727   1.003   7.014   4.064  0.6491 -0.9228 -0.5101
 7350SOL     OW32728   0.037   0.890   1.740  0.9542 -0.7106 -0.8678
 7350SOL    HW132729   0.123   0.911   1.786  0.9355 -0.5902 -0.8879
 7350SOL    HW232730   0.052   0.879   1.642  0.6256  1.2621 -1.1578
 7351SOL     OW32731   0.915   9.755   3.450 -0.4010  0.5132 -0.6778
 7351SOL    HW132732   0.863   9.702   3.383 -0.3540 -0.0643 -0.2612
 7351SOL    HW232733   0.857   9.777   3.528 -0.0963  0.0867 -0.3279
 7352SOL     OW32734   6.994   9.773   4.319  0.1283 -0.3822 -0.4028
 7352SOL    HW132735   6.946   9.696   4.278  0.0882 -0.2506 -0.6070
 7352SOL    HW232736   7.066   9.804   4.256 -0.1253  0.0087 -0.4973
 7353SOL     OW32737   7.852   2.188   1.987 -0.2435  0.0331  0.0300
 7353SOL    HW132738   7.871   2.218   1.893  0.4720  1.6699  0.6670
 7353SOL    HW232739   7.795   2.106   1.985 -1.0415  0.5966 -1.8239
 7354SOL     OW32740   7.900   9.253   0.740 -0.0321 -0.5168 -0.5942
 7354SOL    HW132741   7.992   9.240   0.778  0.1173 -2.9371 -1.6496
 7354SOL    HW232742   7.898   9.221   0.645 -1.6243  0.8229 -1.0362
 7355SOL     OW32743   4.958   0.055   3.869 -0.7512 -0.2301 -0.2772
 7355SOL    HW132744   4.993   0.070   3.776  0.1966  1.3411  0.3018
 7355SOL    HW232745   5.033   0.066   3.934 -2.0879  2.1449  0.9204
 7356SOL     OW32746   6.907   9.310   4.294 -0.0352  0.1544  0.0010
 7356SOL    HW132747   6.961   9.287   4.213  0.2006 -1.6104  0.6363
 7356SOL    HW232748   6.968   9.342   4.367 -0.1755  1.0739 -0.2778
 7357SOL     OW32749   0.778   3.310   3.533 -0.0799 -0.1818  0.6211
 7357SOL    HW132750   0.808   3.401   3.559 -0.6279  0.7300 -1.7780
 7357SOL    HW232751   0.765   3.254   3.615  2.0890  1.2946  2.0109
 7358SOL     OW32752   3.067   2.450   5.217 -0.2403  0.2413 -0.6951
 7358SOL    HW132753   3.130   2.519   5.252 -1.3731  2.2164 -2.4292
 7358SOL    HW232754   2.979   2.458   5.264  0.5826 -2.1280  1.3153
 7359SOL     OW32755   0.505   9.376   2.136  0.0857 -0.7041  0.1256
 7359SOL    HW132756   0.513   9.314   2.057  1.6508 -0.0305 -0.2527
 7359SOL    HW232757   0.484   9.322   2.218  0.4914 -1.6452 -0.3766
 7360SOL     OW32758   3.647   8.596   1.403 -0.3071 -0.1908 -0.1575
 7360SOL    HW132759   3.578   8.650   1.355 -1.4714 -1.8688 -0.4277
 7360SOL    HW232760   3.738   8.628   1.378 -0.9243 -0.1137 -2.3947
 7361SOL     OW32761   1.089   4.365   1.695 -0.6450 -0.2158  0.1076
 7361SOL    HW132762   1.065   4.293   1.760 -0.0382 -0.1524  0.4105
 7361SOL    HW232763   1.059   4.339   1.603  1.5440 -1.8733 -0.1744
 7362SOL     OW32764   3.754   9.463   0.166 -0.0408 -0.1253  0.3082
 7362SOL    HW132765   3.810   9.380   0.159  0.0200 -0.0477 -0.1679
 7362SOL    HW232766   3.693   9.469   0.087 -1.3667 -0.6673  1.2662
 7363SOL     OW32767   2.308   1.532   4.431  0.0300 -0.3447  0.4597
 7363SOL    HW132768   2.394   1.481   4.430 -0.6266 -1.4550 -0.5653
 7363SOL    HW232769   2.276   1.542   4.526 -0.1608 -2.4298  0.6464
 7364SOL     OW32770   6.287   9.439   2.467 -0.6103 -0.3168  0.0789
 7364SOL    HW132771   6.225   9.401   2.398  0.7712  0.1589 -1.4642
 7364SOL    HW232772   6.263   9.534   2.485 -0.7607 -0.3351 -0.0229
 7365SOL     OW32773   2.053   7.518   3.182  0.0322 -0.1307  0.1798
 7365SOL    HW132774   2.093   7.471   3.260  0.7703  1.7556  0.9580
 7365SOL    HW232775   2.107   7.599   3.160 -1.8184  0.9556 -0.4755
 7366SOL     OW32776   9.486   8.649   0.791  0.2752  0.6610 -0.4099
 7366SOL    HW132777   9.500   8.565   0.737  0.1628  0.9159 -0.8411
 7366SOL    HW232778   9.574   8.687   0.817  0.3274  0.4144 -0.2264
 7367SOL     OW32779   1.995   2.436   2.283  0.4436 -0.2196 -0.1272
 7367SOL    HW132780   2.070   2.447   2.348  0.3955 -1.2178  0.1067
 7367SOL    HW232781   2.019   2.367   2.215 -0.3659 -0.7567  0.1147
 7368SOL     OW32782   9.230   7.078   3.411  0.7786  0.2099  0.0836
 7368SOL    HW132783   9.288   7.057   3.489  2.8352  1.0968 -1.1659
 7368SOL    HW232784   9.223   7.177   3.400  1.6560  0.1079 -1.6504
 7369SOL     OW32785   9.210   1.599   2.998  0.5195  0.1531 -0.0349
 7369SOL    HW132786   9.124   1.617   2.951  0.4692 -0.1197 -0.0478
 7369SOL    HW232787   9.221   1.501   3.011 -0.0260  0.2911  1.5631
 7370SOL     OW32788   1.131   8.358   4.197  0.0126 -0.0022 -0.1937
 7370SOL    HW132789   1.189   8.410   4.260  1.2762  0.4254 -1.6791
 7370SOL    HW232790   1.036   8.389   4.205  0.2815  0.5556  0.9491
 7371SOL     OW32791   3.540   6.696   1.872  0.3048 -0.1389  0.3884
 7371SOL    HW132792   3.604   6.651   1.810 -0.1950 -0.1556 -0.1229
 7371SOL    HW232793   3.450   6.700   1.829 -0.3272 -1.2124  1.5865
 7372SOL     OW32794   8.252   1.530   0.333 -0.4151 -0.2754 -0.1524
 7372SOL    HW132795   8.312   1.456   0.364 -0.3544 -0.0364  0.3017
 7372SOL    HW232796   8.264   1.544   0.235 -0.6551 -1.0786 -0.3012
 7373SOL     OW32797   2.141   2.582   0.284 -0.1415 -0.1581  0.8496
 7373SOL    HW132798   2.192   2.564   0.368 -0.0201 -0.8504  0.6294
 7373SOL    HW232799   2.078   2.657   0.299  0.4044  0.2044  1.3486
 7374SOL     OW32800   1.016   3.369   1.163 -0.1115  0.0141 -0.7732
 7374SOL    HW132801   1.028   3.419   1.249 -0.2135 -1.2000 -0.0414
 7374SOL    HW232802   0.918   3.357   1.145 -0.0860 -0.1163 -0.8265
 7375SOL     OW32803   9.957   8.857   4.209  0.3182 -0.1224 -0.0391
 7375SOL    HW132804   9.870   8.812   4.230 -0.0757  0.3081 -0.7470
 7375SOL    HW232805  10.032   8.792   4.222 -0.1534 -0.6449  0.0692
 7376SOL     OW32806   0.272   7.758   1.960  0.7410  0.1317  0.1313
 7376SOL    HW132807   0.332   7.785   2.035 -0.7429  0.6314  1.1690
 7376SOL    HW232808   0.191   7.712   1.997 -0.1584  0.6757 -1.1299
 7377SOL     OW32809   2.758   0.454   4.988 -0.1563 -0.5421 -0.0213
 7377SOL    HW132810   2.725   0.421   5.076  0.6063  0.3720  0.6107
 7377SOL    HW232811   2.694   0.523   4.952 -0.9142 -1.5265 -0.5974
 7378SOL     OW32812   8.918   2.015   3.042  0.2360 -0.3700 -0.2262
 7378SOL    HW132813   9.017   2.023   3.052  0.1589  0.0842  0.1708
 7378SOL    HW232814   8.897   1.947   2.972  0.8233 -0.7139 -0.0685
 7379SOL     OW32815   5.104   7.334   2.018 -0.4854 -0.2200 -0.1230
 7379SOL    HW132816   5.056   7.412   1.978 -2.3358 -1.8671 -1.1722
 7379SOL    HW232817   5.128   7.355   2.113 -0.8046  1.6693 -0.4367
 7380SOL     OW32818   5.746   0.526   0.864 -0.3652 -0.6063 -0.5499
 7380SOL    HW132819   5.832   0.480   0.889 -0.1396  0.1936  0.1711
 7380SOL    HW232820   5.675   0.502   0.930 -0.4637 -0.5673 -0.6430
 7381SOL     OW32821   0.370   6.915   3.484 -0.0373  0.1307 -0.9097
 7381SOL    HW132822   0.379   6.865   3.570 -0.3197  0.8195 -0.4792
 7381SOL    HW232823   0.365   7.013   3.502 -1.5081  0.1954 -1.6235
 7382SOL     OW32824   7.920   9.922   0.071 -0.1459 -0.5165 -0.3778
 7382SOL    HW132825   7.984   9.883   0.138 -2.4141 -0.0333  2.1715
 7382SOL    HW232826   7.872   9.848   0.024  0.6696 -0.8554 -0.6809
 7383SOL     OW32827   3.364   1.120   2.477 -0.3403  0.0565  0.3767
 7383SOL    HW132828   3.369   1.219   2.473  0.9076 -0.0168 -0.3036
 7383SOL    HW232829   3.415   1.087   2.557 -0.3035 -0.0680  0.3022
 7384SOL     OW32830   1.786   0.143   3.480  1.1960  0.3278 -0.3029
 7384SOL    HW132831   1.801   0.208   3.555  1.2902  0.4792 -0.4512
 7384SOL    HW232832   1.689   0.142   3.456  1.3134  1.0016 -0.8267
 7385SOL     OW32833   7.263   9.533   4.308 -0.4344 -0.6630 -0.1223
 7385SOL    HW132834   7.308   9.448   4.335 -2.1439 -1.6740 -0.4005
 7385SOL    HW232835   7.271   9.545   4.209  0.6357 -0.0064  0.0402
 7386SOL     OW32836   1.005   2.134   3.559  0.2228 -0.2809 -0.9040
 7386SOL    HW132837   1.043   2.224   3.539 -2.1259  1.0996  0.5906
 7386SOL    HW232838   0.918   2.123   3.511  0.3189 -1.6133 -0.7917
 7387SOL     OW32839   1.454   3.133   3.582 -0.3616 -0.1484 -0.2349
 7387SOL    HW132840   1.415   3.125   3.674 -1.3131  1.7811 -0.4454
 7387SOL    HW232841   1.520   3.207   3.580  2.0069 -2.1912 -0.3639
 7388SOL     OW32842   1.503   0.958   2.767 -0.0728  0.0264  0.5830
 7388SOL    HW132843   1.488   0.905   2.850 -1.5166 -0.5385 -0.0242
 7388SOL    HW232844   1.445   1.039   2.769  0.2613  0.2738  0.3399
 7389SOL     OW32845   4.747   5.735   1.020  0.1534 -0.0471  0.2710
 7389SOL    HW132846   4.686   5.655   1.014 -0.8247  0.6339  0.9230
 7389SOL    HW232847   4.700   5.809   1.068  1.7820  0.2448  1.4671
 7390SOL     OW32848   0.343   0.685   1.225 -0.2389 -0.3782  0.2619
 7390SOL    HW132849   0.420   0.687   1.289 -1.4501 -0.6103  1.7495
 7390SOL    HW232850   0.296   0.773   1.227  0.0406 -0.1977 -0.7279
 7391SOL     OW32851   9.689   9.519   2.762 -0.3142  0.1094  0.0117
 7391SOL    HW132852   9.705   9.421   2.768 -1.0136  0.0110  0.3600
 7391SOL    HW232853   9.615   9.545   2.825 -1.3865  0.5684 -1.4084
 7392SOL     OW32854   2.467   7.531   1.946 -0.0061  0.0862  0.1120
 7392SOL    HW132855   2.540   7.580   1.994 -2.0682  1.2762  2.1639
 7392SOL    HW232856   2.454   7.570   1.855 -0.8847  2.6886  1.3177
 7393SOL     OW32857   8.539   8.955   1.174  0.3348 -0.2736 -0.1120
 7393SOL    HW132858   8.475   8.994   1.240 -0.8327  0.0250 -1.3803
 7393SOL    HW232859   8.607   9.024   1.149  0.7254 -0.3610  0.7098
 7394SOL     OW32860   2.521   4.261   3.058 -0.2533 -0.6298 -0.3670
 7394SOL    HW132861   2.496   4.178   3.009 -2.2628 -1.2165  1.5721
 7394SOL    HW232862   2.560   4.237   3.147 -1.7249  0.5061  0.5991
 7395SOL     OW32863   5.757   9.702   2.309 -0.8020  0.1836 -0.3734
 7395SOL    HW132864   5.851   9.679   2.285 -0.5820  0.5979  0.0807
 7395SOL    HW232865   5.699   9.693   2.228 -0.1044  1.3575 -1.0272
 7396SOL     OW32866   6.155   7.401   3.133  0.0248 -0.1920 -0.4807
 7396SOL    HW132867   6.122   7.481   3.182  2.3596 -0.8567  2.3071
 7396SOL    HW232868   6.231   7.427   3.072  1.6424 -0.4532  1.3880
 7397SOL     OW32869   4.335   0.108   5.623  0.1998 -0.1428 -0.1301
 7397SOL    HW132870   4.432   0.096   5.603  0.0585  2.4294 -2.7506
 7397SOL    HW232871   4.322   0.193   5.674 -0.5802 -1.1546  1.3970
 7398SOL     OW32872   0.516   7.166   2.696  0.8204 -0.0182 -0.1212
 7398SOL    HW132873   0.424   7.175   2.656  0.1015  0.5325  1.6101
 7398SOL    HW232874   0.544   7.253   2.736  2.2467 -0.0981 -0.9021
 7399SOL     OW32875   8.538   8.516   4.153 -0.1321 -0.6719  0.0213
 7399SOL    HW132876   8.593   8.593   4.121 -1.6272  0.2515 -0.3446
 7399SOL    HW232877   8.560   8.435   4.099  0.7351 -0.2768 -0.2301
 7400SOL     OW32878   9.091   9.249   5.227  0.3132 -0.5067  0.4774
 7400SOL    HW132879   9.039   9.334   5.217  1.6016  0.2812  0.2188
 7400SOL    HW232880   9.161   9.245   5.155  1.8350 -0.6226  1.9344
 7401SOL     OW32881   4.681   7.215   2.240  0.6135  0.0335 -0.0545
 7401SOL    HW132882   4.704   7.209   2.143  1.9626  1.0405  0.1843
 7401SOL    HW232883   4.741   7.282   2.285  0.7127 -1.1732  1.6865
 7402SOL     OW32884   7.589   0.145   3.880  0.2756  0.1913 -0.3005
 7402SOL    HW132885   7.558   0.084   3.953  0.5635  1.3929  0.8516
 7402SOL    HW232886   7.689   0.140   3.873  0.2240 -0.1284 -0.7933
 7403SOL     OW32887   9.625   2.207   1.023 -0.3844  0.1959  0.4659
 7403SOL    HW132888   9.557   2.150   0.978  0.9952  0.2797 -1.7988
 7403SOL    HW232889   9.580   2.282   1.071 -1.8710  0.4371 -1.2692
 7404SOL     OW32890   7.631   0.612   3.218 -0.0072  0.1716  0.4529
 7404SOL    HW132891   7.649   0.537   3.281  1.1720 -1.0069 -1.2390
 7404SOL    HW232892   7.611   0.576   3.127  0.4399  1.8791 -0.3516
 7405SOL     OW32893   9.476   1.793   2.779  0.3473  0.5010  0.5399
 7405SOL    HW132894   9.516   1.755   2.696  0.9266  0.6151  0.7642
 7405SOL    HW232895   9.457   1.720   2.845 -1.0844  0.2806 -0.0890
 7406SOL     OW32896   3.387   2.307   3.197 -0.1569  0.6594 -0.4530
 7406SOL    HW132897   3.333   2.360   3.132 -0.4962 -0.6392 -1.2554
 7406SOL    HW232898   3.327   2.266   3.265  0.0501  0.9161 -0.1141
 7407SOL     OW32899   2.185   5.357   1.343 -0.2202 -0.1425  0.1190
 7407SOL    HW132900   2.211   5.316   1.256 -2.9445 -2.1640  0.1964
 7407SOL    HW232901   2.227   5.306   1.418 -1.2178 -1.0011  0.1072
 7408SOL     OW32902   9.465   1.527   0.716  0.5561  0.4207  0.0466
 7408SOL    HW132903   9.373   1.489   0.727  0.2302  1.2183  0.1139
 7408SOL    HW232904   9.507   1.487   0.634  0.2134 -0.0674  0.1032
 7409SOL     OW32905   9.707   8.799   0.880  0.1046 -0.4854  0.0616
 7409SOL    HW132906   9.797   8.822   0.917 -0.1159 -1.0436  0.9470
 7409SOL    HW232907   9.711   8.803   0.780  0.5786  1.4605  0.1324
 7410SOL     OW32908   1.714   4.990   2.765 -0.4078 -0.1139 -0.5708
 7410SOL    HW132909   1.767   4.907   2.781 -1.9292 -1.2799 -1.4234
 7410SOL    HW232910   1.698   5.036   2.852 -0.1546 -1.1119  0.0151
 7411SOL     OW32911   4.253   3.340   1.649 -0.0794 -0.1656 -0.7700
 7411SOL    HW132912   4.334   3.288   1.677 -0.0712  0.3574  0.2208
 7411SOL    HW232913   4.264   3.436   1.677 -1.9691 -0.5282  1.3800
 7412SOL     OW32914   2.856   2.073   2.311  0.0825 -0.3089 -0.3174
 7412SOL    HW132915   2.921   2.139   2.275  0.7842 -0.4763  0.6382
 7412SOL    HW232916   2.778   2.121   2.352  1.0215 -0.0347  1.1908
 7413SOL     OW32917   5.447   8.085   2.852  0.0267  0.6561 -0.6558
 7413SOL    HW132918   5.357   8.126   2.841  0.1446  1.3652  0.8233
 7413SOL    HW232919   5.517   8.152   2.826  0.1511  0.5606 -0.5630
 7414SOL     OW32920   1.981   3.532   2.862 -0.2362  0.0835 -0.1045
 7414SOL    HW132921   2.039   3.539   2.943 -0.4035 -0.5100  0.0692
 7414SOL    HW232922   1.972   3.436   2.836  0.3073  0.3126 -1.1830
 7415SOL     OW32923   0.527   1.123   2.669 -0.2455 -0.2632  0.8958
 7415SOL    HW132924   0.502   1.027   2.681  1.0519 -0.4711  2.0477
 7415SOL    HW232925   0.616   1.140   2.711 -0.4577  1.4504  0.6926
 7416SOL     OW32926   5.408   8.355   1.879  0.1067 -0.2172 -0.4282
 7416SOL    HW132927   5.504   8.335   1.895  0.1717 -0.4425 -1.0850
 7416SOL    HW232928   5.389   8.451   1.901  0.2579 -0.4322  0.6617
 7417SOL     OW32929   1.471   3.593   2.636  0.4076  0.0776 -0.5556
 7417SOL    HW132930   1.413   3.521   2.675  0.6121  0.2260  0.0217
 7417SOL    HW232931   1.414   3.666   2.600  0.2638  0.7444  1.0071
 7418SOL     OW32932   0.497   5.558   1.660  0.0583 -0.3914 -0.1336
 7418SOL    HW132933   0.542   5.469   1.665 -0.2031 -0.5158  0.0179
 7418SOL    HW232934   0.451   5.576   1.746  0.5622  0.1332  0.0271
 7419SOL     OW32935   2.505   7.950   2.626  0.0695  0.0025 -0.1319
 7419SOL    HW132936   2.506   7.851   2.613  0.0859 -0.1987  1.2617
 7419SOL    HW232937   2.569   7.974   2.700 -0.3714  0.9870 -0.0616
 7420SOL     OW32938   3.252   3.141   2.476 -0.8502  0.3590  0.1123
 7420SOL    HW132939   3.267   3.049   2.512 -0.7738  0.6722  0.8794
 7420SOL    HW232940   3.267   3.208   2.548 -0.6654  0.9903 -0.5129
 7421SOL     OW32941   9.287   1.699   2.152  0.1992  0.0085  0.0736
 7421SOL    HW132942   9.263   1.669   2.244 -0.5311 -0.9504 -0.4197
 7421SOL    HW232943   9.252   1.633   2.085  0.5469  0.7983 -0.9017
 7422SOL     OW32944   0.292   1.994   2.038 -0.0901 -0.5899 -0.2714
 7422SOL    HW132945   0.199   2.029   2.030  0.0955 -0.2071 -0.8001
 7422SOL    HW232946   0.294   1.919   2.104 -0.8257 -0.7979 -0.4841
 7423SOL     OW32947   0.813   9.822   4.695 -0.2877  0.1853 -0.4845
 7423SOL    HW132948   0.836   9.742   4.639 -0.0465 -1.5840  2.0249
 7423SOL    HW232949   0.849   9.808   4.787 -0.9903  2.8519  0.2107
 7424SOL     OW32950   1.757   4.494   5.518  0.3830  0.1312  0.3080
 7424SOL    HW132951   1.830   4.480   5.451  0.5972 -1.0816  0.7797
 7424SOL    HW232952   1.707   4.408   5.531 -1.2186  0.9862 -0.1008
 7425SOL     OW32953   4.949   0.362   0.336 -0.7882  0.5268  0.1991
 7425SOL    HW132954   4.873   0.427   0.341 -1.2746  0.0802 -1.2258
 7425SOL    HW232955   4.950   0.305   0.418  0.5067  3.2389  2.1719
 7426SOL     OW32956   5.245   1.149   1.493 -0.6129 -0.3322  0.0868
 7426SOL    HW132957   5.233   1.159   1.592 -2.3094  1.2624 -0.2472
 7426SOL    HW232958   5.257   1.239   1.451 -0.8110 -0.9198 -1.2563
 7427SOL     OW32959   7.082   3.075   0.684 -0.3054  0.1364  0.0780
 7427SOL    HW132960   7.024   3.005   0.726 -1.3204  0.6194 -0.4944
 7427SOL    HW232961   7.032   3.119   0.609  0.2515  1.6097  0.5530
 7428SOL     OW32962   4.896   1.103   4.202  0.5343  0.2341  0.1520
 7428SOL    HW132963   4.930   1.166   4.272  2.7243 -0.2428 -0.4446
 7428SOL    HW232964   4.930   1.011   4.222 -1.8474 -0.5994  0.4812
 7429SOL     OW32965   9.151   7.311   3.282  0.5199  0.9064 -0.0327
 7429SOL    HW132966   9.164   7.408   3.303  0.5073  0.8598  0.1965
 7429SOL    HW232967   9.054   7.295   3.260  0.8638  1.2940 -1.9352
 7430SOL     OW32968   9.881   7.323   2.698  0.4124  0.1874 -0.0707
 7430SOL    HW132969   9.886   7.298   2.795  2.7903 -0.0336 -0.2291
 7430SOL    HW232970   9.833   7.411   2.689 -0.3127 -0.0576  1.2325
 7431SOL     OW32971   2.495   2.884   1.938 -0.2723  0.3618 -0.1241
 7431SOL    HW132972   2.577   2.925   1.978 -0.9011  0.3588  1.2074
 7431SOL    HW232973   2.424   2.878   2.008 -1.1075 -0.4609 -1.0315
 7432SOL     OW32974   8.082   6.141   2.285 -0.2333  0.7792 -0.1729
 7432SOL    HW132975   8.096   6.047   2.318 -0.4841  0.8171  0.0449
 7432SOL    HW232976   8.017   6.140   2.209 -1.3964  0.9397  0.8052
 7433SOL     OW32977   7.742   8.786   4.042 -0.4216  0.2730  0.2304
 7433SOL    HW132978   7.724   8.882   4.020  2.3001  0.6576 -0.5297
 7433SOL    HW232979   7.754   8.734   3.957  0.5440 -0.2075  0.6436
 7434SOL     OW32980   7.987   9.727   0.503 -0.4794  0.4090 -0.2686
 7434SOL    HW132981   8.021   9.749   0.412 -0.5565  0.5289 -0.2681
 7434SOL    HW232982   8.003   9.629   0.522  2.2728  0.9850  0.7440
 7435SOL     OW32983   7.408   2.531   1.793 -1.0630 -0.2203  0.3783
 7435SOL    HW132984   7.322   2.572   1.763  0.5155  2.0528 -1.2423
 7435SOL    HW232985   7.435   2.460   1.728 -0.7664  0.4074 -0.1953
 7436SOL     OW32986   3.777   9.944   1.811  0.1151 -0.0411  0.1199
 7436SOL    HW132987   3.816   9.987   1.891  0.3671 -0.6600  0.3320
 7436SOL    HW232988   3.706   9.878   1.839 -1.8602  1.8440 -0.3012
 7437SOL     OW32989   5.403   4.148   0.499 -0.4528  0.2113  0.2602
 7437SOL    HW132990   5.502   4.130   0.493 -0.6350 -1.2674  1.4954
 7437SOL    HW232991   5.367   4.163   0.407  0.7066 -0.4391 -0.3168
 7438SOL     OW32992   3.981   9.152   3.636  0.0986 -0.0294  0.7795
 7438SOL    HW132993   4.017   9.238   3.598 -1.6466  0.9794  1.3334
 7438SOL    HW232994   3.939   9.099   3.562  0.9323 -0.2908  0.4842
 7439SOL     OW32995   9.491   1.913   0.750  0.2048 -0.7056 -0.3216
 7439SOL    HW132996   9.463   1.913   0.654  2.1463 -0.1143 -0.9188
 7439SOL    HW232997   9.587   1.884   0.756  0.4196  0.2941  1.3193
 7440SOL     OW32998   8.695   8.730   4.128 -0.0897  0.2426 -0.2187
 7440SOL    HW132999   8.779   8.703   4.175  0.5833  3.0756  0.2985
 7440SOL    HW233000   8.717   8.791   4.052 -1.6610  0.9819 -0.1063
 7441SOL     OW33001   2.688   2.729   1.641  0.4772  0.2233 -0.1012
 7441SOL    HW133002   2.721   2.661   1.575  0.2300  0.3965 -0.4102
 7441SOL    HW233003   2.611   2.692   1.692  2.0631 -0.7244  1.6689
 7442SOL     OW33004   9.731   7.167   3.193 -0.5751 -0.0913 -0.0772
 7442SOL    HW133005   9.812   7.142   3.245 -0.7803 -0.5620  0.0144
 7442SOL    HW233006   9.653   7.177   3.254 -0.6545  0.0702 -0.2036
 7443SOL     OW33007   1.152   5.337   0.840  0.6909 -0.1411  0.2778
 7443SOL    HW133008   1.202   5.410   0.794  1.8910 -0.2062  1.4611
 7443SOL    HW233009   1.055   5.342   0.814  0.9759  1.1194 -0.5839
 7444SOL     OW33010   1.989   8.493   2.169 -0.1885 -0.2569 -0.3306
 7444SOL    HW133011   2.009   8.395   2.180  0.3142 -0.2645 -1.3067
 7444SOL    HW233012   2.007   8.520   2.075  2.5666  1.4473  0.6384
 7445SOL     OW33013   3.576   4.484   3.736 -0.7216 -0.0561  0.1171
 7445SOL    HW133014   3.577   4.559   3.670 -1.6266 -0.2144 -0.0799
 7445SOL    HW233015   3.661   4.431   3.728 -0.6010  0.2329 -0.5630
 7446SOL     OW33016   3.789   9.159   5.189  0.3970  0.0906  0.4259
 7446SOL    HW133017   3.786   9.219   5.110 -0.4082  0.4730  0.7452
 7446SOL    HW233018   3.803   9.213   5.272  0.3848 -0.2251  0.6361
 7447SOL     OW33019   4.552   2.793   3.744 -0.4220 -0.2750  0.4120
 7447SOL    HW133020   4.595   2.823   3.659 -1.2890 -0.8042 -0.2192
 7447SOL    HW233021   4.583   2.701   3.767  0.0771 -0.0028  0.8644
 7448SOL     OW33022   7.799   1.091   1.002 -0.1346  0.3469  0.1339
 7448SOL    HW133023   7.893   1.090   1.035 -0.5761 -0.4812  1.4255
 7448SOL    HW233024   7.794   1.053   0.910  0.9173  1.2450 -0.2964
 7449SOL     OW33025   0.805   1.862   4.042 -0.0921 -0.1735 -0.2526
 7449SOL    HW133026   0.810   1.807   3.959  0.5335  0.1282 -0.4151
 7449SOL    HW233027   0.877   1.932   4.041 -1.6233  1.4256 -0.5985
 7450SOL     OW33028   3.060   3.976   4.899 -0.3707  0.3171 -0.4762
 7450SOL    HW133029   3.029   4.070   4.891 -2.2627 -0.2390  0.0546
 7450SOL    HW233030   3.153   3.968   4.862  0.7826  2.8694  1.6682
 7451SOL     OW33031   9.818   8.612   3.708  0.2186 -0.2979 -0.0878
 7451SOL    HW133032   9.726   8.640   3.683 -0.1542 -0.6211  0.8863
 7451SOL    HW233033   9.868   8.582   3.626 -1.1552 -1.8943 -0.3805
 7452SOL     OW33034   4.241   5.837   1.809 -0.5400  0.0720  0.0561
 7452SOL    HW133035   4.281   5.926   1.789  3.8239 -1.7066  0.1609
 7452SOL    HW233036   4.224   5.830   1.907 -1.9715  1.1650 -0.1003
 7453SOL     OW33037   6.699   9.746   3.426  0.1701  0.1132  0.5284
 7453SOL    HW133038   6.705   9.677   3.498  0.1244  0.4022  0.8119
 7453SOL    HW233039   6.604   9.779   3.419 -0.0464 -0.6977 -0.4039
 7454SOL     OW33040   9.280   7.542   3.753 -0.0358 -0.1016  0.1447
 7454SOL    HW133041   9.313   7.636   3.741 -0.0862 -0.0255  0.5951
 7454SOL    HW233042   9.207   7.541   3.821 -1.5758 -0.1306 -1.4676
 7455SOL     OW33043   3.028   5.134   5.359 -0.2373 -0.4929 -0.2893
 7455SOL    HW133044   3.094   5.189   5.308 -0.6344  0.5096  0.2829
 7455SOL    HW233045   3.024   5.165   5.454  0.4211 -2.2884  0.3510
 7456SOL     OW33046   6.291   0.518   4.426 -0.1464 -0.7168  0.0762
 7456SOL    HW133047   6.284   0.601   4.371 -2.1166 -2.4449 -2.4592
 7456SOL    HW233048   6.201   0.497   4.464  0.3790 -1.5811  0.8417
 7457SOL     OW33049   5.564   7.607   3.299 -0.0745  0.1304  0.2330
 7457SOL    HW133050   5.514   7.690   3.325 -0.6689  0.5451 -2.1046
 7457SOL    HW233051   5.501   7.542   3.258  0.9555 -0.1926 -0.8512
 7458SOL     OW33052   4.375   0.688   2.722 -0.5478 -0.0253 -0.1639
 7458SOL    HW133053   4.404   0.764   2.780 -1.4767 -0.4956  0.9295
 7458SOL    HW233054   4.446   0.617   2.723 -0.9142 -0.3760  1.0249
 7459SOL     OW33055   2.892   4.062   3.912  0.3071  0.0431 -0.2491
 7459SOL    HW133056   2.988   4.063   3.884  1.0053  1.4310  2.0157
 7459SOL    HW233057   2.858   4.155   3.920 -1.2849 -0.4406 -1.1554
 7460SOL     OW33058   9.718   9.778   5.399 -0.0987 -0.0420  0.5912
 7460SOL    HW133059   9.763   9.693   5.425  0.7851 -0.1776 -1.2958
 7460SOL    HW233060   9.631   9.757   5.353  0.4134  0.0414 -0.4294
 7461SOL     OW33061   8.094   8.034   4.265  0.0010  0.0563  0.2649
 7461SOL    HW133062   8.157   8.042   4.188 -0.1063 -1.5329 -0.0049
 7461SOL    HW233063   8.109   7.947   4.312 -1.0263  0.2944  1.0682
 7462SOL     OW33064   3.671   7.578   4.883 -0.3668 -0.2737  0.3521
 7462SOL    HW133065   3.607   7.505   4.858 -0.8797  0.9901 -2.1890
 7462SOL    HW233066   3.765   7.545   4.872 -0.5918 -0.4781 -1.0552
 7463SOL     OW33067   2.855   1.007   3.669  0.2265  1.0860 -1.1367
 7463SOL    HW133068   2.827   1.099   3.697  2.2991  1.3360  0.2488
 7463SOL    HW233069   2.890   1.011   3.575  1.4589  1.9897 -0.6654
 7464SOL     OW33070   1.951   2.762   4.195 -0.1843  0.6509  0.5341
 7464SOL    HW133071   2.016   2.815   4.140 -0.8827 -1.1682 -2.1701
 7464SOL    HW233072   1.991   2.673   4.217 -1.7575 -0.5403 -1.2685
 7465SOL     OW33073   8.701   8.225   0.699 -0.1234  0.3299  0.0982
 7465SOL    HW133074   8.727   8.193   0.790  1.2186  0.3366 -0.2720
 7465SOL    HW233075   8.774   8.283   0.662 -0.7279  0.4485 -0.9195
 7466SOL     OW33076   6.079   9.314   2.293  0.1884  0.2450 -0.0034
 7466SOL    HW133077   6.088   9.229   2.242  0.4694  0.3516 -0.1301
 7466SOL    HW233078   5.989   9.355   2.275 -0.3651 -0.5605  0.8701
 7467SOL     OW33079   1.599   0.705   0.239 -0.0857 -0.2884 -0.6594
 7467SOL    HW133080   1.586   0.708   0.140  1.1760  0.8298 -0.8042
 7467SOL    HW233081   1.652   0.623   0.263  1.3652  0.4793 -1.1496
 7468SOL     OW33082   2.663   7.398   0.475 -0.1531  0.0867 -0.0822
 7468SOL    HW133083   2.578   7.391   0.423 -0.5709  1.1003  0.4522
 7468SOL    HW233084   2.729   7.455   0.426  0.0498 -0.3079 -0.2717
 7469SOL     OW33085   4.258   8.119   4.793  0.1721 -0.4083  0.7480
 7469SOL    HW133086   4.273   8.217   4.783  0.5904 -0.3095  2.2170
 7469SOL    HW233087   4.278   8.073   4.706  0.7784  0.7079  0.2911
 7470SOL     OW33088   7.653   7.993   3.155 -0.7609 -0.1172 -0.1996
 7470SOL    HW133089   7.700   7.905   3.168 -0.2704  0.0870 -0.5708
 7470SOL    HW233090   7.716   8.058   3.112 -0.9837  0.5534  0.4748
 7471SOL     OW33091   9.452   9.788   1.735 -0.2269  0.4175 -0.2813
 7471SOL    HW133092   9.442   9.861   1.667  2.1000  0.1055 -1.0085
 7471SOL    HW233093   9.498   9.710   1.693  1.6270  0.3634  1.7470
 7472SOL     OW33094   8.673   7.038   1.406 -0.0688 -0.2270  0.6273
 7472SOL    HW133095   8.692   7.026   1.308  0.0892 -0.4626  0.6867
 7472SOL    HW233096   8.708   7.126   1.436 -2.6129  1.0945 -0.1698
 7473SOL     OW33097   1.725   8.655   1.520  0.2451 -0.2838 -0.4277
 7473SOL    HW133098   1.812   8.695   1.492 -0.2709  0.0426 -1.6142
 7473SOL    HW233099   1.653   8.724   1.515 -0.4652 -1.0828 -1.4747
 7474SOL     OW33100   0.603   5.354   2.707 -0.7460  0.6671  0.5450
 7474SOL    HW133101   0.683   5.303   2.740 -0.1054  1.4976  0.2642
 7474SOL    HW233102   0.632   5.426   2.644 -1.9539 -0.8513 -1.8233
 7475SOL     OW33103   3.938   9.039   0.898 -0.2008  0.3207  0.2553
 7475SOL    HW133104   3.886   8.976   0.839 -0.8700  0.4057  0.7442
 7475SOL    HW233105   3.981   8.987   0.972 -0.3942  0.3763  0.4082
 7476SOL     OW33106   8.771   8.200   1.400  0.0190  0.2182  0.2670
 7476SOL    HW133107   8.733   8.108   1.394 -0.1992  0.3279 -0.0159
 7476SOL    HW233108   8.868   8.198   1.375 -0.0256  0.0929  0.1021
 7477SOL     OW33109   0.902   9.325   3.642 -0.3107 -0.2451  0.2077
 7477SOL    HW133110   0.847   9.268   3.581  1.1059  1.3927 -2.7107
 7477SOL    HW233111   0.842   9.378   3.702 -1.8169 -0.8379 -0.7431
 7478SOL     OW33112   3.079   0.750   3.954  0.0358 -0.5532 -0.5756
 7478SOL    HW133113   3.061   0.845   3.979 -1.2381 -1.1376  0.8066
 7478SOL    HW233114   2.993   0.699   3.954  0.8023 -1.8603 -0.6469
 7479SOL     OW33115   0.779   6.710   0.034  0.2116 -0.1309  0.1611
 7479SOL    HW133116   0.694   6.737   0.080  0.3057 -0.3419  0.4569
 7479SOL    HW233117   0.811   6.622   0.070  0.9065  0.2620  0.5108
 7480SOL     OW33118   7.421   8.232   2.638  0.9155 -0.4553 -0.1203
 7480SOL    HW133119   7.469   8.314   2.670  0.0409  0.5786 -1.4069
 7480SOL    HW233120   7.474   8.188   2.566  1.3119 -0.9558  0.4663
 7481SOL     OW33121   3.051   8.116   0.880  0.5742  0.6314  0.1354
 7481SOL    HW133122   3.044   8.082   0.786  0.2613 -1.7154  0.9802
 7481SOL    HW233123   3.010   8.050   0.943  1.6106  1.7380  2.0251
 7482SOL     OW33124   8.747   2.266   1.200  0.3246 -0.0309  0.3430
 7482SOL    HW133125   8.829   2.210   1.209  0.0814 -0.2101  1.3995
 7482SOL    HW233126   8.769   2.361   1.221  0.8410  0.3897 -1.8799
 7483SOL     OW33127   1.747   1.180   3.579 -0.1457  0.3666 -0.0330
 7483SOL    HW133128   1.666   1.157   3.525  0.2131 -2.1058  0.4318
 7483SOL    HW233129   1.824   1.125   3.547  1.2764  2.3918 -0.1885
 7484SOL     OW33130   2.502   2.696   5.214  0.3291 -0.9008  0.5851
 7484SOL    HW133131   2.464   2.658   5.298  1.2047 -1.8444  0.5685
 7484SOL    HW233132   2.450   2.661   5.135 -0.4061 -0.1221  0.7207
 7485SOL     OW33133   8.961   1.286   2.226  0.0852  0.5724  0.6811
 7485SOL    HW133134   8.877   1.310   2.177 -0.5449  0.6113  1.7536
 7485SOL    HW233135   9.038   1.286   2.163 -1.0379 -1.4904 -0.7462
 7486SOL     OW33136   9.658   6.982   3.000  0.7082 -0.1224  0.2244
 7486SOL    HW133137   9.632   6.903   3.055 -1.2218  0.8891  0.7917
 7486SOL    HW233138   9.705   7.049   3.057 -0.4875  0.5327  0.4360
 7487SOL     OW33139   1.218   2.507   5.576 -0.0537  0.4626  0.3459
 7487SOL    HW133140   1.298   2.566   5.576  0.7788 -0.6390  1.8077
 7487SOL    HW233141   1.246   2.412   5.562 -1.3844  0.3658 -2.0701
 7488SOL     OW33142   3.634   3.471   2.857  0.0407  0.3122  0.0892
 7488SOL    HW133143   3.570   3.437   2.927  1.1286  1.2343  1.5581
 7488SOL    HW233144   3.589   3.470   2.768 -1.9750  0.7312  1.0600
 7489SOL     OW33145   9.574   2.580   2.131  0.0811  0.1002 -0.4635
 7489SOL    HW133146   9.612   2.488   2.140  0.8393  0.3906 -0.6920
 7489SOL    HW233147   9.477   2.579   2.158  0.1392 -0.7213 -0.2837
 7490SOL     OW33148   1.045   2.609   2.185 -0.2526  0.2387 -0.7775
 7490SOL    HW133149   1.106   2.572   2.114  0.4524  0.6390 -0.3836
 7490SOL    HW233150   1.051   2.708   2.186  0.9015  0.1855  0.8425
 7491SOL     OW33151   9.090   2.358   3.535 -0.9228 -0.4131 -0.1797
 7491SOL    HW133152   9.085   2.258   3.535 -1.6160 -0.3908 -1.5520
 7491SOL    HW233153   9.059   2.393   3.447  2.1035  0.8810 -0.7873
 7492SOL     OW33154   1.092   3.566   0.631 -0.4472  0.1799 -0.1901
 7492SOL    HW133155   1.070   3.624   0.709  0.5502 -0.6907  0.7534
 7492SOL    HW233156   1.024   3.579   0.559 -2.1990 -0.0639  1.3938
 7493SOL     OW33157   2.244   8.682   4.272 -0.5856 -0.3181 -0.1027
 7493SOL    HW133158   2.252   8.782   4.277 -1.5174 -0.1763 -1.2814
 7493SOL    HW233159   2.181   8.657   4.199 -0.3811 -1.7807  0.2025
 7494SOL     OW33160   8.817   8.060   2.025 -0.5620 -0.1247 -0.3061
 7494SOL    HW133161   8.880   7.989   1.991  0.5846  1.5866 -1.8689
 7494SOL    HW233162   8.781   8.032   2.114  0.0907 -2.5301 -0.7419
 7495SOL     OW33163   7.844   8.796   4.872 -0.0911  0.2744 -0.4425
 7495SOL    HW133164   7.785   8.720   4.845  1.2540 -0.4037 -1.4842
 7495SOL    HW233165   7.798   8.849   4.944 -1.2951 -1.1556 -0.1305
 7496SOL     OW33166   3.892   2.821   4.713  0.5153 -0.2370 -0.4236
 7496SOL    HW133167   3.959   2.878   4.761  2.1162 -1.4357 -1.2000
 7496SOL    HW233168   3.812   2.807   4.772  0.4927  2.0048  0.1449
 7497SOL     OW33169   7.663   9.479   1.644  0.3029 -0.2469  0.2296
 7497SOL    HW133170   7.723   9.422   1.701  0.6325 -0.0398  0.0875
 7497SOL    HW233171   7.645   9.565   1.691 -1.4022 -1.0643  1.1199
 7498SOL     OW33172   7.327   8.522   4.264  0.1986 -0.3222 -0.1832
 7498SOL    HW133173   7.326   8.433   4.219  0.5143 -0.7991  0.7446
 7498SOL    HW233174   7.235   8.543   4.297 -0.3733  0.7080 -2.3481
 7499SOL     OW33175   1.004   2.854   3.828 -0.8224  0.0734 -0.3289
 7499SOL    HW133176   0.924   2.799   3.853 -0.3799 -0.2817  0.3263
 7499SOL    HW233177   0.993   2.947   3.864 -0.6502 -0.1549  0.3249
 7500SOL     OW33178   9.606   1.643   2.591 -0.2410  0.5465  0.1173
 7500SOL    HW133179   9.581   1.574   2.523 -3.5589  0.9476  0.8344
 7500SOL    HW233180   9.657   1.599   2.665  1.8955 -0.1939 -1.7187
 7501SOL     OW33181   0.604   1.768   0.586  0.3698  0.0236  0.7271
 7501SOL    HW133182   0.685   1.727   0.545  0.6868  0.1589  1.2133
 7501SOL    HW233183   0.621   1.786   0.683 -0.2363  0.0639  0.8269
 7502SOL     OW33184   0.875   4.015   2.142 -0.1717 -0.4717  0.0350
 7502SOL    HW133185   0.936   3.937   2.147 -0.1922 -0.5873 -1.3770
 7502SOL    HW233186   0.805   4.008   2.214  1.3179 -0.4457  1.5033
 7503SOL     OW33187   6.942   0.608   3.776 -0.1528  0.1858 -0.0409
 7503SOL    HW133188   7.025   0.584   3.726 -0.7061 -0.3900 -0.6904
 7503SOL    HW233189   6.966   0.650   3.863  0.8399 -1.5833  0.5557
 7504SOL     OW33190   1.103   5.881   2.341  0.2068 -0.1434 -0.1509
 7504SOL    HW133191   1.044   5.806   2.313 -0.2238 -0.3099  1.1834
 7504SOL    HW233192   1.198   5.858   2.322  0.0445 -0.8597 -0.0851
 7505SOL     OW33193   3.374   3.655   2.022 -0.1839  0.7170  0.3325
 7505SOL    HW133194   3.460   3.702   2.038 -0.6671  0.8789  2.6029
 7505SOL    HW233195   3.321   3.652   2.106 -1.8525 -0.5077 -0.7173
 7506SOL     OW33196   2.735   4.213   0.261 -0.2424 -0.2852  0.4264
 7506SOL    HW133197   2.770   4.236   0.352 -2.0404 -0.3533  1.1556
 7506SOL    HW233198   2.753   4.117   0.242 -1.0833 -0.6271  1.3051
 7507SOL     OW33199   7.080   1.217   3.900  0.6857 -0.0980  0.1063
 7507SOL    HW133200   7.023   1.298   3.908 -0.8261 -0.9257 -1.8586
 7507SOL    HW233201   7.124   1.216   3.811  1.8218 -0.7306  0.6610
 7508SOL     OW33202   3.838   3.585   2.605 -0.1891  0.0293  0.2842
 7508SOL    HW133203   3.869   3.526   2.531  0.1987  0.3569  0.1903
 7508SOL    HW233204   3.883   3.558   2.690  0.1369  0.3235  0.2023
 7509SOL     OW33205   2.978   3.062   3.794  0.6108 -0.1905 -0.3680
 7509SOL    HW133206   3.032   2.980   3.778  1.2482  0.3582 -1.0925
 7509SOL    HW233207   3.010   3.135   3.733 -0.5778  0.3086 -0.4108
 7510SOL     OW33208   3.587   8.171   2.463 -0.0950  0.1666 -0.0673
 7510SOL    HW133209   3.656   8.117   2.510  0.5711  0.0319 -1.1940
 7510SOL    HW233210   3.629   8.220   2.386 -1.0934  0.6707 -0.3027
 7511SOL     OW33211   8.109   1.041   4.119  0.3301  0.0387  0.4828
 7511SOL    HW133212   8.067   1.067   4.206 -0.8021  2.8136 -0.8306
 7511SOL    HW233213   8.206   1.064   4.121 -0.1196  2.0416  0.2967
 7512SOL     OW33214   2.826   5.981   1.668 -0.3495  0.3446  0.0123
 7512SOL    HW133215   2.775   5.997   1.753  1.5046  0.5729  1.1245
 7512SOL    HW233216   2.836   5.882   1.654 -0.7089  0.3038  0.0261
 7513SOL     OW33217   8.312   1.914   0.847 -0.1878 -0.0747  0.0826
 7513SOL    HW133218   8.394   1.956   0.808 -0.3200  0.4341  0.3378
 7513SOL    HW233219   8.232   1.944   0.795 -0.3960  0.8322  0.8930
 7514SOL     OW33220   9.195   9.016   0.360 -0.2869  0.6772 -0.2112
 7514SOL    HW133221   9.237   8.926   0.366  0.4690  0.9463 -1.2234
 7514SOL    HW233222   9.102   9.007   0.323 -1.0531  0.1107  1.7801
 7515SOL     OW33223   2.298   0.561   4.265 -0.5098 -0.1728  0.2479
 7515SOL    HW133224   2.290   0.489   4.333  0.0072 -1.3197 -0.8750
 7515SOL    HW233225   2.269   0.648   4.304 -1.2803 -1.0158  1.5772
 7516SOL     OW33226   9.377   0.220   0.655 -0.1393  0.3191 -0.3461
 7516SOL    HW133227   9.345   0.315   0.653 -0.2434  0.2468 -3.1230
 7516SOL    HW233228   9.301   0.159   0.677 -0.4325  0.7269 -0.2293
 7517SOL     OW33229   1.877   0.827   5.196 -0.0826  0.1000 -0.2727
 7517SOL    HW133230   1.840   0.739   5.165  0.3479 -0.5025  0.8762
 7517SOL    HW233231   1.960   0.811   5.250  0.5285  1.2831 -0.8439
 7518SOL     OW33232   8.957   9.435   4.376 -0.1428 -0.3801  0.3068
 7518SOL    HW133233   8.986   9.511   4.317 -1.3636  0.0952  0.3072
 7518SOL    HW233234   8.997   9.350   4.342  0.7600  0.1734 -0.0428
 7519SOL     OW33235   1.851   1.393   1.652 -0.2561  0.4067  0.0835
 7519SOL    HW133236   1.834   1.315   1.711  1.6828  1.7105  2.4873
 7519SOL    HW233237   1.930   1.374   1.593 -0.4905  0.1248 -0.1376
 7520SOL     OW33238   9.826   6.460   1.578 -0.0595  0.1561 -0.1283
 7520SOL    HW133239   9.730   6.488   1.573 -0.2613 -0.3805  0.6758
 7520SOL    HW233240   9.836   6.386   1.644  0.9714  0.4681  0.0781
 7521SOL     OW33241   4.076   1.566   0.180  0.2548 -0.1114 -0.1809
 7521SOL    HW133242   4.163   1.599   0.218  0.3595 -2.0490  1.3203
 7521SOL    HW233243   4.023   1.522   0.252 -1.3022 -0.3206 -1.4395
 7522SOL     OW33244   3.396   7.989   3.777  0.4446 -0.2609 -1.1226
 7522SOL    HW133245   3.459   7.919   3.810  1.0278  0.0464 -1.5842
 7522SOL    HW233246   3.360   7.964   3.687  0.0498 -0.3443 -0.9437
 7523SOL     OW33247   3.595   8.736   3.406 -0.0419 -0.8828 -0.3789
 7523SOL    HW133248   3.562   8.829   3.421 -0.0242 -1.2019  1.7908
 7523SOL    HW233249   3.556   8.699   3.322 -0.7710  0.7600 -0.7635
 7524SOL     OW33250   0.803   2.808   5.229 -0.1231 -0.0700 -0.0985
 7524SOL    HW133251   0.873   2.740   5.249  0.1261  0.8705  2.3472
 7524SOL    HW233252   0.722   2.791   5.284  0.0138  1.7015  0.6887
 7525SOL     OW33253   9.112   9.060   4.728  0.1834 -0.1431  0.5286
 7525SOL    HW133254   9.191   9.006   4.699 -0.1633 -0.9912  1.1829
 7525SOL    HW233255   9.061   9.090   4.647  1.8815  1.4869  0.0334
 7526SOL     OW33256   2.164   1.493   4.198  0.2696 -0.1202 -0.4938
 7526SOL    HW133257   2.192   1.588   4.181 -0.7339  0.2323 -0.2553
 7526SOL    HW233258   2.199   1.464   4.288 -1.8158  1.0124  0.7158
 7527SOL     OW33259   8.324   0.087   1.027  0.2181  0.0652  0.7170
 7527SOL    HW133260   8.356   0.006   0.978 -1.8496 -0.4306  0.1200
 7527SOL    HW233261   8.314   0.066   1.124 -0.0975 -0.3453  0.5991
 7528SOL     OW33262   0.311   2.244   4.346  0.1651 -0.2120  0.0657
 7528SOL    HW133263   0.245   2.318   4.356 -0.3497 -0.6847  0.2121
 7528SOL    HW233264   0.274   2.174   4.284  0.9554 -0.0003 -0.6545
 7529SOL     OW33265   1.684   2.833   5.141 -0.0221 -0.1910 -0.1046
 7529SOL    HW133266   1.611   2.900   5.140  0.0685 -0.0978 -0.7860
 7529SOL    HW233267   1.753   2.857   5.072  0.0481 -0.9315 -0.2999
 7530SOL     OW33268   3.565   4.372   0.767 -0.2516 -0.1467  0.5460
 7530SOL    HW133269   3.653   4.353   0.809  0.4242  1.1860 -0.2413
 7530SOL    HW233270   3.548   4.308   0.693 -0.8585 -1.6719  1.9693
 7531SOL     OW33271   2.149   1.326   0.520 -0.9149 -0.1963  0.1707
 7531SOL    HW133272   2.119   1.373   0.437  1.0750 -1.4601 -1.3230
 7531SOL    HW233273   2.091   1.247   0.537  0.9741 -2.1870 -2.2705
 7532SOL     OW33274   3.094   9.985   4.145 -0.1824  0.3952  0.2652
 7532SOL    HW133275   3.075   9.888   4.164  1.1413  0.3075  1.2118
 7532SOL    HW233276   3.031  10.042   4.197 -1.3675  0.0407 -0.7646
 7533SOL     OW33277   1.814   5.010   1.560 -0.2224  0.6503 -0.1873
 7533SOL    HW133278   1.836   5.080   1.491  0.3960  0.6682  0.0252
 7533SOL    HW233279   1.757   5.051   1.631 -1.7488  0.3636 -1.2356
 7534SOL     OW33280   0.330   3.343   2.167  0.2929 -0.3041 -0.2423
 7534SOL    HW133281   0.256   3.406   2.191  1.9021  0.7560  2.0680
 7534SOL    HW233282   0.351   3.285   2.245  0.4964 -2.0800 -1.5779
 7535SOL     OW33283   0.998   6.180   1.997 -0.2291  0.0380 -0.1898
 7535SOL    HW133284   0.985   6.171   2.096 -1.8338 -0.1464 -0.3915
 7535SOL    HW233285   1.004   6.089   1.956 -1.4179  0.0647 -0.4596
 7536SOL     OW33286   5.190   8.837   4.426 -0.2507 -0.2500  0.3126
 7536SOL    HW133287   5.127   8.914   4.437 -0.1591 -0.0969 -0.2574
 7536SOL    HW233288   5.237   8.821   4.513 -0.0857  0.4971  0.3620
 7537SOL     OW33289   2.815   6.524   4.308  0.1388 -0.3126  0.1311
 7537SOL    HW133290   2.765   6.480   4.384  0.4415  1.8082  1.6048
 7537SOL    HW233291   2.896   6.570   4.344 -0.0772  1.3042 -1.4014
 7538SOL     OW33292   1.057   7.673   2.413 -0.3372  0.1993 -0.2857
 7538SOL    HW133293   0.976   7.733   2.418 -1.6376 -1.4922 -0.5811
 7538SOL    HW233294   1.101   7.684   2.324 -0.9429  0.2514 -0.5809
 7539SOL     OW33295   0.699   1.232   5.493  0.0607 -0.9078  0.2851
 7539SOL    HW133296   0.606   1.247   5.524  0.0182  0.7501 -0.6159
 7539SOL    HW233297   0.733   1.145   5.530 -2.2882 -2.1941 -0.4806
 7540SOL     OW33298   0.256   0.629   1.884  0.1479 -0.3457 -0.1559
 7540SOL    HW133299   0.318   0.568   1.933  0.0470  1.4522  2.2904
 7540SOL    HW233300   0.310   0.691   1.826  0.3873 -1.2047 -0.8641
 7541SOL     OW33301   5.883   7.904   1.486  1.0640  0.1748 -0.1595
 7541SOL    HW133302   5.825   7.837   1.438 -1.1710  1.5564  0.5339
 7541SOL    HW233303   5.890   7.987   1.430  3.1034 -0.2952 -0.6180
 7542SOL     OW33304   3.177   1.200   4.792 -0.5695 -0.1139  0.6659
 7542SOL    HW133305   3.197   1.188   4.889  1.7988 -1.3746  0.0435
 7542SOL    HW233306   3.243   1.263   4.752  0.4487 -2.0396 -0.7792
 7543SOL     OW33307   4.155   7.732   1.244 -0.0663  0.0931 -0.3030
 7543SOL    HW133308   4.085   7.759   1.310 -0.8381 -2.0666 -0.1906
 7543SOL    HW233309   4.126   7.759   1.152 -1.3257 -1.2193 -0.3217
 7544SOL     OW33310   5.369   8.346   2.161 -0.0130  0.2411  0.0986
 7544SOL    HW133311   5.379   8.323   2.064  3.2455  3.6659 -0.5079
 7544SOL    HW233312   5.447   8.309   2.213 -1.3340 -0.9063  1.3143
 7545SOL     OW33313   2.645   1.336   2.890 -0.4445 -0.6199  0.0482
 7545SOL    HW133314   2.648   1.326   2.791 -0.3165 -0.1805  0.0091
 7545SOL    HW233315   2.589   1.262   2.929 -0.1736 -1.0184 -0.3147
 7546SOL     OW33316   2.622   2.207   5.267 -0.4011 -0.0771  0.2356
 7546SOL    HW133317   2.722   2.201   5.267 -0.4423 -0.8750  0.8625
 7546SOL    HW233318   2.583   2.118   5.293 -1.2631  0.3625  0.4748
 7547SOL     OW33319   3.187   6.925   1.078 -0.0556 -0.5739 -0.4395
 7547SOL    HW133320   3.277   6.883   1.068  0.2968  0.6425 -2.8567
 7547SOL    HW233321   3.130   6.899   1.001 -1.3536 -0.3121  0.4265
 7548SOL     OW33322   7.668   5.761   2.487  0.4440 -0.6847  0.1078
 7548SOL    HW133323   7.739   5.822   2.523  0.3815 -1.1595  1.0786
 7548SOL    HW233324   7.589   5.762   2.549 -0.4456 -0.0795 -1.0225
 7549SOL     OW33325   1.119   6.300   1.213  0.8628  0.3981  0.6036
 7549SOL    HW133326   1.045   6.347   1.166  1.4655  0.7811  0.0206
 7549SOL    HW233327   1.111   6.314   1.312  0.3905  0.7694  0.5113
 7550SOL     OW33328   4.413   6.564   1.077  0.2661 -0.6553  0.0478
 7550SOL    HW133329   4.502   6.594   1.111 -0.2924  0.3701  0.6484
 7550SOL    HW233330   4.345   6.635   1.095 -0.4555 -0.9632 -1.4001
 7551SOL     OW33331   7.162   7.817   3.159  0.5662  0.0990 -0.8012
 7551SOL    HW133332   7.144   7.882   3.234 -0.0102  0.4487 -1.2385
 7551SOL    HW233333   7.088   7.822   3.092  2.2615  1.5580 -2.6382
 7552SOL     OW33334   7.270   0.703   1.427  0.5024 -0.2674  0.6211
 7552SOL    HW133335   7.219   0.745   1.351  1.4922 -0.2789 -0.0539
 7552SOL    HW233336   7.308   0.775   1.485  0.8490 -0.2496  0.3703
 7553SOL     OW33337   5.208   0.345   2.751  0.1246  0.3488  0.1466
 7553SOL    HW133338   5.249   0.319   2.839  0.1358  2.6079  0.8426
 7553SOL    HW233339   5.268   0.316   2.677  1.9302  1.6017  1.0587
 7554SOL     OW33340   1.691   2.903   0.579  0.0503  0.2455 -0.0953
 7554SOL    HW133341   1.622   2.831   0.583 -0.5385  0.6267 -2.7304
 7554SOL    HW233342   1.775   2.867   0.539 -0.6018  1.2389 -2.4533
 7555SOL     OW33343   0.475   9.180   1.950 -0.4895  0.3133 -0.2623
 7555SOL    HW133344   0.566   9.139   1.947 -0.5574  0.1757 -0.4031
 7555SOL    HW233345   0.467   9.248   1.877 -0.4849  0.3570 -0.2228
 7556SOL     OW33346   0.050   7.610   4.048 -0.0684 -0.0464  0.0069
 7556SOL    HW133347  -0.046   7.585   4.047  0.2879 -1.4197  0.0420
 7556SOL    HW233348   0.093   7.580   4.133  0.1313  1.6031  0.5125
 7557SOL     OW33349   4.419   0.342   5.407 -0.4212 -0.1128  0.3004
 7557SOL    HW133350   4.370   0.318   5.323 -1.2241  0.0265  0.7242
 7557SOL    HW233351   4.354   0.379   5.474  0.1083 -0.7996  1.2043
 7558SOL     OW33352   2.419   6.299   1.252  0.0631  0.0948 -0.4521
 7558SOL    HW133353   2.347   6.261   1.311 -0.7320  2.6522  0.3008
 7558SOL    HW233354   2.501   6.242   1.258 -1.0095 -1.3607  0.7697
 7559SOL     OW33355   8.916   7.999   3.092 -0.6105  0.0534  0.2191
 7559SOL    HW133356   8.825   8.036   3.072 -0.4868 -0.0602 -0.5609
 7559SOL    HW233357   8.925   7.908   3.051 -0.5156 -0.3800  1.1836
 7560SOL     OW33358   2.022   2.222   5.405 -0.2342 -0.1982 -0.1290
 7560SOL    HW133359   2.009   2.141   5.348  0.7691 -1.6941  1.7060
 7560SOL    HW233360   2.119   2.231   5.428 -0.7358 -0.2378  2.1671
 7561SOL     OW33361   7.852   8.551   3.364 -0.0400  0.5807 -0.1838
 7561SOL    HW133362   7.884   8.579   3.454 -0.7513  0.2116  0.1911
 7561SOL    HW233363   7.861   8.452   3.354  1.4742  0.7941 -1.1047
 7562SOL     OW33364   3.419   2.161   2.591  0.6234  0.1486  0.0471
 7562SOL    HW133365   3.468   2.195   2.511  0.2637 -0.1695 -0.3155
 7562SOL    HW233366   3.337   2.112   2.560  1.4329 -1.5268  0.5325
 7563SOL     OW33367   1.442   5.435   1.089 -0.5675 -0.5169 -0.0515
 7563SOL    HW133368   1.352   5.392   1.076 -0.6573 -1.1994  2.5233
 7563SOL    HW233369   1.452   5.463   1.185  1.3274  1.0669 -0.6702
 7564SOL     OW33370   9.151   9.849   1.562  0.2056 -0.1072 -0.1457
 7564SOL    HW133371   9.240   9.881   1.530  0.4077 -1.2580 -0.7452
 7564SOL    HW233372   9.164   9.788   1.639 -0.0287 -0.7602 -0.6231
 7565SOL     OW33373   2.821   0.226   1.966  0.3423 -0.0873  0.3010
 7565SOL    HW133374   2.917   0.252   1.978 -0.3793  2.3711  0.9107
 7565SOL    HW233375   2.786   0.186   2.050  0.7498 -0.7834  0.1468
 7566SOL     OW33376   3.656   2.950   4.367  0.8397  0.0692 -0.0495
 7566SOL    HW133377   3.750   2.953   4.401  0.6138  1.2679  0.5052
 7566SOL    HW233378   3.650   2.886   4.291  1.3530 -2.7119  2.1808
 7567SOL     OW33379   0.228   6.972   0.597 -0.4769 -0.0907  0.4705
 7567SOL    HW133380   0.166   6.930   0.663 -1.3543  0.1788 -0.1742
 7567SOL    HW233381   0.289   6.903   0.559 -1.8318 -0.7788 -0.5020
 7568SOL     OW33382   1.365   9.148   4.994 -0.1875 -0.0495 -0.2017
 7568SOL    HW133383   1.402   9.232   4.954 -2.1211  1.0899  0.3311
 7568SOL    HW233384   1.440   9.087   5.018  1.1585  0.5439 -2.6900
 7569SOL     OW33385   3.517   3.464   2.280 -0.0752 -0.1935  0.3337
 7569SOL    HW133386   3.593   3.405   2.308 -0.7880 -0.5805  1.5278
 7569SOL    HW233387   3.440   3.407   2.252 -0.1883  0.1893 -0.1396
 7570SOL     OW33388   9.440   2.551   3.661  0.0172  0.4885  0.0104
 7570SOL    HW133389   9.434   2.647   3.633  0.0819  0.4498 -0.1342
 7570SOL    HW233390   9.403   2.493   3.589 -2.4944  0.5647  1.1493
 7571SOL     OW33391   0.969   9.974   1.255  0.2492  0.4350  0.7086
 7571SOL    HW133392   1.019   9.995   1.171  0.4838 -0.4987  0.6121
 7571SOL    HW233393   1.032   9.974   1.333  0.5356 -1.4563  0.4840
 7572SOL     OW33394   1.002   3.247   2.113 -0.2759 -0.3079 -0.2173
 7572SOL    HW133395   1.001   3.149   2.097  0.3534 -0.1779 -1.1115
 7572SOL    HW233396   1.008   3.266   2.211 -0.6938 -1.1566 -0.0300
 7573SOL     OW33397   8.233   7.933   1.523 -0.1382 -0.6366 -0.3749
 7573SOL    HW133398   8.326   7.965   1.509 -0.4924  1.3496  1.4970
 7573SOL    HW233399   8.234   7.852   1.582  0.3870 -0.6425 -0.3916
 7574SOL     OW33400   1.898   4.129   0.039 -0.0501 -0.4518  0.4039
 7574SOL    HW133401   1.893   4.048  -0.020 -1.2098  0.2574 -0.5031
 7574SOL    HW233402   1.943   4.204  -0.010 -2.1037  0.5201 -0.0677
 7575SOL     OW33403   1.990   3.732   0.508  0.0188  0.1771  0.4781
 7575SOL    HW133404   1.947   3.818   0.535  0.3515  1.3902 -2.7407
 7575SOL    HW233405   2.004   3.730   0.409  2.7329 -2.3345  0.8273
 7576SOL     OW33406   1.203   1.599   1.191  0.3162 -0.2549 -0.2252
 7576SOL    HW133407   1.266   1.524   1.214 -0.4000 -0.8971 -0.3117
 7576SOL    HW233408   1.153   1.626   1.274 -0.2454 -0.6545 -0.4300
 7577SOL     OW33409   4.286   5.004   1.582  0.8579  0.1962  0.0510
 7577SOL    HW133410   4.217   4.932   1.582  2.2002 -1.1146  0.0318
 7577SOL    HW233411   4.246   5.088   1.620 -0.9284 -0.3355 -0.5870
 7578SOL     OW33412   4.858   0.099   2.867  0.0061  0.2277  0.2040
 7578SOL    HW133413   4.851   0.001   2.850 -0.1775 -0.0456  1.7892
 7578SOL    HW233414   4.930   0.116   2.935  2.0642  1.4470 -2.2274
 7579SOL     OW33415   9.935   0.450   1.099  0.6454 -0.1127 -0.1527
 7579SOL    HW133416   9.849   0.461   1.049  1.1042  1.8646 -0.5558
 7579SOL    HW233417   9.919   0.462   1.197  0.3490 -0.4561 -0.1565
 7580SOL     OW33418   9.488   7.856   1.153 -0.2922  0.5120 -0.1767
 7580SOL    HW133419   9.581   7.843   1.188 -1.0330 -0.9480  1.3738
 7580SOL    HW233420   9.422   7.820   1.220 -2.0146  2.2847 -0.8744
 7581SOL     OW33421   0.714   4.415   2.332 -0.1237  0.1408  0.2539
 7581SOL    HW133422   0.723   4.507   2.370  0.2613  0.0814  0.3013
 7581SOL    HW233423   0.784   4.356   2.370  0.3267  0.1051 -0.6221
 7582SOL     OW33424   2.490   2.656   4.079 -0.6009 -1.0479 -0.2305
 7582SOL    HW133425   2.439   2.674   3.995 -0.9953  0.4345  0.3144
 7582SOL    HW233426   2.459   2.718   4.151  1.1725 -0.9058  0.4332
 7583SOL     OW33427   1.161   5.382   2.722 -0.4886 -0.3452  0.5651
 7583SOL    HW133428   1.230   5.389   2.794 -0.3611  0.5317  0.3575
 7583SOL    HW233429   1.080   5.435   2.747  0.2119  1.3510 -0.6876
 7584SOL     OW33430   0.668   3.101   0.387  0.2601 -0.6557  0.6519
 7584SOL    HW133431   0.597   3.048   0.434 -0.7916 -0.4826 -0.7200
 7584SOL    HW233432   0.736   3.130   0.453 -0.6470 -1.3081  1.9026
 7585SOL     OW33433   7.949   7.267   2.640 -0.0760 -0.1252 -0.2393
 7585SOL    HW133434   8.005   7.344   2.673  0.1826  0.2406 -1.5078
 7585SOL    HW233435   7.856   7.298   2.624  0.1784  0.0705 -1.3385
 7586SOL     OW33436   8.659   9.482   3.510 -0.0469  0.0326 -0.0153
 7586SOL    HW133437   8.630   9.547   3.439  2.0323 -0.1563 -1.0718
 7586SOL    HW233438   8.756   9.496   3.530  0.2664 -2.3380  0.2036
 7587SOL     OW33439   0.259   4.679   1.461 -0.7591  0.1205 -0.4432
 7587SOL    HW133440   0.266   4.710   1.556 -1.3025 -0.3276 -0.2507
 7587SOL    HW233441   0.164   4.653   1.442 -0.2932 -1.5481 -0.5415
 7588SOL     OW33442   2.932   9.837   0.940  0.1555  0.4106  0.1223
 7588SOL    HW133443   2.962   9.834   0.845 -0.6321 -0.3871 -0.1148
 7588SOL    HW233444   2.869   9.914   0.953  1.2699  1.3038  0.3173
 7589SOL     OW33445   0.223   8.319   2.450 -0.5017  0.5369  0.3025
 7589SOL    HW133446   0.318   8.331   2.480 -0.2481  2.2494 -1.0504
 7589SOL    HW233447   0.164   8.381   2.501 -0.3055  2.2398 -1.4495
 7590SOL     OW33448   2.580   3.723   5.243  0.3874  0.1139  0.1578
 7590SOL    HW133449   2.508   3.702   5.177  0.8690 -1.8736  0.2484
 7590SOL    HW233450   2.636   3.798   5.208 -0.3305  0.1502 -0.9521
 7591SOL     OW33451   4.701   0.602   2.947 -0.2512  0.1161 -0.2732
 7591SOL    HW133452   4.791   0.557   2.947 -0.0347  0.5123  1.6141
 7591SOL    HW233453   4.636   0.546   2.895  0.3718 -1.6440  0.8100
 7592SOL     OW33454   0.966   5.985   0.816  0.0764  0.2127 -0.1242
 7592SOL    HW133455   1.032   6.036   0.760 -1.1794  1.7773 -0.2104
 7592SOL    HW233456   0.983   6.003   0.912  0.4720 -0.2746 -0.0995
 7593SOL     OW33457   2.526   1.527   0.540 -0.1709 -0.8553  0.2556
 7593SOL    HW133458   2.455   1.575   0.591  1.2332  1.3256  0.1897
 7593SOL    HW233459   2.578   1.468   0.602 -1.5309 -1.8984  0.4352
 7594SOL     OW33460   0.599   9.543   4.938  0.5451  0.1253 -0.0135
 7594SOL    HW133461   0.581   9.563   4.842 -0.8696 -0.3085  0.1430
 7594SOL    HW233462   0.552   9.611   4.995  0.4087 -0.3042  0.3878
 7595SOL     OW33463   4.113   1.140   4.411 -0.2734  0.4794 -0.5294
 7595SOL    HW133464   4.178   1.068   4.433 -1.9092 -0.4456  1.4298
 7595SOL    HW233465   4.045   1.106   4.347  0.1160  0.9168 -1.1880
 7596SOL     OW33466   0.905   0.468   4.596  0.0312  0.1983  0.2874
 7596SOL    HW133467   0.885   0.530   4.521 -0.5523 -1.4074 -0.9180
 7596SOL    HW233468   0.998   0.483   4.629  0.5183  0.4687 -1.2120
 7597SOL     OW33469   0.122   9.087   3.311 -0.9058 -0.3822  0.4401
 7597SOL    HW133470   0.081   9.167   3.267  0.7206 -0.1137 -0.6095
 7597SOL    HW233471   0.159   9.114   3.400 -0.7567 -0.0656  0.2828
 7598SOL     OW33472   9.206   8.818   3.849 -0.2994  0.2643  0.1019
 7598SOL    HW133473   9.139   8.799   3.922 -1.6947  1.3698 -0.8835
 7598SOL    HW233474   9.253   8.733   3.826 -1.1161 -0.4664  1.0422
 7599SOL     OW33475   3.547   0.052   1.733 -0.4889 -0.3050 -0.0248
 7599SOL    HW133476   3.490  -0.010   1.788 -0.8199  1.0986  1.2495
 7599SOL    HW233477   3.644   0.035   1.754 -0.5035 -1.4036 -0.7989
 7600SOL     OW33478   9.983   5.854   1.944 -0.4741  0.5156  0.0632
 7600SOL    HW133479  10.047   5.907   1.888 -0.4064  1.0491  0.6511
 7600SOL    HW233480   9.890   5.868   1.911 -0.5348  1.5822  0.6845
 7601SOL     OW33481   8.239   0.566   3.961 -0.1126 -0.4779 -0.0650
 7601SOL    HW133482   8.187   0.574   3.876  2.6375 -0.4310 -1.8048
 7601SOL    HW233483   8.334   0.546   3.940  0.7177 -0.0307  3.0139
 7602SOL     OW33484   0.700   8.895   4.038 -0.1645  0.7328 -0.0116
 7602SOL    HW133485   0.630   8.926   4.102 -0.8825  0.1909 -0.5171
 7602SOL    HW233486   0.747   8.975   3.999  0.2426  1.0570  1.1424
 7603SOL     OW33487   1.357   8.128   1.927 -0.0549 -0.3152 -0.0651
 7603SOL    HW133488   1.294   8.190   1.879  2.4581  1.7397 -0.8020
 7603SOL    HW233489   1.347   8.142   2.025 -0.8861 -0.1519 -0.1617
 7604SOL     OW33490   2.094   4.492   2.595  0.2435 -0.0394  0.2760
 7604SOL    HW133491   2.048   4.417   2.547  1.5946 -0.1734 -0.8352
 7604SOL    HW233492   2.045   4.577   2.578 -0.0104 -0.2975 -0.2977
 7605SOL     OW33493   9.552   7.842   0.445  0.1595 -0.4525 -0.2161
 7605SOL    HW133494   9.487   7.918   0.435  1.2112  0.3467 -1.1920
 7605SOL    HW233495   9.566   7.823   0.542  0.9634  1.5875  0.1034
 7606SOL     OW33496   2.116   4.366   3.998 -0.0052  0.0625 -0.4182
 7606SOL    HW133497   2.210   4.353   4.031  0.9249 -1.3604 -3.4724
 7606SOL    HW233498   2.052   4.337   4.069  1.8180  0.9554  1.6731
 7607SOL     OW33499   2.754   4.749   4.017  0.2489  0.1751  0.4583
 7607SOL    HW133500   2.712   4.732   3.927  0.1810  2.6113 -0.0133
 7607SOL    HW233501   2.841   4.797   4.004 -0.2427  1.4211  1.7594
 7608SOL     OW33502   1.444   9.157   0.571  0.3225  0.2510 -0.0792
 7608SOL    HW133503   1.431   9.059   0.559 -1.7886  0.4665  0.1478
 7608SOL    HW233504   1.535   9.175   0.609  0.5372 -1.6498  0.3379
 7609SOL     OW33505   1.514   7.761   5.242  0.5868  0.0301  0.6745
 7609SOL    HW133506   1.426   7.722   5.268  1.0230 -0.8738  0.8178
 7609SOL    HW233507   1.532   7.841   5.299  0.0424 -0.0177  0.9228
 7610SOL     OW33508   4.792   9.594   1.423 -0.2145 -0.0404 -0.2494
 7610SOL    HW133509   4.696   9.619   1.420 -0.4711 -1.0857 -1.4609
 7610SOL    HW233510   4.847   9.670   1.389 -0.4751  1.1175  1.8661
 7611SOL     OW33511   1.351   8.756   3.069  0.6132 -0.0135  0.5582
 7611SOL    HW133512   1.366   8.744   3.167 -0.1309  0.3301  0.7187
 7611SOL    HW233513   1.253   8.769   3.051  0.5407 -1.7295 -0.4027
 7612SOL     OW33514   1.815   9.090   2.477 -0.0544 -0.5885 -0.0846
 7612SOL    HW133515   1.754   9.139   2.414  1.5728  0.9546 -0.4863
 7612SOL    HW233516   1.796   9.120   2.571 -0.4349 -0.6752 -0.1321
 7613SOL     OW33517   9.811   3.891   2.998  0.3695 -0.0537  0.4526
 7613SOL    HW133518   9.801   3.828   3.074  0.4047 -0.1571  0.3725
 7613SOL    HW233519   9.907   3.917   2.988  0.3727 -0.0764  0.4158
 7614SOL     OW33520   4.807   7.538   3.752 -0.3260 -0.2095 -0.1340
 7614SOL    HW133521   4.880   7.476   3.777  0.0708  0.6457  0.8946
 7614SOL    HW233522   4.730   7.527   3.816  0.1759  1.0838  0.7183
 7615SOL     OW33523   7.814   9.023   1.091  0.4821  0.1128  0.5917
 7615SOL    HW133524   7.897   9.071   1.119  0.6403 -0.4459  1.0808
 7615SOL    HW233525   7.798   8.945   1.152 -0.8992  0.7587  1.0718
 7616SOL     OW33526   2.283   3.898   5.092  0.3411  0.0841 -0.5561
 7616SOL    HW133527   2.300   3.800   5.099  0.6952  0.1713 -0.2228
 7616SOL    HW233528   2.206   3.914   5.030 -0.5959 -0.4700  0.4580
 7617SOL     OW33529   7.283   8.752   1.943 -0.9466 -0.0606  0.2335
 7617SOL    HW133530   7.223   8.831   1.927  0.2508  1.0328  0.9829
 7617SOL    HW233531   7.303   8.745   2.041  0.0423 -0.4883  0.0086
 7618SOL     OW33532   1.251   9.172   3.318 -0.3524 -0.8113  0.1469
 7618SOL    HW133533   1.261   9.153   3.221 -1.2727 -0.5143 -0.0085
 7618SOL    HW233534   1.284   9.264   3.338 -0.1923 -0.8616  0.1141
 7619SOL     OW33535   2.883   0.530   2.628 -0.2348 -0.2554 -0.2033
 7619SOL    HW133536   2.800   0.575   2.595 -0.4595 -0.3173  0.2728
 7619SOL    HW233537   2.889   0.540   2.727 -0.3716 -1.4157 -0.0680
 7620SOL     OW33538   6.688   1.445   1.970  0.0715 -0.0950  0.0451
 7620SOL    HW133539   6.603   1.419   1.925 -0.2482 -0.2096  0.7090
 7620SOL    HW233540   6.764   1.389   1.935  0.3755  1.7755 -2.4904
 7621SOL     OW33541   5.877   8.509   1.840 -0.0209 -0.1560  0.1567
 7621SOL    HW133542   5.835   8.421   1.819  1.4564 -0.6631 -0.7173
 7621SOL    HW233543   5.925   8.543   1.760  3.5209 -0.8995  1.8846
 7622SOL     OW33544   6.881   1.240   3.371 -0.0057  0.0646  0.2173
 7622SOL    HW133545   6.888   1.327   3.419  1.3290  0.4983 -0.7099
 7622SOL    HW233546   6.952   1.177   3.405 -0.0030 -0.1353 -0.1472
 7623SOL     OW33547   3.285   1.572   2.840 -0.5192 -0.2657 -0.0934
 7623SOL    HW133548   3.280   1.473   2.836  2.5319 -0.4367 -0.5657
 7623SOL    HW233549   3.322   1.600   2.928  0.2871  0.3681 -0.6270
 7624SOL     OW33550   9.436   1.952   4.053  0.5119  0.4192  0.2779
 7624SOL    HW133551   9.416   2.050   4.053  1.9896  0.7568  2.4618
 7624SOL    HW233552   9.524   1.936   4.009  0.3659  0.0707  0.1059
 7625SOL     OW33553   3.201   3.015   5.456  0.4669  0.0467  0.1838
 7625SOL    HW133554   3.168   2.962   5.378 -0.8841  0.4958  0.4322
 7625SOL    HW233555   3.146   3.098   5.465  0.3339 -0.2085  1.8512
 7626SOL     OW33556   2.787   8.324   5.328 -0.0347 -0.3712 -0.5151
 7626SOL    HW133557   2.822   8.259   5.261  0.8570  1.9351 -2.3494
 7626SOL    HW233558   2.801   8.288   5.420  3.3478 -1.3839 -1.3469
 7627SOL     OW33559   8.609   3.473   1.884 -0.8818 -0.8035  0.0111
 7627SOL    HW133560   8.669   3.481   1.805 -2.3007  0.1614 -0.9934
 7627SOL    HW233561   8.662   3.442   1.963  0.6550 -1.2492 -1.1730
 7628SOL     OW33562   7.282   7.757   4.153 -0.3114 -0.0749  0.6196
 7628SOL    HW133563   7.182   7.759   4.146 -0.4439 -0.6655  2.1414
 7628SOL    HW233564   7.314   7.663   4.144  0.2057  0.2140 -0.7836
 7629SOL     OW33565   4.110   7.272   4.447  0.3707 -0.7377  0.6040
 7629SOL    HW133566   4.020   7.236   4.423  0.9042 -1.4557 -0.3717
 7629SOL    HW233567   4.122   7.270   4.546 -0.4175 -1.2824  0.6879
 7630SOL     OW33568   0.239   9.965   0.644  0.0072 -0.6388 -0.3377
 7630SOL    HW133569   0.302   9.905   0.694  1.9349  0.7137 -1.0911
 7630SOL    HW233570   0.270  10.059   0.651 -1.7454  0.0144 -1.0546
 7631SOL     OW33571   3.021   2.519   2.840 -0.2080  0.0920 -0.1834
 7631SOL    HW133572   2.938   2.477   2.875  1.2724 -4.2262 -1.5687
 7631SOL    HW233573   3.093   2.514   2.910  0.4963 -1.3989 -0.9961
 7632SOL     OW33574   2.759   3.218   1.693  0.1545 -0.2466  0.4235
 7632SOL    HW133575   2.698   3.293   1.720  1.1701  0.2763  1.2982
 7632SOL    HW233576   2.704   3.142   1.657 -1.1823 -0.5475  2.9662
 7633SOL     OW33577   7.229   6.428   2.175 -0.4384 -0.4371  0.0266
 7633SOL    HW133578   7.231   6.391   2.268  0.6997 -1.7102 -0.4857
 7633SOL    HW233579   7.178   6.365   2.116  0.3555 -0.5179 -0.5724
 7634SOL     OW33580   3.962   0.165   2.854  0.2644 -0.8883 -0.0156
 7634SOL    HW133581   4.047   0.212   2.876  0.3851 -1.1839  0.1602
 7634SOL    HW233582   3.917   0.137   2.939  0.1190 -0.9537 -0.1137
 7635SOL     OW33583   3.314   7.918   2.345  0.0710 -0.6458  0.0430
 7635SOL    HW133584   3.313   7.841   2.282  0.0344 -0.8041  0.2334
 7635SOL    HW233585   3.331   7.885   2.438  1.9849 -0.2133 -0.1455
 7636SOL     OW33586   9.523   9.085   1.796  0.3441  0.8660 -0.7417
 7636SOL    HW133587   9.519   9.026   1.715  0.3355 -1.4001  0.8877
 7636SOL    HW233588   9.430   9.107   1.825  0.1804 -2.9463  1.9219
 7637SOL     OW33589   0.397   6.794   3.252 -0.3639 -0.0609 -0.2009
 7637SOL    HW133590   0.323   6.840   3.203  0.9562  0.5413 -1.6693
 7637SOL    HW233591   0.407   6.834   3.343 -2.4375 -0.7799  0.3692
 7638SOL     OW33592   4.544   2.456   3.140  0.4284 -0.2457 -0.4132
 7638SOL    HW133593   4.465   2.477   3.198  0.3137 -2.4716  0.3042
 7638SOL    HW233594   4.605   2.393   3.188  1.8150  0.1639 -1.5966
 7639SOL     OW33595   2.873   8.839   1.373  0.2031  0.2631 -0.7900
 7639SOL    HW133596   2.917   8.851   1.462  1.0465  0.1487 -1.1856
 7639SOL    HW233597   2.776   8.820   1.386  0.2367  0.6801  0.0887
 7640SOL     OW33598   9.357   5.148   2.776  0.2743  0.4520 -0.2407
 7640SOL    HW133599   9.439   5.107   2.737 -0.1939 -1.0977  0.3793
 7640SOL    HW233600   9.277   5.117   2.724 -0.0610  0.7346  0.1064
 7641SOL     OW33601   9.380   4.428   2.907 -0.0190  0.7607 -0.2969
 7641SOL    HW133602   9.351   4.524   2.915 -0.9046  0.6439 -2.0932
 7641SOL    HW233603   9.476   4.425   2.878  0.2351  1.0859  0.4668
 7642SOL     OW33604   0.427   8.165   1.088  0.0351  0.7079 -0.1685
 7642SOL    HW133605   0.403   8.224   1.011 -1.6036 -0.2818 -0.4415
 7642SOL    HW233606   0.369   8.187   1.167  0.3498  0.3875  0.1569
 7643SOL     OW33607   9.154   6.603   1.864  0.0120 -0.0411  0.4703
 7643SOL    HW133608   9.075   6.659   1.838  0.5690  0.3556 -0.3970
 7643SOL    HW233609   9.176   6.539   1.790  0.8373  0.2218  0.4810
 7644SOL     OW33610   0.740   0.730   2.776 -0.3265 -0.3836 -0.1918
 7644SOL    HW133611   0.823   0.745   2.723 -1.1339 -3.3409 -2.4847
 7644SOL    HW233612   0.756   0.659   2.845 -0.7474 -0.4155 -0.1216
 7645SOL     OW33613   2.324   7.788   3.464 -0.0779  0.2507  0.2530
 7645SOL    HW133614   2.240   7.843   3.458  0.4759  1.0178 -0.5764
 7645SOL    HW233615   2.339   7.743   3.376  0.8195  0.7517  0.1533
 7646SOL     OW33616   9.116   3.068   1.735 -0.2803  0.3048  0.2798
 7646SOL    HW133617   9.187   3.015   1.782 -1.4741 -0.5026  1.2170
 7646SOL    HW233618   9.139   3.078   1.639  0.9534 -0.2045  0.5177
 7647SOL     OW33619   1.344   0.587   1.716 -0.3861  0.3861 -0.4121
 7647SOL    HW133620   1.403   0.613   1.793 -0.3337  0.2071 -0.3924
 7647SOL    HW233621   1.399   0.542   1.646 -0.6711 -0.6440  0.0224
 7648SOL     OW33622   3.503   2.850   0.299  0.0529  0.2358  0.0337
 7648SOL    HW133623   3.513   2.841   0.398  0.7577  0.5025 -0.0083
 7648SOL    HW233624   3.456   2.769   0.263  1.5897 -0.8218  0.3361
 7649SOL     OW33625   3.091   7.341   1.748  0.1040 -0.4312  0.4043
 7649SOL    HW133626   3.042   7.410   1.801  1.2610  0.3611  0.4515
 7649SOL    HW233627   3.063   7.346   1.652  1.0983  0.9450  0.1771
 7650SOL     OW33628   2.654   3.571   3.898 -0.2536 -0.1768 -0.2972
 7650SOL    HW133629   2.707   3.500   3.851  0.1407  0.0025 -0.1193
 7650SOL    HW233630   2.590   3.613   3.833 -1.6396 -1.7951 -0.0299
 7651SOL     OW33631   8.564   8.562   1.947  0.6223 -0.5411 -0.4453
 7651SOL    HW133632   8.523   8.627   2.011  0.8517  0.0393 -0.8836
 7651SOL    HW233633   8.625   8.501   1.996  0.6132 -0.2494 -0.0669
 7652SOL     OW33634   7.273   8.528   3.907 -0.1761  0.4338 -0.3972
 7652SOL    HW133635   7.216   8.590   3.960 -0.2727 -0.7757  0.9691
 7652SOL    HW233636   7.321   8.465   3.970  0.2524 -0.5708 -1.7049
 7653SOL     OW33637   2.534   8.588   1.905  0.6578  0.4076 -0.3446
 7653SOL    HW133638   2.547   8.599   1.807  0.1170 -1.1395 -0.6118
 7653SOL    HW233639   2.599   8.645   1.955  2.6417 -0.7005 -1.6095
 7654SOL     OW33640   2.381   9.107   4.096 -0.2092  0.4621  0.8909
 7654SOL    HW133641   2.376   9.207   4.100 -2.0948  0.3935  0.7533
 7654SOL    HW233642   2.466   9.076   4.137  0.5218  2.1480  0.6855
 7655SOL     OW33643   5.110   9.107   2.314 -0.5109 -0.6256  0.1596
 7655SOL    HW133644   5.061   9.179   2.363  0.2043  0.6064 -0.8820
 7655SOL    HW233645   5.080   9.017   2.345  0.7286  0.1126  3.6547
 7656SOL     OW33646   7.268   8.621   3.175 -0.1495  0.2318 -0.0970
 7656SOL    HW133647   7.265   8.539   3.232  2.0575 -0.1913 -0.5509
 7656SOL    HW233648   7.293   8.597   3.082  2.4366  1.5947  0.2018
 7657SOL     OW33649   4.319   2.564   5.475 -0.1869 -0.4432 -0.2321
 7657SOL    HW133650   4.225   2.588   5.501 -1.0182 -2.0696 -1.5976
 7657SOL    HW233651   4.321   2.541   5.377  0.8957 -3.8877  0.5367
 7658SOL     OW33652   4.760   6.878   1.976  0.1155  0.1563  0.6369
 7658SOL    HW133653   4.754   6.785   2.011 -2.5306  0.8078  2.0731
 7658SOL    HW233654   4.679   6.899   1.922 -0.5829  2.4331  2.4616
 7659SOL     OW33655   3.055   6.781   1.978 -0.3378  0.1274 -0.0449
 7659SOL    HW133656   2.958   6.759   1.987 -0.3207  0.2793  0.5124
 7659SOL    HW233657   3.064   6.877   1.950 -0.3993 -0.4325 -2.0761
 7660SOL     OW33658   2.167   9.788   2.258 -0.1494 -0.0874 -0.4303
 7660SOL    HW133659   2.206   9.697   2.245  0.2845 -0.2781  2.0350
 7660SOL    HW233660   2.147   9.803   2.355  0.3704  2.6731 -0.6968
 7661SOL     OW33661   9.638   7.224   1.949 -0.3940  0.5173 -0.5466
 7661SOL    HW133662   9.715   7.161   1.961 -0.5325  0.4737  0.1727
 7661SOL    HW233663   9.623   7.241   1.852 -0.1487 -0.3054 -0.7345
 7662SOL     OW33664   3.467   0.649   1.328 -0.4747 -0.4761 -0.1336
 7662SOL    HW133665   3.490   0.718   1.397  0.9253  0.3307 -1.3809
 7662SOL    HW233666   3.421   0.572   1.372 -2.1463  1.2844  1.2802
 7663SOL     OW33667   4.578   4.100   1.521  0.2170  0.2428 -0.4570
 7663SOL    HW133668   4.598   4.195   1.546  0.8090 -0.2451  0.9935
 7663SOL    HW233669   4.516   4.061   1.589  0.5255 -0.6130 -0.6653
 7664SOL     OW33670   4.404   9.928   3.120  0.8545 -0.1641  0.7937
 7664SOL    HW133671   4.452   9.907   3.035  0.0829 -1.1054  0.5878
 7664SOL    HW233672   4.421   9.855   3.187 -0.3543 -0.5481  0.6926
 7665SOL     OW33673   9.170   9.659   5.476 -0.0836  0.0728 -0.2686
 7665SOL    HW133674   9.113   9.613   5.543 -4.3657  2.8042 -1.8171
 7665SOL    HW233675   9.220   9.734   5.520 -2.9679  1.9333 -0.0060
 7666SOL     OW33676   7.702   8.608   4.730 -0.2949 -0.1339 -0.2460
 7666SOL    HW133677   7.728   8.540   4.662  0.9493 -0.6019  0.6852
 7666SOL    HW233678   7.605   8.596   4.754 -0.2836 -1.0724 -0.6536
 7667SOL     OW33679   2.141   9.050   0.462 -0.1515  0.0791  0.0579
 7667SOL    HW133680   2.157   8.952   0.478 -1.0368  0.1403  1.3904
 7667SOL    HW233681   2.053   9.062   0.416 -0.4965  0.3097  0.7767
 7668SOL     OW33682   1.700   3.513   0.017 -0.0165 -0.3331  0.2302
 7668SOL    HW133683   1.705   3.485  -0.079  0.9465 -0.3366  0.2694
 7668SOL    HW233684   1.672   3.608   0.023 -1.1489 -0.6537 -0.0065
 7669SOL     OW33685   7.257   6.328   2.431 -0.4655 -0.2973 -0.1550
 7669SOL    HW133686   7.176   6.292   2.476 -0.1872 -1.3966 -0.5183
 7669SOL    HW233687   7.317   6.371   2.499  0.1992 -2.4085  0.6379
 7670SOL     OW33688   0.229   2.543   1.242 -0.6223 -0.2443 -0.4434
 7670SOL    HW133689   0.243   2.457   1.194  1.1384 -1.4416  2.0610
 7670SOL    HW233690   0.131   2.563   1.249 -1.0150 -1.7826 -1.4788
 7671SOL     OW33691   9.959   1.639   1.930 -0.1429  0.2149 -0.2514
 7671SOL    HW133692   9.999   1.685   1.850  0.6510  1.2923  0.7446
 7671SOL    HW233693   9.953   1.541   1.912  0.4373  0.3854 -1.4605
 7672SOL     OW33694   2.490   2.103   0.595 -0.3819  0.1668 -0.2535
 7672SOL    HW133695   2.533   2.018   0.625 -1.4935 -0.6112 -0.8366
 7672SOL    HW233696   2.444   2.088   0.507 -0.1879  1.4942 -0.5884
 7673SOL     OW33697   9.640   9.101   0.315  0.0672 -0.0120  0.5808
 7673SOL    HW133698   9.608   9.008   0.329  0.3573 -0.2653 -0.3745
 7673SOL    HW233699   9.607   9.160   0.389 -0.5516 -0.7647  0.9068
 7674SOL     OW33700   5.000   1.149   3.587 -0.3418 -0.9418  0.1325
 7674SOL    HW133701   5.008   1.200   3.672 -0.3005 -1.0840  0.2127
 7674SOL    HW233702   5.077   1.172   3.527 -1.0525  0.1425 -0.3848
 7675SOL     OW33703   1.743   4.608   2.028  0.0755 -0.1604  0.5339
 7675SOL    HW133704   1.790   4.665   1.961 -0.7426  0.6804  0.6693
 7675SOL    HW233705   1.686   4.541   1.980 -0.6770  0.5814  0.3890
 7676SOL     OW33706   1.354   1.793   2.243  0.6487  0.2991 -0.2051
 7676SOL    HW133707   1.400   1.873   2.206  1.0267 -0.4062 -1.3132
 7676SOL    HW233708   1.417   1.715   2.243  0.3851  0.0746  1.1501
 7677SOL     OW33709   5.006   8.443   1.954  0.1514 -0.3904 -0.2816
 7677SOL    HW133710   4.939   8.447   1.880  0.7875 -1.3281 -0.9111
 7677SOL    HW233711   4.960   8.421   2.040 -0.8279  2.1980 -0.0794
 7678SOL     OW33712   4.409   1.452   0.309  0.5029  0.4251 -0.2027
 7678SOL    HW133713   4.380   1.526   0.370  0.2151  0.9608 -0.9841
 7678SOL    HW233714   4.353   1.371   0.326 -0.3179  0.9202 -0.5201
 7679SOL     OW33715   7.301   8.184   2.130  0.3848 -0.1464 -0.4867
 7679SOL    HW133716   7.308   8.086   2.149 -1.0212 -0.1544  0.0953
 7679SOL    HW233717   7.225   8.199   2.066  0.4547  0.5762 -0.3956
 7680SOL     OW33718   6.024   7.488   1.866 -0.0976 -0.0300  0.0197
 7680SOL    HW133719   5.976   7.433   1.934 -1.6108  0.8987 -0.2714
 7680SOL    HW233720   6.002   7.454   1.775  0.2822  0.0209 -0.0915
 7681SOL     OW33721   3.641   1.342   0.337  0.3020 -0.1029 -0.4826
 7681SOL    HW133722   3.693   1.269   0.381 -1.2212 -0.2428  1.1176
 7681SOL    HW233723   3.705   1.411   0.303  1.5756 -0.1545  1.6563
 7682SOL     OW33724   0.877   6.650   4.414  0.1966  0.1296  0.0311
 7682SOL    HW133725   0.916   6.589   4.484 -0.4648  1.1522  1.3138
 7682SOL    HW233726   0.817   6.716   4.458 -3.7072 -1.9320 -1.9554
 7683SOL     OW33727   1.253   0.274   0.283  0.0071 -0.2617  0.1329
 7683SOL    HW133728   1.307   0.191   0.271  0.4549  0.0990 -0.3654
 7683SOL    HW233729   1.180   0.278   0.215 -0.4045 -0.5440  0.5463
 7684SOL     OW33730   2.728   3.463   1.502 -0.2769 -0.1611 -0.5593
 7684SOL    HW133731   2.774   3.503   1.581 -2.1741 -2.2262  1.6690
 7684SOL    HW233732   2.653   3.524   1.473 -0.3449  0.0243 -0.0001
 7685SOL     OW33733   1.414   5.783   1.287 -0.6415 -0.2851 -0.3084
 7685SOL    HW133734   1.411   5.683   1.290  1.1374 -0.3689 -0.6051
 7685SOL    HW233735   1.382   5.820   1.375  1.2185 -1.2003  0.7884
 7686SOL     OW33736   3.791   2.581   0.417  0.0059  1.1853  0.2100
 7686SOL    HW133737   3.767   2.575   0.514  0.0598  0.9731  0.2105
 7686SOL    HW233738   3.872   2.525   0.400 -0.1253  1.0595  0.0018
 7687SOL     OW33739   5.128   8.845   2.457 -0.1738  0.1956  0.3169
 7687SOL    HW133740   5.070   8.811   2.531  1.6030 -1.1303  1.1296
 7687SOL    HW233741   5.222   8.857   2.490  0.5771 -0.1411 -1.6295
 7688SOL     OW33742   8.017   8.377   1.107  0.3411  0.0372  0.2109
 7688SOL    HW133743   7.952   8.375   1.184  2.8210 -0.8783  2.3728
 7688SOL    HW233744   8.048   8.470   1.093 -1.3003  0.4614 -0.7482
 7689SOL     OW33745   7.839   7.312   3.244 -0.2560 -0.8177  0.4285
 7689SOL    HW133746   7.774   7.304   3.170  1.7767  0.4964 -1.5757
 7689SOL    HW233747   7.881   7.223   3.262 -1.7113 -1.4127  0.9278
 7690SOL     OW33748   2.282   4.656   1.531 -0.2299 -0.2487 -0.0825
 7690SOL    HW133749   2.328   4.704   1.457  1.4610 -0.5528  0.7477
 7690SOL    HW233750   2.222   4.585   1.493 -0.5373  0.5982 -1.1914
 7691SOL     OW33751   3.171   5.518   0.147 -0.7406 -0.1376  0.2970
 7691SOL    HW133752   3.108   5.463   0.202 -2.3495  1.3221 -0.0243
 7691SOL    HW233753   3.215   5.587   0.204  0.8819 -1.4066  0.5977
 7692SOL     OW33754   8.663   2.196   0.592  0.4672 -0.0682 -0.6148
 7692SOL    HW133755   8.695   2.186   0.498  0.9881  0.2557 -0.4728
 7692SOL    HW233756   8.563   2.201   0.592  0.3066 -2.6773 -0.9090
 7693SOL     OW33757   0.978   7.213   0.424  0.4315  0.3620  0.2077
 7693SOL    HW133758   0.896   7.236   0.476  0.4706  0.8562  0.0569
 7693SOL    HW233759   0.956   7.214   0.326  0.3901 -0.4278  0.2109
 7694SOL     OW33760   7.946   8.475   2.278  0.4294  0.6207 -0.0093
 7694SOL    HW133761   8.021   8.409   2.275 -0.9443 -0.9943  0.6929
 7694SOL    HW233762   7.877   8.449   2.211 -1.5078 -0.3540  2.3282
 7695SOL     OW33763   6.093   9.901   1.847 -0.0586  0.3375 -0.4354
 7695SOL    HW133764   6.072   9.808   1.815  1.0044  0.9565 -3.0793
 7695SOL    HW233765   6.045   9.967   1.789  1.4277  1.5067 -0.3504
 7696SOL     OW33766   1.262   7.773   0.205  0.3486 -0.4863  0.2592
 7696SOL    HW133767   1.253   7.805   0.299 -1.3353 -1.5516  0.4715
 7696SOL    HW233768   1.358   7.749   0.187  0.7817  0.2788  1.5146
 7697SOL     OW33769   8.433   6.930   2.276  0.2715  0.0723 -0.3833
 7697SOL    HW133770   8.512   6.981   2.243  0.4403 -0.3832 -0.7022
 7697SOL    HW233771   8.453   6.832   2.270  0.4915 -0.0250  1.5233
 7698SOL     OW33772   0.815   9.967   1.772 -0.0397 -0.4195 -0.4032
 7698SOL    HW133773   0.780   9.885   1.726 -0.0781 -0.4255 -0.3622
 7698SOL    HW233774   0.753  10.043   1.753 -1.8329 -1.1485  2.3221
 7699SOL     OW33775   3.883   9.968   5.189 -0.2113  0.1619  0.4625
 7699SOL    HW133776   3.945  10.035   5.149 -1.2452  0.3406 -0.8959
 7699SOL    HW233777   3.933   9.911   5.254  0.7647  1.9940  1.3661
 7700SOL     OW33778   9.853   7.420   0.568 -0.0424  0.4628  0.3534
 7700SOL    HW133779   9.854   7.339   0.510  0.2907 -0.6354  1.8458
 7700SOL    HW233780   9.947   7.449   0.587 -0.1648  1.6724 -0.7856
 7701SOL     OW33781   3.684   6.090   2.137 -0.9116  0.4748  0.9194
 7701SOL    HW133782   3.710   6.186   2.124  1.1894 -0.3146 -0.9787
 7701SOL    HW233783   3.691   6.067   2.234  0.5120  1.7167  1.1305
 7702SOL     OW33784   2.791   7.563   2.261 -0.0839 -0.0565  0.0259
 7702SOL    HW133785   2.728   7.603   2.195 -0.5769 -1.4653 -0.3911
 7702SOL    HW233786   2.833   7.481   2.221  0.9577  0.0891  0.8071
 7703SOL     OW33787   0.097   7.224   3.143  0.6697 -0.2035 -0.0015
 7703SOL    HW133788   0.102   7.323   3.124  0.6305 -0.4063 -1.1221
 7703SOL    HW233789   0.131   7.174   3.063  3.8708 -1.0286  1.7748
 7704SOL     OW33790   7.234   6.811   2.018  0.2905 -0.1127 -0.4420
 7704SOL    HW133791   7.156   6.753   2.040  1.5210 -0.9402  1.9580
 7704SOL    HW233792   7.206   6.907   2.020 -0.4428 -0.3499  1.4381
 7705SOL     OW33793   5.409   0.513   2.342  0.7164 -0.2004  0.4096
 7705SOL    HW133794   5.445   0.590   2.394 -0.0135  0.0639  0.5304
 7705SOL    HW233795   5.451   0.512   2.251 -1.2813  1.9974 -0.6000
 7706SOL     OW33796   7.681   5.518   2.393  0.1682  0.3094 -0.1891
 7706SOL    HW133797   7.727   5.462   2.462  1.0294 -0.3888 -1.3061
 7706SOL    HW233798   7.693   5.614   2.414 -0.3721  0.0978  1.1390
 7707SOL     OW33799   7.250   2.075   2.840  0.5615  0.0620  0.4546
 7707SOL    HW133800   7.240   2.046   2.745  0.9446  0.3634  0.3207
 7707SOL    HW233801   7.309   2.010   2.889 -1.0607 -1.0805  0.9509
 7708SOL     OW33802   2.325   9.847   5.525 -0.2619 -0.2792 -0.0877
 7708SOL    HW133803   2.265   9.849   5.605  0.2290 -0.3743  0.2847
 7708SOL    HW233804   2.309   9.929   5.470 -0.6350 -0.2347  0.0882
 7709SOL     OW33805   3.430   2.143   1.981 -0.0561 -0.5640  0.8840
 7709SOL    HW133806   3.372   2.224   1.986  1.0057  0.2150  0.9315
 7709SOL    HW233807   3.376   2.061   1.998 -1.4539  0.0039 -0.7157
 7710SOL     OW33808   2.928   4.272   0.870 -0.0398 -0.1759  0.2065
 7710SOL    HW133809   2.892   4.343   0.808 -1.4188 -0.2832  0.8643
 7710SOL    HW233810   3.011   4.306   0.914  0.3757  0.3023 -0.9129
 7711SOL     OW33811   0.205   7.718   3.272  0.8783  0.3225 -0.5583
 7711SOL    HW133812   0.301   7.718   3.243  0.7854  1.1977 -0.8771
 7711SOL    HW233813   0.190   7.792   3.337  0.4752  0.0171 -0.3010
 7712SOL     OW33814   3.645   7.742   2.488 -0.0388  0.0529 -0.3979
 7712SOL    HW133815   3.556   7.735   2.534  0.7423  0.9375  1.2910
 7712SOL    HW233816   3.654   7.833   2.447  0.0416 -0.0653 -0.6412
 7713SOL     OW33817   9.850   8.720   2.769  0.0252  0.1490  0.8857
 7713SOL    HW133818   9.827   8.688   2.861 -0.4064  1.5799  1.2959
 7713SOL    HW233819   9.798   8.804   2.749 -0.2823 -0.4422 -0.8689
 7714SOL     OW33820   4.514   7.925   0.758  0.3872  0.2825 -0.5712
 7714SOL    HW133821   4.505   7.980   0.675  1.3760  0.5078 -0.5427
 7714SOL    HW233822   4.425   7.890   0.785  0.1017 -0.0608 -1.9109
 7715SOL     OW33823   1.492   9.755   0.617 -0.2245  0.6742 -0.3558
 7715SOL    HW133824   1.499   9.846   0.658  1.4962  1.2258 -1.8348
 7715SOL    HW233825   1.524   9.758   0.523  0.3161 -1.5737 -0.2758
 7716SOL     OW33826   2.096   9.524   5.560 -0.5288 -0.3875  0.1060
 7716SOL    HW133827   2.081   9.476   5.646 -0.6122  0.3167  0.4896
 7716SOL    HW233828   2.011   9.568   5.531  0.1941  1.7724  1.1522
 7717SOL     OW33829   9.371   9.787   4.380  0.0805  0.0450  0.3577
 7717SOL    HW133830   9.350   9.720   4.452  1.7832 -1.2448 -0.3155
 7717SOL    HW233831   9.435   9.855   4.415 -0.9905  0.8670  0.7777
 7718SOL     OW33832   2.690   6.781   4.233 -0.2863 -0.7505 -0.4001
 7718SOL    HW133833   2.725   6.693   4.264 -2.7022 -2.2484 -1.7757
 7718SOL    HW233834   2.748   6.817   4.160 -0.1509 -1.9629 -0.9002
 7719SOL     OW33835   1.824   0.048   0.186  0.2817  0.0101  0.1334
 7719SOL    HW133836   1.823   0.022   0.283  0.0474 -0.6878 -0.0592
 7719SOL    HW233837   1.814  -0.033   0.129 -2.5828  0.6964 -0.4232
 7720SOL     OW33838   2.876   7.518   3.353  0.1331  0.4262 -0.2827
 7720SOL    HW133839   2.813   7.530   3.429 -0.3429 -0.0221 -0.6041
 7720SOL    HW233840   2.909   7.424   3.351  0.7794  0.6465 -0.1442
 7721SOL     OW33841   8.648   8.296   1.169  0.0724 -0.0410 -0.2961
 7721SOL    HW133842   8.711   8.266   1.241  1.0703  0.2922 -1.0291
 7721SOL    HW233843   8.591   8.370   1.204  2.2809  1.8476 -0.6109
 7722SOL     OW33844   0.854   2.318   4.223  0.1408 -0.2266  0.2154
 7722SOL    HW133845   0.873   2.318   4.125  1.2715 -1.4852  0.4083
 7722SOL    HW233846   0.756   2.320   4.239 -0.0352  0.7861 -0.9266
 7723SOL     OW33847   1.709   9.143   0.037  0.3656 -0.3092  0.1877
 7723SOL    HW133848   1.798   9.139  -0.008  0.5306  2.1081  0.2400
 7723SOL    HW233849   1.717   9.195   0.122 -1.2377  0.5376 -0.1721
 7724SOL     OW33850   0.742   9.486   2.212  0.0779 -0.4370  0.0430
 7724SOL    HW133851   0.741   9.564   2.275 -1.4293 -1.1442  0.9239
 7724SOL    HW233852   0.649   9.470   2.177  0.5565 -1.2315 -0.8894
 7725SOL     OW33853   2.244   5.558   0.977 -0.6963  0.1760 -0.2122
 7725SOL    HW133854   2.249   5.605   1.066  0.1586 -1.8547  0.8438
 7725SOL    HW233855   2.329   5.575   0.926  0.6685 -2.1964  1.2087
 7726SOL     OW33856   0.978   8.275   4.885 -0.3905  0.1072 -0.0511
 7726SOL    HW133857   1.071   8.296   4.853  1.3716 -2.3934  3.1381
 7726SOL    HW233858   0.940   8.202   4.828  0.9163 -1.1280  0.6267
 7727SOL     OW33859   4.511   9.561   4.426  0.1077 -0.1536  0.2098
 7727SOL    HW133860   4.512   9.472   4.470  1.1832 -0.7983 -1.0814
 7727SOL    HW233861   4.593   9.572   4.370 -1.0467  0.7682 -1.3559
 7728SOL     OW33862   0.363   4.452   2.630 -0.3522 -0.2534  0.7627
 7728SOL    HW133863   0.330   4.378   2.690 -0.4781 -0.3922  0.5244
 7728SOL    HW233864   0.462   4.445   2.620 -0.6216 -1.7849 -1.1108
 7729SOL     OW33865   1.512   0.528   1.494  0.0261  0.3399 -0.6325
 7729SOL    HW133866   1.579   0.457   1.469  0.9241  0.8344  0.3506
 7729SOL    HW233867   1.548   0.618   1.471 -0.3492  0.6065 -0.1841
 7730SOL     OW33868   9.578   6.552   1.502 -0.0296 -0.0139 -0.0028
 7730SOL    HW133869   9.505   6.526   1.564 -0.3682  0.7523 -0.0715
 7730SOL    HW233870   9.541   6.609   1.428  0.2901 -1.2544 -1.1400
 7731SOL     OW33871   2.549   8.794   5.305 -0.6643 -0.7708  0.4889
 7731SOL    HW133872   2.560   8.747   5.217 -0.6538 -1.3258  0.7849
 7731SOL    HW233873   2.634   8.841   5.329 -0.6754 -0.5942  0.1899
 7732SOL     OW33874   3.858   4.176   0.183  0.0234 -0.9117 -0.4907
 7732SOL    HW133875   3.892   4.247   0.243 -0.3893 -0.3970 -0.8616
 7732SOL    HW233876   3.928   4.105   0.172  0.4433 -0.5539 -0.1515
 7733SOL     OW33877   3.408   8.726   5.360 -0.0170 -0.2637 -0.2107
 7733SOL    HW133878   3.359   8.696   5.278  0.6090 -0.8441 -0.3773
 7733SOL    HW233879   3.506   8.720   5.344  0.1095 -1.1081  0.8401
 7734SOL     OW33880   8.082   3.829   1.656  0.4533  0.0200 -0.2161
 7734SOL    HW133881   8.102   3.864   1.747 -0.2337  0.5342 -0.2642
 7734SOL    HW233882   7.991   3.788   1.654 -0.3998  1.8699 -1.1841
 7735SOL     OW33883   7.611   0.874   3.719  0.6708  0.0307  0.2259
 7735SOL    HW133884   7.525   0.899   3.764  1.8981  2.8047  1.1323
 7735SOL    HW233885   7.617   0.774   3.712 -1.2252 -0.3273  2.8941
 7736SOL     OW33886   3.280   3.244   0.105 -0.0647  0.0379  0.2677
 7736SOL    HW133887   3.325   3.155   0.097  2.9607  1.6216 -1.0201
 7736SOL    HW233888   3.216   3.256   0.030  0.0278 -0.7550  0.0581
 7737SOL     OW33889   0.095   8.201   5.319 -0.6264  1.2069 -0.6620
 7737SOL    HW133890   0.103   8.131   5.248  1.5942  1.1926 -0.4319
 7737SOL    HW233891   0.124   8.289   5.282  0.2700  1.2514  0.1488
 7738SOL     OW33892   5.441   0.860   3.525  0.2191  0.2020 -0.2130
 7738SOL    HW133893   5.402   0.855   3.432  1.4125  2.0699 -0.8314
 7738SOL    HW233894   5.409   0.943   3.570  0.3174 -0.2778  0.7623
 7739SOL     OW33895   7.340   8.774   2.207 -0.2394  0.1446 -0.4712
 7739SOL    HW133896   7.343   8.708   2.282 -0.7549  2.1240  1.3554
 7739SOL    HW233897   7.429   8.818   2.198 -0.2775  0.1553 -0.7688
 7740SOL     OW33898   6.134   9.096   2.151  0.5171  0.0477 -0.7871
 7740SOL    HW133899   6.114   9.125   2.058 -0.9599  1.0900 -0.1713
 7740SOL    HW233900   6.101   9.003   2.165  0.9354 -0.1896 -1.3633
 7741SOL     OW33901   9.941   7.314   4.741  0.0945  0.1222  0.2542
 7741SOL    HW133902  10.012   7.362   4.690  1.2701 -1.7746  0.0697
 7741SOL    HW233903   9.892   7.379   4.799  2.6414  1.2874  1.1669
 7742SOL     OW33904   5.253   0.318   0.994 -0.0876 -0.1188  0.1895
 7742SOL    HW133905   5.197   0.328   1.076 -3.1173 -3.4635 -1.3390
 7742SOL    HW233906   5.199   0.345   0.913  0.5154 -3.1210 -1.2846
 7743SOL     OW33907   3.261   3.641   3.168 -0.3641 -0.1176  0.4706
 7743SOL    HW133908   3.172   3.599   3.151 -0.5676  0.5124 -0.0227
 7743SOL    HW233909   3.288   3.695   3.089 -0.4182  1.2570  1.3762
 7744SOL     OW33910   8.094   1.267   4.981  0.2637 -0.2973  0.5406
 7744SOL    HW133911   8.152   1.348   4.986  0.9056 -0.6168 -1.4553
 7744SOL    HW233912   8.111   1.209   5.060  1.0859  0.6393  1.0645
 7745SOL     OW33913   3.491   8.481   2.751  0.4352  0.8950 -0.3202
 7745SOL    HW133914   3.545   8.425   2.815  0.8198  0.6486 -0.8605
 7745SOL    HW233915   3.394   8.471   2.773  0.4629 -0.3747 -0.7245
 7746SOL     OW33916   4.274   6.129   0.959  0.0403  0.0379  0.3862
 7746SOL    HW133917   4.350   6.166   0.905  0.5131 -2.8118 -0.9600
 7746SOL    HW233918   4.293   6.033   0.982 -2.6283 -0.3609  1.0489
 7747SOL     OW33919   2.773   1.898   3.419 -0.0644  0.6385  0.0976
 7747SOL    HW133920   2.832   1.839   3.364 -0.7090 -1.1680  1.2796
 7747SOL    HW233921   2.830   1.957   3.478  0.6509  3.3273 -3.1497
 7748SOL     OW33922   9.132   1.458   1.251 -0.1637  0.2352 -0.2093
 7748SOL    HW133923   9.140   1.360   1.238  0.7705  0.3693 -0.6654
 7748SOL    HW233924   9.043   1.489   1.215 -0.6391 -0.4928  0.3189
 7749SOL     OW33925   3.372   3.952   2.571 -1.0970  0.6586  0.1516
 7749SOL    HW133926   3.455   3.929   2.622 -2.6497 -1.8893  1.6836
 7749SOL    HW233927   3.384   3.928   2.474 -0.1809 -0.0883  0.4495
 7750SOL     OW33928   4.428   2.799   3.323 -0.1851 -0.0999  0.1184
 7750SOL    HW133929   4.506   2.771   3.266 -1.7829 -1.9418 -1.2111
 7750SOL    HW233930   4.411   2.729   3.392 -0.3544  0.5444  0.7277
 7751SOL     OW33931   0.902   0.252   2.741 -0.3843 -0.1377  0.0427
 7751SOL    HW133932   0.947   0.172   2.780 -1.5391  0.0811  1.8686
 7751SOL    HW233933   0.828   0.221   2.680 -0.6081 -0.4651  0.4752
 7752SOL     OW33934   1.757   8.384   1.445  0.0948 -0.1152  0.0276
 7752SOL    HW133935   1.710   8.470   1.467  1.4681  0.3234  1.3542
 7752SOL    HW233936   1.856   8.400   1.442  0.4135 -1.7611  0.8829
 7753SOL     OW33937   2.671   2.336   0.600 -0.1010 -0.0663 -0.5912
 7753SOL    HW133938   2.651   2.430   0.629  0.3919 -0.6660  1.8113
 7753SOL    HW233939   2.590   2.279   0.614  0.6493 -0.7178  1.2848
 7754SOL     OW33940   9.582   2.878   1.152  0.1949  0.6221 -0.4809
 7754SOL    HW133941   9.680   2.891   1.169 -0.0014  0.5741  0.7715
 7754SOL    HW233942   9.530   2.925   1.224 -0.6204 -3.4178  1.7279
 7755SOL     OW33943   2.848   9.483   5.350  0.0664  0.5876 -0.1120
 7755SOL    HW133944   2.881   9.449   5.262  0.8589  0.6174  0.1752
 7755SOL    HW233945   2.821   9.406   5.408  0.4185  0.5248 -0.0332
 7756SOL     OW33946   1.013   0.309   2.145  0.4769 -0.3286 -0.4132
 7756SOL    HW133947   0.978   0.295   2.053 -0.1950 -0.9555 -0.0743
 7756SOL    HW233948   0.941   0.287   2.211  0.6574  1.0044  0.2358
 7757SOL     OW33949   2.154   3.665   1.648  0.2131 -0.2322 -0.0617
 7757SOL    HW133950   2.136   3.568   1.663 -0.9109  0.0617  0.4967
 7757SOL    HW233951   2.096   3.698   1.574  0.2152  0.1406  0.1041
 7758SOL     OW33952   8.112   8.546   4.394 -0.7222  0.3054 -0.8433
 7758SOL    HW133953   8.097   8.576   4.488 -1.4228  2.9898 -1.7891
 7758SOL    HW233954   8.210   8.545   4.374 -0.6525  1.0568 -0.5166
 7759SOL     OW33955   3.356   7.585   2.964 -1.2627  0.0919  0.0933
 7759SOL    HW133956   3.341   7.674   3.006 -1.5884 -0.1255  0.4452
 7759SOL    HW233957   3.354   7.514   3.035 -0.2131 -0.1136 -0.0829
 7760SOL     OW33958   3.049   9.722   4.234  0.1429  0.6321 -0.2679
 7760SOL    HW133959   3.072   9.729   4.331  0.0522  1.9086 -0.3272
 7760SOL    HW233960   3.126   9.683   4.184 -0.4433 -1.6658  0.5657
 7761SOL     OW33961   4.659   1.221   2.699 -0.1466  0.1999 -0.6224
 7761SOL    HW133962   4.697   1.144   2.646  0.5499 -0.0420  0.2288
 7761SOL    HW233963   4.572   1.249   2.658  1.3123  1.2916 -3.0868
 7762SOL     OW33964   4.439   3.736   1.129 -0.7985  0.6497 -0.2853
 7762SOL    HW133965   4.361   3.677   1.149  0.6470 -0.9341  0.7447
 7762SOL    HW233966   4.454   3.798   1.206  0.1235 -0.3542  0.3610
 7763SOL     OW33967   9.749   9.952   3.388 -0.8566 -0.3827 -0.5895
 7763SOL    HW133968   9.701  10.016   3.328 -0.2183 -0.4149 -1.1382
 7763SOL    HW233969   9.801   9.888   3.333 -0.0273 -0.2277  0.0125
 7764SOL     OW33970   5.202   1.241   3.394  0.2518 -0.0351 -0.0789
 7764SOL    HW133971   5.170   1.265   3.302 -0.9029  0.3061  0.4036
 7764SOL    HW233972   5.226   1.324   3.444  0.9255 -0.2241 -0.0841
 7765SOL     OW33973   9.006   6.192   2.091  0.1377  0.5284 -0.2448
 7765SOL    HW133974   8.921   6.139   2.093  1.1729 -1.1670  0.1202
 7765SOL    HW233975   9.031   6.211   1.996 -0.5458  0.8702 -0.3580
 7766SOL     OW33976   2.061   7.081   4.433  0.1025 -0.2657  0.5673
 7766SOL    HW133977   1.982   7.141   4.447  0.2261  0.3160 -1.2034
 7766SOL    HW233978   2.032   6.986   4.444 -0.8609 -0.0634 -0.1508
 7767SOL     OW33979   9.500   8.594   2.867 -0.3274 -0.6699  0.4024
 7767SOL    HW133980   9.453   8.524   2.813 -0.8060 -0.5791  0.7048
 7767SOL    HW233981   9.441   8.625   2.941  0.0586 -0.2749  0.5478
 7768SOL     OW33982   2.387   2.318   3.883  0.1329  0.0316 -0.0693
 7768SOL    HW133983   2.479   2.349   3.860  0.1953 -0.5836 -0.6760
 7768SOL    HW233984   2.388   2.219   3.897 -0.8396 -0.2781 -2.1400
 7769SOL     OW33985   8.611   2.236   3.110 -0.2719 -0.1781  0.8143
 7769SOL    HW133986   8.589   2.325   3.149  1.7302  0.4793  0.4999
 7769SOL    HW233987   8.607   2.167   3.182  1.4179  0.7099  1.7884
 7770SOL     OW33988   6.141   7.358   2.701  0.2107  0.5609 -0.1870
 7770SOL    HW133989   6.079   7.428   2.736  1.5986  0.6782  2.1488
 7770SOL    HW233990   6.113   7.268   2.735  0.1256  0.3491 -0.8107
 7771SOL     OW33991   1.493   3.628   1.583 -0.4553 -0.2226 -0.0589
 7771SOL    HW133992   1.501   3.530   1.603  1.7032 -0.0283  0.1719
 7771SOL    HW233993   1.535   3.680   1.658 -0.4726  0.8409 -0.7838
 7772SOL     OW33994   6.787   8.184   2.688 -0.4474 -0.1800 -0.4734
 7772SOL    HW133995   6.811   8.272   2.648 -1.0164 -0.4571 -1.4243
 7772SOL    HW233996   6.688   8.171   2.685 -0.3810 -0.7980 -0.2205
 7773SOL     OW33997   7.081   6.256   2.027  0.0064 -0.2398 -0.5329
 7773SOL    HW133998   6.997   6.246   1.975 -1.0804 -1.3484  1.3757
 7773SOL    HW233999   7.098   6.172   2.079  0.2536  1.3655  2.0492
 7774SOL     OW34000   3.639   0.260   2.311 -0.0283 -0.3333 -0.4214
 7774SOL    HW134001   3.610   0.355   2.299 -0.2826 -0.5861 -1.9190
 7774SOL    HW234002   3.611   0.206   2.232 -0.0090 -1.6965  0.4699
 7775SOL     OW34003   0.649   1.960   1.433  0.2089 -0.2379  0.2654
 7775SOL    HW134004   0.551   1.937   1.433  0.0777  0.2457  2.4750
 7775SOL    HW234005   0.676   1.992   1.523  1.9252  1.7967 -0.9156
 7776SOL     OW34006   1.500   2.752   4.906 -0.5588 -0.6282  0.1470
 7776SOL    HW134007   1.551   2.827   4.865  0.2075 -0.7204  0.9254
 7776SOL    HW234008   1.407   2.783   4.930 -0.7850 -0.3960 -1.0358
 7777SOL     OW34009   3.753   5.269   1.657 -0.2871 -0.2746  0.2120
 7777SOL    HW134010   3.827   5.232   1.713  0.5066 -0.4230 -0.8980
 7777SOL    HW234011   3.671   5.282   1.713  0.3161 -0.9331  1.2639
 7778SOL     OW34012   0.605   0.632   2.428  0.0970 -0.3211 -0.5429
 7778SOL    HW134013   0.674   0.573   2.387  0.3442  0.5901 -1.4370
 7778SOL    HW234014   0.644   0.723   2.445 -1.5119  0.8853 -3.1150
 7779SOL     OW34015   3.115   5.244   0.244 -0.0260 -0.0149 -0.4770
 7779SOL    HW134016   3.025   5.219   0.281  0.0628  0.0345 -0.2273
 7779SOL    HW234017   3.184   5.181   0.280 -0.3347 -1.6572 -2.6635
 7780SOL     OW34018   7.975   9.092   5.000 -0.0170 -0.1977  0.6417
 7780SOL    HW134019   8.008   9.013   4.949  3.1538  0.8580  0.8910
 7780SOL    HW234020   8.005   9.084   5.096 -0.6587  0.7532  0.9264
 7781SOL     OW34021   3.820   9.212   3.872  0.4391 -0.5944  0.7103
 7781SOL    HW134022   3.851   9.156   3.795 -0.1936 -0.1807  0.1541
 7781SOL    HW234023   3.733   9.175   3.907  1.0327 -1.1542  1.6295
 7782SOL     OW34024   0.634   3.705   1.552 -0.0666 -0.1115  0.4322
 7782SOL    HW134025   0.624   3.631   1.486  0.6722  0.5700 -0.4626
 7782SOL    HW234026   0.559   3.701   1.618 -0.6802 -0.9586 -0.3031
 7783SOL     OW34027   8.958   9.582   4.978 -0.3027 -0.7928  0.4917
 7783SOL    HW134028   8.935   9.545   5.068 -2.0056 -0.3752  0.2357
 7783SOL    HW234029   8.881   9.569   4.916  1.6551 -3.1754 -1.5897
 7784SOL     OW34030   9.348   6.336   2.984 -0.2651 -0.2342  0.5335
 7784SOL    HW134031   9.291   6.255   2.969 -1.1472  0.5009 -0.1616
 7784SOL    HW234032   9.411   6.347   2.907  1.2094 -1.3469  1.5536
 7785SOL     OW34033   3.361   4.330   4.740  0.0478 -0.3527  0.2169
 7785SOL    HW134034   3.278   4.382   4.715  0.7433  0.5617 -0.2312
 7785SOL    HW234035   3.402   4.370   4.821  0.3783 -0.4371  0.0919
 7786SOL     OW34036   4.625   3.172   0.077 -0.0569 -0.1663 -0.3911
 7786SOL    HW134037   4.676   3.161   0.163  0.0277 -0.3089 -0.4587
 7786SOL    HW234038   4.527   3.167   0.095 -0.0067 -1.8163 -0.5262
 7787SOL     OW34039   2.323   1.698   2.300 -0.0392 -0.1876 -0.4095
 7787SOL    HW134040   2.316   1.699   2.400 -0.0200  0.0913 -0.4104
 7787SOL    HW234041   2.418   1.708   2.273 -0.1345  0.5665 -0.4683
 7788SOL     OW34042   7.647   0.891   2.879 -0.2197  0.1467  0.2997
 7788SOL    HW134043   7.631   0.913   2.783  1.3209 -0.7353 -0.1795
 7788SOL    HW234044   7.571   0.838   2.915 -0.9270  0.7098 -0.3547
 7789SOL     OW34045   3.753   8.650   2.920  0.1230  0.8370  0.7834
 7789SOL    HW134046   3.695   8.715   2.872  1.4167 -0.3162 -2.5130
 7789SOL    HW234047   3.718   8.557   2.906  1.4964  0.3319  0.5752
 7790SOL     OW34048   1.732   0.526   1.034 -0.5148 -0.6322 -0.1742
 7790SOL    HW134049   1.658   0.513   1.100 -1.3228  0.3643 -0.8690
 7790SOL    HW234050   1.707   0.484   0.947 -0.4811  0.1256 -0.5564
 7791SOL     OW34051   1.389   1.325   4.645  0.0839  0.8849  0.3364
 7791SOL    HW134052   1.300   1.328   4.601 -0.3062 -0.8968  0.9595
 7791SOL    HW234053   1.430   1.416   4.645 -0.9658  1.3707 -1.5157
 7792SOL     OW34054   8.310   8.602   4.001  0.4364  0.0151 -0.4040
 7792SOL    HW134055   8.395   8.559   4.034 -0.3457 -2.1983 -1.1564
 7792SOL    HW234056   8.244   8.605   4.075  0.3788 -0.4226 -0.4335
 7793SOL     OW34057   4.741   8.631   1.356 -0.8506 -0.3631 -0.3225
 7793SOL    HW134058   4.740   8.582   1.269 -0.9865 -1.2618  0.1718
 7793SOL    HW234059   4.779   8.722   1.343  0.6397 -1.0594 -1.0199
 7794SOL     OW34060   0.693   7.357   1.145 -0.0948 -0.0253  0.5118
 7794SOL    HW134061   0.743   7.442   1.164  1.8314 -0.4578 -2.2799
 7794SOL    HW234062   0.597   7.379   1.127  0.5890  1.7387 -1.2397
 7795SOL     OW34063   2.193   6.150   3.523 -0.2745  0.1437  0.3171
 7795SOL    HW134064   2.113   6.208   3.536  0.4426  1.5706 -1.3909
 7795SOL    HW234065   2.275   6.207   3.516  0.2996 -0.9554 -2.6029
 7796SOL     OW34066   8.660   3.590   3.334 -0.6939  0.0851 -0.5165
 7796SOL    HW134067   8.616   3.667   3.380  0.0995 -0.4974  1.2497
 7796SOL    HW234068   8.629   3.504   3.376  1.7380 -0.3532  0.4206
 7797SOL     OW34069   0.072   6.632   1.037 -0.0319 -0.0257  0.0180
 7797SOL    HW134070   0.074   6.534   1.022 -0.6411  0.0463 -0.6017
 7797SOL    HW234071   0.065   6.652   1.134 -0.0009 -0.5977  0.1368
 7798SOL     OW34072   2.949   4.740   5.163  0.1902  0.1098 -0.3313
 7798SOL    HW134073   3.005   4.695   5.093  2.4829 -0.3809  1.7680
 7798SOL    HW234074   2.893   4.672   5.210 -0.7002  0.3163 -1.0779
 7799SOL     OW34075   0.493   0.751   1.752  0.8352  0.2568 -0.3852
 7799SOL    HW134076   0.589   0.759   1.776  1.2678  1.6342 -2.4256
 7799SOL    HW234077   0.485   0.710   1.661 -0.5190 -0.1710 -0.0798
 7800SOL     OW34078   0.832   1.194   2.699  0.2593  0.1010  0.1731
 7800SOL    HW134079   0.849   1.277   2.646  0.0600  0.5182  0.7604
 7800SOL    HW234080   0.858   1.209   2.794  0.8146 -0.7207  0.1485
 7801SOL     OW34081   2.122   8.862   3.587 -0.0043 -0.2689 -0.1047
 7801SOL    HW134082   2.213   8.901   3.575 -1.1364  3.2062  1.8197
 7801SOL    HW234083   2.058   8.905   3.523 -0.5065 -1.9746 -0.7752
 7802SOL     OW34084   9.712   0.734   1.406 -0.5392  0.2747 -0.6429
 7802SOL    HW134085   9.778   0.658   1.403  0.4685  1.1787 -1.8129
 7802SOL    HW234086   9.737   0.802   1.338 -1.6110  1.5311  0.2013
 7803SOL     OW34087   7.125   0.322   2.417 -0.0727 -0.1885  0.2152
 7803SOL    HW134088   7.097   0.227   2.400  1.9769 -1.1895  2.1397
 7803SOL    HW234089   7.048   0.374   2.454 -0.8296 -1.4871  0.4848
 7804SOL     OW34090   2.682   6.460   0.046  0.2592 -0.5301 -0.3111
 7804SOL    HW134091   2.622   6.522  -0.005  0.6516 -0.6069 -0.8737
 7804SOL    HW234092   2.696   6.376  -0.007 -0.0762 -0.9968  0.3434
 7805SOL     OW34093   6.477   9.713   4.496  0.4595 -0.5772 -0.5153
 7805SOL    HW134094   6.555   9.771   4.518 -0.0179 -0.5999  1.3100
 7805SOL    HW234095   6.489   9.623   4.537 -0.2157 -0.8077 -0.8054
 7806SOL     OW34096   1.074   7.234   4.942 -0.6926 -0.2526  0.4176
 7806SOL    HW134097   1.153   7.267   4.995 -1.1687  2.2590 -0.3829
 7806SOL    HW234098   1.105   7.204   4.852 -0.6197  0.6681  0.1286
 7807SOL     OW34099   3.424   9.280   4.822  0.0320 -0.5267 -0.1385
 7807SOL    HW134100   3.509   9.234   4.798  0.5379  0.0395  0.5863
 7807SOL    HW234101   3.392   9.249   4.911  0.5823  0.8090  0.5385
 7808SOL     OW34102   3.335   0.471   2.580  0.1924 -0.0459  0.1498
 7808SOL    HW134103   3.388   0.547   2.543 -0.3918 -0.5854 -1.8783
 7808SOL    HW234104   3.389   0.387   2.573 -0.3917 -0.3600 -0.6476
 7809SOL     OW34105   8.995   0.842   2.835 -0.4560  0.0993 -0.0548
 7809SOL    HW134106   8.980   0.796   2.747 -1.1815  0.1198  0.0572
 7809SOL    HW234107   9.037   0.932   2.819 -1.9181  0.7123 -0.4791
 7810SOL     OW34108   1.888   9.002   2.179 -0.4268 -0.3783  0.7453
 7810SOL    HW134109   1.902   9.093   2.219 -0.6888  0.6685 -1.4699
 7810SOL    HW234110   1.936   8.934   2.234 -1.9839  0.7971  3.6892
 7811SOL     OW34111   7.322   9.528   1.883 -0.1355 -0.6366  0.0050
 7811SOL    HW134112   7.399   9.557   1.940  0.0990  0.2156 -0.7397
 7811SOL    HW234113   7.241   9.581   1.907 -0.0727 -0.3792 -0.3455
 7812SOL     OW34114   0.135   0.438   4.939 -0.6801 -0.4016 -0.3040
 7812SOL    HW134115   0.097   0.513   4.886 -2.1728 -0.3250  0.8208
 7812SOL    HW234116   0.167   0.473   5.028  0.7189 -0.7203 -0.6681
 7813SOL     OW34117   2.189   7.891   4.264  0.9457 -0.4617  0.4434
 7813SOL    HW134118   2.193   7.804   4.313  1.1444 -0.6377  0.1088
 7813SOL    HW234119   2.126   7.953   4.312  0.0352 -1.1301  0.1234
 7814SOL     OW34120   2.136   1.118   3.302  0.4201 -0.3594  0.1132
 7814SOL    HW134121   2.170   1.188   3.365  0.6885 -0.3553 -0.0345
 7814SOL    HW234122   2.191   1.035   3.313  0.4279 -0.3778 -0.0739
 7815SOL     OW34123   5.971   8.992   2.995  0.1012  0.2922  0.4778
 7815SOL    HW134124   6.065   9.021   3.014  0.6276 -1.7653  1.0581
 7815SOL    HW234125   5.915   9.007   3.077 -0.2781  2.1995 -0.0948
 7816SOL     OW34126   3.569   4.997   2.987  0.1853  0.1971 -0.1125
 7816SOL    HW134127   3.508   5.034   3.057 -0.5045 -0.7692 -0.1889
 7816SOL    HW234128   3.571   5.059   2.908 -2.2283 -0.6808 -0.9070
 7817SOL     OW34129   0.461   6.778   3.965  0.0823 -0.9869 -0.3243
 7817SOL    HW134130   0.491   6.846   4.032  1.5530 -0.8375 -1.1013
 7817SOL    HW234131   0.402   6.710   4.009  0.8972 -0.7954  1.0693
 7818SOL     OW34132   3.451   7.339   3.843 -0.1486  0.3671  0.5437
 7818SOL    HW134133   3.385   7.344   3.768  0.8525 -1.2382 -0.4662
 7818SOL    HW234134   3.425   7.403   3.915 -1.2961  1.7008 -1.0378
 7819SOL     OW34135   2.774   4.877   2.716 -0.1581  0.1150  0.3649
 7819SOL    HW134136   2.688   4.927   2.731 -1.5414 -1.5031 -1.9731
 7819SOL    HW234137   2.780   4.802   2.782 -1.0622 -0.4156 -0.1405
 7820SOL     OW34138   5.028   1.107   0.670 -0.3668 -0.1628  0.6410
 7820SOL    HW134139   4.984   1.196   0.655  1.2678  1.2517  3.8096
 7820SOL    HW234140   5.122   1.122   0.701  1.0822 -3.0815 -2.1608
 7821SOL     OW34141   4.090   2.420   2.936 -0.3465 -0.7132  0.1378
 7821SOL    HW134142   4.012   2.477   2.910  0.2000 -0.0835 -0.1321
 7821SOL    HW234143   4.175   2.470   2.918  0.0922 -1.0184  1.3436
 7822SOL     OW34144   7.994   8.640   0.303 -0.6018 -0.7725 -0.1509
 7822SOL    HW134145   8.066   8.640   0.372 -1.4471  2.2291  0.8193
 7822SOL    HW234146   7.918   8.699   0.333 -1.4891 -0.2916 -3.1190
 7823SOL     OW34147   0.105   8.622   2.730 -0.4814  0.6399 -0.1666
 7823SOL    HW134148   0.106   8.529   2.767 -0.2860  0.1621 -1.3546
 7823SOL    HW234149   0.011   8.654   2.723 -0.5592  0.4708  0.1088
 7824SOL     OW34150   1.361   4.315   0.567  0.4107  0.2412  0.2150
 7824SOL    HW134151   1.405   4.311   0.477 -0.5669  0.7103 -0.2939
 7824SOL    HW234152   1.320   4.406   0.581 -0.6019 -0.2520  0.5613
 7825SOL     OW34153   8.358   3.417   1.979  0.1015  0.4088  0.4585
 7825SOL    HW134154   8.452   3.432   1.949  0.6652 -1.1647  1.4175
 7825SOL    HW234155   8.317   3.344   1.925 -0.3941  0.7130  0.4186
 7826SOL     OW34156   2.373   9.613   3.512 -0.1848 -0.1800  0.3596
 7826SOL    HW134157   2.350   9.652   3.601 -0.1037  3.8641 -1.2568
 7826SOL    HW234158   2.473   9.611   3.501 -0.1957 -0.5816  0.3299
 7827SOL     OW34159   0.696   9.351   5.098  0.3312 -0.5086  0.3309
 7827SOL    HW134160   0.640   9.361   5.180  0.1451  0.2120  0.1232
 7827SOL    HW234161   0.673   9.423   5.032  2.7833  0.9500  0.9809
 7828SOL     OW34162   2.900   1.919   1.016  0.4399 -0.0155 -0.3569
 7828SOL    HW134163   2.879   1.824   1.038  0.0262 -0.1594 -1.3379
 7828SOL    HW234164   2.980   1.949   1.068 -0.0129 -0.5986  0.6839
 7829SOL     OW34165   9.528   6.739   3.455 -0.1138 -0.1729 -0.5299
 7829SOL    HW134166   9.569   6.812   3.510 -0.3810 -0.6701  0.3454
 7829SOL    HW234167   9.464   6.778   3.390 -0.3703  0.3623  0.0382
 7830SOL     OW34168   0.839   9.464   3.903 -0.5738 -0.0001  0.4582
 7830SOL    HW134169   0.744   9.437   3.915 -0.1392 -1.5667  0.5132
 7830SOL    HW234170   0.843   9.554   3.861 -2.0842 -0.3579 -0.4969
 7831SOL     OW34171   3.795   8.780   1.967 -0.4741  0.0781  0.6833
 7831SOL    HW134172   3.835   8.705   1.913 -0.3000 -1.3790  2.7680
 7831SOL    HW234173   3.867   8.846   1.989 -0.5394  0.6648 -0.8239
 7832SOL     OW34174   9.242   5.672   1.911  0.1491 -0.6210  0.1212
 7832SOL    HW134175   9.159   5.624   1.881  0.6948 -1.4830 -0.0480
 7832SOL    HW234176   9.224   5.720   1.997 -0.0958 -2.0959  0.9110
 7833SOL     OW34177   9.873   9.318   2.567  0.3332 -0.0363 -0.2948
 7833SOL    HW134178   9.781   9.306   2.531  0.3439 -0.2070 -0.2620
 7833SOL    HW234179   9.872   9.311   2.667  0.5253 -0.9423 -0.3543
 7834SOL     OW34180   6.879   7.541   4.090 -0.0287 -0.2171 -0.2396
 7834SOL    HW134181   6.806   7.493   4.041  1.1278  0.1915 -2.3798
 7834SOL    HW234182   6.913   7.617   4.035 -0.9142  2.3197  2.5435
 7835SOL     OW34183   6.599   9.353   1.115  0.7584  0.1016 -0.6304
 7835SOL    HW134184   6.653   9.341   1.032 -0.0619  1.1742 -1.3350
 7835SOL    HW234185   6.584   9.451   1.130 -1.2278 -0.1982 -0.6001
 7836SOL     OW34186   1.600   7.858   3.987  0.2925  0.2825  0.1578
 7836SOL    HW134187   1.646   7.787   4.040 -1.0972  1.5850  3.1860
 7836SOL    HW234188   1.667   7.927   3.959  0.8975  0.0115  0.9254
 7837SOL     OW34189   3.191   0.562   2.219  0.4776  0.1880 -0.1790
 7837SOL    HW134190   3.218   0.477   2.174  1.3624  1.0199 -1.2514
 7837SOL    HW234191   3.127   0.541   2.293  0.5435 -1.3893 -0.5369
 7838SOL     OW34192   0.885   4.400   1.059 -0.3422  0.0248  0.3785
 7838SOL    HW134193   0.936   4.455   1.125  0.0534 -0.6990  0.6805
 7838SOL    HW234194   0.937   4.318   1.038 -0.9403 -0.2393 -0.0583
 7839SOL     OW34195   2.535   1.404   4.397 -0.8627 -0.3324 -0.7796
 7839SOL    HW134196   2.543   1.308   4.423  0.9848  0.1342  0.4720
 7839SOL    HW234197   2.540   1.412   4.298  0.5000 -1.3963 -0.8058
 7840SOL     OW34198   8.954   1.832   4.805 -0.2710  0.1701  0.1143
 7840SOL    HW134199   8.993   1.834   4.898 -1.0042 -0.0557  0.4263
 7840SOL    HW234200   8.985   1.914   4.756 -0.4721  0.6762  0.8052
 7841SOL     OW34201   1.198   5.013   3.187 -0.1460 -0.1510  0.2306
 7841SOL    HW134202   1.145   4.954   3.127  1.1547 -1.4950  0.3802
 7841SOL    HW234203   1.205   5.104   3.146 -2.6029  0.0671  0.2650
 7842SOL     OW34204   3.160   7.814   4.883 -0.2326  0.8988 -0.9057
 7842SOL    HW134205   3.064   7.789   4.894  0.0419  0.5031  0.7167
 7842SOL    HW234206   3.192   7.785   4.792 -1.2463 -0.2527 -0.9067
 7843SOL     OW34207   5.647   7.080   3.285  0.0914  0.3662 -0.0032
 7843SOL    HW134208   5.621   6.990   3.319 -0.8420  1.0912  1.2747
 7843SOL    HW234209   5.570   7.143   3.297  0.3115  1.0560 -1.9804
 7844SOL     OW34210   4.303   5.117   2.103  0.0111 -0.0072  0.2996
 7844SOL    HW134211   4.254   5.186   2.050 -0.8014 -0.1923  0.8076
 7844SOL    HW234212   4.238   5.064   2.158  0.8718  0.3640  1.6942
 7845SOL     OW34213   3.194   8.671   1.728  0.4417  0.3339  0.1804
 7845SOL    HW134214   3.280   8.673   1.780  1.7220  1.4374 -1.9004
 7845SOL    HW234215   3.119   8.646   1.788  2.1382 -0.0577  2.1834
 7846SOL     OW34216   4.518   1.981   0.612  0.4787  0.0798 -0.4168
 7846SOL    HW134217   4.528   1.882   0.623  0.2029  0.0614 -0.3129
 7846SOL    HW234218   4.438   2.001   0.556 -1.4972  0.3196  2.3518
 7847SOL     OW34219   7.591   3.463   1.120 -0.6285 -0.6045  0.0425
 7847SOL    HW134220   7.587   3.392   1.190 -2.0454 -1.6047 -1.0192
 7847SOL    HW234221   7.606   3.552   1.163  0.0380 -1.3961  1.4752
 7848SOL     OW34222   0.747   3.276   3.102 -0.0597 -0.3200 -0.1187
 7848SOL    HW134223   0.752   3.375   3.089 -0.9822  0.0567  2.2065
 7848SOL    HW234224   0.777   3.230   3.018  0.1711  1.9144 -1.2987
 7849SOL     OW34225   2.291   5.053   3.493 -0.1951  0.3384 -0.3674
 7849SOL    HW134226   2.223   5.046   3.565  1.4026 -0.2451  1.1309
 7849SOL    HW234227   2.293   5.146   3.456 -0.5813  0.8041  0.7920
 7850SOL     OW34228   2.003   4.065   1.448 -0.9575  0.1787  0.1140
 7850SOL    HW134229   2.092   4.028   1.475 -0.5547  0.3365 -1.0008
 7850SOL    HW234230   2.003   4.164   1.464 -1.6570 -0.0994  2.0512
 7851SOL     OW34231   0.528   9.949   3.649  0.2371  0.2331 -0.1228
 7851SOL    HW134232   0.455   9.955   3.716  3.1773  0.1608  3.2109
 7851SOL    HW234233   0.546  10.040   3.611 -0.7572  0.4593 -0.0633
 7852SOL     OW34234   4.422   6.894   2.213 -0.2353  0.0784  0.2693
 7852SOL    HW134235   4.458   6.806   2.246  0.0545  0.7130  1.6645
 7852SOL    HW234236   4.466   6.969   2.263 -1.2126  0.9888 -0.2217
 7853SOL     OW34237   8.763   9.941   2.437 -0.8457 -0.3614  0.3651
 7853SOL    HW134238   8.785   9.921   2.532 -0.0641 -0.6664  0.1179
 7853SOL    HW234239   8.839   9.916   2.378 -1.6046 -0.8516 -0.4286
 7854SOL     OW34240   8.064   3.107   1.152  0.1004 -0.1413 -0.1035
 7854SOL    HW134241   8.128   3.138   1.082  0.7255 -2.4835 -0.6112
 7854SOL    HW234242   7.992   3.053   1.109 -0.1265 -0.6694  0.9358
 7855SOL     OW34243   6.248   6.992   2.204 -0.2743 -0.3203 -0.3495
 7855SOL    HW134244   6.169   6.973   2.146  0.0504  0.0672 -0.9281
 7855SOL    HW234245   6.245   6.934   2.286 -1.5262  0.2059 -0.0194
 7856SOL     OW34246   3.924   3.416   2.370 -0.5814  0.0009 -0.4100
 7856SOL    HW134247   3.848   3.357   2.341 -0.4635 -0.3176 -0.0831
 7856SOL    HW234248   3.992   3.360   2.418 -0.1662  0.2944 -0.6539
 7857SOL     OW34249   9.470   9.776   2.021 -0.0051 -0.3509  0.2435
 7857SOL    HW134250   9.548   9.806   2.076  1.2316 -3.1296  0.1284
 7857SOL    HW234251   9.483   9.806   1.926 -0.6298  1.8225  0.8208
 7858SOL     OW34252   8.426   9.322   4.939 -0.7217 -0.2277  0.6284
 7858SOL    HW134253   8.487   9.311   5.018  0.8519  0.8101 -0.3964
 7858SOL    HW234254   8.414   9.419   4.920 -1.0242 -0.4685 -0.4382
 7859SOL     OW34255   2.579   8.469   0.026 -0.3696  0.6797  0.3799
 7859SOL    HW134256   2.543   8.486  -0.066 -2.2527  0.0664  1.0050
 7859SOL    HW234257   2.554   8.377   0.056  1.0605  0.5267  1.1359
 7860SOL     OW34258   9.628   0.725   2.684  0.7814  0.1198  0.2932
 7860SOL    HW134259   9.637   0.666   2.764 -0.8165  0.0097  0.4037
 7860SOL    HW234260   9.710   0.781   2.674  1.1579 -0.1593  1.7654
 7861SOL     OW34261   3.061   3.463   3.522 -0.2132 -0.0490  0.1237
 7861SOL    HW134262   3.033   3.509   3.606 -1.9077  0.4830 -0.7099
 7861SOL    HW234263   2.988   3.469   3.454  0.9733 -0.8019 -1.2676
 7862SOL     OW34264   0.307   2.704   5.110 -0.5826 -0.7105 -0.4677
 7862SOL    HW134265   0.341   2.798   5.116 -0.0824 -0.9841  1.3158
 7862SOL    HW234266   0.351   2.657   5.034 -0.8131  0.4940 -1.3550
 7863SOL     OW34267   7.891   8.331   3.749 -0.1581  0.3014 -0.2159
 7863SOL    HW134268   7.821   8.305   3.681  1.3123  0.4017 -1.7858
 7863SOL    HW234269   7.875   8.425   3.779  0.3495  0.9437 -1.9192
 7864SOL     OW34270   5.858   0.889   1.322 -0.2705  0.3571  0.2963
 7864SOL    HW134271   5.929   0.846   1.266 -0.3546 -1.8468  1.8377
 7864SOL    HW234272   5.901   0.956   1.382  0.2083  0.6086 -0.3089
 7865SOL     OW34273   5.389   7.922   1.982 -0.3350 -0.0534 -0.6411
 7865SOL    HW134274   5.333   7.971   2.048 -0.4041  0.4458 -1.0675
 7865SOL    HW234275   5.335   7.900   1.901 -0.3163 -0.8740 -0.4351
 7866SOL     OW34276   1.180   5.752   1.633 -0.1262 -1.2237  0.1080
 7866SOL    HW134277   1.236   5.809   1.573 -0.7061  1.5969  2.1107
 7866SOL    HW234278   1.237   5.684   1.677  1.0695 -0.6302 -0.4975
 7867SOL     OW34279   9.134   9.550   2.172 -0.0641 -0.7060 -0.0368
 7867SOL    HW134280   9.080   9.483   2.122 -1.3241 -1.5810  2.4323
 7867SOL    HW234281   9.231   9.524   2.169 -0.2994 -1.5149 -0.8117
 7868SOL     OW34282   2.881   6.049   2.435  0.1692 -0.0079 -0.6211
 7868SOL    HW134283   2.853   5.953   2.436 -2.2436  0.5919 -3.6329
 7868SOL    HW234284   2.879   6.085   2.528  0.1844 -2.5900  0.4243
 7869SOL     OW34285   3.000   8.859   5.265  0.5812  0.0414 -0.0759
 7869SOL    HW134286   2.989   8.885   5.361 -0.8415  1.1112 -0.5026
 7869SOL    HW234287   2.974   8.763   5.253  2.7910 -0.7200  0.9561
 7870SOL     OW34288   7.564   8.428   1.229  0.1249  0.4990  0.9018
 7870SOL    HW134289   7.662   8.409   1.236  0.2365  0.0728 -1.3275
 7870SOL    HW234290   7.513   8.343   1.233  0.2127  0.1861 -2.8011
 7871SOL     OW34291   3.206   2.621   0.437 -0.3200  0.0973 -0.0438
 7871SOL    HW134292   3.246   2.624   0.345 -0.3873  2.1565 -0.0308
 7871SOL    HW234293   3.121   2.567   0.434 -0.1547 -0.1246 -1.1244
 7872SOL     OW34294   3.349   6.090   1.428 -0.1763 -0.3785 -0.6617
 7872SOL    HW134295   3.272   6.100   1.491  0.4035  0.0999 -0.0124
 7872SOL    HW234296   3.402   6.175   1.427  0.6788 -0.9067 -0.6516
 7873SOL     OW34297   9.417   0.091   3.642 -0.3426 -0.4289  0.6582
 7873SOL    HW134298   9.342   0.027   3.623  0.1750 -0.3530 -1.8449
 7873SOL    HW234299   9.416   0.164   3.575  1.3727  0.1276  1.2068
 7874SOL     OW34300   0.986   2.590   3.544 -0.0403  0.1727 -0.7379
 7874SOL    HW134301   1.001   2.634   3.455 -0.2758 -0.0689 -0.9007
 7874SOL    HW234302   0.895   2.549   3.544 -0.4236  1.0077 -0.0362
 7875SOL     OW34303   9.222   9.813   2.144  0.4591 -0.2268 -0.2275
 7875SOL    HW134304   9.312   9.804   2.102  0.8728 -0.0148  0.6184
 7875SOL    HW234305   9.179   9.722   2.150  0.9836 -0.4477  0.1977
 7876SOL     OW34306   2.964   5.716   1.386 -0.2743  0.0284  0.7357
 7876SOL    HW134307   2.913   5.773   1.321  0.2505  0.9277  1.1057
 7876SOL    HW234308   3.057   5.703   1.353 -0.0888  0.2596  1.1713
 7877SOL     OW34309   3.527   9.464   4.444  0.2751 -1.0151  0.3490
 7877SOL    HW134310   3.542   9.454   4.346  0.1735 -0.4917  0.2793
 7877SOL    HW234311   3.454   9.402   4.473 -1.2569  0.4348 -0.3195
 7878SOL     OW34312   9.292   1.812   1.682  0.3465  0.2453 -0.1153
 7878SOL    HW134313   9.209   1.758   1.668  0.4655 -0.4574  1.7237
 7878SOL    HW234314   9.370   1.764   1.642  0.1694 -0.0755 -0.0788
 7879SOL     OW34315   3.319   0.391   3.650 -0.4142  0.7578  0.0018
 7879SOL    HW134316   3.257   0.449   3.595  0.5884  2.1930  0.3720
 7879SOL    HW234317   3.355   0.444   3.726 -0.7638 -0.8585  1.3184
 7880SOL     OW34318   1.646   2.573   2.580 -0.1609  0.5860  0.6808
 7880SOL    HW134319   1.562   2.587   2.526  0.8645  0.8897 -0.8781
 7880SOL    HW234320   1.633   2.494   2.641 -1.2429  0.0216 -0.2471
 7881SOL     OW34321   4.070   8.081   3.574 -0.0755 -0.0689  0.4485
 7881SOL    HW134322   4.052   8.062   3.671  1.9106 -0.3163  0.8006
 7881SOL    HW234323   4.072   8.179   3.559 -1.8953 -0.0376  0.3444
 7882SOL     OW34324   0.635   3.253   1.454  0.1666  0.5934  0.0046
 7882SOL    HW134325   0.585   3.305   1.523  0.4973 -0.1846  0.8485
 7882SOL    HW234326   0.724   3.227   1.491 -0.1970 -0.9941 -0.2012
 7883SOL     OW34327   9.519   7.042   1.269 -0.2339 -0.5067 -0.4153
 7883SOL    HW134328   9.607   7.058   1.315 -0.9153  1.3037  0.2904
 7883SOL    HW234329   9.456   7.117   1.290 -1.8965 -1.6877 -1.0691
 7884SOL     OW34330   3.124   5.938   1.988  0.4129 -0.3835 -0.4992
 7884SOL    HW134331   3.145   5.841   1.994 -0.1085 -0.3601  2.2406
 7884SOL    HW234332   3.135   5.980   2.078 -2.4316  1.4492 -0.9579
 7885SOL     OW34333   1.959   6.278   1.194 -0.1720 -0.0202 -0.6350
 7885SOL    HW134334   1.962   6.340   1.116  0.1146 -0.6832 -1.1582
 7885SOL    HW234335   1.983   6.185   1.164 -0.8977 -0.4489  0.0726
 7886SOL     OW34336   1.247   5.533   3.173 -0.4439  0.3755  0.3499
 7886SOL    HW134337   1.281   5.446   3.208  0.2625  0.7434  0.5956
 7886SOL    HW234338   1.147   5.532   3.172 -0.4320 -0.7404 -0.4165
 7887SOL     OW34339   3.510   9.976   0.170 -0.1502 -0.1906 -0.4159
 7887SOL    HW134340   3.446   9.911   0.129  0.3110 -0.8139 -0.1589
 7887SOL    HW234341   3.594   9.929   0.196  0.4771  0.6485 -0.8890
 7888SOL     OW34342   0.094   7.619   2.690 -0.1110  0.1526  0.0081
 7888SOL    HW134343   0.075   7.709   2.730 -2.6056  0.5708 -1.9590
 7888SOL    HW234344   0.054   7.548   2.748  0.3973  0.4363  0.7064
 7889SOL     OW34345   3.797   7.983   3.192  0.2973  0.2245 -0.0209
 7889SOL    HW134346   3.753   8.053   3.248  0.0755 -0.0840  0.1885
 7889SOL    HW234347   3.736   7.957   3.117  0.8360  1.0680 -0.7546
 7890SOL     OW34348   3.407   4.925   1.239 -0.2348 -0.1109 -0.1337
 7890SOL    HW134349   3.394   4.955   1.334 -0.1076 -0.0363 -0.1398
 7890SOL    HW234350   3.498   4.885   1.230 -0.9937 -1.9942  0.2690
 7891SOL     OW34351   1.126   1.647   1.480  0.3726  0.1673  0.1755
 7891SOL    HW134352   1.115   1.737   1.438  2.9047 -0.0984 -1.1810
 7891SOL    HW234353   1.152   1.658   1.576 -1.1906  0.8458  0.5276
 7892SOL     OW34354   3.790   0.134   0.034  0.3165 -0.1800 -0.1350
 7892SOL    HW134355   3.835   0.086   0.109  1.5844 -0.0158 -0.7637
 7892SOL    HW234356   3.819   0.094  -0.053  2.7047  2.6906 -0.7673
 7893SOL     OW34357   3.520   4.545   2.172 -0.4804 -0.0777 -0.9130
 7893SOL    HW134358   3.539   4.451   2.142 -1.0626 -1.1220  1.9171
 7893SOL    HW234359   3.422   4.561   2.169 -0.4097  0.3325 -1.0121
 7894SOL     OW34360   0.052   0.026   1.511 -0.4660  0.6050 -0.0609
 7894SOL    HW134361   0.075   0.040   1.415  0.9330  0.9429  0.3102
 7894SOL    HW234362  -0.044   0.050   1.527 -0.3209  1.8930 -1.0821
 7895SOL     OW34363   2.312   1.294   3.927  0.0480 -0.3313 -0.1426
 7895SOL    HW134364   2.213   1.288   3.910 -0.3780 -1.4862  2.5426
 7895SOL    HW234365   2.338   1.389   3.939 -1.3916 -0.2487  2.6043
 7896SOL     OW34366   2.956   3.031   2.492 -0.3069 -0.2502 -0.0963
 7896SOL    HW134367   2.920   2.948   2.535 -0.2250 -0.3020 -0.1263
 7896SOL    HW234368   3.049   3.048   2.525  0.0195 -0.6812 -0.7833
 7897SOL     OW34369   2.151   9.130   4.437 -0.5883 -0.4926 -0.1589
 7897SOL    HW134370   2.229   9.183   4.471 -0.1458 -1.0788 -0.2451
 7897SOL    HW234371   2.104   9.088   4.515 -1.7629  1.1246  0.0299
 7898SOL     OW34372   4.089   7.851   3.393 -0.0253 -0.1308  0.4573
 7898SOL    HW134373   4.043   7.918   3.451 -0.7399  0.2211 -0.5023
 7898SOL    HW234374   4.174   7.891   3.358 -0.9500  0.6542 -0.9262
 7899SOL     OW34375   2.719   3.744   0.476 -0.0017  0.0633 -0.6651
 7899SOL    HW134376   2.720   3.653   0.435 -0.1029 -0.7563  1.0996
 7899SOL    HW234377   2.626   3.767   0.504  0.0970  0.5310 -0.7234
 7900SOL     OW34378   1.813   8.233   4.689  0.1954  0.2043 -0.0864
 7900SOL    HW134379   1.802   8.194   4.598 -0.4080  0.7664 -0.2557
 7900SOL    HW234380   1.840   8.329   4.682  1.0298  0.0054  0.3324
 7901SOL     OW34381   3.193   6.936   2.519 -0.5101 -0.1296  0.2793
 7901SOL    HW134382   3.192   6.840   2.544 -1.2584 -0.1461  0.1831
 7901SOL    HW234383   3.180   6.946   2.420  0.1963  0.0433  0.1968
 7902SOL     OW34384   1.638   7.042   1.851  0.1619 -0.2643 -0.2556
 7902SOL    HW134385   1.545   7.076   1.840  0.8092  0.8898 -2.4980
 7902SOL    HW234386   1.644   6.948   1.816  0.0394 -0.0233 -0.9191
 7903SOL     OW34387   0.400   0.608   0.581  0.0137  0.0372 -0.2739
 7903SOL    HW134388   0.365   0.702   0.579  0.7576  0.2973 -2.4797
 7903SOL    HW234389   0.489   0.607   0.627 -0.4228  0.2583  0.5793
 7904SOL     OW34390   3.618   9.106   3.073  0.5113 -0.2186  0.0748
 7904SOL    HW134391   3.556   9.070   3.003  2.1505  0.0764 -1.5703
 7904SOL    HW234392   3.675   9.032   3.109  0.6279 -0.1140  0.1039
 7905SOL     OW34393   1.480   0.219   4.845  0.0699  0.0103 -0.5633
 7905SOL    HW134394   1.524   0.305   4.818 -0.5344 -0.0599 -1.8064
 7905SOL    HW234395   1.394   0.209   4.795 -0.8398 -0.3675  1.0627
 7906SOL     OW34396   8.597   3.708   2.710 -0.2072 -0.4415 -0.0258
 7906SOL    HW134397   8.652   3.743   2.786  0.9333 -0.7546 -0.6772
 7906SOL    HW234398   8.620   3.611   2.695 -0.3864 -0.3708 -0.7812
 7907SOL     OW34399   8.373   1.347   3.369 -1.0832  0.0812 -0.1325
 7907SOL    HW134400   8.470   1.366   3.358 -1.3783  1.6050 -0.1996
 7907SOL    HW234401   8.357   1.305   3.458 -0.3412 -0.3796 -0.2146
 7908SOL     OW34402   7.584   9.421   5.082 -0.6184 -0.0381  0.3089
 7908SOL    HW134403   7.666   9.456   5.038 -0.2098  0.3524  1.3721
 7908SOL    HW234404   7.536   9.495   5.127  0.6539 -0.9259  3.2109
 7909SOL     OW34405   8.534   1.923   3.546 -0.2788 -0.2500  1.0649
 7909SOL    HW134406   8.484   1.976   3.477  0.2278 -1.0016  0.1147
 7909SOL    HW234407   8.629   1.914   3.518  0.0794 -0.0434  2.1747
 7910SOL     OW34408   9.851   0.763   4.899  0.4318 -0.6025  0.0923
 7910SOL    HW134409   9.830   0.676   4.855 -1.8581 -0.7915  1.4423
 7910SOL    HW234410   9.807   0.766   4.989  1.0177  1.6948  0.3366
 7911SOL     OW34411   3.316   1.981   0.087  0.6679  0.5828  0.9745
 7911SOL    HW134412   3.297   1.886   0.115  0.6223  0.3206  0.0711
 7911SOL    HW234413   3.331   2.037   0.168  1.3886 -0.3514  1.4974
 7912SOL     OW34414   1.947   6.105   3.762  0.4342  0.6951  0.0951
 7912SOL    HW134415   1.916   6.033   3.699  2.0677 -0.5268  0.6576
 7912SOL    HW234416   1.963   6.189   3.711 -1.2209  0.5920 -0.6230
 7913SOL     OW34417   6.857   7.099   2.616 -0.0564  0.1400 -1.2281
 7913SOL    HW134418   6.842   7.123   2.712  1.5877 -1.2235 -0.5989
 7913SOL    HW234419   6.805   7.161   2.558 -1.7844  0.4234  0.5688
 7914SOL     OW34420   4.010   0.855   5.209 -0.4812  0.1061  0.2728
 7914SOL    HW134421   3.943   0.918   5.169 -1.3013 -0.5381  0.5972
 7914SOL    HW234422   4.053   0.897   5.288  0.3894  0.9883 -0.6577
 7915SOL     OW34423   2.730   7.262   1.100  0.3585 -0.0518 -0.5832
 7915SOL    HW134424   2.639   7.301   1.086  0.4117  0.3633  0.2133
 7915SOL    HW234425   2.740   7.180   1.043 -0.3295  0.1842 -1.0486
 7916SOL     OW34426   8.835   9.653   5.314  0.0675 -0.3151  0.0843
 7916SOL    HW134427   8.911   9.624   5.256 -0.7252 -1.7728 -0.2391
 7916SOL    HW234428   8.790   9.573   5.354 -0.5101  0.5913  1.2899
 7917SOL     OW34429   1.733   6.108   5.515 -0.1475 -0.1909 -0.7411
 7917SOL    HW134430   1.813   6.049   5.523  0.1321  0.1060 -1.3107
 7917SOL    HW234431   1.655   6.064   5.560  0.7566  0.3397  1.4013
 7918SOL     OW34432   1.081   0.529   4.322 -0.2985 -0.0797  0.0032
 7918SOL    HW134433   1.114   0.558   4.233 -0.2868  0.1333  0.0774
 7918SOL    HW234434   1.010   0.459   4.310 -0.1941 -0.1557 -0.1682
 7919SOL     OW34435   0.877   3.206   1.498 -0.0989 -0.6389 -0.3212
 7919SOL    HW134436   0.956   3.203   1.436  0.1200 -0.1680 -0.0668
 7919SOL    HW234437   0.906   3.178   1.589 -0.1153  0.0137 -0.1125
 7920SOL     OW34438   1.261   1.276   0.706 -0.3333 -0.0842 -0.1850
 7920SOL    HW134439   1.172   1.231   0.706 -0.4825  0.1994 -1.3244
 7920SOL    HW234440   1.325   1.223   0.760 -0.4640 -1.7429 -1.6306
 7921SOL     OW34441   8.780   0.132   5.470  0.2990  0.1451  0.2700
 7921SOL    HW134442   8.756   0.047   5.423 -0.2364 -0.1784  1.1112
 7921SOL    HW234443   8.719   0.205   5.440  0.0543 -0.0228  0.3633
 7922SOL     OW34444   1.468   4.534   2.760  0.1158 -0.0540 -0.0908
 7922SOL    HW134445   1.409   4.615   2.765 -0.0193 -0.2730  2.2980
 7922SOL    HW234446   1.535   4.537   2.835  0.4788 -1.8683 -0.3258
 7923SOL     OW34447   5.102   3.599   1.068 -0.5802 -0.4242  0.1665
 7923SOL    HW134448   5.018   3.547   1.081 -0.5738 -0.9619 -1.7345
 7923SOL    HW234449   5.148   3.567   0.985 -0.2764  2.2701 -0.7317
 7924SOL     OW34450   3.885   7.279   3.220 -0.3317 -0.4028  0.5567
 7924SOL    HW134451   3.831   7.363   3.227 -0.7062 -0.7260  1.7197
 7924SOL    HW234452   3.829   7.207   3.179 -0.3806 -0.3952  0.6094
 7925SOL     OW34453   8.805   7.703   2.121 -0.6947 -0.3332  0.3223
 7925SOL    HW134454   8.832   7.612   2.153  1.6021 -0.0883 -0.8599
 7925SOL    HW234455   8.823   7.770   2.193 -0.3422 -0.4884  0.3758
 7926SOL     OW34456   4.445   6.834   2.555  0.1266 -0.2849 -0.1228
 7926SOL    HW134457   4.506   6.913   2.543 -1.2715  0.8177 -0.0179
 7926SOL    HW234458   4.405   6.809   2.467  0.4780 -0.8207 -0.1363
 7927SOL     OW34459   8.376   3.042   3.200  0.2628  0.2736 -0.4195
 7927SOL    HW134460   8.307   3.025   3.130 -1.0133  0.4664  0.7856
 7927SOL    HW234461   8.439   3.113   3.168  1.1404 -1.2890 -2.3533
 7928SOL     OW34462   3.373   6.149   2.910 -0.0624 -0.1326 -0.3541
 7928SOL    HW134463   3.421   6.230   2.945  1.1764 -0.9020 -0.2359
 7928SOL    HW234464   3.276   6.156   2.932  0.1929  0.8615  0.5134
 7929SOL     OW34465   0.036   4.810   1.774 -0.4953  0.7476 -0.7180
 7929SOL    HW134466   0.002   4.904   1.775 -0.8911  0.5975 -0.4494
 7929SOL    HW234467  -0.038   4.747   1.754 -0.5251  0.3610  0.5571
 7930SOL     OW34468   1.119   8.959   2.731 -0.0133 -0.2675 -0.2037
 7930SOL    HW134469   1.105   9.033   2.666  0.0050  0.9719  1.1790
 7930SOL    HW234470   1.038   8.900   2.733  0.2366 -0.6947 -1.7938
 7931SOL     OW34471   0.435   2.415   0.802  0.1546 -0.3464  0.3245
 7931SOL    HW134472   0.402   2.386   0.892 -0.5560 -5.6618 -1.4506
 7931SOL    HW234473   0.534   2.404   0.798  0.2653  0.5237  0.6633
 7932SOL     OW34474   8.528   0.626   1.535  1.0253  0.2166  0.2903
 7932SOL    HW134475   8.625   0.603   1.539  1.2113  0.7806 -0.6955
 7932SOL    HW234476   8.482   0.594   1.617  1.4824 -2.6951 -0.5369
 7933SOL     OW34477   3.252   9.902   3.915 -0.2219 -0.5134 -0.0290
 7933SOL    HW134478   3.214   9.936   4.001 -0.1470 -1.6643  0.4599
 7933SOL    HW234479   3.268   9.980   3.853  0.1530  0.3733  1.1610
 7934SOL     OW34480   5.462   7.128   3.007  0.3214  0.6812  0.0497
 7934SOL    HW134481   5.465   7.084   3.096  0.8242  0.1152 -0.2404
 7934SOL    HW234482   5.530   7.201   3.003  0.8972  0.1425 -0.1548
 7935SOL     OW34483   9.196   8.734   1.179  0.1092 -0.6817 -0.3707
 7935SOL    HW134484   9.250   8.685   1.112  0.4248 -1.1212  0.2041
 7935SOL    HW234485   9.156   8.670   1.244  0.9707 -0.1388  0.7128
 7936SOL     OW34486   6.801   8.674   2.711 -0.6735 -0.1538 -0.5792
 7936SOL    HW134487   6.790   8.745   2.642  0.9895 -0.4043 -1.1345
 7936SOL    HW234488   6.714   8.659   2.758 -0.7103  3.3400  0.6226
 7937SOL     OW34489   8.619   9.153   5.252  0.3300  0.3083  0.0072
 7937SOL    HW134490   8.619   9.124   5.156 -0.8786  1.1715 -0.2732
 7937SOL    HW234491   8.668   9.240   5.260  0.0468  0.4595  0.0964
 7938SOL     OW34492   3.025   1.127   1.926 -0.1631 -0.1669 -0.1803
 7938SOL    HW134493   3.082   1.208   1.908 -1.4760  0.6016 -0.9204
 7938SOL    HW234494   3.057   1.083   2.010  1.2260  0.5210 -0.3173
 7939SOL     OW34495   8.934   4.837   2.810  0.0758  0.2071 -0.1856
 7939SOL    HW134496   8.983   4.871   2.729  1.4102  0.8301  0.8433
 7939SOL    HW234497   8.995   4.842   2.889 -0.6462 -2.0132  0.5359
 7940SOL     OW34498   8.562   1.671   4.282  0.2193 -0.5973  0.0335
 7940SOL    HW134499   8.604   1.760   4.265 -0.3583 -0.3379 -0.0556
 7940SOL    HW234500   8.511   1.642   4.201  0.5491 -1.0905  0.0003
 7941SOL     OW34501   3.445   2.670   4.669 -0.0205 -0.0585  0.7210
 7941SOL    HW134502   3.398   2.659   4.582 -0.5520 -1.3497  1.1597
 7941SOL    HW234503   3.496   2.756   4.669  0.0123 -0.0733 -0.8681
 7942SOL     OW34504   2.172   2.286   4.360  0.4592  0.0183  0.5016
 7942SOL    HW134505   2.242   2.319   4.297  0.2512  0.1226  0.3255
 7942SOL    HW234506   2.214   2.225   4.427  0.8647  0.6902  0.8716
 7943SOL     OW34507   8.569   8.876   3.068 -0.1950  0.3131 -0.0376
 7943SOL    HW134508   8.529   8.801   3.016  0.8552  0.0521 -0.4920
 7943SOL    HW234509   8.616   8.839   3.148  1.2708  0.3503 -0.8485
 7944SOL     OW34510   5.616   9.797   3.431 -0.2826 -0.6609  0.3584
 7944SOL    HW134511   5.608   9.888   3.472 -1.5105 -0.1517 -0.9316
 7944SOL    HW234512   5.644   9.731   3.500  1.2019  0.7966  1.1895
 7945SOL     OW34513   9.852   9.930   4.422 -0.1308  0.0174 -0.0809
 7945SOL    HW134514   9.778   9.966   4.366 -1.2963  0.2452  1.5819
 7945SOL    HW234515   9.888   9.846   4.380 -1.1045  0.0854 -1.0650
 7946SOL     OW34516   8.407   9.619   1.691 -1.0191 -0.0568 -0.6625
 7946SOL    HW134517   8.353   9.660   1.764  0.8841  0.8181  0.3007
 7946SOL    HW234518   8.503   9.614   1.719 -0.6920 -2.3527 -1.9823
 7947SOL     OW34519   8.955   4.315   2.920 -0.4475  0.0207 -0.1681
 7947SOL    HW134520   8.992   4.402   2.889 -0.0635  1.0484  3.0384
 7947SOL    HW234521   9.029   4.248   2.930 -0.3714  0.1166 -0.0897
 7948SOL     OW34522   2.064   9.885   4.657 -0.1667  0.3914 -0.7642
 7948SOL    HW134523   2.089   9.981   4.670  2.3325 -0.1059 -1.5787
 7948SOL    HW234524   2.141   9.827   4.685 -1.9290 -1.4254  0.4421
 7949SOL     OW34525   2.879   0.358   3.504  0.3089 -0.3668  0.2555
 7949SOL    HW134526   2.969   0.397   3.523  0.0764  0.2082  0.1736
 7949SOL    HW234527   2.836   0.408   3.429  0.0362 -0.8223  0.1064
 7950SOL     OW34528   0.651   7.104   0.331  0.0963 -0.1631  0.2035
 7950SOL    HW134529   0.727   7.126   0.270  0.0103  0.5254  0.3452
 7950SOL    HW234530   0.668   7.143   0.422 -0.3694 -0.1159  0.2708
 7951SOL     OW34531   3.727   2.269   4.668 -0.5125  0.4717  0.6937
 7951SOL    HW134532   3.669   2.227   4.738 -0.8848  0.8420  0.6112
 7951SOL    HW234533   3.740   2.205   4.592  0.5069 -0.2171  1.4254
 7952SOL     OW34534   0.947   2.773   4.380  0.7784 -0.0908  0.4302
 7952SOL    HW134535   1.002   2.848   4.418 -0.6205  1.7373 -1.1219
 7952SOL    HW234536   1.008   2.700   4.349  2.2395  1.2007  0.2244
 7953SOL     OW34537   5.745   8.714   1.508 -0.2944  1.0221  0.2180
 7953SOL    HW134538   5.746   8.707   1.408 -0.7783 -0.2677  0.2913
 7953SOL    HW234539   5.823   8.663   1.545 -1.0872  0.0411  0.5644
 7954SOL     OW34540   8.199   8.383   0.482 -0.4905 -0.0802 -0.2929
 7954SOL    HW134541   8.212   8.356   0.578 -0.2464 -1.7349 -0.7785
 7954SOL    HW234542   8.125   8.330   0.442 -1.0594  1.1130 -0.8304
 7955SOL     OW34543   2.413   4.719   1.283  0.0419 -0.4955 -0.4113
 7955SOL    HW134544   2.502   4.764   1.289 -0.0944 -0.1870 -0.6359
 7955SOL    HW234545   2.411   4.659   1.203 -0.2403  0.1629 -0.9085
 7956SOL     OW34546   1.705   3.062   1.724 -0.0206  0.0246 -0.0270
 7956SOL    HW134547   1.665   3.084   1.635 -2.0747  1.7224  1.2676
 7956SOL    HW234548   1.795   3.104   1.731 -0.4690  1.1510 -0.7604
 7957SOL     OW34549   3.164   8.525   0.467 -0.2651  0.2743 -0.0442
 7957SOL    HW134550   3.187   8.474   0.550  1.9827 -0.2400 -0.9302
 7957SOL    HW234551   3.114   8.465   0.404 -1.3036  0.4353  0.6270
 7958SOL     OW34552   2.660   9.940   3.372  0.0001 -0.2334  0.2373
 7958SOL    HW134553   2.573   9.989   3.369 -2.0512 -3.7768  0.6070
 7958SOL    HW234554   2.712   9.969   3.452 -0.7274  1.9687 -0.0380
 7959SOL     OW34555   2.043   8.386   1.455  0.2588  0.0775 -0.5220
 7959SOL    HW134556   2.082   8.359   1.367 -0.4572  0.0091 -0.8174
 7959SOL    HW234557   2.113   8.434   1.509  1.0274 -0.8423 -0.6846
 7960SOL     OW34558   8.503   9.669   2.553 -0.2850 -0.1386 -0.1175
 7960SOL    HW134559   8.561   9.751   2.545 -0.2607 -0.1284  0.1248
 7960SOL    HW234560   8.409   9.693   2.529  0.0499 -0.4655 -1.8193
 7961SOL     OW34561   2.839   3.249   4.657  0.0117 -0.2853 -0.4995
 7961SOL    HW134562   2.822   3.155   4.687 -1.7371 -0.1278 -0.9470
 7961SOL    HW234563   2.753   3.290   4.628  1.0280  0.9458 -1.7806
 7962SOL     OW34564   8.566   2.572   0.881 -0.3345  0.6920  0.0382
 7962SOL    HW134565   8.601   2.576   0.788 -1.9777  0.4340 -0.6116
 7962SOL    HW234566   8.513   2.488   0.893  0.9238  0.0849  1.6011
 7963SOL     OW34567   9.912   9.670   2.446  0.2437 -0.0095  0.6213
 7963SOL    HW134568   9.953   9.672   2.537  0.5729 -1.3283  0.5181
 7963SOL    HW234569   9.816   9.646   2.453  0.3904 -0.6165  0.5882
 7964SOL     OW34570   9.037   3.067   3.470  0.3904  0.0948  1.1505
 7964SOL    HW134571   9.107   2.996   3.478  0.7794  0.2445 -0.7308
 7964SOL    HW234572   9.065   3.147   3.523  0.8170 -0.4778  1.8038
 7965SOL     OW34573   9.696   2.326   2.644  0.1651  0.2892  0.1617
 7965SOL    HW134574   9.624   2.360   2.704  1.1100 -0.6901  1.8886
 7965SOL    HW234575   9.755   2.402   2.616  1.1293  0.4358  2.4485
 7966SOL     OW34576   5.980   9.312   1.724 -0.0385 -0.0347 -0.5545
 7966SOL    HW134577   6.047   9.374   1.683 -0.1320  0.0360 -0.6008
 7966SOL    HW234578   5.889   9.332   1.687 -0.4271  1.2795  1.0316
 7967SOL     OW34579   4.212   8.239   3.266  0.2817  0.7200  0.1597
 7967SOL    HW134580   4.154   8.168   3.227  1.9287  0.7359 -2.4868
 7967SOL    HW234581   4.251   8.207   3.352 -0.5463 -0.8236 -0.0235
 7968SOL     OW34582   4.555   8.833   4.201 -0.2434 -0.0800  0.1732
 7968SOL    HW134583   4.472   8.873   4.163 -0.9567 -1.0920  0.6544
 7968SOL    HW234584   4.579   8.880   4.285  0.5222  1.2000 -0.7363
 7969SOL     OW34585   1.598   1.209   3.093 -0.0707  0.3621  0.1018
 7969SOL    HW134586   1.498   1.204   3.093 -0.0086 -0.9315  0.5947
 7969SOL    HW234587   1.632   1.193   3.001 -0.2299 -1.1205  0.2952
 7970SOL     OW34588   2.368   2.572   0.107 -0.1985 -0.4794  0.2128
 7970SOL    HW134589   2.295   2.557   0.174  0.2609  0.6183  0.9825
 7970SOL    HW234590   2.351   2.516   0.027 -2.1510  0.0853  0.1913
 7971SOL     OW34591   8.271   9.778   2.435 -0.0322  0.2356  0.0298
 7971SOL    HW134592   8.234   9.808   2.523 -1.5855  0.2439 -0.6073
 7971SOL    HW234593   8.197   9.740   2.379  1.1979 -1.1026 -0.7209
 7972SOL     OW34594   2.325   5.297   2.513 -0.4350  0.4576  0.3641
 7972SOL    HW134595   2.355   5.289   2.418  1.2242  0.5087  0.8799
 7972SOL    HW234596   2.401   5.325   2.570 -1.6038  1.1553  1.6138
 7973SOL     OW34597   1.382   1.623   3.114  0.7289  0.1693  0.5932
 7973SOL    HW134598   1.445   1.546   3.125 -0.1639 -1.0050 -2.1344
 7973SOL    HW234599   1.305   1.596   3.057  0.1847  2.9568 -0.0988
 7974SOL     OW34600   1.668   3.900   2.670  0.3018 -0.0916 -0.3838
 7974SOL    HW134601   1.682   3.997   2.692 -1.1265  0.1918 -0.7268
 7974SOL    HW234602   1.715   3.844   2.739  0.9779  0.8328 -0.0725
 7975SOL     OW34603   0.584   1.870   4.344 -0.4531  0.3181 -0.0513
 7975SOL    HW134604   0.507   1.894   4.403  0.2405  0.4373  0.8328
 7975SOL    HW234605   0.555   1.868   4.249 -1.5318  0.4001  0.2736
 7976SOL     OW34606   2.058   3.626   5.166 -0.2502 -0.2122 -0.1401
 7976SOL    HW134607   2.141   3.618   5.110 -0.8821  1.9905 -1.4628
 7976SOL    HW234608   2.039   3.539   5.210  2.7354 -0.7686  0.1403
 7977SOL     OW34609   2.717   3.339   5.537 -0.0625  0.1203 -0.0644
 7977SOL    HW134610   2.762   3.278   5.603  0.1650 -0.8194 -1.0935
 7977SOL    HW234611   2.676   3.286   5.464 -1.3680  1.0982 -0.0651
 7978SOL     OW34612   3.873   9.701   5.045 -0.3417  0.5630 -0.0172
 7978SOL    HW134613   3.934   9.643   5.098 -2.6238  0.3607  2.5013
 7978SOL    HW234614   3.856   9.786   5.095 -2.0431  0.6407 -0.6832
 7979SOL     OW34615   0.810   6.753   4.148 -0.0790 -0.1392  0.3579
 7979SOL    HW134616   0.848   6.686   4.211 -0.1372  0.0934  0.6407
 7979SOL    HW234617   0.746   6.709   4.086 -1.0977 -0.1079  1.3841
 7980SOL     OW34618   4.038   8.918   3.749  0.4043  0.7415 -0.1433
 7980SOL    HW134619   4.033   9.014   3.723 -0.1641  1.0096  0.9047
 7980SOL    HW234620   3.982   8.863   3.687  0.0945  1.1934 -0.2604
 7981SOL     OW34621   1.623   9.198   2.309 -0.0451  0.8376  0.8154
 7981SOL    HW134622   1.540   9.155   2.275  0.5203 -0.4989  1.1049
 7981SOL    HW234623   1.605   9.295   2.330 -1.3515  0.7064  0.2990
 7982SOL     OW34624   2.253   3.264   4.779 -0.3108  0.0748  0.5748
 7982SOL    HW134625   2.352   3.268   4.767 -0.0691 -1.5200  1.8116
 7982SOL    HW234626   2.215   3.195   4.717 -0.3813 -0.7014  1.4673
 7983SOL     OW34627   7.308   0.655   2.587  0.6624 -0.1400 -0.5141
 7983SOL    HW134628   7.343   0.744   2.558 -2.5994  0.9314 -1.3213
 7983SOL    HW234629   7.321   0.589   2.513 -2.5750  1.2450 -2.4217
 7984SOL     OW34630   1.933   7.414   4.017 -0.7211 -0.5889  0.3623
 7984SOL    HW134631   2.016   7.442   3.968 -2.4817  2.1692 -1.1643
 7984SOL    HW234632   1.926   7.314   4.017  2.2793 -0.8503  0.0345
 7985SOL     OW34633   9.106   1.016   5.048 -0.6022  0.1181  0.3075
 7985SOL    HW134634   9.097   0.938   5.109 -0.5489  0.1463  0.3516
 7985SOL    HW234635   9.041   1.008   4.973 -0.0124 -0.4071 -0.1549
 7986SOL     OW34636   3.662   0.504   3.497 -0.1106 -0.5489  0.2895
 7986SOL    HW134637   3.615   0.580   3.542 -1.2970 -0.5428 -0.9304
 7986SOL    HW234638   3.628   0.418   3.534 -1.5677 -0.5601 -1.0277
 7987SOL     OW34639   1.258   7.034   3.944  0.1807 -0.5386 -0.0254
 7987SOL    HW134640   1.164   7.053   3.969  0.6259  1.6464  0.0823
 7987SOL    HW234641   1.272   6.935   3.937 -2.0899 -0.8730 -0.0137
 7988SOL     OW34642   8.686   8.232   2.469 -0.0739  0.4844  0.3298
 7988SOL    HW134643   8.735   8.318   2.455  1.1609 -0.5176 -1.7866
 7988SOL    HW234644   8.587   8.247   2.457  0.2384  1.3886 -1.2936
 7989SOL     OW34645   2.402   2.377   0.376  0.6049 -0.1461 -0.6103
 7989SOL    HW134646   2.427   2.473   0.390 -1.9666  0.6603 -1.4025
 7989SOL    HW234647   2.417   2.326   0.460  1.1877  1.1193  0.0649
 7990SOL     OW34648   8.230   6.351   2.047 -0.1517  0.2246  0.1654
 7990SOL    HW134649   8.251   6.259   2.013  0.4856  0.2984  0.3686
 7990SOL    HW234650   8.241   6.353   2.146 -2.0768 -0.0090  0.4048
 7991SOL     OW34651   4.160   1.399   0.009 -0.0745  0.5352 -0.3099
 7991SOL    HW134652   4.123   1.457   0.081  0.9069  0.0611  0.5920
 7991SOL    HW234653   4.142   1.303   0.031  0.0899  0.3942 -0.7769
 7992SOL     OW34654   3.666   7.076   3.272  0.3217 -0.0043 -0.8289
 7992SOL    HW134655   3.645   7.052   3.367  0.7221 -0.7532 -0.9286
 7992SOL    HW234656   3.667   6.993   3.217 -1.7395  0.6011 -1.8470
 7993SOL     OW34657   1.915   0.691   3.836 -0.6921  0.0545 -0.4847
 7993SOL    HW134658   1.886   0.771   3.888  0.9176  1.2723 -1.4070
 7993SOL    HW234659   1.897   0.608   3.889 -0.2827  1.1678  1.4489
 7994SOL     OW34660   0.796   7.595   4.036 -0.0084  0.0095  0.5260
 7994SOL    HW134661   0.754   7.530   3.974 -1.2967  0.8789  0.4583
 7994SOL    HW234662   0.865   7.649   3.987 -0.1312 -0.1655  0.1626
 7995SOL     OW34663   2.257   3.556   4.475  0.0170 -0.5588  0.2391
 7995SOL    HW134664   2.338   3.614   4.481 -0.6531  0.3405  0.6672
 7995SOL    HW234665   2.233   3.524   4.567 -0.6890 -0.0369  0.2311
 7996SOL     OW34666   0.520   6.820   1.666  0.4351  0.5067 -0.0924
 7996SOL    HW134667   0.541   6.729   1.703  0.4935  0.4986 -0.1436
 7996SOL    HW234668   0.604   6.874   1.661  0.7437 -0.0989 -1.8502
 7997SOL     OW34669   2.926   5.300   0.564 -0.1811 -0.5230 -0.2066
 7997SOL    HW134670   2.858   5.310   0.491 -0.5105 -1.1966  0.0093
 7997SOL    HW234671   2.976   5.215   0.551  2.1243  0.9775 -1.6140
 7998SOL     OW34672   5.346   9.765   2.144  0.2878 -0.1592 -0.0765
 7998SOL    HW134673   5.342   9.865   2.132  1.5013 -0.1137 -0.2151
 7998SOL    HW234674   5.348   9.743   2.241  0.9087 -0.0072 -0.0563
 7999SOL     OW34675   1.818   4.487   0.973  0.2085  0.4488  0.0227
 7999SOL    HW134676   1.832   4.534   0.886  0.3300  0.2857 -0.0460
 7999SOL    HW234677   1.775   4.398   0.957  0.7873  0.1613  0.0811
 8000SOL     OW34678   3.320   4.202   4.020  0.4363  0.0864  0.3203
 8000SOL    HW134679   3.409   4.157   4.027  0.7059  0.4978 -0.4216
 8000SOL    HW234680   3.306   4.260   4.101  1.1874  0.6355  0.0635
 8001SOL     OW34681   8.777   1.644   4.734  0.2796 -0.4272  0.2274
 8001SOL    HW134682   8.772   1.630   4.635 -1.0017 -0.3853  0.2787
 8001SOL    HW234683   8.841   1.719   4.754 -2.2134  2.0496 -0.8106
 8002SOL     OW34684   7.939   0.360   3.935 -0.6478  0.3774  0.5127
 8002SOL    HW134685   7.847   0.391   3.913 -1.1489  0.2906  2.4252
 8002SOL    HW234686   8.002   0.389   3.862 -2.5395 -1.6453 -2.0187
 8003SOL     OW34687   4.524   2.336   4.482  0.2433 -0.1364  0.0076
 8003SOL    HW134688   4.502   2.392   4.402 -0.8952 -0.3906  0.1334
 8003SOL    HW234689   4.529   2.394   4.563 -2.7153 -0.3978  0.4540
 8004SOL     OW34690   1.183   3.310   0.703 -0.0253  0.5926  0.5760
 8004SOL    HW134691   1.134   3.387   0.664 -1.0723 -0.2804  0.1489
 8004SOL    HW234692   1.137   3.279   0.786  0.9812  1.0765  1.3362
 8005SOL     OW34693   4.830   3.575   0.276 -0.3098  0.2500 -0.1941
 8005SOL    HW134694   4.884   3.553   0.195  1.4736  2.6116  0.3218
 8005SOL    HW234695   4.879   3.545   0.358  0.5862  2.9492  0.3106
 8006SOL     OW34696   6.047   8.309   1.951 -0.3849  0.8566 -0.2201
 8006SOL    HW134697   5.996   8.390   1.921 -0.7719 -0.2340 -2.5937
 8006SOL    HW234698   5.984   8.235   1.971  0.1698 -0.2605 -2.4352
 8007SOL     OW34699   0.071   1.448   3.063  0.3109  0.2692 -0.0217
 8007SOL    HW134700  -0.015   1.397   3.068 -0.3257  0.9490 -3.0013
 8007SOL    HW234701   0.065   1.529   3.123 -2.9305  2.7603 -3.4715
 8008SOL     OW34702   0.110   1.172   0.661 -0.1326  0.7790 -0.4514
 8008SOL    HW134703   0.114   1.119   0.746 -0.7193  0.5416 -0.5662
 8008SOL    HW234704   0.190   1.231   0.654  1.5893 -1.6268 -1.3394
 8009SOL     OW34705   8.474   7.885   2.215  0.3245 -0.1657  0.2149
 8009SOL    HW134706   8.404   7.954   2.194 -0.4087 -0.6991  0.8712
 8009SOL    HW234707   8.442   7.795   2.184 -0.0486 -0.6963  2.0853
 8010SOL     OW34708   3.941   5.243   0.761  0.2273  0.1261 -0.2496
 8010SOL    HW134709   3.911   5.152   0.735 -1.1429  0.2435  0.8952
 8010SOL    HW234710   3.870   5.288   0.815  2.0806  0.7497  1.7453
 8011SOL     OW34711   2.822   8.633   4.444 -0.6571  0.1716 -0.3990
 8011SOL    HW134712   2.910   8.674   4.419 -1.1371  1.5385  0.0995
 8011SOL    HW234713   2.834   8.534   4.458  0.5309  0.1381 -1.5380
 8012SOL     OW34714   2.613   0.420   5.487  0.4064  0.5549  0.3635
 8012SOL    HW134715   2.572   0.331   5.508  1.5302  0.1251  0.8244
 8012SOL    HW234716   2.570   0.491   5.541 -1.2069  0.4514 -0.7563
 8013SOL     OW34717   3.199   7.974   3.948 -0.4848  0.3510 -0.0948
 8013SOL    HW134718   3.279   7.984   3.889  0.2473  1.1878  1.0131
 8013SOL    HW234719   3.117   8.002   3.899  0.2514  2.0717 -0.3727
 8014SOL     OW34720   8.220   0.340   0.192 -0.1420 -0.0600 -0.2756
 8014SOL    HW134721   8.267   0.285   0.124 -0.1011 -0.8489  0.3823
 8014SOL    HW234722   8.183   0.422   0.149  0.1426 -0.4004 -1.1783
 8015SOL     OW34723   7.557   0.724   0.759  0.3251  0.3929  0.0758
 8015SOL    HW134724   7.517   0.794   0.817  1.4817 -1.5118  3.2623
 8015SOL    HW234725   7.605   0.656   0.815  0.4068 -2.2197 -2.9814
 8016SOL     OW34726   5.989   0.136   2.498  0.0863 -0.0155 -0.6133
 8016SOL    HW134727   5.954   0.044   2.517  1.6612 -0.1981  1.6202
 8016SOL    HW234728   5.919   0.189   2.450 -1.4299 -1.8543 -0.5058
 8017SOL     OW34729   8.682   0.306   1.813 -0.7826  0.6865  0.6093
 8017SOL    HW134730   8.684   0.225   1.872 -0.8464  0.5820  0.4683
 8017SOL    HW234731   8.608   0.297   1.746  1.3376 -0.7051 -1.6238
 8018SOL     OW34732   3.500   8.494   3.539  0.1547  0.9178  0.4655
 8018SOL    HW134733   3.401   8.502   3.535  0.1493 -0.2217 -2.6073
 8018SOL    HW234734   3.542   8.584   3.525 -0.4153  1.3441  1.4592
 8019SOL     OW34735   9.865   5.732   1.597 -0.0369 -0.2882 -0.5033
 8019SOL    HW134736   9.948   5.769   1.640  0.0089 -1.6296  0.6015
 8019SOL    HW234737   9.804   5.695   1.667 -1.2842  0.0946 -1.3650
 8020SOL     OW34738   3.721   1.843   2.532  0.6755 -0.3153 -0.0463
 8020SOL    HW134739   3.714   1.840   2.433  0.1481 -0.1194 -0.0160
 8020SOL    HW234740   3.743   1.936   2.562 -1.4327  0.1439  0.1541
 8021SOL     OW34741   0.522   7.568   2.004  0.1804  0.0346  0.0765
 8021SOL    HW134742   0.554   7.581   1.910 -0.0976  2.0362  0.2376
 8021SOL    HW234743   0.423   7.577   2.007  0.2469  0.6351  0.6579
 8022SOL     OW34744   4.771   0.869   0.200 -0.3768  0.0395 -0.0617
 8022SOL    HW134745   4.703   0.799   0.180  0.1868 -0.0615 -1.6366
 8022SOL    HW234746   4.844   0.866   0.132  0.3519  1.2603  0.6430
 8023SOL     OW34747   0.141   9.440   2.536  0.3039  0.1924 -0.0323
 8023SOL    HW134748   0.053   9.392   2.542 -0.2401  1.0932 -0.6542
 8023SOL    HW234749   0.152   9.478   2.445  1.0308  0.6925  0.2579
 8024SOL     OW34750   0.829   8.627   5.237  0.6935  0.5657 -0.0080
 8024SOL    HW134751   0.881   8.545   5.210 -0.2624 -0.3784  0.9515
 8024SOL    HW234752   0.870   8.666   5.319 -0.3652 -0.4457  1.0145
 8025SOL     OW34753   8.949   8.701   4.208  0.4156  0.2721  0.2454
 8025SOL    HW134754   8.955   8.763   4.130 -0.5602 -1.0248 -0.8800
 8025SOL    HW234755   8.956   8.754   4.293 -1.0210  2.0068 -0.6731
 8026SOL     OW34756   1.532   6.872   4.116 -0.1445  0.0519 -0.0085
 8026SOL    HW134757   1.506   6.951   4.172 -0.2007 -1.5433  2.2898
 8026SOL    HW234758   1.450   6.821   4.089 -0.1128  0.7651 -1.5239
 8027SOL     OW34759   1.289   8.384   1.828  0.7038 -0.1554  0.4487
 8027SOL    HW134760   1.279   8.352   1.733  3.0080  0.3944 -0.0241
 8027SOL    HW234761   1.336   8.472   1.828 -2.4438  1.5931  1.9468
 8028SOL     OW34762   1.969   4.747   2.533 -0.2082 -0.0741  0.2475
 8028SOL    HW134763   1.925   4.741   2.443  0.4119 -0.2430 -0.0461
 8028SOL    HW234764   2.037   4.821   2.533  1.8739 -1.9447 -0.3358
 8029SOL     OW34765   1.568   1.806   1.076  0.5761  0.0976  0.8261
 8029SOL    HW134766   1.646   1.825   1.016  0.2615  0.0581  0.3966
 8029SOL    HW234767   1.600   1.762   1.160  1.1860  1.4323  1.3112
 8030SOL     OW34768   8.280   8.593   2.953  0.1557 -0.0169  0.5411
 8030SOL    HW134769   8.222   8.564   2.877  1.2751 -1.9389  0.3760
 8030SOL    HW234770   8.264   8.534   3.032 -0.8456  1.8375  1.7466
 8031SOL     OW34771   3.639   3.768   2.170 -0.1275 -0.1848 -0.3945
 8031SOL    HW134772   3.733   3.801   2.179 -0.7119  0.7799  2.7668
 8031SOL    HW234773   3.638   3.669   2.181  0.7374 -0.4562 -2.5193
 8032SOL     OW34774   1.039   9.132   1.029  0.4767 -0.2874  0.0806
 8032SOL    HW134775   1.061   9.150   1.124  0.3222  1.3532 -0.1864
 8032SOL    HW234776   1.104   9.065   0.992  0.3759 -1.1273  1.3922
 8033SOL     OW34777   6.952   9.873   1.463 -0.0075  0.2252  0.0628
 8033SOL    HW134778   6.890   9.921   1.524  0.0524 -0.3209  0.5613
 8033SOL    HW234779   7.004   9.939   1.408  0.3774  0.7448  1.0384
 8034SOL     OW34780   9.608   7.622   3.086  0.3406  0.1230 -0.4739
 8034SOL    HW134781   9.614   7.718   3.115 -0.3069  0.0809 -0.2067
 8034SOL    HW234782   9.691   7.574   3.116  0.5282  0.5265 -0.3367
 8035SOL     OW34783   4.244   3.136   0.364 -0.0907 -0.2980  0.1619
 8035SOL    HW134784   4.301   3.216   0.387 -2.3423  1.6718 -0.8590
 8035SOL    HW234785   4.287   3.085   0.290 -1.2086  3.1026 -2.9822
 8036SOL     OW34786   8.755   0.590   1.158  0.1629  0.5846 -0.0423
 8036SOL    HW134787   8.684   0.660   1.147 -0.3669 -0.0626 -0.7689
 8036SOL    HW234788   8.797   0.571   1.069  0.7686  0.4681  0.2699
 8037SOL     OW34789   9.072   1.844   4.155 -0.2000  0.0047  0.5517
 8037SOL    HW134790   9.005   1.792   4.102  0.3882 -0.4439  0.2470
 8037SOL    HW234791   9.080   1.937   4.117 -0.1672 -0.1492  0.1770
 8038SOL     OW34792   9.041   0.867   5.282 -0.0466  0.4394 -0.3468
 8038SOL    HW134793   9.061   0.942   5.346 -0.5484 -1.5746  2.2250
 8038SOL    HW234794   8.943   0.851   5.279 -0.0122  0.3987 -1.5465
 8039SOL     OW34795   2.961   5.852   3.395  0.3009 -0.1707  0.4979
 8039SOL    HW134796   2.907   5.774   3.426 -0.5129  0.1460 -0.0898
 8039SOL    HW234797   2.908   5.936   3.409  0.9052  0.2104  0.5093
 8040SOL     OW34798   1.721   4.298   2.190 -0.2445  0.5868 -0.2668
 8040SOL    HW134799   1.644   4.343   2.146 -0.8908  0.1498  0.4124
 8040SOL    HW234800   1.805   4.321   2.141 -1.0583 -0.6661 -2.3239
 8041SOL     OW34801   0.016   7.232   3.550 -0.2944 -0.3744 -0.1545
 8041SOL    HW134802   0.021   7.179   3.466  1.4546  0.3353 -0.5010
 8041SOL    HW234803   0.033   7.329   3.530  1.9840 -0.4564  1.2629
 8042SOL     OW34804   0.586   2.543   5.092 -0.0245 -0.2702 -0.8015
 8042SOL    HW134805   0.643   2.607   5.040  0.9638  0.0364  0.6318
 8042SOL    HW234806   0.629   2.525   5.181 -0.6626 -2.3530 -0.8898
 8043SOL     OW34807   4.057   1.171   0.085 -0.4657  0.0988 -0.1532
 8043SOL    HW134808   3.974   1.160   0.140 -0.0607 -0.3585  0.3687
 8043SOL    HW234809   4.043   1.127  -0.004 -0.1822 -1.4818  0.5636
 8044SOL     OW34810   7.008   1.862   2.975 -0.1817 -0.2350 -0.4429
 8044SOL    HW134811   7.068   1.820   2.908  0.7569 -0.6495  0.6557
 8044SOL    HW234812   7.023   1.820   3.065 -0.0254  1.6696  0.4335
 8045SOL     OW34813   2.449   0.913   1.779  0.1379  0.4968 -0.3068
 8045SOL    HW134814   2.530   0.930   1.722  0.3329  0.2966 -0.0898
 8045SOL    HW234815   2.469   0.938   1.874  0.5348 -1.2096  0.0816
 8046SOL     OW34816   8.741   1.165   1.374  0.6275  0.1410 -0.3062
 8046SOL    HW134817   8.812   1.155   1.443  1.3225  0.2265 -0.9980
 8046SOL    HW234818   8.760   1.104   1.298 -1.4236 -1.6984  0.6250
 8047SOL     OW34819   2.410   4.601   0.820  0.6906 -0.1083  0.4175
 8047SOL    HW134820   2.423   4.554   0.733  0.9545  0.2356  0.2711
 8047SOL    HW234821   2.328   4.658   0.816  1.5016  1.0387 -0.1003
 8048SOL     OW34822   2.859   9.432   2.616  0.3265 -0.5459 -0.1809
 8048SOL    HW134823   2.894   9.345   2.652 -1.4345 -0.2425  2.4677
 8048SOL    HW234824   2.776   9.414   2.563  1.6599 -0.7606 -2.2395
 8049SOL     OW34825   7.137   8.843   4.425 -0.3598  0.3360  0.3136
 8049SOL    HW134826   7.234   8.845   4.449  0.0926 -1.6978 -1.1689
 8049SOL    HW234827   7.122   8.901   4.345  0.3717 -2.2244 -1.7529
 8050SOL     OW34828   8.860   9.397   2.567  0.3194  0.2215 -0.5920
 8050SOL    HW134829   8.840   9.332   2.641  0.1876 -0.4136 -1.1789
 8050SOL    HW234830   8.801   9.377   2.489  0.6236  0.7491 -0.9588
 8051SOL     OW34831   7.867   2.701   1.903  0.4988  0.3353  0.1307
 8051SOL    HW134832   7.790   2.744   1.950  0.5232 -0.2564  0.7101
 8051SOL    HW234833   7.949   2.710   1.958  0.3478 -1.1246  0.6216
 8052SOL     OW34834   4.193   2.272   3.411  0.1262  0.6633 -0.1032
 8052SOL    HW134835   4.130   2.336   3.367 -0.9696  1.3883  2.4615
 8052SOL    HW234836   4.157   2.245   3.500  0.5877 -3.5077 -1.0540
 8053SOL     OW34837   8.877   9.894   0.983  0.0604  0.4724 -0.8990
 8053SOL    HW134838   8.804   9.959   0.965 -2.1066 -1.5095  0.4736
 8053SOL    HW234839   8.957   9.942   1.020 -1.3202  2.3671 -0.3182
 8054SOL     OW34840   8.600   8.657   2.611 -0.0633  0.4258  0.1275
 8054SOL    HW134841   8.605   8.612   2.700 -0.0505  1.0945  0.4721
 8054SOL    HW234842   8.540   8.605   2.551  1.4641 -1.0966 -0.1118
 8055SOL     OW34843   2.690   7.265   3.266  0.1595  0.0622 -0.3600
 8055SOL    HW134844   2.669   7.295   3.173 -1.7859 -1.4816 -0.4514
 8055SOL    HW234845   2.738   7.178   3.263 -2.0532 -1.2164  0.1026
 8056SOL     OW34846   9.817   8.553   2.213  0.2640 -0.1644  0.0108
 8056SOL    HW134847   9.894   8.617   2.207 -0.4998  0.9589  1.7179
 8056SOL    HW234848   9.816   8.511   2.304 -0.7725 -0.6282 -0.2136
 8057SOL     OW34849   0.748   7.648   5.046 -0.3075 -0.6035 -0.5621
 8057SOL    HW134850   0.753   7.591   5.128 -0.9370 -0.4355 -0.4078
 8057SOL    HW234851   0.655   7.648   5.010 -0.3259  0.3753 -0.5259
 8058SOL     OW34852   7.522   1.517   2.518  0.7655 -0.2102 -0.0062
 8058SOL    HW134853   7.448   1.576   2.549  1.2048 -0.6246  1.8673
 8058SOL    HW234854   7.603   1.571   2.501  0.4248  0.0626 -0.7996
 8059SOL     OW34855   8.704   9.648   0.959  0.4908  0.1498 -0.0147
 8059SOL    HW134856   8.759   9.729   0.938  0.6878 -0.1757 -0.7811
 8059SOL    HW234857   8.665   9.656   1.050 -0.9355  1.9240 -0.7477
 8060SOL     OW34858   6.683   9.643   2.636 -0.2784  0.8688  0.3631
 8060SOL    HW134859   6.615   9.573   2.660 -1.5886  2.4576  1.3447
 8060SOL    HW234860   6.775   9.603   2.642 -1.1114 -1.5864 -1.8896
 8061SOL     OW34861   5.221   0.368   0.521  0.5657  0.0175 -0.2391
 8061SOL    HW134862   5.160   0.429   0.472 -0.4876 -1.0686 -0.2904
 8061SOL    HW234863   5.313   0.374   0.482  0.4988  1.6257 -0.1717
 8062SOL     OW34864   3.283   9.244   1.826 -0.3179 -0.2834  0.0031
 8062SOL    HW134865   3.351   9.288   1.766 -1.0111 -0.6742 -1.0829
 8062SOL    HW234866   3.294   9.145   1.821 -2.4236 -0.4470 -1.9394
 8063SOL     OW34867   8.613   0.888   4.494 -0.4769 -0.1581 -0.5490
 8063SOL    HW134868   8.616   0.906   4.592 -0.3968  2.7402 -1.0294
 8063SOL    HW234869   8.552   0.810   4.476  0.2185 -1.2995  1.8362
 8064SOL     OW34870   8.888   9.574   1.304  0.1688  0.4645  0.3349
 8064SOL    HW134871   8.840   9.653   1.342  1.1079 -0.5818  3.9364
 8064SOL    HW234872   8.982   9.599   1.283 -0.0240  0.7432 -0.2120
 8065SOL     OW34873   3.033   7.703   2.164 -0.2726 -0.2258  0.0335
 8065SOL    HW134874   2.949   7.697   2.218 -0.8737  2.1034 -0.5878
 8065SOL    HW234875   3.112   7.682   2.223 -1.0131  1.0142  1.5019
 8066SOL     OW34876   0.216   0.019   5.187 -0.5099 -0.5989 -0.6167
 8066SOL    HW134877   0.131   0.068   5.207 -1.5402 -1.4116 -2.8354
 8066SOL    HW234878   0.281   0.080   5.144 -0.2680 -0.1696  0.3586
 8067SOL     OW34879   8.694   8.501   0.333 -0.7874 -0.6468  0.2659
 8067SOL    HW134880   8.732   8.489   0.242  0.6893 -2.5501  1.0964
 8067SOL    HW234881   8.735   8.435   0.396 -3.3494 -0.8312  1.8475
 8068SOL     OW34882   1.054   0.698   2.856  0.7598 -0.1565 -0.3332
 8068SOL    HW134883   1.068   0.601   2.833  1.2585  0.3857 -2.3944
 8068SOL    HW234884   1.132   0.751   2.824  1.2177  0.7418  2.1739
 8069SOL     OW34885   4.219   8.891   5.430  0.1450  0.0786  0.4662
 8069SOL    HW134886   4.270   8.826   5.486  2.7399  2.0739  0.5067
 8069SOL    HW234887   4.155   8.942   5.487 -3.2306 -3.6130  0.1325
 8070SOL     OW34888   9.187   9.151   4.985  0.1043 -0.3359 -0.0320
 8070SOL    HW134889   9.195   9.069   5.041 -3.5749  0.3804  1.6867
 8070SOL    HW234890   9.141   9.129   4.899 -0.6396 -0.1401  0.3127
 8071SOL     OW34891   3.269   4.957   3.111 -0.4411 -0.0059 -0.0372
 8071SOL    HW134892   3.328   5.033   3.139 -0.9127  1.0523 -1.8523
 8071SOL    HW234893   3.176   4.972   3.146 -1.1610  1.5845 -2.4927
 8072SOL     OW34894   0.805   3.026   5.408  0.1450 -0.3194 -0.2822
 8072SOL    HW134895   0.890   3.047   5.455 -0.0992 -1.5994  0.7229
 8072SOL    HW234896   0.818   2.948   5.347  0.0963  0.4670 -1.3248
 8073SOL     OW34897   5.242   9.308   2.547 -0.2505  0.0962 -0.6180
 8073SOL    HW134898   5.173   9.290   2.477 -0.0935  0.0507 -0.7636
 8073SOL    HW234899   5.306   9.377   2.513 -1.8706  2.2402  0.6268
 8074SOL     OW34900   9.246   0.309   1.397 -0.3344 -0.5002  0.2488
 8074SOL    HW134901   9.160   0.263   1.419 -1.1230  1.3881  1.1508
 8074SOL    HW234902   9.283   0.354   1.478  0.7304 -0.0321 -0.4762
 8075SOL     OW34903   4.958   0.484   2.872 -0.5187  0.1296 -0.3511
 8075SOL    HW134904   5.027   0.432   2.821 -2.9305 -0.5091 -3.0757
 8075SOL    HW234905   5.004   0.551   2.931  2.4550 -1.2293 -1.0251
 8076SOL     OW34906   1.266   7.405   5.060 -0.5595  0.1063  0.2534
 8076SOL    HW134907   1.245   7.471   4.988  0.5021  0.6429  0.4205
 8076SOL    HW234908   1.206   7.421   5.138  0.8337  2.0473  0.9828
 8077SOL     OW34909   2.182   8.060   0.249 -0.2469  0.6507 -0.0694
 8077SOL    HW134910   2.202   7.996   0.175  0.4480  2.0575 -1.1166
 8077SOL    HW234911   2.268   8.098   0.284 -0.5443 -0.2370  1.6841
 8078SOL     OW34912   0.665   6.982   2.434  0.1195  0.1991 -0.6165
 8078SOL    HW134913   0.757   6.987   2.473 -0.4707  0.9626  0.7025
 8078SOL    HW234914   0.630   7.075   2.420 -0.7680 -0.0905 -0.3513
 8079SOL     OW34915   2.341   6.472   3.164  0.0482 -0.9905  0.1976
 8079SOL    HW134916   2.284   6.547   3.130  1.1766  0.2627  1.0061
 8079SOL    HW234917   2.360   6.407   3.090 -1.4679 -0.8291 -0.3544
 8080SOL     OW34918   9.616   9.342   2.146  0.6296  0.3345  0.3066
 8080SOL    HW134919   9.642   9.264   2.089  1.6844  1.2187 -0.4289
 8080SOL    HW234920   9.698   9.388   2.179  0.0120  0.4721  1.6663
 8081SOL     OW34921   2.759   0.935   2.876  0.0905 -0.1782  0.1012
 8081SOL    HW134922   2.854   0.947   2.847 -0.3722  2.7789 -0.3517
 8081SOL    HW234923   2.699   0.933   2.796 -0.4643  0.5156  0.4912
 8082SOL     OW34924   2.311   0.550   2.530  0.3919 -0.7843 -0.1456
 8082SOL    HW134925   2.394   0.493   2.527 -0.8251 -2.6954  0.7474
 8082SOL    HW234926   2.251   0.525   2.455 -0.4089 -1.1125  0.5912
 8083SOL     OW34927   2.332   0.642   3.972 -0.3995 -0.6324 -0.3681
 8083SOL    HW134928   2.295   0.607   4.058  0.1003  0.5163  0.3233
 8083SOL    HW234929   2.431   0.626   3.969 -0.5791 -1.6523 -1.2172
 8084SOL     OW34930   6.584   1.314   4.223 -0.3240  0.4304  0.2620
 8084SOL    HW134931   6.491   1.352   4.219  0.0196  1.2678  0.1668
 8084SOL    HW234932   6.580   1.215   4.209 -1.0748  0.6474 -1.1404
 8085SOL     OW34933   8.816   0.725   4.971 -0.4074  0.2178  0.3353
 8085SOL    HW134934   8.836   0.766   5.059  1.0381 -0.4621  0.3364
 8085SOL    HW234935   8.717   0.728   4.954 -0.7870 -0.3764  2.3358
 8086SOL     OW34936   9.538   9.866   0.999 -0.4116 -0.3666 -0.3554
 8086SOL    HW134937   9.636   9.884   1.012 -0.2374 -1.2928 -0.3390
 8086SOL    HW234938   9.525   9.769   0.976 -1.3080 -0.2019 -0.5491
 8087SOL     OW34939   3.269   3.285   4.723 -0.2410  0.0974  0.0516
 8087SOL    HW134940   3.229   3.348   4.657  0.4107 -1.0611 -1.4627
 8087SOL    HW234941   3.206   3.209   4.740  0.5757 -0.8275 -1.0226
 8088SOL     OW34942   3.433   4.636   0.258  0.7100  0.2244  0.1173
 8088SOL    HW134943   3.520   4.629   0.210  0.5962 -2.8101  0.2970
 8088SOL    HW234944   3.360   4.595   0.203 -0.2509  0.8185  0.9107
 8089SOL     OW34945   3.963   2.680   2.002  0.2121  0.1524  0.0743
 8089SOL    HW134946   3.897   2.726   1.942 -0.6450 -0.6443  0.3982
 8089SOL    HW234947   3.914   2.631   2.074  1.1549 -0.5461  0.2451
 8090SOL     OW34948   2.289   7.023   0.692 -0.0205 -1.3410  0.3522
 8090SOL    HW134949   2.220   6.971   0.742 -1.4542 -0.8711 -1.1095
 8090SOL    HW234950   2.317   6.971   0.611 -1.5034  0.1556 -1.1491
 8091SOL     OW34951   0.734   1.277   4.574 -0.2680  0.1461 -0.0250
 8091SOL    HW134952   0.777   1.227   4.499  0.1132 -0.3943  0.5422
 8091SOL    HW234953   0.644   1.238   4.593 -0.2858  0.1610 -0.0789
 8092SOL     OW34954   6.553   8.964   2.897 -0.0242 -0.1946  0.5213
 8092SOL    HW134955   6.558   9.036   2.966  0.6918 -0.3599  0.6506
 8092SOL    HW234956   6.619   8.983   2.824 -1.9065  0.8275 -0.9398
 8093SOL     OW34957   8.190   0.739   4.773  0.3938 -0.2078 -0.3390
 8093SOL    HW134958   8.125   0.737   4.697  1.1603 -0.6630 -0.9985
 8093SOL    HW234959   8.276   0.780   4.741  0.2486  0.9245  0.6727
 8094SOL     OW34960   6.757   4.138   0.878  0.2252 -0.3171 -0.1131
 8094SOL    HW134961   6.672   4.156   0.827 -0.3695  0.7227  1.2266
 8094SOL    HW234962   6.746   4.056   0.934  0.8916 -1.4830 -1.6528
 8095SOL     OW34963   4.812   0.925   2.093 -0.5459  0.0174 -0.3527
 8095SOL    HW134964   4.740   0.994   2.099 -0.9845 -0.2705 -2.1486
 8095SOL    HW234965   4.849   0.908   2.184 -2.1641  0.7862  0.4695
 8096SOL     OW34966   0.998   1.806   3.190  0.3274 -0.1159  0.2332
 8096SOL    HW134967   1.065   1.751   3.141 -0.2108 -0.6358  0.0702
 8096SOL    HW234968   0.957   1.751   3.263 -0.7402 -0.1694 -0.3926
 8097SOL     OW34969   3.118   3.180   5.073  0.8128 -0.0013 -0.1063
 8097SOL    HW134970   3.089   3.162   4.979 -0.9607  2.4016 -0.0617
 8097SOL    HW234971   3.122   3.278   5.089 -0.0332 -0.3747  2.6525
 8098SOL     OW34972   1.301   8.615   0.489  0.4197  0.2553 -0.5453
 8098SOL    HW134973   1.357   8.565   0.423 -0.0327 -1.8573  0.6111
 8098SOL    HW234974   1.217   8.646   0.445  0.8855  0.3016 -1.3922
 8099SOL     OW34975   1.115   3.629   4.123 -0.1406  0.0466  0.2591
 8099SOL    HW134976   1.146   3.724   4.131  1.7311 -0.6292  1.3874
 8099SOL    HW234977   1.015   3.626   4.126 -0.2735  2.0817 -1.0521
 8100SOL     OW34978   5.900   7.516   3.472  0.4257  0.5716 -0.0531
 8100SOL    HW134979   5.986   7.530   3.520  1.1423 -1.3216 -0.7303
 8100SOL    HW234980   5.833   7.475   3.533  0.7991 -0.2582 -0.1965
 8101SOL     OW34981   9.995   0.381   0.674 -0.1888 -0.0945  0.2276
 8101SOL    HW134982   9.905   0.337   0.668 -1.2025  1.7850  1.1673
 8101SOL    HW234983  10.002   0.431   0.760  1.3382  0.7275 -0.3582
 8102SOL     OW34984   0.485   4.164   2.568 -0.1077 -0.2548 -0.6430
 8102SOL    HW134985   0.512   4.259   2.582  1.7930 -1.3137  3.4987
 8102SOL    HW234986   0.389   4.153   2.594  0.3931  0.0543  1.4574
 8103SOL     OW34987   7.617   9.260   3.044 -0.1859  0.6853 -0.5689
 8103SOL    HW134988   7.527   9.252   3.001 -0.6022  0.8464  0.2673
 8103SOL    HW234989   7.640   9.357   3.054  0.1221  0.6414 -0.8678
 8104SOL     OW34990   4.269   8.928   1.757 -0.8233 -0.3637 -0.2374
 8104SOL    HW134991   4.227   8.985   1.828 -0.2589 -0.3570  0.0901
 8104SOL    HW234992   4.326   8.984   1.698  0.0057 -0.6464  0.2944
 8105SOL     OW34993   1.845   4.116   1.259  0.0966 -0.4913  0.3878
 8105SOL    HW134994   1.888   4.084   1.175 -0.3764 -0.7951  0.2601
 8105SOL    HW234995   1.904   4.095   1.337  0.3149 -0.6421  0.1829
 8106SOL     OW34996   1.788   9.582   5.609  0.4731  0.0246  0.0526
 8106SOL    HW134997   1.757   9.503   5.663  0.4613 -0.8053 -1.1490
 8106SOL    HW234998   1.786   9.559   5.512 -0.2059  1.7472 -0.3678
 8107SOL     OW34999   9.077   2.401   4.029 -0.0091 -0.1248 -0.0721
 8107SOL    HW135000   9.140   2.363   3.961 -0.7105  0.0728 -0.8460
 8107SOL    HW235001   9.119   2.480   4.073  0.4545 -0.2588 -0.2702
 8108SOL     OW35002   4.250   8.104   5.062 -0.0001  0.1223 -0.2845
 8108SOL    HW135003   4.249   8.094   4.963 -1.0311  0.3965 -0.3114
 8108SOL    HW235004   4.214   8.194   5.087  0.9830  0.3621  0.3108
 8109SOL     OW35005   9.372   6.852   3.265 -0.0523 -0.5527 -0.4023
 8109SOL    HW135006   9.372   6.879   3.169  1.2673  1.1754  0.0689
 8109SOL    HW235007   9.322   6.920   3.319 -0.0147 -1.0486  0.2619
 8110SOL     OW35008   7.024   7.413   3.802 -0.1567 -0.2871 -0.4143
 8110SOL    HW135009   7.063   7.331   3.762  0.4377 -0.1744 -0.0664
 8110SOL    HW235010   6.934   7.431   3.761 -0.8162 -1.7663  0.3517
 8111SOL     OW35011   8.939   2.472   2.402 -0.7431  0.3742 -0.1143
 8111SOL    HW135012   8.881   2.432   2.331 -0.3876  0.5265 -0.4906
 8111SOL    HW235013   8.982   2.398   2.455 -0.3109  0.2572 -0.6277
 8112SOL     OW35014   3.496   4.201   0.592  0.4103  0.3784  0.7488
 8112SOL    HW135015   3.578   4.146   0.573  0.7674 -0.1321  3.5351
 8112SOL    HW235016   3.416   4.142   0.590  0.2645  0.6091 -0.5754
 8113SOL     OW35017   3.357   9.595   1.854  0.1035  0.7697  0.3834
 8113SOL    HW135018   3.410   9.524   1.807 -0.8040 -0.8196  1.7038
 8113SOL    HW235019   3.345   9.570   1.950  0.1126  2.9287  0.9783
 8114SOL     OW35020   2.034   1.736   5.094  0.4819 -0.1786  0.6666
 8114SOL    HW135021   2.084   1.755   5.009 -0.5293 -0.5618 -0.0203
 8114SOL    HW235022   1.949   1.687   5.073  0.1908 -0.2204  1.8959
 8115SOL     OW35023   8.946   8.590   5.305 -0.4968 -0.1291  0.2398
 8115SOL    HW135024   8.982   8.564   5.215  1.2569 -1.8030  1.3914
 8115SOL    HW235025   8.846   8.598   5.299 -0.6101 -2.1909 -1.3935
 8116SOL     OW35026   5.506   0.278   1.973  0.4287 -0.0307  0.0687
 8116SOL    HW135027   5.444   0.284   1.894 -0.8798 -1.6743  0.9410
 8116SOL    HW235028   5.510   0.367   2.018 -2.9456 -0.3456  1.1790
 8117SOL     OW35029   1.010   9.193   1.620  0.4980 -0.1493  0.0136
 8117SOL    HW135030   1.000   9.146   1.532  1.4769  0.3884 -0.4017
 8117SOL    HW235031   0.921   9.225   1.651  0.1428 -0.3279 -0.8055
 8118SOL     OW35032   7.951   1.560   2.265 -0.1652 -0.4189  0.1536
 8118SOL    HW135033   7.997   1.474   2.244  0.6791 -0.2155  1.1335
 8118SOL    HW235034   7.977   1.629   2.198  2.8938  0.3652  2.0986
 8119SOL     OW35035   7.126   0.338   3.646  0.2581  0.0477 -0.0903
 8119SOL    HW135036   7.110   0.262   3.708 -2.1095  1.2844  0.8847
 8119SOL    HW235037   7.048   0.347   3.583  1.7492  0.0014 -1.9955
 8120SOL     OW35038   0.349   0.257   5.458 -0.1156 -0.8485 -0.3447
 8120SOL    HW135039   0.423   0.285   5.519 -0.7109 -2.3634  1.1072
 8120SOL    HW235040   0.280   0.206   5.510 -2.0975  0.3734 -1.6983
 8121SOL     OW35041   9.438   7.205   1.507  0.2839 -0.2465  0.3293
 8121SOL    HW135042   9.511   7.271   1.526 -0.5648  0.9635 -0.5492
 8121SOL    HW235043   9.381   7.194   1.588  2.4047 -2.4738  1.5834
 8122SOL     OW35044   1.918   3.263   1.827 -0.5349  0.4867  0.3464
 8122SOL    HW135045   1.861   3.319   1.888 -0.6151  0.9444 -0.1458
 8122SOL    HW235046   1.992   3.320   1.790  0.3934 -0.1613  1.1707
 8123SOL     OW35047   4.017   0.412   4.531 -0.2715 -0.4721  0.5963
 8123SOL    HW135048   3.989   0.414   4.627  1.1498 -1.3305  1.0472
 8123SOL    HW235049   4.072   0.330   4.513 -1.8848 -1.1605 -1.3609
 8124SOL     OW35050   4.400   9.568   2.805 -0.0185 -0.0159  0.0766
 8124SOL    HW135051   4.327   9.558   2.738 -1.1280 -1.5356  1.4755
 8124SOL    HW235052   4.417   9.480   2.849  0.8145  0.9284  1.6791
 8125SOL     OW35053   3.538   7.589   3.371  0.1150  0.0225  0.6958
 8125SOL    HW135054   3.605   7.561   3.303 -0.0430 -0.8263  0.8886
 8125SOL    HW235055   3.585   7.622   3.453  0.3007  0.4568  0.4143
 8126SOL     OW35056   4.724   9.308   3.818 -0.1306  0.1297  0.0799
 8126SOL    HW135057   4.740   9.264   3.729 -0.9859  0.4705 -0.2520
 8126SOL    HW235058   4.718   9.407   3.804 -1.2257  0.1045  0.3808
 8127SOL     OW35059   3.677   6.065   2.404  0.2050 -0.5528 -0.3038
 8127SOL    HW135060   3.589   6.046   2.448  0.6615 -2.7722 -0.3019
 8127SOL    HW235061   3.750   6.020   2.455  1.3280  0.9129 -0.5533
 8128SOL     OW35062   0.410   0.752   5.477 -0.1919  0.2479 -0.1258
 8128SOL    HW135063   0.350   0.829   5.500  1.3626  1.7355 -0.9538
 8128SOL    HW235064   0.463   0.726   5.558 -0.5636  0.2051  0.1018
 8129SOL     OW35065   4.327   8.599   2.095  0.0464 -0.0455  0.2262
 8129SOL    HW135066   4.243   8.623   2.046  0.1492 -2.8051 -1.4200
 8129SOL    HW235067   4.303   8.559   2.183 -0.4040 -1.1014 -0.3651
 8130SOL     OW35068   1.081   6.587   2.882 -0.3781 -0.4953 -0.2508
 8130SOL    HW135069   1.060   6.668   2.937  0.7995  0.0836 -0.6124
 8130SOL    HW235070   1.109   6.512   2.942  2.8964  0.7546 -0.1071
 8131SOL     OW35071   1.422   8.027   0.877 -0.4325 -0.0557 -0.0585
 8131SOL    HW135072   1.381   7.946   0.920 -2.2595  0.8295 -0.0958
 8131SOL    HW235073   1.416   8.104   0.940 -2.6433  1.1168 -1.6431
 8132SOL     OW35074   8.775   6.581   3.128 -0.1027 -0.0339  0.0688
 8132SOL    HW135075   8.780   6.648   3.055 -1.9898 -1.1795 -1.1500
 8132SOL    HW235076   8.824   6.498   3.101 -1.8886 -0.9373 -0.4566
 8133SOL     OW35077   8.739   7.916   2.775 -0.1893 -0.2922  0.0013
 8133SOL    HW135078   8.651   7.897   2.818 -0.1218 -0.8053 -0.0855
 8133SOL    HW235079   8.786   7.830   2.756 -0.2624 -0.0704 -1.1996
 8134SOL     OW35080   0.271   0.228   2.130  0.0631 -0.6749  0.4284
 8134SOL    HW135081   0.175   0.199   2.124 -0.5040  1.2277  0.1528
 8134SOL    HW235082   0.318   0.203   2.045 -1.0153  1.2635 -0.7786
 8135SOL     OW35083   2.596   9.408   5.628  0.4979 -0.2641  0.2616
 8135SOL    HW135084   2.533   9.463   5.573 -0.3770 -1.4212  0.0907
 8135SOL    HW235085   2.674   9.381   5.572  1.5420  1.7923  0.6755
 8136SOL     OW35086   9.290   8.690   0.427  0.1101  0.1559 -0.0111
 8136SOL    HW135087   9.272   8.654   0.519  2.2256  1.1516  0.8119
 8136SOL    HW235088   9.329   8.618   0.370 -0.7057 -0.3126  0.0064
 8137SOL     OW35089   2.939   7.889   3.491  0.3929 -0.2292  0.0031
 8137SOL    HW135090   2.932   7.986   3.515 -0.6756 -0.2081 -0.3468
 8137SOL    HW235091   2.979   7.880   3.400  3.5348 -0.2712  1.3117
 8138SOL     OW35092   1.161   7.925   2.767  0.4073  0.6316 -0.3408
 8138SOL    HW135093   1.193   8.014   2.800 -1.5972  0.9799  0.7523
 8138SOL    HW235094   1.149   7.929   2.668 -1.8208  2.3456 -0.0568
 8139SOL     OW35095   0.568   8.529   1.788  0.3310 -0.1461 -0.9250
 8139SOL    HW135096   0.651   8.505   1.838  0.4519  3.1603  0.5446
 8139SOL    HW235097   0.592   8.556   1.694  0.5980 -1.8327 -1.3539
 8140SOL     OW35098   9.428   5.857   2.953 -0.2404  0.5718 -0.0348
 8140SOL    HW135099   9.375   5.931   2.996  1.2282  1.3703  0.4270
 8140SOL    HW235100   9.448   5.787   3.021 -0.3223  0.4752 -0.1097
 8141SOL     OW35101   0.167   0.225   1.700  0.6757 -0.4675  0.1024
 8141SOL    HW135102   0.147   0.141   1.649 -0.7185  2.3463 -4.3445
 8141SOL    HW235103   0.096   0.240   1.768 -0.3246 -1.7567 -0.6236
 8142SOL     OW35104   1.797   8.184   3.857  0.4744  0.2024  0.5797
 8142SOL    HW135105   1.881   8.176   3.910 -0.5455  2.4621  2.6699
 8142SOL    HW235106   1.780   8.099   3.807  4.3827 -0.0040 -0.5370
 8143SOL     OW35107   6.359   1.032   1.944  0.0949 -0.7811  0.4715
 8143SOL    HW135108   6.438   0.986   1.904 -1.3703 -0.5461 -2.8759
 8143SOL    HW235109   6.373   1.131   1.940  0.0529 -0.7623  0.7796
 8144SOL     OW35110   2.774   9.761   0.199 -0.0195 -0.0019 -0.3975
 8144SOL    HW135111   2.761   9.859   0.210 -0.1304  0.0202 -0.7299
 8144SOL    HW235112   2.686   9.714   0.205  0.1678 -0.2135  1.0733
 8145SOL     OW35113   0.746   4.549   1.984 -0.2668 -0.0965 -0.1279
 8145SOL    HW135114   0.659   4.597   1.991 -0.0684  0.4798 -1.4406
 8145SOL    HW235115   0.808   4.582   2.055 -0.4207  0.9807 -0.4883
 8146SOL     OW35116   6.700   1.803   3.286  0.8430 -0.0651 -0.0929
 8146SOL    HW135117   6.767   1.764   3.348 -0.4564 -1.3848  0.5195
 8146SOL    HW235118   6.670   1.733   3.221 -1.0280  0.0690  0.5954
 8147SOL     OW35119   8.165   2.494   1.329 -0.1608 -0.1030 -0.7631
 8147SOL    HW135120   8.200   2.487   1.236  3.4023  1.2960  0.3966
 8147SOL    HW235121   8.173   2.589   1.361  0.9301 -1.0052  1.7825
 8148SOL     OW35122   7.454   1.569   1.632  0.0599  0.1182 -0.0790
 8148SOL    HW135123   7.458   1.627   1.551  3.8357 -0.7299 -0.5664
 8148SOL    HW235124   7.375   1.508   1.626 -0.0136  0.4464 -2.8287
 8149SOL     OW35125   3.773   1.161   4.071 -0.0560  0.4145 -0.1429
 8149SOL    HW135126   3.839   1.100   4.115 -0.1644 -0.6670 -1.4372
 8149SOL    HW235127   3.821   1.222   4.008 -0.0923  0.8694  0.2639
 8150SOL     OW35128   1.590   1.016   2.467 -0.3188  0.1618 -0.1331
 8150SOL    HW135129   1.663   1.049   2.408 -0.2873  0.6081  0.1488
 8150SOL    HW235130   1.625   0.946   2.529  0.2912  1.5415  1.1404
 8151SOL     OW35131   3.573   8.998   0.323 -0.5849  0.5692  0.8180
 8151SOL    HW135132   3.544   9.063   0.393 -0.7306 -0.2659  1.5468
 8151SOL    HW235133   3.577   9.044   0.234  0.9052  1.9913  1.5761
 8152SOL     OW35134   3.232   1.303   2.842  0.1896 -0.4481  0.5593
 8152SOL    HW135135   3.245   1.231   2.774  2.4103 -0.8867  1.4007
 8152SOL    HW235136   3.224   1.263   2.933  0.9768  0.3240  0.9803
 8153SOL     OW35137   1.794   6.657   4.499  0.5522  0.1822  0.2279
 8153SOL    HW135138   1.738   6.674   4.581 -0.3089 -3.3691  0.4594
 8153SOL    HW235139   1.738   6.669   4.417  0.1730 -0.6123  0.3611
 8154SOL     OW35140   4.246   1.280   0.578 -0.5822 -0.3149  0.8947
 8154SOL    HW135141   4.178   1.211   0.554 -0.0820 -0.2768 -0.7205
 8154SOL    HW235142   4.334   1.255   0.537 -0.1475  0.7454  1.1662
 8155SOL     OW35143   4.578   0.885   1.273  0.0225 -0.6888 -0.3758
 8155SOL    HW135144   4.487   0.869   1.311  0.2912  2.3203  1.7466
 8155SOL    HW235145   4.646   0.872   1.345  0.7742  2.4366 -0.4463
 8156SOL     OW35146   3.076   4.373   3.217 -0.2039 -0.2614 -0.1956
 8156SOL    HW135147   3.042   4.362   3.311  2.7428 -0.9166  0.8528
 8156SOL    HW235148   3.083   4.470   3.196  0.7740 -0.0670  0.9372
 8157SOL     OW35149   9.579   5.216   2.563  0.6455  0.2291 -0.4931
 8157SOL    HW135150   9.505   5.203   2.496  0.9350  0.6542 -0.9018
 8157SOL    HW235151   9.660   5.251   2.516  0.9533  0.2268  0.0351
 8158SOL     OW35152   4.131   0.556   1.078  0.2545  0.1471  0.5391
 8158SOL    HW135153   4.204   0.570   1.012 -0.1183 -1.2682 -0.1840
 8158SOL    HW235154   4.139   0.464   1.118 -0.4091  0.4363  1.3505
 8159SOL     OW35155   2.226   4.049   1.133 -0.0284 -0.0226 -0.4833
 8159SOL    HW135156   2.137   4.005   1.149  1.1738 -1.9939  1.0247
 8159SOL    HW235157   2.220   4.145   1.160 -1.2661 -0.5176  1.1052
 8160SOL     OW35158   5.357   1.103   3.711  0.0436  0.3406  0.4694
 8160SOL    HW135159   5.353   1.172   3.783 -0.5750  1.1888 -0.3576
 8160SOL    HW235160   5.413   1.138   3.636  1.6358 -0.9906  1.0072
 8161SOL     OW35161   8.915   0.454   5.455  0.4711  0.1655  0.3359
 8161SOL    HW135162   8.823   0.423   5.431  0.2256  1.4299 -0.3728
 8161SOL    HW235163   8.972   0.374   5.477 -0.5339 -0.6876 -0.1146
 8162SOL     OW35164   0.538   6.127   1.109 -0.1856  0.4181 -0.8507
 8162SOL    HW135165   0.541   6.033   1.073 -0.3204 -0.0754  0.3869
 8162SOL    HW235166   0.630   6.156   1.134  0.0179  1.0682 -2.3719
 8163SOL     OW35167   8.030   0.319   2.081 -0.1331  0.1917 -0.3086
 8163SOL    HW135168   7.931   0.321   2.066 -0.2473  0.4407  0.4323
 8163SOL    HW235169   8.048   0.295   2.177  0.5278 -0.0890 -0.5038
 8164SOL     OW35170   9.744   1.135   5.361  0.0764  0.2482 -0.1133
 8164SOL    HW135171   9.691   1.065   5.410 -1.4725  0.7150 -1.0718
 8164SOL    HW235172   9.682   1.205   5.325  1.3258  0.7027 -1.4531
 8165SOL     OW35173   7.179   0.874   4.415  0.1944 -0.0545  0.5064
 8165SOL    HW135174   7.171   0.865   4.515 -0.1195 -0.8903  0.4139
 8165SOL    HW235175   7.091   0.904   4.378  0.9135  2.4484  0.6902
 8166SOL     OW35176   0.449   7.843   5.353  0.2236  0.6921  0.3797
 8166SOL    HW135177   0.519   7.909   5.379  1.8455 -1.0508  0.5685
 8166SOL    HW235178   0.469   7.755   5.396 -1.2374 -0.2268 -0.7790
 8167SOL     OW35179   4.254   1.879   5.631  0.1549 -0.3943  0.2993
 8167SOL    HW135180   4.333   1.825   5.660 -0.2142 -0.8268  0.5145
 8167SOL    HW235181   4.284   1.955   5.574  0.6808 -0.8463 -0.0328
 8168SOL     OW35182   8.291   1.820   3.978 -0.3173  0.0599 -0.8940
 8168SOL    HW135183   8.231   1.769   3.917 -0.1159 -0.6565 -0.4956
 8168SOL    HW235184   8.367   1.858   3.926  0.3068 -1.2583 -0.9543
 8169SOL     OW35185   4.085   0.624   3.937 -0.3481 -0.7844 -0.2261
 8169SOL    HW135186   3.999   0.668   3.962 -0.0083  0.3226 -0.9606
 8169SOL    HW235187   4.149   0.629   4.014 -0.5880 -0.7007 -0.0302
 8170SOL     OW35188   0.961   1.122   1.266  0.7992  0.3992  0.4624
 8170SOL    HW135189   1.041   1.062   1.269  0.5735  0.0359 -0.7224
 8170SOL    HW235190   0.916   1.121   1.355  1.3734 -0.3997  0.7513
 8171SOL     OW35191   4.129   8.861   4.999 -0.3903 -0.1220  0.1880
 8171SOL    HW135192   4.099   8.902   5.086  0.9495 -2.1297  1.6428
 8171SOL    HW235193   4.220   8.895   4.976 -0.9994  0.8801 -0.7705
 8172SOL     OW35194   2.756   2.020   2.667  0.4351 -0.1830 -0.5065
 8172SOL    HW135195   2.677   2.020   2.605  0.4861  0.5969 -0.5777
 8172SOL    HW235196   2.835   2.060   2.620  0.4808  0.3838  0.0529
 8173SOL     OW35197   4.268   4.690   2.110  0.4353 -0.0316  0.1506
 8173SOL    HW135198   4.334   4.706   2.037  0.2454 -2.6261 -0.6381
 8173SOL    HW235199   4.190   4.638   2.075 -0.3377 -0.1037  1.8819
 8174SOL     OW35200   0.686   9.041   5.618  0.7504 -0.0891  0.3948
 8174SOL    HW135201   0.777   9.027   5.659  0.0117  0.5221  2.3117
 8174SOL    HW235202   0.648   9.127   5.652  0.0000  0.3348 -1.4546
 8175SOL     OW35203   4.277   0.354   0.059  0.1028  0.6628  0.2319
 8175SOL    HW135204   4.257   0.439   0.009 -0.1702  0.9824  0.8704
 8175SOL    HW235205   4.199   0.331   0.117  0.3495  0.2041  0.3830
 8176SOL     OW35206   9.774   8.352   4.130  0.5454  0.5154 -0.4800
 8176SOL    HW135207   9.788   8.421   4.059  2.0963  0.3872 -0.3226
 8176SOL    HW235208   9.862   8.332   4.174  0.0757 -1.4273 -0.4086
 8177SOL     OW35209   8.709   9.877   4.136 -0.7783 -0.2255 -0.3644
 8177SOL    HW135210   8.790   9.924   4.103  0.2356 -1.9557 -0.3945
 8177SOL    HW235211   8.637   9.880   4.067  0.2746 -1.1894 -1.5130
 8178SOL     OW35212   0.024   7.615   5.407 -0.4965  0.0004 -0.0036
 8178SOL    HW135213   0.010   7.517   5.397 -2.1974  0.1223  0.8769
 8178SOL    HW235214   0.040   7.636   5.504 -0.6374  0.6308 -0.1162
 8179SOL     OW35215   9.883   9.750   4.177 -0.5293  0.0901 -0.0750
 8179SOL    HW135216   9.801   9.704   4.142  0.3460 -1.5254 -0.0408
 8179SOL    HW235217   9.928   9.799   4.103 -1.1129  0.3551 -0.2565
 8180SOL     OW35218   8.027   1.981   0.820 -0.5463 -0.2083 -0.8978
 8180SOL    HW135219   8.038   2.074   0.856  0.2010 -1.4490  2.2710
 8180SOL    HW235220   7.930   1.955   0.825 -0.6577  0.1501 -1.1665
 8181SOL     OW35221   2.241   2.963   3.207  0.0320  0.5059 -0.0982
 8181SOL    HW135222   2.275   2.869   3.211 -0.6067  0.2663 -0.1353
 8181SOL    HW235223   2.215   2.993   3.299  2.1528  1.3779  0.2302
 8182SOL     OW35224   4.001   0.030   2.433  0.2182  0.3775  0.1745
 8182SOL    HW135225   4.015  -0.009   2.524 -1.6373 -1.1296 -0.1502
 8182SOL    HW235226   3.949   0.115   2.440 -0.2758  0.0454  0.4881
 8183SOL     OW35227   0.243   1.262   4.682 -0.3841 -0.5505  0.4072
 8183SOL    HW135228   0.213   1.295   4.772 -0.3545 -0.4558  0.3817
 8183SOL    HW235229   0.169   1.211   4.638 -0.3836 -0.6374  0.5051
 8184SOL     OW35230   0.651   6.200   3.642  0.1972 -0.2490 -0.2894
 8184SOL    HW135231   0.674   6.254   3.723  0.6062 -0.5980 -0.1706
 8184SOL    HW235232   0.700   6.113   3.645 -1.9632 -1.4719  0.5137
 8185SOL     OW35233   7.308   1.953   3.189  0.0841  0.1983 -0.1188
 8185SOL    HW135234   7.224   2.001   3.217 -0.4067  0.6979 -2.3937
 8185SOL    HW235235   7.378   2.021   3.166  0.6514 -0.2162  0.3898
 8186SOL     OW35236   0.474   3.099   2.838  0.2492 -0.5092  0.6295
 8186SOL    HW135237   0.571   3.110   2.814 -0.4566  0.9892 -1.6207
 8186SOL    HW235238   0.455   3.002   2.856  1.7218 -1.0913 -0.8735
 8187SOL     OW35239   6.099   0.690   1.306  0.4498  0.0031  0.1990
 8187SOL    HW135240   6.194   0.695   1.277  0.2269 -0.2035 -0.5622
 8187SOL    HW235241   6.053   0.614   1.260 -0.7123  1.5375 -1.2567
 8188SOL     OW35242   3.447   4.959   0.544 -0.2096 -0.4025  0.1457
 8188SOL    HW135243   3.533   5.009   0.555 -0.7562  0.5249  0.2978
 8188SOL    HW235244   3.466   4.861   0.541  0.7894 -0.2464  0.8159
 8189SOL     OW35245   8.235   8.302   1.477 -0.2516  0.3727  0.1114
 8189SOL    HW135246   8.208   8.207   1.493  0.8592 -0.6752 -3.7023
 8189SOL    HW235247   8.326   8.318   1.516 -1.2055  0.4835  2.4088
 8190SOL     OW35248   0.898   7.538   4.829 -0.3931 -0.2662 -0.1258
 8190SOL    HW135249   0.993   7.540   4.860 -0.4704 -0.7154  0.1538
 8190SOL    HW235250   0.837   7.554   4.906 -0.5164  1.2766 -0.5249
 8191SOL     OW35251   1.653   3.722   1.814  0.3008  0.4748 -0.6354
 8191SOL    HW135252   1.668   3.782   1.893  2.5601  0.3770 -0.9444
 8191SOL    HW235253   1.704   3.637   1.828 -1.1673 -0.5057 -1.1663
 8192SOL     OW35254   5.648   1.618   2.193  0.1495 -0.0894  0.2321
 8192SOL    HW135255   5.630   1.711   2.163  1.7806  0.8459  2.0870
 8192SOL    HW235256   5.635   1.611   2.292 -0.6032 -1.9955  0.0245
 8193SOL     OW35257   1.331   9.789   3.732 -0.1901 -0.3721  0.1936
 8193SOL    HW135258   1.387   9.869   3.712 -0.5142 -0.2052 -0.0434
 8193SOL    HW235259   1.301   9.792   3.827 -1.7663  0.7563 -0.3188
 8194SOL     OW35260   0.417   9.363   4.542  0.3821 -0.3302  0.2902
 8194SOL    HW135261   0.492   9.372   4.476  0.0909  2.2596  0.2277
 8194SOL    HW235262   0.451   9.324   4.627  2.0893  1.7588  0.6196
 8195SOL     OW35263   5.838   0.065   3.663  0.1347  0.4397  0.0259
 8195SOL    HW135264   5.812  -0.028   3.639 -0.9271  0.7366  0.0066
 8195SOL    HW235265   5.930   0.084   3.628  0.4136 -0.6405  0.1553
 8196SOL     OW35266   1.829   3.164   3.934  0.2237 -0.3909 -0.7588
 8196SOL    HW135267   1.869   3.093   3.875  0.4466  0.3148 -1.4607
 8196SOL    HW235268   1.894   3.189   4.005  0.1619 -0.8529 -0.5332
 8197SOL     OW35269   9.475   0.888   0.632  0.4185  0.1833 -0.4164
 8197SOL    HW135270   9.457   0.820   0.703 -2.2251 -0.5611 -1.7370
 8197SOL    HW235271   9.541   0.851   0.566  0.7397 -0.1973  0.1176
 8198SOL     OW35272   5.885   9.878   2.529 -0.0797  0.0274 -0.2361
 8198SOL    HW135273   5.813   9.826   2.483  0.7279 -0.9072 -0.4571
 8198SOL    HW235274   5.861   9.890   2.625 -0.3535 -0.6101 -0.2207
 8199SOL     OW35275   3.102   6.603   4.291 -0.3073 -0.0961  0.2370
 8199SOL    HW135276   3.142   6.512   4.282 -0.4837 -0.4905  3.2389
 8199SOL    HW235277   3.173   6.668   4.318 -0.5076  0.3865 -0.3709
 8200SOL     OW35278   5.168   8.221   1.873  0.2571  0.2237 -0.4229
 8200SOL    HW135279   5.090   8.273   1.908 -0.0329 -0.3192 -0.2605
 8200SOL    HW235280   5.250   8.279   1.875  0.2397  0.2205  1.1110
 8201SOL     OW35281   5.325   7.743   4.181  0.1332 -0.7654 -0.2268
 8201SOL    HW135282   5.254   7.679   4.211 -0.7422  0.2145 -0.1540
 8201SOL    HW235283   5.282   7.816   4.128  1.0890 -0.1071 -0.0918
 8202SOL     OW35284   3.260   9.222   2.465  0.3641 -0.0328 -0.7257
 8202SOL    HW135285   3.312   9.152   2.416 -0.1939 -1.3123  0.4585
 8202SOL    HW235286   3.234   9.186   2.555  1.4547  2.2845  0.5537
 8203SOL     OW35287   5.653   1.106   2.086  0.2973  0.0122 -0.7044
 8203SOL    HW135288   5.639   1.180   2.151 -2.4866 -0.7837 -0.3476
 8203SOL    HW235289   5.674   1.021   2.135  0.5826 -0.0625 -0.9559
 8204SOL     OW35290   4.373   2.571   0.254  0.3166  0.6136  0.7369
 8204SOL    HW135291   4.417   2.571   0.164  0.6107  2.2013  0.8569
 8204SOL    HW235292   4.380   2.480   0.295  2.1273  0.4432  0.0877
 8205SOL     OW35293   2.536   4.883   1.967  0.5117  0.6895  0.0123
 8205SOL    HW135294   2.518   4.785   1.982  2.4375  0.1283 -1.0682
 8205SOL    HW235295   2.619   4.909   2.017  0.7757  1.4302 -0.7980
 8206SOL     OW35296   2.901   8.846   2.543  0.2921  0.1474 -0.0750
 8206SOL    HW135297   2.895   8.767   2.482  0.2436  0.4671 -0.4860
 8206SOL    HW235298   2.815   8.855   2.594  1.5704 -2.1673  2.6030
 8207SOL     OW35299   1.847   7.170   2.042  0.0673 -0.2726  0.6131
 8207SOL    HW135300   1.795   7.130   1.966  1.1082 -1.9111  0.7320
 8207SOL    HW235301   1.841   7.269   2.038 -1.9573 -0.4079 -0.1558
 8208SOL     OW35302   5.586   7.595   2.807  0.8419  0.1347 -0.1706
 8208SOL    HW135303   5.642   7.676   2.825  2.0149 -0.3760 -1.4371
 8208SOL    HW235304   5.492   7.622   2.786  0.3549  0.9660  2.8092
 8209SOL     OW35305   0.036   3.062   2.339 -0.8734 -0.2123 -0.3159
 8209SOL    HW135306  -0.038   3.001   2.370 -1.4254  1.7327  2.4408
 8209SOL    HW235307   0.122   3.011   2.336 -1.6987 -1.6499 -0.1577
 8210SOL     OW35308   3.742   2.350   2.628  0.1590 -0.5446  0.7030
 8210SOL    HW135309   3.744   2.406   2.710  0.8779 -0.5339  0.6736
 8210SOL    HW235310   3.733   2.253   2.654  3.3501 -0.8215  0.9061
 8211SOL     OW35311   8.084   6.697   2.580  0.4050 -0.1944 -0.4528
 8211SOL    HW135312   8.110   6.617   2.526  0.9359  0.9843 -1.9785
 8211SOL    HW235313   8.138   6.700   2.664  0.5097 -1.3326 -0.4778
 8212SOL     OW35314   3.905   8.665   1.331  0.5407  0.7752  0.2258
 8212SOL    HW135315   3.903   8.765   1.331  0.4029  0.7848  1.4337
 8212SOL    HW235316   3.992   8.634   1.370  0.6830  0.4185 -0.3662
 8213SOL     OW35317   1.686   8.191   2.040 -0.1097  0.3657  0.3610
 8213SOL    HW135318   1.602   8.206   2.092 -1.0625  2.3258 -1.6508
 8213SOL    HW235319   1.698   8.093   2.023 -2.1519  0.0876  0.3994
 8214SOL     OW35320   1.207   8.870   2.123  0.0559 -0.3560  0.4668
 8214SOL    HW135321   1.234   8.774   2.107  0.9860  0.2347 -1.7187
 8214SOL    HW235322   1.110   8.873   2.148 -0.2836 -1.7994 -0.5685
 8215SOL     OW35323   9.153   3.035   1.470  0.4070 -0.2077 -0.4530
 8215SOL    HW135324   9.145   3.094   1.391 -1.0301 -0.2648 -0.3569
 8215SOL    HW235325   9.091   2.957   1.461 -0.1486  0.0497  0.9531
 8216SOL     OW35326   0.916   0.931   2.634  0.4451  0.0695  0.4260
 8216SOL    HW135327   0.888   1.027   2.647 -0.1274 -0.1518  0.8501
 8216SOL    HW235328   1.015   0.923   2.645  0.3125  0.3506  1.9190
 8217SOL     OW35329   9.280   2.617   1.621 -0.1423 -0.1421  0.7717
 8217SOL    HW135330   9.304   2.703   1.576  0.1401 -0.7141 -0.1636
 8217SOL    HW235331   9.220   2.563   1.562  0.6801 -1.1407  0.8403
 8218SOL     OW35332   4.517   4.899   1.106  0.1941 -0.7718 -0.4069
 8218SOL    HW135333   4.485   4.984   1.149  0.8144 -0.1371 -1.1919
 8218SOL    HW235334   4.447   4.828   1.116  0.1206 -0.4842  1.2054
 8219SOL     OW35335   9.090   2.314   4.958  0.7045  0.1719  0.9768
 8219SOL    HW135336   9.186   2.343   4.959  1.1015 -0.9689 -1.2236
 8219SOL    HW235337   9.075   2.247   5.031  1.9577 -0.7827  0.3809
 8220SOL     OW35338   0.634   2.486   2.051  0.8645  0.4791  0.1934
 8220SOL    HW135339   0.709   2.532   2.004  1.2639  1.1297  1.4362
 8220SOL    HW235340   0.601   2.544   2.125 -1.7417  0.7841 -1.1394
 8221SOL     OW35341   6.743   0.315   2.630  0.8742 -0.0332  0.5830
 8221SOL    HW135342   6.738   0.216   2.641  1.5044  0.0676  1.9295
 8221SOL    HW235343   6.716   0.359   2.716  0.8565  0.9532  0.0815
 8222SOL     OW35344   9.154   1.934   1.402 -0.0462 -0.1065  0.8214
 8222SOL    HW135345   9.197   1.856   1.357 -1.7975 -1.5088  1.5684
 8222SOL    HW235346   9.219   2.011   1.403  2.2971 -2.0400  1.5514
 8223SOL     OW35347   7.177   7.014   3.273  0.0569 -0.0043 -0.6914
 8223SOL    HW135348   7.092   7.063   3.253 -1.6983 -1.9119  1.7642
 8223SOL    HW235349   7.176   6.925   3.229  0.1613 -0.5830  0.4492
 8224SOL     OW35350   9.893   0.951   4.378 -0.4979  0.4771 -0.1115
 8224SOL    HW135351   9.814   0.970   4.320  0.5805 -1.3836 -2.2744
 8224SOL    HW235352   9.863   0.913   4.465 -2.0425  1.0381 -0.3948
 8225SOL     OW35353   4.339   9.114   3.649 -0.1239 -0.1561  0.5918
 8225SOL    HW135354   4.322   9.044   3.718  0.7263  0.2760  1.2442
 8225SOL    HW235355   4.332   9.205   3.690 -2.5495  0.2251 -0.5333
 8226SOL     OW35356   0.181   9.165   4.942 -0.1519  0.3470  0.0313
 8226SOL    HW135357   0.170   9.202   4.850  1.4760 -0.7034 -0.6245
 8226SOL    HW235358   0.106   9.101   4.962 -0.0281 -0.0951 -0.9107
 8227SOL     OW35359   4.797   4.802   0.441 -0.5323 -0.6797 -0.9676
 8227SOL    HW135360   4.699   4.820   0.439 -0.4939 -0.2036  0.6149
 8227SOL    HW235361   4.814   4.713   0.485 -0.2068 -0.2708 -0.2510
 8228SOL     OW35362   5.361   1.723   2.627  0.3251  0.4014 -0.2819
 8228SOL    HW135363   5.377   1.624   2.624  1.5779  0.4865  1.9784
 8228SOL    HW235364   5.312   1.746   2.711 -0.7899  1.6208 -1.2413
 8229SOL     OW35365   7.394   8.941   3.667 -0.1281  0.5301 -0.1570
 8229SOL    HW135366   7.373   8.843   3.677  1.2440  0.2732  0.3509
 8229SOL    HW235367   7.402   8.963   3.570 -0.9553  0.2549 -0.2950
 8230SOL     OW35368   0.789   9.695   1.178 -0.2045 -0.3516  0.4454
 8230SOL    HW135369   0.851   9.752   1.123 -0.8048  1.2155  1.3663
 8230SOL    HW235370   0.721   9.753   1.222 -2.8476 -2.1072 -1.1639
 8231SOL     OW35371   8.770   0.050   3.454  0.1971  0.1736  0.1836
 8231SOL    HW135372   8.714   0.069   3.373  0.5181 -1.8359 -0.5370
 8231SOL    HW235373   8.855   0.101   3.447  0.0172  0.3950 -0.5258
 8232SOL     OW35374   1.730   8.066   4.170 -0.6146  0.1526  0.3240
 8232SOL    HW135375   1.665   7.990   4.168 -1.1339  0.5788  0.8543
 8232SOL    HW235376   1.690   8.145   4.125 -0.3538  0.3367  0.4138
 8233SOL     OW35377   1.351   7.763   5.538  0.4613  0.1218  0.0276
 8233SOL    HW135378   1.356   7.859   5.563 -0.5502  0.1106  0.2942
 8233SOL    HW235379   1.309   7.754   5.448  0.5370 -0.0672  0.0107
 8234SOL     OW35380   2.248   0.864   0.502 -0.1645 -0.8431  0.1259
 8234SOL    HW135381   2.242   0.955   0.462  0.8712 -1.1656 -0.7711
 8234SOL    HW235382   2.304   0.805   0.444 -2.2982 -2.5791 -0.2301
 8235SOL     OW35383   7.142   9.824   4.552  0.0520  0.4363  0.6106
 8235SOL    HW135384   7.082   9.782   4.484 -0.9811  0.6996  1.3470
 8235SOL    HW235385   7.228   9.774   4.556 -0.2286 -0.1246 -0.2516
 8236SOL     OW35386   1.916   5.264   2.859  0.1833  0.0828 -0.4521
 8236SOL    HW135387   1.914   5.360   2.889 -1.2865 -0.2294  0.4792
 8236SOL    HW235388   1.842   5.249   2.793 -1.0817 -0.9749  1.1771
 8237SOL     OW35389   2.640   5.683   2.554  0.0659 -0.0085 -0.5788
 8237SOL    HW135390   2.603   5.670   2.463  0.9524 -1.2369 -0.7806
 8237SOL    HW235391   2.728   5.731   2.548  0.0687  0.0136 -0.3616
 8238SOL     OW35392   4.760   8.134   1.797 -0.3139  0.6010  0.6223
 8238SOL    HW135393   4.776   8.233   1.790 -4.0565  1.2251  0.1074
 8238SOL    HW235394   4.792   8.101   1.886 -1.0927  2.6983  1.7062
 8239SOL     OW35395   2.438   0.196   2.604  0.6825  0.3531 -0.4249
 8239SOL    HW135396   2.424   0.108   2.559 -0.1168  0.1202  0.2762
 8239SOL    HW235397   2.443   0.182   2.703 -0.8790  1.2694 -0.2093
 8240SOL     OW35398   0.289   8.881   4.993  0.5942 -0.4985 -0.0268
 8240SOL    HW135399   0.311   8.955   4.929  0.2823 -0.9448 -0.6510
 8240SOL    HW235400   0.218   8.823   4.954 -1.6364  0.8519  1.8893
 8241SOL     OW35401   5.504   7.844   2.704  0.1927 -0.2175  0.0848
 8241SOL    HW135402   5.507   7.928   2.757 -0.9700 -0.5511  0.6888
 8241SOL    HW235403   5.539   7.862   2.612 -0.0265  0.9121  0.2167
 8242SOL     OW35404   4.599   9.086   4.758  0.0555 -0.5027 -0.1950
 8242SOL    HW135405   4.697   9.087   4.736 -0.1928  0.2546 -1.2641
 8242SOL    HW235406   4.585   9.132   4.845  0.7340 -1.2958  0.3507
 8243SOL     OW35407   1.631   3.748   5.149 -0.8483 -0.0111  0.5080
 8243SOL    HW135408   1.589   3.791   5.069  0.1645  0.0603  0.0138
 8243SOL    HW235409   1.612   3.650   5.148 -0.0416 -0.1672 -0.3278
 8244SOL     OW35410   4.430   5.024   0.876 -0.4052  0.5719  0.2669
 8244SOL    HW135411   4.467   5.106   0.832 -0.0277  0.5600  0.5645
 8244SOL    HW235412   4.486   5.000   0.955  0.0679 -0.5612 -0.4007
 8245SOL     OW35413   1.305   8.690   1.071 -0.2073  0.1189  0.4443
 8245SOL    HW135414   1.393   8.676   1.026  0.4421  1.5671  1.2318
 8245SOL    HW235415   1.231   8.660   1.010  0.8745 -2.7522  0.4610
 8246SOL     OW35416   4.152   7.564   2.746 -0.2752 -0.4413 -1.0769
 8246SOL    HW135417   4.064   7.573   2.700  0.3135  0.5416 -2.0130
 8246SOL    HW235418   4.143   7.591   2.842 -2.1244 -4.9304  0.1801
 8247SOL     OW35419   7.434   6.710   2.991  0.0290  0.4887  0.3321
 8247SOL    HW135420   7.458   6.631   3.047 -0.5907 -0.1362 -0.2648
 8247SOL    HW235421   7.356   6.757   3.032 -0.2368  0.2017  0.1649
 8248SOL     OW35422   1.847   3.777   2.834 -0.2675  0.5895  0.2381
 8248SOL    HW135423   1.906   3.697   2.823  0.5544  1.3010 -0.6286
 8248SOL    HW235424   1.804   3.775   2.924  0.1309 -0.5627  0.4122
 8249SOL     OW35425   3.431   8.918   0.761 -0.2658 -0.3582  0.2185
 8249SOL    HW135426   3.468   8.845   0.704 -0.7336  0.5321 -1.2351
 8249SOL    HW235427   3.505   8.981   0.786 -0.0410 -0.8055  0.6902
 8250SOL     OW35428   2.982   5.074   1.692 -0.0303 -0.0999 -0.3242
 8250SOL    HW135429   2.990   4.981   1.655  0.7784  0.2080 -0.9462
 8250SOL    HW235430   2.902   5.080   1.752 -0.6049 -0.9646 -0.9957
 8251SOL     OW35431   3.402   6.021   2.113 -0.2059 -0.1807 -0.4907
 8251SOL    HW135432   3.370   6.110   2.145 -0.8755 -0.7655  0.4765
 8251SOL    HW235433   3.501   6.018   2.117 -0.1767  0.5530 -0.6033
 8252SOL     OW35434   1.589   9.166   1.935 -0.3395  0.3801 -0.1570
 8252SOL    HW135435   1.669   9.225   1.945  0.0772 -0.2999  0.5711
 8252SOL    HW235436   1.604   9.081   1.985 -0.9636 -0.3220 -1.1538
 8253SOL     OW35437   1.918   6.691   4.032  0.0556  0.0557  0.1652
 8253SOL    HW135438   2.001   6.636   4.028  0.1364  0.1232  0.9081
 8253SOL    HW235439   1.942   6.785   4.059 -0.1377  0.3423 -0.6279
 8254SOL     OW35440   3.351   3.868   1.878 -0.6113  0.0159 -0.2645
 8254SOL    HW135441   3.330   3.787   1.932 -1.9139  0.1869 -0.5101
 8254SOL    HW235442   3.279   3.937   1.891  0.1524  0.8844 -0.5570
 8255SOL     OW35443   2.278   9.784   1.362  0.3403  0.5245  0.3532
 8255SOL    HW135444   2.278   9.849   1.286  0.0192  0.4653  0.3035
 8255SOL    HW235445   2.233   9.825   1.441 -0.4462  0.1243  0.1179
 8256SOL     OW35446   8.535   9.442   2.671  0.0006  0.1111 -0.0317
 8256SOL    HW135447   8.459   9.377   2.663 -0.0302  0.0330  0.8920
 8256SOL    HW235448   8.514   9.525   2.619 -1.2484  0.5824  1.2130
 8257SOL     OW35449   1.168   9.638   3.533  0.0502 -0.0926  0.4356
 8257SOL    HW135450   1.227   9.710   3.570 -0.1249  0.1132  0.3139
 8257SOL    HW235451   1.081   9.678   3.504  0.0560 -0.3147  0.1164
 8258SOL     OW35452   3.677   0.015   0.635 -0.4447  0.4200 -0.2297
 8258SOL    HW135453   3.772   0.024   0.606 -0.8882  0.8957 -1.6003
 8258SOL    HW235454   3.629   0.101   0.615 -1.2770  0.0066 -0.0057
 8259SOL     OW35455   6.143   0.843   2.519 -0.0759  0.5801  0.4318
 8259SOL    HW135456   6.230   0.839   2.567 -0.2997 -1.2081  0.7411
 8259SOL    HW235457   6.149   0.908   2.444  1.4311  0.6892  0.6374
 8260SOL     OW35458   3.332   2.330   0.471 -0.1822 -0.0274 -0.2184
 8260SOL    HW135459   3.361   2.412   0.422 -0.8756  1.1286  1.2496
 8260SOL    HW235460   3.238   2.342   0.503  0.4996 -0.4175  2.0304
 8261SOL     OW35461   1.825   8.510   3.473 -0.3179 -0.0985  0.4836
 8261SOL    HW135462   1.890   8.472   3.539  0.4867 -0.0723 -0.2775
 8261SOL    HW235463   1.771   8.582   3.517  1.5550  1.2773  0.6034
 8262SOL     OW35464   3.965   1.363   4.028  0.0740  0.4420  0.3503
 8262SOL    HW135465   3.977   1.430   4.102  0.0782  1.0539 -0.1992
 8262SOL    HW235466   4.054   1.343   3.987  0.0343  0.3083  0.3293
 8263SOL     OW35467   8.787   0.038   2.937 -0.4745  0.6743  0.1446
 8263SOL    HW135468   8.761   0.129   2.906  1.6207  0.5420 -2.1783
 8263SOL    HW235469   8.887   0.034   2.948 -0.5565 -1.2663  0.3867
 8264SOL     OW35470   5.306   8.853   3.550 -0.3593  0.2505 -0.3669
 8264SOL    HW135471   5.325   8.856   3.648  0.7743  0.9922 -0.6054
 8264SOL    HW235472   5.225   8.796   3.534  0.9906 -2.0555  0.7743
 8265SOL     OW35473   6.291   9.702   3.910 -0.0488  0.6128 -0.1039
 8265SOL    HW135474   6.326   9.770   3.974 -0.9285 -0.3827  1.4803
 8265SOL    HW235475   6.293   9.611   3.953 -1.0841 -0.0050 -1.3061
 8266SOL     OW35476   6.132   0.041   2.276 -0.0537 -0.1110 -0.2312
 8266SOL    HW135477   6.075   0.062   2.196 -0.0278  0.1099 -0.1909
 8266SOL    HW235478   6.092   0.082   2.357  1.0557  1.4591 -0.4601
 8267SOL     OW35479   2.667   0.788   4.464  0.2101 -0.0412 -0.4159
 8267SOL    HW135480   2.728   0.865   4.443  0.3865 -0.3870 -1.1861
 8267SOL    HW235481   2.717   0.702   4.456 -0.3156 -0.3129 -0.8248
 8268SOL     OW35482   1.487   5.393   2.398 -0.0865  0.7856 -0.1640
 8268SOL    HW135483   1.501   5.381   2.300  0.3496 -0.3945  0.0303
 8268SOL    HW235484   1.397   5.359   2.424  0.7831 -1.3072  0.2364
 8269SOL     OW35485   0.609   1.335   2.154 -0.0911 -0.2263 -0.5213
 8269SOL    HW135486   0.649   1.284   2.231  0.5561 -1.7589 -1.8595
 8269SOL    HW235487   0.539   1.397   2.189 -0.2909 -1.4070  1.2501
 8270SOL     OW35488   8.119   2.123   3.473  0.3160  0.3999  0.3996
 8270SOL    HW135489   8.067   2.062   3.533  1.1726 -0.1599  0.5860
 8270SOL    HW235490   8.108   2.218   3.504 -1.3284  0.3908 -0.1214
 8271SOL     OW35491   2.181   6.559   4.853 -0.4046 -0.1358  0.4490
 8271SOL    HW135492   2.193   6.558   4.754  0.0391  2.3506  0.4214
 8271SOL    HW235493   2.085   6.572   4.876 -0.4006  0.1076  0.3269
 8272SOL     OW35494   0.512   0.722   4.133 -0.4500  0.1284 -0.1132
 8272SOL    HW135495   0.527   0.812   4.172 -1.4451  0.0563  0.4752
 8272SOL    HW235496   0.506   0.729   4.033 -2.8873  1.1047  0.0511
 8273SOL     OW35497   2.369   6.747   3.399  0.2539 -0.3006  0.3771
 8273SOL    HW135498   2.456   6.795   3.403  0.2605 -0.1358 -1.3929
 8273SOL    HW235499   2.385   6.648   3.396  0.3468 -0.3020  0.8894
 8274SOL     OW35500   8.013   9.928   0.994 -0.4891 -0.2901  0.1044
 8274SOL    HW135501   8.011  10.020   1.031 -0.3006 -0.0451 -0.4812
 8274SOL    HW235502   7.991   9.931   0.896  1.6060 -0.6111 -0.4013
 8275SOL     OW35503   6.608   0.125   3.221  0.0409 -0.1317  0.2126
 8275SOL    HW135504   6.589   0.028   3.206  0.0224  0.0177 -0.7686
 8275SOL    HW235505   6.524   0.178   3.209  0.1253  0.0430  0.3881
 8276SOL     OW35506   9.780   6.683   1.137  0.0604 -0.0802 -0.2776
 8276SOL    HW135507   9.809   6.591   1.112  0.5799  0.0547 -0.1760
 8276SOL    HW235508   9.768   6.739   1.055 -2.9317 -1.0173 -0.5296
 8277SOL     OW35509   2.220   2.114   4.612  0.0187  0.1490  0.6722
 8277SOL    HW135510   2.157   2.185   4.642 -0.9204  0.2499 -1.4899
 8277SOL    HW235511   2.178   2.024   4.626  0.0224  0.1455  0.6636
 8278SOL     OW35512   2.011   9.141   4.843  0.3435  0.2794 -0.0183
 8278SOL    HW135513   2.028   9.042   4.850 -0.0563  0.0320 -2.1594
 8278SOL    HW235514   2.096   9.187   4.819  0.3231  0.3345  0.0180
 8279SOL     OW35515   8.464   8.632   0.239 -0.2602 -0.6266  0.3998
 8279SOL    HW135516   8.397   8.560   0.221 -0.7750  0.1008 -0.6542
 8279SOL    HW235517   8.546   8.592   0.281 -0.6051 -1.7922 -0.0224
 8280SOL     OW35518   7.362   1.728   2.057 -0.1493 -0.6185 -0.6194
 8280SOL    HW135519   7.457   1.753   2.074  0.6046 -2.0176 -2.5375
 8280SOL    HW235520   7.321   1.795   1.994 -0.7107  0.4652  0.8822
 8281SOL     OW35521   8.153   7.630   2.275 -0.0208  0.1996 -0.7022
 8281SOL    HW135522   8.249   7.656   2.267  0.6120 -1.4881  0.9779
 8281SOL    HW235523   8.131   7.565   2.202  0.0989  0.5979 -1.0969
 8282SOL     OW35524   6.378   0.057   2.606  0.6434 -0.3140  0.1262
 8282SOL    HW135525   6.454   0.114   2.575 -0.3060  0.9143  0.0159
 8282SOL    HW235526   6.382  -0.033   2.561  1.4856  0.0825 -0.5858
 8283SOL     OW35527   8.277   8.168   3.143 -0.0632  0.2355 -0.1072
 8283SOL    HW135528   8.320   8.233   3.205  1.8950  0.0952 -1.3000
 8283SOL    HW235529   8.345   8.129   3.082 -1.7171 -0.7213 -1.3979
 8284SOL     OW35530   7.776   0.916   1.858  0.0403 -0.2661  0.3444
 8284SOL    HW135531   7.797   0.996   1.801  1.3339 -0.4094  0.6042
 8284SOL    HW235532   7.753   0.946   1.950 -0.9516 -0.1030  0.0474
 8285SOL     OW35533   2.176   9.229   2.763 -0.6440 -0.2506  0.4968
 8285SOL    HW135534   2.142   9.184   2.680 -1.7826 -1.3290  1.5342
 8285SOL    HW235535   2.215   9.318   2.739  2.3151 -2.0364 -1.7185
 8286SOL     OW35536   1.848   2.578   3.301 -0.2187 -0.1572  0.2757
 8286SOL    HW135537   1.934   2.610   3.342  1.0749 -0.7769 -1.8309
 8286SOL    HW235538   1.775   2.643   3.322  1.4893  2.1612 -0.6239
 8287SOL     OW35539   2.870   1.426   3.831  0.0574 -0.5339 -0.1175
 8287SOL    HW135540   2.850   1.523   3.819 -0.7607 -0.8768 -1.5663
 8287SOL    HW235541   2.793   1.372   3.799  0.9963 -1.7019 -0.4275
 8288SOL     OW35542   5.041   9.102   3.728 -0.2609 -0.4591  0.5025
 8288SOL    HW135543   4.992   9.109   3.815  0.0615 -0.2076  0.6656
 8288SOL    HW235544   5.135   9.134   3.740 -0.2990 -0.1385 -0.0046
 8289SOL     OW35545   4.186   5.073   0.989 -0.2129 -1.5417 -0.1602
 8289SOL    HW135546   4.283   5.077   0.965  0.0608 -0.3780  1.0454
 8289SOL    HW235547   4.131   5.112   0.914  0.4864  0.4241  0.3187
 8290SOL     OW35548   9.904   3.133   1.808 -0.2838  0.2716  0.0080
 8290SOL    HW135549   9.951   3.092   1.886 -0.9394 -1.0357 -0.2725
 8290SOL    HW235550   9.934   3.228   1.798 -0.0469  0.4119  1.7391
 8291SOL     OW35551   1.571   8.073   2.670  0.0047  0.0869  0.1868
 8291SOL    HW135552   1.527   8.122   2.745 -0.1762 -0.9685  0.7646
 8291SOL    HW235553   1.649   8.021   2.705 -0.3659 -0.7845 -0.2906
 8292SOL     OW35554   2.499   0.663   2.159 -0.1686 -0.6196 -0.4586
 8292SOL    HW135555   2.407   0.702   2.159 -0.1148 -0.4917  0.2145
 8292SOL    HW235556   2.552   0.701   2.234  0.1375 -1.3966 -0.2726
 8293SOL     OW35557   6.748   7.823   3.625 -0.0169 -0.7549  0.7097
 8293SOL    HW135558   6.845   7.806   3.614 -0.3213 -2.4543  0.6133
 8293SOL    HW235559   6.727   7.917   3.598  1.3867 -0.7789 -0.4617
 8294SOL     OW35560   1.424   4.410   2.462  0.2089  0.7821 -0.2124
 8294SOL    HW135561   1.448   4.408   2.559 -0.7028 -1.3220  0.0001
 8294SOL    HW235562   1.361   4.486   2.445 -1.6944 -0.3929  1.3898
 8295SOL     OW35563   1.657   6.748   3.243 -0.3751 -0.4296 -0.3841
 8295SOL    HW135564   1.710   6.785   3.319  0.7791  2.7829 -2.6618
 8295SOL    HW235565   1.704   6.668   3.204  0.0164 -0.8709  0.9775
 8296SOL     OW35566   3.195   7.720   0.886 -0.0076  0.2006 -0.6464
 8296SOL    HW135567   3.181   7.771   0.971  1.9799  1.7296 -1.1920
 8296SOL    HW235568   3.203   7.623   0.905 -1.5763  0.3109  0.6785
 8297SOL     OW35569   8.353   1.423   4.940  0.1502 -0.0261  0.0871
 8297SOL    HW135570   8.427   1.422   5.007  1.3880 -0.3288 -1.2597
 8297SOL    HW235571   8.363   1.503   4.881 -1.7058  0.9743  1.0859
 8298SOL     OW35572   2.312   6.046   1.514 -0.1414  0.3626 -0.0842
 8298SOL    HW135573   2.392   6.087   1.557 -1.5758  3.9856 -0.6469
 8298SOL    HW235574   2.268   5.982   1.578  1.1332  1.0941  1.5473
 8299SOL     OW35575   9.540   9.139   4.379 -0.3986  0.6011 -0.0816
 8299SOL    HW135576   9.521   9.222   4.432  0.3395  0.6015  0.1858
 8299SOL    HW235577   9.455   9.091   4.361 -0.7794  1.1822  0.1606
 8300SOL     OW35578   1.681   4.284   3.971 -0.1921  0.2578 -0.2973
 8300SOL    HW135579   1.627   4.339   4.034  0.0708  0.7887 -0.5287
 8300SOL    HW235580   1.684   4.189   4.003 -2.3775 -0.0777 -1.0060
 8301SOL     OW35581   1.193   9.557   5.585 -0.1332  0.2461  0.2819
 8301SOL    HW135582   1.257   9.493   5.543  0.7141  1.3563 -0.1380
 8301SOL    HW235583   1.100   9.524   5.572  0.1636  0.1781 -1.8303
 8302SOL     OW35584   0.790   9.180   4.347  0.2797 -0.7731  1.3255
 8302SOL    HW135585   0.841   9.154   4.430  2.3967 -0.7443  0.0735
 8302SOL    HW235586   0.855   9.202   4.274 -1.5575  0.3078 -0.0112
 8303SOL     OW35587   3.464   0.968   5.140  0.4364 -0.2593  0.7667
 8303SOL    HW135588   3.529   0.902   5.179  1.2521  0.6148  0.9091
 8303SOL    HW235589   3.474   0.969   5.040  0.1131 -0.6711  0.7291
 8304SOL     OW35590   0.598   7.148   5.250 -0.0303  0.4295  1.1851
 8304SOL    HW135591   0.583   7.119   5.345  0.4230 -2.7303  0.3518
 8304SOL    HW235592   0.691   7.122   5.222 -0.7128 -0.1232 -0.6098
 8305SOL     OW35593   9.669   2.444   5.057 -0.1114  0.0446 -0.1144
 8305SOL    HW135594   9.642   2.418   5.149 -1.2392 -0.5180 -0.6024
 8305SOL    HW235595   9.689   2.362   5.003 -0.9392  0.3060 -0.8279
 8306SOL     OW35596   9.844   2.628   4.247  0.3302  0.2897 -0.2140
 8306SOL    HW135597   9.920   2.672   4.200  0.1697 -0.4460 -1.1881
 8306SOL    HW235598   9.780   2.697   4.280  1.2560  0.8932  0.3313
 8307SOL     OW35599   1.991   3.198   3.684  0.1559  0.1587 -0.0016
 8307SOL    HW135600   2.050   3.266   3.727  0.9462  0.3979 -1.4252
 8307SOL    HW235601   1.974   3.123   3.747  0.0560  1.2169  1.2443
 8308SOL     OW35602   0.336   6.028   2.580  0.0215 -0.9113 -0.1559
 8308SOL    HW135603   0.286   6.110   2.607  1.4596  1.0906 -3.2644
 8308SOL    HW235604   0.275   5.949   2.581 -2.3994  0.8936 -0.7969
 8309SOL     OW35605   8.336   8.832   2.808 -0.0504  0.8096  0.5941
 8309SOL    HW135606   8.319   8.734   2.819  2.5966  0.4394  1.5885
 8309SOL    HW235607   8.289   8.882   2.882  0.2793  0.1270  1.2673
 8310SOL     OW35608   1.155   3.532   2.634 -0.4593 -0.6664  0.1721
 8310SOL    HW135609   1.178   3.474   2.555 -1.9455 -0.2689 -0.5667
 8310SOL    HW235610   1.180   3.627   2.614 -0.7893 -0.5739  0.2082
 8311SOL     OW35611   7.797   0.664   4.152  0.2089 -0.4415  0.1467
 8311SOL    HW135612   7.803   0.700   4.245  2.2136 -0.4502  0.0482
 8311SOL    HW235613   7.824   0.735   4.087 -0.8616 -0.5397 -0.4252
 8312SOL     OW35614   2.415   4.670   2.758  0.3200  0.4185 -0.0738
 8312SOL    HW135615   2.485   4.639   2.822  0.8242 -1.1291 -1.3307
 8312SOL    HW235616   2.374   4.590   2.713 -2.4397  1.2632  0.8160
 8313SOL     OW35617   1.681   1.271   0.413  0.6556  0.0684 -0.1741
 8313SOL    HW135618   1.639   1.220   0.338  1.2788  1.6207 -1.6253
 8313SOL    HW235619   1.767   1.226   0.440 -0.9203 -2.0549  1.5430
 8314SOL     OW35620   2.713   4.654   3.431 -0.2485 -0.2525 -0.4284
 8314SOL    HW135621   2.623   4.663   3.473  0.3581 -0.0563  0.8536
 8314SOL    HW235622   2.708   4.679   3.334 -1.6024 -0.4139 -0.3978
 8315SOL     OW35623   1.445   7.414   0.934  0.4855 -0.0629 -0.0592
 8315SOL    HW135624   1.542   7.432   0.952  0.4691  0.9702 -0.9168
 8315SOL    HW235625   1.408   7.355   1.005  1.4349  0.5628  0.9768
 8316SOL     OW35626   1.461   7.529   3.852  0.7532 -0.0461  0.0920
 8316SOL    HW135627   1.534   7.494   3.912  0.7270 -2.6655 -1.3349
 8316SOL    HW235628   1.406   7.453   3.819 -1.8275  1.7933  0.0567
 8317SOL     OW35629   1.445   1.447   5.416  0.3054  0.8549  0.6100
 8317SOL    HW135630   1.545   1.449   5.417  0.2972  2.0198  1.1196
 8317SOL    HW235631   1.412   1.422   5.325  1.0634  1.2149  0.2314
 8318SOL     OW35632   0.257   2.276   2.772 -0.8044 -0.3099  0.2090
 8318SOL    HW135633   0.232   2.217   2.695  0.8011 -0.2768 -0.3395
 8318SOL    HW235634   0.270   2.370   2.739 -0.4862 -0.2183  0.5946
 8319SOL     OW35635   8.256   2.523   2.294 -0.3200 -0.1435 -0.3229
 8319SOL    HW135636   8.328   2.468   2.336  0.1931 -0.2458 -1.3056
 8319SOL    HW235637   8.291   2.564   2.210 -1.1911  0.4007 -0.4266
 8320SOL     OW35638   4.195   1.751   4.375 -0.0986  0.2633  0.4832
 8320SOL    HW135639   4.200   1.742   4.475  0.9380  0.9249  0.5078
 8320SOL    HW235640   4.189   1.848   4.352 -0.3007  0.1090 -0.1052
 8321SOL     OW35641   4.398   7.689   0.998  0.0159 -0.3686  0.0009
 8321SOL    HW135642   4.400   7.763   1.065  2.5395 -0.1322 -0.2748
 8321SOL    HW235643   4.411   7.601   1.043 -1.1377 -0.4732  0.1288
 8322SOL     OW35644   3.183   6.771   2.955  0.2223  0.1370 -0.0442
 8322SOL    HW135645   3.144   6.699   2.897  1.8918 -0.6392 -0.2359
 8322SOL    HW235646   3.191   6.856   2.903  0.6556 -0.2446 -0.5995
 8323SOL     OW35647   8.876   8.442   4.813  0.2999 -0.4802  0.4778
 8323SOL    HW135648   8.858   8.344   4.811  0.8769 -0.5845  0.1892
 8323SOL    HW235649   8.815   8.488   4.749  1.8082 -0.9651 -1.3709
 8324SOL     OW35650   4.313   8.831   0.878 -0.0809  0.5450  0.0874
 8324SOL    HW135651   4.406   8.805   0.854 -0.5840 -1.1943 -0.0269
 8324SOL    HW235652   4.300   8.822   0.977 -0.7694 -1.4198 -0.1543
 8325SOL     OW35653   4.410   2.764   1.763  0.2495 -0.1550  0.1732
 8325SOL    HW135654   4.470   2.684   1.760  1.2515  0.5621  0.7312
 8325SOL    HW235655   4.442   2.827   1.833 -0.9850  0.3909  0.2642
 8326SOL     OW35656   1.337   9.176   3.047 -0.3204 -0.1084 -0.6372
 8326SOL    HW135657   1.348   9.275   3.044  0.2100 -0.1053  1.0850
 8326SOL    HW235658   1.421   9.133   3.013 -0.1839  0.0276 -0.4772
 8327SOL     OW35659   8.624   2.086   2.537 -0.3021 -0.1656 -0.4162
 8327SOL    HW135660   8.706   2.045   2.577 -0.6320 -0.6407 -0.2228
 8327SOL    HW235661   8.629   2.185   2.545 -0.2371 -0.2486  0.5622
 8328SOL     OW35662   3.247   9.140   3.010 -0.3941 -0.3465  0.0071
 8328SOL    HW135663   3.208   9.084   3.083  1.9011 -0.0253  1.5239
 8328SOL    HW235664   3.216   9.105   2.921 -0.0157 -3.2538  0.9629
 8329SOL     OW35665   9.293   4.175   1.417  0.5005  0.4090 -0.0434
 8329SOL    HW135666   9.193   4.178   1.418  0.4766 -0.2379  1.3030
 8329SOL    HW235667   9.328   4.241   1.483  0.9657  0.6605 -0.5418
 8330SOL     OW35668   5.844   8.251   2.958 -0.2079 -0.5475  0.3831
 8330SOL    HW135669   5.862   8.348   2.974  0.3275 -0.6994  0.6847
 8330SOL    HW235670   5.745   8.235   2.958 -0.2733 -0.1386  1.1262
 8331SOL     OW35671   1.194   0.944   2.711  0.4756 -0.4773 -0.8279
 8331SOL    HW135672   1.256   0.893   2.650  2.6781 -0.4867  1.3151
 8331SOL    HW235673   1.236   1.031   2.735  0.9238 -1.6204  2.7857
 8332SOL     OW35674   3.619   2.223   3.088 -0.0757  0.7677  0.1072
 8332SOL    HW135675   3.684   2.190   3.156 -1.5352 -0.2473  1.0300
 8332SOL    HW235676   3.532   2.245   3.133 -0.8551  0.6833 -1.3274
 8333SOL     OW35677   1.139   1.704   2.687 -0.1106  0.5431 -0.4257
 8333SOL    HW135678   1.125   1.798   2.718  1.9962  0.2866  1.5280
 8333SOL    HW235679   1.235   1.692   2.662  0.0190 -1.5049  0.9669
 8334SOL     OW35680   8.663   9.656   1.818  0.0275  0.0186 -0.1332
 8334SOL    HW135681   8.668   9.614   1.909  0.3533  0.0184 -0.1510
 8334SOL    HW235682   8.753   9.653   1.775 -0.2995 -0.7071 -0.7820
 8335SOL     OW35683   2.658   9.606   3.518 -0.4079 -0.2786  0.2929
 8335SOL    HW135684   2.646   9.628   3.422  1.2194  1.1246  0.3803
 8335SOL    HW235685   2.739   9.653   3.553 -0.1404 -1.9206  1.9817
 8336SOL     OW35686   7.371   1.640   3.865 -0.5629 -0.3928  0.0047
 8336SOL    HW135687   7.277   1.674   3.863 -1.1687 -1.9875  0.2384
 8336SOL    HW235688   7.384   1.583   3.946 -0.4618 -3.0628 -1.8334
 8337SOL     OW35689   4.024   9.574   4.214 -0.3091  0.9009 -1.3350
 8337SOL    HW135690   4.085   9.653   4.211  1.2754 -0.2350  0.3358
 8337SOL    HW235691   3.973   9.574   4.300  0.4881 -0.4627 -0.8476
 8338SOL     OW35692   2.021   4.218   4.212  0.2999 -0.1385 -0.1330
 8338SOL    HW135693   1.942   4.161   4.186 -1.1948  0.7450  2.3359
 8338SOL    HW235694   2.068   4.177   4.289 -0.3712  1.5363  1.2166
 8339SOL     OW35695   4.303   0.841   3.798  1.0217 -0.3349  0.1006
 8339SOL    HW135696   4.357   0.777   3.743  0.3740  0.1513 -1.1280
 8339SOL    HW235697   4.333   0.837   3.893 -0.4383 -4.0668  0.4958
 8340SOL     OW35698   3.088   9.611   0.925 -0.2174  0.4074 -0.4501
 8340SOL    HW135699   3.053   9.533   0.976  1.0581  1.5041  2.2397
 8340SOL    HW235700   3.026   9.689   0.937 -0.2505  0.4803 -1.1166
 8341SOL     OW35701   3.955   1.745   5.564  0.5510  0.4603 -0.1322
 8341SOL    HW135702   4.023   1.793   5.620  1.5246  0.0634 -0.9678
 8341SOL    HW235703   3.932   1.657   5.607  0.0787  0.8765  0.4799
 8342SOL     OW35704   0.334   7.682   1.034  0.1111 -0.2757 -0.3144
 8342SOL    HW135705   0.397   7.622   1.085  1.0003  0.5710 -0.4096
 8342SOL    HW235706   0.378   7.769   1.016 -1.7547  1.0315  1.2310
 8343SOL     OW35707   6.264   9.104   2.603 -0.1762  0.1390  0.2439
 8343SOL    HW135708   6.172   9.118   2.567  0.3725 -2.1260 -2.1096
 8343SOL    HW235709   6.331   9.118   2.531  1.1121 -1.6712  1.0505
 8344SOL     OW35710   1.925   7.243   4.718  0.2622 -0.7908 -0.1964
 8344SOL    HW135711   2.023   7.226   4.726  0.2348 -1.3727 -0.9708
 8344SOL    HW235712   1.909   7.340   4.699  0.7703 -0.9402 -1.4233
 8345SOL     OW35713   0.768   2.584   2.547  0.2590 -0.0872  0.3035
 8345SOL    HW135714   0.720   2.496   2.545  1.2932 -0.6390 -0.5274
 8345SOL    HW235715   0.825   2.590   2.629  0.5655 -0.3965  0.1133
 8346SOL     OW35716   7.212   6.981   2.842  0.5793  0.6104 -0.3482
 8346SOL    HW135717   7.199   6.950   2.747  0.5228  0.2627 -0.2250
 8346SOL    HW235718   7.146   7.054   2.862 -0.3777 -0.3199 -0.1120
 8347SOL     OW35719   3.059   6.628   2.295  0.3224 -0.7815 -0.6464
 8347SOL    HW135720   3.008   6.632   2.209 -1.1876  0.1177  0.2902
 8347SOL    HW235721   2.997   6.611   2.371  1.4733 -0.1956  0.4498
 8348SOL     OW35722   0.665   8.478   0.848 -0.3897  0.5596  0.4134
 8348SOL    HW135723   0.751   8.443   0.812  0.0838 -0.6386  2.6185
 8348SOL    HW235724   0.638   8.559   0.796  1.8733  0.7400 -0.5499
 8349SOL     OW35725   8.218   7.170   2.877  0.1046 -0.0979  0.4403
 8349SOL    HW135726   8.238   7.268   2.870 -0.6097 -0.0116 -0.5947
 8349SOL    HW235727   8.119   7.157   2.869  0.1959 -0.8985  0.6492
 8350SOL     OW35728   5.958   0.034   4.255 -0.4566  0.5593  0.3309
 8350SOL    HW135729   5.998   0.116   4.296 -0.3028  0.8986 -0.4792
 8350SOL    HW235730   5.929   0.054   4.161 -1.5255  0.0150  0.5346
 8351SOL     OW35731   3.548   6.745   3.243  0.4407 -0.1679  0.3008
 8351SOL    HW135732   3.607   6.681   3.292  0.3586 -0.2728  0.2626
 8351SOL    HW235733   3.475   6.776   3.304  0.4546 -0.1442  0.3053
 8352SOL     OW35734   2.171   8.836   5.592 -0.4136 -0.1004 -0.7035
 8352SOL    HW135735   2.159   8.847   5.493  0.2417  0.7099 -0.6933
 8352SOL    HW235736   2.268   8.846   5.615 -0.2054 -2.7239 -0.2818
 8353SOL     OW35737   3.443   9.237   2.739  0.4299 -0.1525  0.3929
 8353SOL    HW135738   3.398   9.297   2.804  1.4300 -0.9512  1.8646
 8353SOL    HW235739   3.377   9.173   2.701 -0.2553  0.6248  0.2686
 8354SOL     OW35740   3.850   4.098   4.078 -0.0241 -0.5663  0.7983
 8354SOL    HW135741   3.849   4.020   4.015  0.8453  0.8881 -1.0640
 8354SOL    HW235742   3.935   4.149   4.066 -0.8005  0.9591  1.6294
 8355SOL     OW35743   4.476   8.086   0.522 -0.3365  0.4710 -0.5030
 8355SOL    HW135744   4.381   8.082   0.491  0.0570  1.5727 -1.8880
 8355SOL    HW235745   4.537   8.097   0.443  0.7808  1.9280  0.5253
 8356SOL     OW35746   4.469   3.332   1.107 -0.4838 -0.5519  0.7908
 8356SOL    HW135747   4.459   3.287   1.019  0.2841  0.3092  0.2561
 8356SOL    HW235748   4.472   3.263   1.179  0.5205 -1.3468 -0.0027
 8357SOL     OW35749   3.118   3.286   1.896  0.0084 -0.0884  0.7170
 8357SOL    HW135750   3.141   3.330   1.809  1.6034 -0.3740  0.9811
 8357SOL    HW235751   3.183   3.316   1.967 -1.3713  0.2683  1.8449
 8358SOL     OW35752   1.613   8.694   0.022  0.3699 -0.0744  0.2777
 8358SOL    HW135753   1.600   8.595   0.023 -0.9888  0.0948  0.3123
 8358SOL    HW235754   1.667   8.720  -0.058 -1.8242 -0.5608 -1.3953
 8359SOL     OW35755   2.195   7.778   3.182 -0.3462  0.2667 -0.1326
 8359SOL    HW135756   2.180   7.803   3.086 -0.8446 -0.1039 -0.1513
 8359SOL    HW235757   2.225   7.858   3.233  0.7766  0.2793 -0.7813
 8360SOL     OW35758   2.666   7.991   2.873  0.9861  0.6761  0.3649
 8360SOL    HW135759   2.620   8.070   2.914  1.2219  0.7860  0.4127
 8360SOL    HW235760   2.726   7.948   2.940  1.8458  1.2263 -0.0469
 8361SOL     OW35761   2.118   4.431   5.547  0.2466  0.3516 -0.1557
 8361SOL    HW135762   2.142   4.379   5.630 -0.8727  1.3906  0.8393
 8361SOL    HW235763   2.108   4.528   5.571 -2.6511  0.2904 -0.9775
 8362SOL     OW35764   8.080   0.398   4.146  0.2046  0.2541 -0.5398
 8362SOL    HW135765   8.123   0.478   4.104  0.1186  0.2196 -0.6925
 8362SOL    HW235766   8.019   0.354   4.080 -0.2921  0.4743 -0.2307
 8363SOL     OW35767   0.800   2.639   1.920  0.2028  0.2995  0.0608
 8363SOL    HW135768   0.826   2.722   1.969 -2.1067  1.3087 -0.3423
 8363SOL    HW235769   0.812   2.653   1.822  0.3936 -0.0601  0.0329
 8364SOL     OW35770   0.963   0.633   0.107  0.1638  0.2130 -0.0301
 8364SOL    HW135771   0.897   0.567   0.143 -0.3585 -0.5719 -2.3168
 8364SOL    HW235772   0.916   0.715   0.077  0.0357 -0.7032 -2.4973
 8365SOL     OW35773   0.586   7.435   3.204 -0.2029 -0.0425 -0.2460
 8365SOL    HW135774   0.637   7.357   3.241 -0.4711 -0.1289 -0.0576
 8365SOL    HW235775   0.607   7.445   3.106  0.6714  0.3258 -0.0197
 8366SOL     OW35776   0.481   9.272   4.828  0.7360 -0.2682  0.3612
 8366SOL    HW135777   0.466   9.341   4.898  1.8581  0.2231  0.1326
 8366SOL    HW235778   0.576   9.239   4.834  0.9626  0.0601 -1.1624
 8367SOL     OW35779   2.199   3.871   3.072 -0.5500 -0.1260 -0.1110
 8367SOL    HW135780   2.262   3.916   3.136 -1.8543  0.6082  0.6751
 8367SOL    HW235781   2.175   3.781   3.108 -1.1953  0.2413  0.3757
 8368SOL     OW35782   1.285   3.967   2.805 -0.3830 -0.2987 -0.4037
 8368SOL    HW135783   1.307   4.043   2.744 -1.8933 -0.9053 -1.7694
 8368SOL    HW235784   1.191   3.977   2.837 -0.8013 -1.8694 -1.0767
 8369SOL     OW35785   4.264   4.089   1.255 -0.1760  0.3206 -0.7900
 8369SOL    HW135786   4.202   4.085   1.333 -1.2683 -1.6466 -1.7307
 8369SOL    HW235787   4.212   4.081   1.170  1.1808  0.6359 -1.6741
 8370SOL     OW35788   6.063   7.627   2.283 -0.0326 -0.2042 -0.1759
 8370SOL    HW135789   6.091   7.625   2.187 -1.0586  0.9994 -0.5097
 8370SOL    HW235790   6.030   7.537   2.310 -2.7507  0.2436 -1.8703
 8371SOL     OW35791   3.161   1.890   3.448  0.2329  0.3945 -0.1346
 8371SOL    HW135792   3.188   1.918   3.355 -0.5854 -2.4909 -1.3057
 8371SOL    HW235793   3.129   1.795   3.446 -1.9204  0.9916  2.7276
 8372SOL     OW35794   9.506   5.229   1.460 -0.4032 -0.3222 -0.1713
 8372SOL    HW135795   9.590   5.275   1.489 -0.0467 -1.6795  1.0486
 8372SOL    HW235796   9.441   5.296   1.426  0.8394  0.8474 -0.2771
 8373SOL     OW35797   2.018   4.124   2.548 -0.0139 -0.3990 -0.3961
 8373SOL    HW135798   1.978   4.077   2.470  0.1369 -0.1455 -0.6299
 8373SOL    HW235799   1.974   4.094   2.633 -1.4350  0.6677 -0.7407
 8374SOL     OW35800   5.577   9.941   2.242  0.0771 -0.0349 -0.1455
 8374SOL    HW135801   5.628   9.969   2.161 -0.5285 -1.7194 -1.1166
 8374SOL    HW235802   5.616   9.856   2.279 -0.6702 -0.1640  0.3633
 8375SOL     OW35803   9.096   6.628   1.349 -0.3902 -0.5694 -0.0327
 8375SOL    HW135804   9.113   6.726   1.343  0.2143 -0.6609  0.1753
 8375SOL    HW235805   9.016   6.612   1.407  1.1508 -0.3287  2.2347
 8376SOL     OW35806   3.954   3.385   0.591 -0.2204  0.0458  0.9459
 8376SOL    HW135807   4.003   3.461   0.548  2.9161 -1.6918  1.2933
 8376SOL    HW235808   3.960   3.304   0.533 -0.2850 -0.9406  2.2903
 8377SOL     OW35809   4.625   3.843   3.278  0.4982 -0.0799 -0.4059
 8377SOL    HW135810   4.616   3.802   3.187  0.0531 -0.3652 -0.2381
 8377SOL    HW235811   4.711   3.814   3.319  2.5791  3.1457 -2.2720
 8378SOL     OW35812   6.070   0.515   0.649  0.1198  0.4158 -0.4798
 8378SOL    HW135813   6.144   0.566   0.604 -1.0395 -0.0405 -2.9756
 8378SOL    HW235814   5.989   0.514   0.589 -0.7388 -2.1256  0.6668
 8379SOL     OW35815   2.492   2.911   0.250  0.7263  0.0451  0.2756
 8379SOL    HW135816   2.580   2.951   0.277  0.8750  1.3951 -2.0918
 8379SOL    HW235817   2.481   2.918   0.151 -0.2775 -3.7721  0.0500
 8380SOL     OW35818   8.997   7.665   3.657  0.4777 -0.4268  0.2569
 8380SOL    HW135819   9.056   7.740   3.686  1.8672 -0.7495 -1.6672
 8380SOL    HW235820   8.961   7.617   3.737 -0.6935  2.4736  1.5225
 8381SOL     OW35821   6.298   7.594   2.767  0.0797  0.3321 -0.6115
 8381SOL    HW135822   6.393   7.568   2.749  0.2521  0.3032  0.3210
 8381SOL    HW235823   6.237   7.534   2.715  0.5470 -0.4296 -0.2926
 8382SOL     OW35824   5.466   0.603   4.276  0.2552 -0.1380 -0.5183
 8382SOL    HW135825   5.377   0.625   4.238 -0.0036  0.1049  0.2218
 8382SOL    HW235826   5.530   0.677   4.256  0.2779 -0.2858 -0.9973
 8383SOL     OW35827   5.861   0.633   4.038  0.2129 -0.1227  0.1901
 8383SOL    HW135828   5.921   0.693   4.091  0.2841 -0.0581  0.0362
 8383SOL    HW235829   5.868   0.540   4.073  1.2500 -0.3279 -0.5458
 8384SOL     OW35830   3.524   1.583   1.334  0.4215  0.5316 -0.1323
 8384SOL    HW135831   3.433   1.622   1.347  1.1223  1.3694  2.6565
 8384SOL    HW235832   3.592   1.657   1.339  1.5194 -0.5743  1.9199
 8385SOL     OW35833   2.977   0.440   4.598  0.3288  0.0930 -0.1322
 8385SOL    HW135834   2.940   0.530   4.621 -0.0409  0.0515 -0.5730
 8385SOL    HW235835   3.040   0.411   4.671  1.1042  1.0791 -0.3932
 8386SOL     OW35836   2.235   1.722   2.603  0.3355 -0.6563 -0.4329
 8386SOL    HW135837   2.156   1.726   2.543  0.6434  0.0704 -0.8057
 8386SOL    HW235838   2.208   1.688   2.693 -0.8322  1.5499  0.1041
 8387SOL     OW35839   1.831   7.678   3.890  0.4837 -0.4521 -0.2097
 8387SOL    HW135840   1.904   7.684   3.957  0.4721 -0.4637 -0.1956
 8387SOL    HW235841   1.744   7.663   3.937  0.6221 -1.5405 -0.2792
 8388SOL     OW35842   3.813   9.454   0.745  0.4318 -0.0163 -0.3501
 8388SOL    HW135843   3.779   9.367   0.706 -1.1561  0.4619 -0.0933
 8388SOL    HW235844   3.788   9.529   0.684  0.9613  0.3657 -0.0956
 8389SOL     OW35845   1.901   7.887   0.757  0.6889 -0.3739  0.0473
 8389SOL    HW135846   1.962   7.811   0.780 -0.3622 -0.9445  1.0133
 8389SOL    HW235847   1.948   7.950   0.696  1.4906 -1.9268 -0.9702
 8390SOL     OW35848   1.433   0.996   1.560 -0.2809 -0.3589 -0.3021
 8390SOL    HW135849   1.468   1.008   1.467  1.2719 -1.8989  0.0729
 8390SOL    HW235850   1.333   1.003   1.559 -0.2953 -0.6770 -2.1244
 8391SOL     OW35851   8.273   4.531   1.979  0.3190  0.2043  0.2886
 8391SOL    HW135852   8.223   4.532   2.066  0.5805  0.1617  0.4432
 8391SOL    HW235853   8.331   4.612   1.974  1.1857 -0.3788  0.6857
 8392SOL     OW35854   3.726   4.777   3.028  0.2858  0.1044  0.7190
 8392SOL    HW135855   3.804   4.764   3.089  1.1602 -0.0352 -0.4153
 8392SOL    HW235856   3.684   4.866   3.046  2.8674  1.7646 -1.0108
 8393SOL     OW35857   5.257   7.575   1.693  0.1091 -0.4429 -0.0850
 8393SOL    HW135858   5.191   7.542   1.627  0.5933 -1.7632  0.0717
 8393SOL    HW235859   5.233   7.668   1.721 -0.6472 -0.2416 -1.3686
 8394SOL     OW35860   2.373   9.576   5.523 -0.1149  0.7614 -0.6854
 8394SOL    HW135861   2.288   9.524   5.511 -0.5440  1.3234 -0.0832
 8394SOL    HW235862   2.352   9.673   5.536  0.6588  1.0151 -1.2751
 8395SOL     OW35863   6.629   0.984   3.697  0.1330  0.2228  0.3286
 8395SOL    HW135864   6.654   0.935   3.614 -1.4725  0.2504 -0.1869
 8395SOL    HW235865   6.570   1.061   3.674 -2.3758 -1.2164  1.6739
 8396SOL     OW35866   0.143   8.997   0.355 -0.0872 -0.3781 -0.0771
 8396SOL    HW135867   0.182   8.930   0.293  0.1063 -1.2146  0.9323
 8396SOL    HW235868   0.068   9.045   0.310 -1.5130 -2.6245 -0.1907
 8397SOL     OW35869   4.285   8.818   0.239 -0.2992 -0.3843  0.1495
 8397SOL    HW135870   4.319   8.748   0.177 -0.6879 -1.3543  1.0110
 8397SOL    HW235871   4.227   8.775   0.309 -0.5368  0.7933  0.6860
 8398SOL     OW35872   7.800   9.188   4.822  0.0980 -0.2895  0.3823
 8398SOL    HW135873   7.829   9.194   4.917  1.1288  1.7735 -0.0321
 8398SOL    HW235874   7.876   9.158   4.765  0.7486  2.5244 -0.3302
 8399SOL     OW35875   1.724   2.910   4.756 -0.4044  0.3811 -0.3106
 8399SOL    HW135876   1.805   2.876   4.707 -0.3354 -0.7866  0.5674
 8399SOL    HW235877   1.670   2.968   4.696  0.3392 -0.0007 -1.3659
 8400SOL     OW35878   7.895   7.561   3.142  0.3489  0.0455  0.4436
 8400SOL    HW135879   7.995   7.562   3.139  0.3435  0.8619  0.4757
 8400SOL    HW235880   7.864   7.472   3.174  1.0563 -0.3699  0.0063
 8401SOL     OW35881   0.980   1.450   4.913 -0.3135  0.4864 -0.0486
 8401SOL    HW135882   1.033   1.519   4.963  1.5973 -0.8378 -0.2057
 8401SOL    HW235883   0.986   1.468   4.815 -0.1309  0.3079 -0.0694
 8402SOL     OW35884   5.054   0.488   3.862  0.0204  0.2089 -0.0913
 8402SOL    HW135885   5.069   0.427   3.940  1.1697 -1.0219 -1.2511
 8402SOL    HW235886   4.977   0.548   3.882  0.3009 -0.0708  2.0028
 8403SOL     OW35887   2.584   5.974   2.950  0.6389  0.2844 -0.4993
 8403SOL    HW135888   2.539   5.909   2.889 -3.9756  0.2194  2.6325
 8403SOL    HW235889   2.601   6.060   2.901  0.6728 -1.0407 -2.8813
 8404SOL     OW35890   6.613   1.070   3.115  0.6379 -0.8061 -0.7116
 8404SOL    HW135891   6.667   1.093   3.033  0.6932 -1.7436 -0.9356
 8404SOL    HW235892   6.639   1.132   3.189  0.6675 -0.0169 -1.3661
 8405SOL     OW35893   8.832   3.543   1.389  0.1330 -0.0288  0.0268
 8405SOL    HW135894   8.902   3.586   1.332 -0.3458  0.6550 -0.0408
 8405SOL    HW235895   8.744   3.543   1.342  0.2763 -1.7701 -0.2948
 8406SOL     OW35896   4.612   3.121   0.723 -0.1593  0.1172  0.2922
 8406SOL    HW135897   4.692   3.099   0.667  0.3985  0.7439  0.8296
 8406SOL    HW235898   4.579   3.039   0.769 -0.6799 -0.4248 -1.0227
 8407SOL     OW35899   5.878   1.035   2.431  0.5359 -0.0452 -0.2026
 8407SOL    HW135900   5.918   0.990   2.351  0.6890  0.6191 -0.4968
 8407SOL    HW235901   5.781   1.012   2.436  0.5604 -0.2197 -0.4837
 8408SOL     OW35902   4.486   1.903   2.960  0.2538  0.6061  0.6036
 8408SOL    HW135903   4.434   1.870   3.039 -1.5424  3.8636  0.8636
 8408SOL    HW235904   4.518   1.996   2.977  1.7791  0.5239 -1.6164
 8409SOL     OW35905   2.437   0.383   4.788  0.4405  0.3251  0.9238
 8409SOL    HW135906   2.450   0.442   4.868 -0.6408 -1.6519  2.5950
 8409SOL    HW235907   2.388   0.301   4.815  0.5738 -0.6497 -1.6876
 8410SOL     OW35908   7.234   1.844   3.548 -0.1296  0.3443 -0.3358
 8410SOL    HW135909   7.285   1.816   3.467 -0.1874  0.5592 -0.4492
 8410SOL    HW235910   7.292   1.901   3.606 -0.1564  0.3718 -0.3354
 8411SOL     OW35911   3.662   8.615   2.578  0.3684 -0.3673 -0.3111
 8411SOL    HW135912   3.589   8.567   2.626  0.9072 -0.7793  0.0876
 8411SOL    HW235913   3.678   8.704   2.621 -0.8645  0.3402 -1.2570
 8412SOL     OW35914   2.723   6.613   1.272  0.1333 -0.1126 -0.6836
 8412SOL    HW135915   2.745   6.710   1.269 -0.5281  0.0965  0.8120
 8412SOL    HW235916   2.682   6.586   1.185  1.6964  0.5867 -1.6742
 8413SOL     OW35917   9.183   5.204   1.679 -0.6578  0.1544  0.1115
 8413SOL    HW135918   9.186   5.173   1.774  1.8978  1.6201  0.5667
 8413SOL    HW235919   9.089   5.219   1.651 -1.6173 -2.6540  1.6103
 8414SOL     OW35920   0.393   1.864   1.483 -0.4045 -0.0842  0.2665
 8414SOL    HW135921   0.323   1.931   1.506  0.3132  0.7481  0.0699
 8414SOL    HW235922   0.388   1.787   1.546 -1.4484 -0.0044  0.2876
 8415SOL     OW35923   1.070   1.599   4.699 -0.1189  0.9108  0.0676
 8415SOL    HW135924   1.169   1.612   4.698 -0.1433  1.0404 -1.1537
 8415SOL    HW235925   1.025   1.688   4.704 -0.1739  0.8600  0.4649
 8416SOL     OW35926   7.812   0.838   3.291  0.0675 -0.0863  0.2551
 8416SOL    HW135927   7.785   0.749   3.254  2.1304 -0.5272 -0.2629
 8416SOL    HW235928   7.801   0.908   3.221 -2.0821  0.2040  0.8295
 8417SOL     OW35929   0.842   1.545   0.772  1.0123  0.3090 -0.2467
 8417SOL    HW135930   0.916   1.566   0.836  0.4983 -1.0720  0.8318
 8417SOL    HW235931   0.763   1.510   0.822  0.2150  0.2329 -1.5359
 8418SOL     OW35932   0.895   0.372   0.259 -0.0080  0.5017 -0.2690
 8418SOL    HW135933   0.816   0.314   0.278  1.4378 -1.5062 -0.2282
 8418SOL    HW235934   0.953   0.329   0.190  3.3145 -0.2999  2.8020
 8419SOL     OW35935   1.357   3.120   3.864  0.1599  0.3970  0.0439
 8419SOL    HW135936   1.361   3.220   3.859  2.5179  0.2559 -1.7732
 8419SOL    HW235937   1.424   3.087   3.931  0.5162 -0.0441 -0.5234
 8420SOL     OW35938   8.152   0.828   5.023  0.0517  0.2385  1.0586
 8420SOL    HW135939   8.171   0.788   4.934  0.1787  0.7469  0.8548
 8420SOL    HW235940   8.183   0.766   5.095  0.9069  0.2985  0.7424
 8421SOL     OW35941   8.532   4.768   1.690  0.1473 -0.3621 -0.1676
 8421SOL    HW135942   8.631   4.762   1.693  0.1460 -0.2345  0.1618
 8421SOL    HW235943   8.494   4.679   1.666  0.4277  0.1402 -2.6249
 8422SOL     OW35944   2.396   3.198   3.933 -0.5204 -0.8274 -0.5560
 8422SOL    HW135945   2.367   3.114   3.887  1.0634 -1.5431 -0.2974
 8422SOL    HW235946   2.420   3.267   3.865 -2.5000 -0.3394 -0.7654
 8423SOL     OW35947   4.800   7.732   1.607  0.6415  0.1324 -0.0650
 8423SOL    HW135948   4.814   7.800   1.535  1.4983  0.5039  0.4343
 8423SOL    HW235949   4.838   7.766   1.693  1.5391 -1.1746  0.0816
 8424SOL     OW35950   8.616   6.286   1.975 -0.3097  0.1225  0.4235
 8424SOL    HW135951   8.656   6.254   1.889 -0.1232 -1.9566  1.2703
 8424SOL    HW235952   8.524   6.321   1.957 -0.1182  0.1064 -0.6803
 8425SOL     OW35953   7.654   1.937   2.791 -0.4616 -0.3442  0.1219
 8425SOL    HW135954   7.660   1.902   2.884  0.8337 -0.7321 -0.0961
 8425SOL    HW235955   7.741   1.979   2.765 -1.1109  0.5897 -0.5913
 8426SOL     OW35956   7.008   7.816   3.474 -0.9242  0.3903  0.2056
 8426SOL    HW135957   7.083   7.877   3.449 -1.6627 -0.2974 -4.2566
 8426SOL    HW235958   7.045   7.729   3.504  0.1203  0.6839 -0.2022
 8427SOL     OW35959   4.417   8.994   1.428  0.8538  0.4825  0.6271
 8427SOL    HW135960   4.507   9.035   1.431  1.0672 -0.0037  1.0092
 8427SOL    HW235961   4.348   9.060   1.457  1.1018  0.8070  0.4717
 8428SOL     OW35962   4.537   0.953   5.091  0.6343 -0.4045  0.2263
 8428SOL    HW135963   4.561   0.984   5.183  1.3974  0.6056 -0.3016
 8428SOL    HW235964   4.461   1.008   5.057  1.3032  0.2023 -0.3047
 8429SOL     OW35965   6.251   8.993   1.216 -0.6223  0.6033  0.3155
 8429SOL    HW135966   6.303   9.071   1.181  0.9393 -0.0456  1.1436
 8429SOL    HW235967   6.314   8.924   1.253 -1.9861 -1.0467 -0.3769
 8430SOL     OW35968   4.267   1.053   0.242 -0.3340  0.4935 -0.2941
 8430SOL    HW135969   4.201   1.111   0.194  0.8892  2.8014  0.7512
 8430SOL    HW235970   4.342   1.030   0.179 -0.5485  0.4897 -0.5517
 8431SOL     OW35971   1.141   9.136   1.279  0.4079  0.2602 -0.1633
 8431SOL    HW135972   1.064   9.078   1.305  1.3060 -0.5408  0.7624
 8431SOL    HW235973   1.227   9.091   1.306  1.1816  1.2705 -0.9182
 8432SOL     OW35974   4.086   7.472   5.081 -0.1380 -0.0714  0.0950
 8432SOL    HW135975   4.176   7.503   5.049  0.5357  0.1234  2.1104
 8432SOL    HW235976   4.022   7.472   5.004  1.4266  0.3444 -1.2521
 8433SOL     OW35977   0.539   7.014   2.113 -0.1452 -0.2628 -0.2889
 8433SOL    HW135978   0.595   7.081   2.064 -0.4129  1.2939  1.4778
 8433SOL    HW235979   0.564   7.015   2.210 -3.5731  0.9002  0.6542
 8434SOL     OW35980   9.957   2.696   1.002 -0.4076 -0.2912 -0.3253
 8434SOL    HW135981  10.030   2.718   0.938 -0.6392  0.9278 -0.1653
 8434SOL    HW235982   9.985   2.618   1.058  0.6957  0.0488 -0.3920
 8435SOL     OW35983   4.063   8.507   0.015  0.3606  0.0227 -0.6128
 8435SOL    HW135984   3.998   8.443   0.054 -0.0218 -0.2118 -1.6356
 8435SOL    HW235985   4.152   8.463   0.006  0.5404  0.1897  0.3219
 8436SOL     OW35986   2.073   9.853   3.121 -0.2026  0.3596  0.5831
 8436SOL    HW135987   2.067   9.942   3.076  1.5979  0.3441  0.2746
 8436SOL    HW235988   2.061   9.865   3.220  0.8324  1.0579  0.6297
 8437SOL     OW35989   9.953   1.013   4.854 -0.1361 -0.6473  0.3855
 8437SOL    HW135990   9.901   0.928   4.864  1.0325 -1.3088  1.0504
 8437SOL    HW235991  10.031   1.011   4.916  0.6813  0.3285 -0.5927
 8438SOL     OW35992   2.264   5.833   2.352  0.3282  0.6620 -0.0788
 8438SOL    HW135993   2.235   5.929   2.353  0.9435  0.8527  1.1718
 8438SOL    HW235994   2.191   5.776   2.316 -0.4874  1.4777  0.2657
 8439SOL     OW35995   3.101   0.530   3.045 -0.0080  0.1594  0.1182
 8439SOL    HW135996   3.190   0.562   3.079 -0.0389  0.5259 -0.1366
 8439SOL    HW235997   3.034   0.604   3.056  0.0348  0.3618 -0.9532
 8440SOL     OW35998   2.437   1.565   3.929 -0.2799  0.5594 -0.6437
 8440SOL    HW135999   2.350   1.614   3.939 -0.1965  0.3191  1.6045
 8440SOL    HW236000   2.504   1.625   3.885 -0.2100  2.5071  1.9872
 8441SOL     OW36001   0.699   4.083   2.399  0.0905 -0.0342  0.1181
 8441SOL    HW136002   0.616   4.094   2.454 -0.8652 -0.2830 -1.2432
 8441SOL    HW236003   0.769   4.146   2.432  0.1151 -1.3372  2.6798
 8442SOL     OW36004   9.197   3.888   2.554  1.0349 -0.0856 -0.2539
 8442SOL    HW136005   9.243   3.898   2.642  0.5121 -2.1263  0.2857
 8442SOL    HW236006   9.190   3.977   2.510 -1.1912  1.5030  3.0369
 8443SOL     OW36007   2.032   0.097   5.051 -0.0093 -0.0108 -0.4332
 8443SOL    HW136008   1.972   0.060   4.980 -0.2444 -0.1208 -0.1779
 8443SOL    HW236009   2.052   0.027   5.119 -0.6935  0.4027  0.2088
 8444SOL     OW36010   6.749   0.689   1.736 -0.4550 -0.1960 -0.2366
 8444SOL    HW136011   6.789   0.627   1.804  3.0395 -1.1933 -3.0961
 8444SOL    HW236012   6.663   0.650   1.702  0.5117 -2.3346 -0.2894
 8445SOL     OW36013   9.828   2.172   4.065  0.3632 -0.4014  0.2199
 8445SOL    HW136014   9.769   2.102   4.024 -0.3442  0.2322  0.1270
 8445SOL    HW236015   9.860   2.141   4.154  0.0353 -0.8274  0.1924
 8446SOL     OW36016   1.862   4.487   3.176 -0.0218  0.3342 -0.7633
 8446SOL    HW136017   1.878   4.470   3.079 -0.6309 -1.5693 -0.5624
 8446SOL    HW236018   1.916   4.423   3.230  1.1293  2.0802  0.1970
 8447SOL     OW36019   1.435   2.035   3.290  0.8086 -0.0701 -0.3138
 8447SOL    HW136020   1.470   1.988   3.372  2.2666  0.9868 -0.3099
 8447SOL    HW236021   1.471   1.989   3.209  0.5048 -0.2635 -0.3377
 8448SOL     OW36022   3.579   1.761   4.262  0.1295  0.7748  0.2617
 8448SOL    HW136023   3.552   1.821   4.186  0.5911  0.5871 -0.0575
 8448SOL    HW236024   3.667   1.718   4.240  0.5420  1.1554  1.1476
 8449SOL     OW36025   0.195   7.031   3.897  0.2592 -0.3362 -0.0628
 8449SOL    HW136026   0.119   7.095   3.901  2.1200  2.0400 -1.6581
 8449SOL    HW236027   0.245   7.032   3.984 -0.4277 -0.5527  0.3375
 8450SOL     OW36028   3.165   4.993   5.601 -0.2025 -0.0520  0.0639
 8450SOL    HW136029   3.141   4.922   5.666 -0.6911 -2.4294 -2.6200
 8450SOL    HW236030   3.096   5.066   5.605 -1.5428 -1.3187  0.5258
 8451SOL     OW36031   4.620   0.642   3.210  0.5066 -0.8291  0.2280
 8451SOL    HW136032   4.593   0.641   3.114 -0.1164 -1.0922  0.4066
 8451SOL    HW236033   4.700   0.702   3.221  0.5107 -0.7074 -0.4317
 8452SOL     OW36034   3.139   0.305   3.255 -0.2019 -0.1307  0.0901
 8452SOL    HW136035   3.140   0.397   3.217 -0.1507 -0.0862  0.2000
 8452SOL    HW236036   3.112   0.240   3.184  0.1792 -0.0826 -0.0957
 8453SOL     OW36037   0.747   4.340   2.965  0.6950 -0.4510  0.1749
 8453SOL    HW136038   0.712   4.268   3.025 -1.8953  0.7333  0.1502
 8453SOL    HW236039   0.738   4.429   3.010  0.8139  0.2041 -1.0727
 8454SOL     OW36040   2.249   5.188   0.053 -0.0903  0.2710  0.5782
 8454SOL    HW136041   2.312   5.110   0.060 -0.7805 -0.7979 -3.7807
 8454SOL    HW236042   2.300   5.269   0.024 -0.3681 -0.0812 -0.9072
 8455SOL     OW36043   4.330   2.738   5.102  0.1503 -0.6042  0.1020
 8455SOL    HW136044   4.325   2.762   5.199  2.1805 -0.9262  0.3001
 8455SOL    HW236045   4.354   2.642   5.092 -1.2579 -0.8881 -0.7343
 8456SOL     OW36046   1.126   6.599   0.754  0.1056 -0.4082  0.0127
 8456SOL    HW136047   1.182   6.647   0.687  0.6594  0.3947  1.0310
 8456SOL    HW236048   1.030   6.604   0.727  0.2030  0.9344 -0.1113
 8457SOL     OW36049   9.397   9.495   2.402 -0.8079 -0.3582 -0.1419
 8457SOL    HW136050   9.416   9.503   2.304 -0.4417 -0.0357 -0.0436
 8457SOL    HW236051   9.300   9.475   2.415 -0.8351 -0.5062 -0.5769
 8458SOL     OW36052   0.999   6.944   4.242 -0.0844  0.3740 -0.2319
 8458SOL    HW136053   0.946   6.862   4.218  0.5872 -0.0715 -0.2242
 8458SOL    HW236054   1.016   6.945   4.341  2.5644 -1.1289 -0.6207
 8459SOL     OW36055   2.961   2.055   0.710  0.0567 -0.0252 -0.0837
 8459SOL    HW136056   2.983   1.988   0.781  1.0398  0.1824 -0.1920
 8459SOL    HW236057   2.919   2.136   0.753 -0.4339 -0.3905  0.1284
 8460SOL     OW36058   8.822   7.267   2.595 -0.5591  0.0099 -0.5067
 8460SOL    HW136059   8.898   7.228   2.648  0.1918  2.3902  0.2592
 8460SOL    HW236060   8.795   7.203   2.523  1.5020 -1.3172 -0.1466
 8461SOL     OW36061   1.249   0.973   5.352  0.0278 -0.2021 -0.2242
 8461SOL    HW136062   1.184   0.955   5.279  1.7628 -1.9349 -1.3878
 8461SOL    HW236063   1.312   1.045   5.323 -0.6986  0.7249  0.4812
 8462SOL     OW36064   4.359   9.505   3.456  0.5347  0.1651  0.3124
 8462SOL    HW136065   4.298   9.536   3.383  0.9021  0.9991  0.3567
 8462SOL    HW236066   4.341   9.558   3.539  2.1606  1.2808 -0.0270
 8463SOL     OW36067   1.285   8.237   0.748  0.2998 -0.1328 -0.5178
 8463SOL    HW136068   1.322   8.145   0.737  0.0023 -0.2015 -0.9335
 8463SOL    HW236069   1.287   8.262   0.845 -0.4434 -0.9226 -0.2887
 8464SOL     OW36070   2.748   1.767   5.548  0.0137 -0.4906  0.8371
 8464SOL    HW136071   2.672   1.721   5.594 -0.9858 -0.3177 -0.6180
 8464SOL    HW236072   2.770   1.719   5.463 -1.4324  1.9953 -1.0067
 8465SOL     OW36073   3.726   7.836   0.423 -0.7824 -0.8543 -0.1379
 8465SOL    HW136074   3.687   7.920   0.460  2.2143  0.5293  0.0493
 8465SOL    HW236075   3.738   7.769   0.496  1.2219  0.3415  0.6790
 8466SOL     OW36076   4.306   8.389   5.618  0.6379  0.7276  0.0783
 8466SOL    HW136077   4.336   8.354   5.707 -1.6950 -1.8988 -0.0933
 8466SOL    HW236078   4.353   8.340   5.545 -1.0451 -0.5506 -0.1577
 8467SOL     OW36079   4.122   1.952   4.053  0.4116  0.0013 -0.0245
 8467SOL    HW136080   4.170   1.984   4.134  1.1678 -0.6877 -0.1850
 8467SOL    HW236081   4.134   2.017   3.978 -0.8284  0.9591  0.5874
 8468SOL     OW36082   8.398   5.638   3.009  0.1388 -0.0161 -0.2336
 8468SOL    HW136083   8.375   5.546   2.978 -1.8032  0.3282  0.0986
 8468SOL    HW236084   8.440   5.689   2.934  3.7969 -1.9904  0.3470
 8469SOL     OW36085   1.154   3.587   3.850  0.2771  0.2142  0.5829
 8469SOL    HW136086   1.206   3.671   3.841 -0.2338  0.3697 -1.1608
 8469SOL    HW236087   1.131   3.571   3.946 -3.8671  4.6830  0.5148
 8470SOL     OW36088   3.161   3.755   2.283 -0.1046  0.5640 -0.3278
 8470SOL    HW136089   3.089   3.696   2.320 -0.1289 -0.7098 -2.3473
 8470SOL    HW236090   3.120   3.831   2.234 -0.0647  0.7188 -0.1229
 8471SOL     OW36091   7.609   3.743   1.585  0.0391 -0.4305 -0.4199
 8471SOL    HW136092   7.654   3.796   1.657 -2.4463  0.3717  0.6037
 8471SOL    HW236093   7.576   3.806   1.514 -0.5000 -0.8578 -0.5525
 8472SOL     OW36094   4.323   2.722   0.632  0.2025 -0.1441 -0.1518
 8472SOL    HW136095   4.380   2.736   0.551 -0.1632 -0.7366 -0.5140
 8472SOL    HW236096   4.253   2.793   0.636 -0.5660 -0.8403 -1.0425
 8473SOL     OW36097   9.921   4.270   1.480  0.2487  0.2245 -0.4593
 8473SOL    HW136098   9.867   4.202   1.430 -0.1602  0.3080 -0.1349
 8473SOL    HW236099  10.018   4.246   1.475 -0.0148 -1.1919  0.8853
 8474SOL     OW36100   6.345   7.846   3.665 -0.1898 -1.3809  0.1057
 8474SOL    HW136101   6.362   7.755   3.629 -1.6726 -1.2110 -1.1046
 8474SOL    HW236102   6.254   7.877   3.635  0.7551  0.9357 -0.4764
 8475SOL     OW36103   9.899   8.694   0.186 -0.4139 -0.2384 -0.1044
 8475SOL    HW136104   9.886   8.609   0.135  0.3571 -0.2430 -0.2977
 8475SOL    HW236105   9.939   8.674   0.275  0.5617 -0.0117 -0.4817
 8476SOL     OW36106   0.801   5.068   3.179 -0.4975  0.0707  0.0334
 8476SOL    HW136107   0.879   5.019   3.218  0.5357  0.8913 -0.9614
 8476SOL    HW236108   0.745   5.106   3.252  1.5514  1.8226  0.7299
 8477SOL     OW36109   6.735   9.262   1.340  0.2995 -0.2693  0.7237
 8477SOL    HW136110   6.662   9.303   1.284  1.1468  0.7626  0.3626
 8477SOL    HW236111   6.751   9.168   1.309 -1.1477 -0.6518  1.0726
 8478SOL     OW36112   9.551   1.674   5.284  0.1353 -0.4228 -0.1239
 8478SOL    HW136113   9.630   1.638   5.335  0.4675 -0.7778 -0.8857
 8478SOL    HW236114   9.582   1.738   5.215 -0.2537 -0.4742 -0.3497
 8479SOL     OW36115   7.703   9.260   4.446  0.0860  0.8134  0.3979
 8479SOL    HW136116   7.676   9.280   4.540 -1.5077  0.0056  0.1257
 8479SOL    HW236117   7.736   9.166   4.440 -1.1448  0.4050 -0.1173
 8480SOL     OW36118   0.318   9.947   0.140 -0.0643  0.2718 -0.1622
 8480SOL    HW136119   0.261   9.870   0.113  0.2014  0.2403 -0.6517
 8480SOL    HW236120   0.319   9.955   0.240 -1.3353  0.5858 -0.1619
 8481SOL     OW36121   6.690   1.394   3.795  0.4229  0.1733 -0.0596
 8481SOL    HW136122   6.612   1.332   3.791 -1.8721  3.1184 -4.0248
 8481SOL    HW236123   6.659   1.486   3.818  2.9059  1.2034 -0.6184
 8482SOL     OW36124   1.474   5.522   1.364 -0.0594  0.4215 -0.3394
 8482SOL    HW136125   1.551   5.566   1.411 -0.4754  1.3678 -0.5222
 8482SOL    HW236126   1.451   5.437   1.411 -0.0284  1.0085  0.7592
 8483SOL     OW36127   9.081   2.260   0.166 -0.3923  0.6798 -0.4838
 8483SOL    HW136128   9.048   2.353   0.156 -1.3766 -0.0361 -4.6362
 8483SOL    HW236129   9.012   2.196   0.135  2.4223 -1.1394 -3.2990
 8484SOL     OW36130   4.736   3.029   1.100  0.3315 -0.2014  0.2159
 8484SOL    HW136131   4.826   2.986   1.106 -0.0564 -1.6215 -2.6790
 8484SOL    HW236132   4.668   2.958   1.078 -0.9006  1.3789 -1.1440
 8485SOL     OW36133   0.598   0.342   1.314  0.3427  0.0401 -0.0577
 8485SOL    HW136134   0.617   0.440   1.312 -0.3151  0.1554 -1.9679
 8485SOL    HW236135   0.685   0.292   1.317  0.7111  0.6801  0.0735
 8486SOL     OW36136   3.597   8.192   1.521 -0.1160  0.2773 -0.5363
 8486SOL    HW136137   3.603   8.264   1.452 -1.7585  0.0094 -0.9768
 8486SOL    HW236138   3.561   8.109   1.480  0.5782 -0.4207  0.2532
 8487SOL     OW36139   8.256   1.204   3.137 -0.9737  0.2299  0.0553
 8487SOL    HW136140   8.253   1.263   3.218 -3.6546 -1.2924  1.0952
 8487SOL    HW236141   8.345   1.158   3.133 -0.1776  1.6187  1.1686
 8488SOL     OW36142   0.369   3.581   1.972 -0.1774 -0.0025  0.5857
 8488SOL    HW136143   0.454   3.604   2.019 -0.5018  1.9455  0.2272
 8488SOL    HW236144   0.340   3.489   2.001  1.9186 -0.6123  0.8604
 8489SOL     OW36145   1.965   8.660   5.110  0.1670  0.3758 -0.2413
 8489SOL    HW136146   1.875   8.676   5.152 -0.0167  0.0325 -0.4965
 8489SOL    HW236147   2.037   8.674   5.178 -0.0263  1.5493 -0.2672
 8490SOL     OW36148   1.819   2.569   5.324 -0.4779 -0.3743 -0.4792
 8490SOL    HW136149   1.734   2.559   5.272 -1.4715 -0.0293  1.0636
 8490SOL    HW236150   1.861   2.480   5.337  0.2557 -0.3772 -2.6274
 8491SOL     OW36151   2.250   2.652   0.530 -0.1994 -0.3095 -0.0252
 8491SOL    HW136152   2.210   2.736   0.565 -0.9770 -0.5699 -0.2733
 8491SOL    HW236153   2.342   2.670   0.495 -0.6322  0.5780 -0.7220
 8492SOL     OW36154   1.597   0.955   0.607  0.2205  0.0008  0.5999
 8492SOL    HW136155   1.688   0.916   0.592  0.2122 -0.3972  1.5487
 8492SOL    HW236156   1.600   1.019   0.684 -0.0822  0.7628 -0.0224
 8493SOL     OW36157   8.089   2.176   2.112 -0.2912 -0.0541  0.1296
 8493SOL    HW136158   8.149   2.244   2.070 -0.6085 -0.3040 -0.7411
 8493SOL    HW236159   8.000   2.177   2.066 -1.1806  0.7366  1.7918
 8494SOL     OW36160   0.288   4.731   2.585  0.1491  0.1042  0.1392
 8494SOL    HW136161   0.260   4.641   2.618  0.9609  0.0238  0.6042
 8494SOL    HW236162   0.363   4.765   2.641  1.4814  0.0155 -1.5722
 8495SOL     OW36163   7.858   8.847   2.267  0.3082 -0.5607  0.4793
 8495SOL    HW136164   7.851   8.752   2.235 -2.5082 -0.3778  0.4660
 8495SOL    HW236165   7.915   8.899   2.203  0.7663 -1.9249 -0.2443
 8496SOL     OW36166   2.324   6.635   1.905  0.1519  0.0431  0.3725
 8496SOL    HW136167   2.392   6.634   1.978 -0.2065  2.9636  0.8065
 8496SOL    HW236168   2.241   6.681   1.938 -1.2208 -1.5211 -0.8426
 8497SOL     OW36169   9.322   9.579   0.224  0.2936  0.4940 -1.0878
 8497SOL    HW136170   9.395   9.619   0.167  0.2006  0.1072 -1.4837
 8497SOL    HW236171   9.364   9.525   0.297  0.4032 -0.0747 -1.5674
 8498SOL     OW36172   0.261   6.768   2.873  0.1211  0.0805 -0.5066
 8498SOL    HW136173   0.314   6.803   2.796  1.0752  0.2550  0.2294
 8498SOL    HW236174   0.294   6.677   2.898  0.1795  0.2537  0.0554
 8499SOL     OW36175   2.804   9.938   4.435  0.8013 -0.1572 -0.0422
 8499SOL    HW136176   2.852   9.851   4.431  1.3174  0.2369 -3.3510
 8499SOL    HW236177   2.870  10.013   4.437  0.3775  0.2770 -1.4493
 8500SOL     OW36178   9.301   7.344   3.579  0.0349 -0.2045 -0.2911
 8500SOL    HW136179   9.326   7.419   3.640  1.1955 -1.7186  1.1329
 8500SOL    HW236180   9.234   7.284   3.624  1.1662 -1.5278 -0.3417
 8501SOL     OW36181   2.148   3.113   2.288  0.2686  0.4117  0.6517
 8501SOL    HW136182   2.214   3.052   2.333 -0.2147 -2.6301 -2.5462
 8501SOL    HW236183   2.058   3.071   2.288 -0.9275  2.8654  1.6408
 8502SOL     OW36184   9.215   5.577   2.463  0.6596 -0.4306 -0.1224
 8502SOL    HW136185   9.256   5.528   2.540 -0.9313  0.0217  1.0494
 8502SOL    HW236186   9.124   5.609   2.489  0.5178  0.6421 -1.8527
 8503SOL     OW36187   5.701   0.794   3.601 -0.0708  0.0378  0.1990
 8503SOL    HW136188   5.712   0.729   3.676  0.1912  0.0950  0.2109
 8503SOL    HW236189   5.608   0.788   3.565  0.2591 -1.0865 -0.4895
 8504SOL     OW36190   2.074   7.549   2.922  0.1973  0.4382 -0.0005
 8504SOL    HW136191   2.164   7.585   2.946  0.9012 -0.8230 -0.6740
 8504SOL    HW236192   2.048   7.478   2.988  0.9181 -1.0971 -1.3288
 8505SOL     OW36193   1.077   9.876   0.576 -0.9549  0.1523  0.0555
 8505SOL    HW136194   1.113   9.872   0.483  1.9305 -0.2144  1.1305
 8505SOL    HW236195   1.118   9.803   0.631 -0.9343  1.6940  2.1663
 8506SOL     OW36196   0.564   9.049   4.212  0.2289 -0.3617  0.4482
 8506SOL    HW136197   0.634   9.109   4.249 -0.3926  0.5552  0.1562
 8506SOL    HW236198   0.501   9.021   4.285  0.9427 -1.2695  0.7306
 8507SOL     OW36199   1.105   8.846   3.045  0.4634  0.7522  0.1402
 8507SOL    HW136200   1.050   8.854   3.128  0.9136 -2.7010  0.8524
 8507SOL    HW236201   1.100   8.932   2.994 -1.3697  2.2939  2.7462
 8508SOL     OW36202   9.574   6.745   2.556  0.0633 -0.3929  0.2164
 8508SOL    HW136203   9.590   6.820   2.491  2.4487 -0.4885  0.6481
 8508SOL    HW236204   9.596   6.658   2.513  0.9713 -0.5147  0.8957
 8509SOL     OW36205   3.128   5.887   2.967  0.5212 -0.2039 -0.1132
 8509SOL    HW136206   3.140   5.862   3.063 -1.5889  0.1991  0.2760
 8509SOL    HW236207   3.147   5.807   2.910  1.6892 -0.4707  0.6318
 8510SOL     OW36208   9.779   9.739   3.149 -0.0735 -0.1495  0.1038
 8510SOL    HW136209   9.853   9.764   3.087  1.0004 -0.0417  1.3987
 8510SOL    HW236210   9.701   9.800   3.136  1.0701  1.4397  0.5746
 8511SOL     OW36211   7.984   9.801   3.106 -0.3794  0.9824  0.1565
 8511SOL    HW136212   8.073   9.835   3.137 -0.2812 -0.3277  1.3210
 8511SOL    HW236213   7.922   9.879   3.092  0.0943  1.7220  2.0164
 8512SOL     OW36214   6.289   1.419   3.517  0.5045 -0.0137 -0.5342
 8512SOL    HW136215   6.242   1.492   3.566  0.9640  0.0885 -0.2499
 8512SOL    HW236216   6.231   1.387   3.442  0.3353  0.6888 -0.7011
 8513SOL     OW36217   9.559   8.100   0.219  0.1426 -0.2101  0.5302
 8513SOL    HW136218   9.619   8.151   0.158 -1.8775  0.5297 -0.8869
 8513SOL    HW236219   9.589   8.005   0.224  1.1802  0.0550 -0.4385
 8514SOL     OW36220   2.938   5.524   0.328  0.1066 -0.1589  0.8266
 8514SOL    HW136221   2.957   5.545   0.424 -1.2869  0.6401  0.9429
 8514SOL    HW236222   2.890   5.437   0.322  0.0373 -0.1243  0.8692
 8515SOL     OW36223   2.201   4.352   1.349  0.2521 -0.4110 -0.3626
 8515SOL    HW136224   2.190   4.407   1.267  0.2466  0.0122 -0.0767
 8515SOL    HW236225   2.111   4.332   1.388  0.2915  0.0044 -0.0527
 8516SOL     OW36226   2.020   7.144   1.091 -0.3574 -0.4058 -0.3756
 8516SOL    HW136227   2.029   7.085   1.172  0.3475 -0.8139 -0.7467
 8516SOL    HW236228   1.955   7.104   1.027 -0.5422 -0.3326 -0.2338
 8517SOL     OW36229   6.545   7.663   3.371 -0.1984  0.2860  0.0363
 8517SOL    HW136230   6.522   7.746   3.320  0.9675  1.4144  1.3070
 8517SOL    HW236231   6.480   7.651   3.446 -0.1671  0.2472  0.0570
 8518SOL     OW36232   0.230   9.722   0.015 -0.5287  0.2577 -0.2934
 8518SOL    HW136233   0.192   9.640  -0.028  0.1497  0.9005 -2.1851
 8518SOL    HW236234   0.330   9.716   0.017 -0.5947 -0.5612  2.9036
 8519SOL     OW36235   9.184   2.129   1.653  0.1907  0.3351  0.1993
 8519SOL    HW136236   9.204   2.192   1.578  0.8358 -0.9825 -0.7386
 8519SOL    HW236237   9.182   2.035   1.619  0.4188 -0.2712  1.8173
 8520SOL     OW36238   1.642   7.959   5.404 -0.1750  0.1218 -0.6272
 8520SOL    HW136239   1.689   7.919   5.483  0.7517 -1.8135 -2.1310
 8520SOL    HW236240   1.708   8.010   5.349 -0.9938  2.2279  0.2932
 8521SOL     OW36241   4.474   8.532   4.405  0.1973  0.2427 -0.3379
 8521SOL    HW136242   4.550   8.585   4.367  1.7047 -0.0996  2.1308
 8521SOL    HW236243   4.447   8.570   4.493 -1.6621 -0.4352 -0.5852
 8522SOL     OW36244   7.368   0.007   1.608  0.3381 -0.4776 -0.1558
 8522SOL    HW136245   7.429  -0.056   1.560 -1.9936 -1.8315 -1.4718
 8522SOL    HW236246   7.401   0.101   1.598  1.2344 -1.0007 -2.3054
 8523SOL     OW36247   9.217   0.672   5.323 -0.0651 -0.8764  0.2966
 8523SOL    HW136248   9.187   0.763   5.294  0.5024 -1.3142 -1.7503
 8523SOL    HW236249   9.138   0.620   5.357 -0.0347  1.1338  3.7295
 8524SOL     OW36250   1.613   8.114   4.884 -0.1134  0.3869 -0.0200
 8524SOL    HW136251   1.690   8.139   4.825  1.0663 -1.9315  0.5122
 8524SOL    HW236252   1.581   8.022   4.861 -1.1785  0.3957  1.3723
 8525SOL     OW36253   8.993   0.455   1.626 -0.3911  0.0784  0.6974
 8525SOL    HW136254   8.931   0.383   1.595 -0.1523  0.2826 -0.2725
 8525SOL    HW236255   9.030   0.431   1.716 -1.7845 -0.0908  1.2312
 8526SOL     OW36256   6.910   7.354   3.533  0.3215 -0.4263 -0.4425
 8526SOL    HW136257   6.994   7.407   3.522 -0.1611  0.6300  0.8701
 8526SOL    HW236258   6.841   7.387   3.468  0.5184 -0.4962 -0.6907
 8527SOL     OW36259   0.063   3.649   2.743 -0.0476  0.7432 -0.2269
 8527SOL    HW136260   0.121   3.730   2.752 -0.5283  0.9758  0.7647
 8527SOL    HW236261   0.017   3.631   2.829  1.9901 -2.0739  0.3560
 8528SOL     OW36262   1.861   6.636   2.870 -0.0504 -0.7637 -0.4830
 8528SOL    HW136263   1.920   6.666   2.796 -1.1742 -1.3882 -1.6606
 8528SOL    HW236264   1.827   6.543   2.851  0.1024 -1.1617  1.0892
 8529SOL     OW36265   6.267   1.462   2.862  0.3018 -0.0544  0.2905
 8529SOL    HW136266   6.302   1.532   2.799  1.4241 -1.3401 -0.5473
 8529SOL    HW236267   6.341   1.400   2.887 -0.8822 -1.5282  0.2428
 8530SOL     OW36268   0.648   2.403   0.498  0.0913  0.3168 -0.0146
 8530SOL    HW136269   0.671   2.396   0.595  0.3435  2.1997  0.0856
 8530SOL    HW236270   0.730   2.386   0.443  0.3048  0.7929  0.1534
 8531SOL     OW36271   1.791   9.087   5.029 -0.0236 -0.5344 -0.4694
 8531SOL    HW136272   1.841   9.086   4.943  0.7391 -0.9613 -0.0217
 8531SOL    HW236273   1.696   9.060   5.012 -0.1521  0.4498 -1.3423
 8532SOL     OW36274   2.138   7.288   3.653  0.1889 -0.3826 -0.6309
 8532SOL    HW136275   2.179   7.290   3.744  0.7983 -0.9428 -0.8847
 8532SOL    HW236276   2.211   7.280   3.584 -0.1266  2.0237 -1.2855
 8533SOL     OW36277   4.649   1.447   1.833 -0.0251  0.6704  0.0695
 8533SOL    HW136278   4.660   1.347   1.836 -0.6398  0.6596  3.6803
 8533SOL    HW236279   4.598   1.471   1.750 -1.6377 -2.2099  0.1251
 8534SOL     OW36280   7.075   8.601   4.279  0.1912 -0.8139 -0.3893
 8534SOL    HW136281   7.081   8.668   4.354 -0.0892 -0.6293 -0.5264
 8534SOL    HW236282   7.082   8.649   4.191  0.0944 -0.9782 -0.4866
 8535SOL     OW36283   8.257   9.517   3.456  0.1627 -0.5530  0.1623
 8535SOL    HW136284   8.237   9.419   3.452 -0.5556 -0.5353  2.2068
 8535SOL    HW236285   8.182   9.564   3.504 -0.1556  1.2020 -1.9648
 8536SOL     OW36286   8.753   9.636   4.777  0.1408  0.4370 -0.2980
 8536SOL    HW136287   8.843   9.647   4.735  1.2354 -0.6272  1.6910
 8536SOL    HW236288   8.706   9.558   4.736  1.0937 -0.4384  0.2526
 8537SOL     OW36289   1.378   8.795   0.242 -0.5730 -0.4816  0.0765
 8537SOL    HW136290   1.351   8.754   0.154 -1.2743  0.7221 -0.2846
 8537SOL    HW236291   1.457   8.854   0.228 -1.1958  0.3703  0.0760
 8538SOL     OW36292   6.180   8.666   2.047 -0.7165 -0.2413 -0.5876
 8538SOL    HW136293   6.170   8.579   1.999 -2.6206  0.1863 -1.0258
 8538SOL    HW236294   6.260   8.663   2.108  1.2546 -1.0760 -3.1527
 8539SOL     OW36295   3.188   4.097   1.596 -0.1835  0.1829  0.2560
 8539SOL    HW136296   3.128   4.165   1.555 -0.5966 -0.1229  0.3475
 8539SOL    HW236297   3.283   4.114   1.568 -0.3965  0.2761 -0.4101
 8540SOL     OW36298   0.399   9.787   0.761  0.4559  0.4690 -0.0885
 8540SOL    HW136299   0.480   9.828   0.719  2.4959 -0.6897  2.5805
 8540SOL    HW236300   0.382   9.698   0.719  1.0407  0.3784 -0.1414
 8541SOL     OW36301   4.286   8.930   3.855 -0.2547 -0.3955  0.3201
 8541SOL    HW136302   4.205   8.890   3.813 -0.2279 -0.6163  0.4775
 8541SOL    HW236303   4.354   8.858   3.869 -1.3915 -0.8921  3.4878
 8542SOL     OW36304   0.936   3.723   0.835  0.4106 -0.0517 -0.3312
 8542SOL    HW136305   0.837   3.725   0.840  0.3883  1.5814 -0.9724
 8542SOL    HW236306   0.971   3.817   0.842  1.8720 -0.5523 -0.7634
 8543SOL     OW36307   9.220   3.233   3.009 -0.1984  0.3127  0.3434
 8543SOL    HW136308   9.270   3.317   2.986 -0.8793  0.8679  0.8791
 8543SOL    HW236309   9.123   3.254   3.021 -0.4040 -0.5897  0.2987
 8544SOL     OW36310   7.560   3.858   1.026  0.1491 -0.1043  0.1123
 8544SOL    HW136311   7.557   3.851   1.126  1.4333  2.4336  0.3767
 8544SOL    HW236312   7.656   3.852   0.996 -0.0910  0.7955 -0.8289
 8545SOL     OW36313   1.172   2.494   2.406  0.3786 -0.4790 -0.6871
 8545SOL    HW136314   1.209   2.561   2.470  0.1187 -0.5807 -0.4279
 8545SOL    HW236315   1.135   2.541   2.326  2.7476 -0.4854 -1.8180
 8546SOL     OW36316   9.815   0.510   4.739  0.3256  0.4639  0.4461
 8546SOL    HW136317   9.896   0.525   4.683  1.2775 -1.4836  1.2713
 8546SOL    HW236318   9.761   0.435   4.701 -0.2027  0.6328  0.8549
 8547SOL     OW36319   6.407   3.776   0.300  0.2139 -0.0446 -0.5585
 8547SOL    HW136320   6.506   3.770   0.306  0.3377 -0.4406 -2.4894
 8547SOL    HW236321   6.371   3.831   0.375  2.0711  1.7713 -0.9885
 8548SOL     OW36322   9.281   2.353   1.200  0.6787  0.1100 -0.1464
 8548SOL    HW136323   9.251   2.277   1.143  0.2525  0.9951 -1.1429
 8548SOL    HW236324   9.349   2.408   1.150  1.6748 -0.1259  0.9078
 8549SOL     OW36325   0.220   0.384   5.220  0.0436 -0.7005  0.0695
 8549SOL    HW136326   0.273   0.326   5.281 -0.5972  0.1903  1.4959
 8549SOL    HW236327   0.123   0.378   5.243  0.0102  1.2103  0.5019
 8550SOL     OW36328   3.651   0.567   2.727 -0.1926  0.7366 -0.4706
 8550SOL    HW136329   3.735   0.514   2.717 -1.1700 -1.0367  0.6715
 8550SOL    HW236330   3.607   0.577   2.637 -0.6482 -1.4660 -0.5099
 8551SOL     OW36331   7.074   0.993   1.749  0.0244 -0.3555  0.2375
 8551SOL    HW136332   7.023   0.932   1.688  1.6059 -0.5422 -0.9161
 8551SOL    HW236333   7.083   0.950   1.839 -2.8130  0.1642  0.8230
 8552SOL     OW36334   8.115   0.141   4.952 -0.5051 -0.1688 -0.2176
 8552SOL    HW136335   8.094   0.170   4.859 -3.0179  2.0945  0.9711
 8552SOL    HW236336   8.143   0.220   5.006  0.4945 -1.3836  1.0910
 8553SOL     OW36337   0.807   3.495   5.587  0.1440 -0.7592  0.4335
 8553SOL    HW136338   0.899   3.518   5.620 -0.0753  0.0717  0.4898
 8553SOL    HW236339   0.813   3.458   5.495  0.3943  0.8969 -0.2357
 8554SOL     OW36340   4.862   8.395   1.715 -0.1926 -0.1485  0.2453
 8554SOL    HW136341   4.918   8.355   1.642 -2.3986  0.7452 -2.0098
 8554SOL    HW236342   4.853   8.494   1.699 -1.5495 -0.1131  1.1540
 8555SOL     OW36343   4.704   8.190   2.250  0.0023 -0.4483 -0.5590
 8555SOL    HW136344   4.721   8.156   2.343 -1.5691  0.9196  0.2498
 8555SOL    HW236345   4.616   8.155   2.217  0.0168  0.0123 -1.0890
 8556SOL     OW36346   0.347   1.471   4.388  0.0041  0.3908 -0.1986
 8556SOL    HW136347   0.412   1.459   4.463  0.4209 -0.5089 -0.7041
 8556SOL    HW236348   0.291   1.389   4.378 -0.6156  0.8230 -0.3502
 8557SOL     OW36349   9.386   0.848   2.045 -1.0766  0.2314 -0.3343
 8557SOL    HW136350   9.384   0.804   2.135 -1.6308 -2.4903 -1.6561
 8557SOL    HW236351   9.464   0.910   2.040  0.7414 -1.9059  0.9428
 8558SOL     OW36352   1.403   2.004   5.247 -0.0711 -0.1526 -0.2245
 8558SOL    HW136353   1.438   2.080   5.192  0.1501 -0.8390 -1.0483
 8558SOL    HW236354   1.417   2.024   5.344 -1.3123  1.4843 -0.3649
 8559SOL     OW36355   2.807   4.164   1.106 -0.2172 -0.1938 -0.3858
 8559SOL    HW136356   2.861   4.196   1.028 -0.8848  0.2427 -0.6815
 8559SOL    HW236357   2.710   4.175   1.085 -0.4032 -0.1425  0.4779
 8560SOL     OW36358   1.145   0.003   5.101  0.5824  0.6564  0.1834
 8560SOL    HW136359   1.078  -0.063   5.135 -0.2447  0.1375 -2.3380
 8560SOL    HW236360   1.231  -0.044   5.080 -0.2708  0.1238 -2.4164
 8561SOL     OW36361   7.769   9.275   5.272 -0.6475 -0.5053 -0.3971
 8561SOL    HW136362   7.733   9.182   5.265 -1.1992 -0.2418 -1.0713
 8561SOL    HW236363   7.714   9.337   5.215 -0.1630  0.1968 -0.1089
 8562SOL     OW36364   8.127   9.438   3.156 -0.5478 -0.0055 -0.1122
 8562SOL    HW136365   8.226   9.445   3.152 -0.5824  0.4022 -0.3045
 8562SOL    HW236366   8.100   9.343   3.172 -0.0940  0.0535  1.0515
 8563SOL     OW36367   3.384   2.368   5.180 -0.4147 -0.0472 -0.0257
 8563SOL    HW136368   3.327   2.297   5.221  0.8923 -1.1508 -0.0516
 8563SOL    HW236369   3.328   2.426   5.120 -0.8896 -3.3268 -2.9205
 8564SOL     OW36370   4.133   2.061   3.775 -0.1170 -0.7083 -0.6938
 8564SOL    HW136371   4.227   2.053   3.742  1.0526  1.9282  1.7738
 8564SOL    HW236372   4.091   2.143   3.736 -1.2160 -1.6150 -1.4116
 8565SOL     OW36373   0.943   7.934   3.065  0.4882 -0.3223 -0.2331
 8565SOL    HW136374   0.868   7.883   3.022  0.8402 -0.7874 -0.2976
 8565SOL    HW236375   1.011   7.870   3.100  1.3273  0.1257 -1.0266
 8566SOL     OW36376   0.470   6.342   3.306  0.1751  0.1128 -0.0390
 8566SOL    HW136377   0.415   6.349   3.389 -0.1984 -0.0186 -0.2766
 8566SOL    HW236378   0.496   6.247   3.292  0.4801  0.1769  0.0823
 8567SOL     OW36379   2.411   3.766   5.468  0.3415  0.6791  0.2251
 8567SOL    HW136380   2.459   3.751   5.382  0.3887 -2.5984  0.7602
 8567SOL    HW236381   2.313   3.776   5.450  0.5470  1.6944 -0.3512
 8568SOL     OW36382   9.554   8.847   0.436 -0.3834  0.4334 -0.1546
 8568SOL    HW136383   9.472   8.798   0.405  0.5075 -1.9044  1.0250
 8568SOL    HW236384   9.542   8.872   0.532  0.8182 -1.1356  0.4172
 8569SOL     OW36385   4.286   0.663   5.262 -0.3813  0.1513  0.7495
 8569SOL    HW136386   4.252   0.757   5.273 -0.2851  0.2217  0.4336
 8569SOL    HW236387   4.231   0.615   5.194  1.1603  0.7699 -0.9591
 8570SOL     OW36388   2.892   2.035   2.920 -0.0154  0.4186  0.1461
 8570SOL    HW136389   2.814   2.039   2.858  0.4407  2.1979 -0.3318
 8570SOL    HW236390   2.970   2.085   2.881  0.8725 -0.0162  1.3032
 8571SOL     OW36391   8.543   8.679   5.276  0.7420 -0.4335 -0.6010
 8571SOL    HW136392   8.543   8.766   5.325  0.7556  1.0382 -3.1503
 8571SOL    HW236393   8.496   8.610   5.332 -0.5564  1.5566  0.8453
 8572SOL     OW36394   2.056   1.911   1.226 -0.0534 -0.2812  0.4541
 8572SOL    HW136395   2.008   1.857   1.295 -1.4662  1.9931  1.2814
 8572SOL    HW236396   1.991   1.971   1.179  1.0134 -1.2615 -2.3806
 8573SOL     OW36397   1.135   0.438   4.797  0.1511 -0.6138 -0.5115
 8573SOL    HW136398   1.118   0.341   4.809 -0.3746 -0.3670  0.8612
 8573SOL    HW236399   1.222   0.462   4.839 -1.2293  0.0770  2.0727
 8574SOL     OW36400   4.879   1.724   2.565  0.5840 -0.5156 -0.1824
 8574SOL    HW136401   4.818   1.707   2.642  0.5271 -0.7030 -0.2691
 8574SOL    HW236402   4.833   1.701   2.480  0.2158  0.8318 -0.3707
 8575SOL     OW36403   7.863   1.357   0.982 -0.2942  0.0287 -0.4109
 8575SOL    HW136404   7.847   1.261   1.002  1.5883 -0.4350 -1.0592
 8575SOL    HW236405   7.814   1.383   0.898 -0.7128 -0.3807 -0.2919
 8576SOL     OW36406   3.852   3.486   1.043  0.6586  0.1969  0.3172
 8576SOL    HW136407   3.805   3.459   1.126  1.1287 -3.1128 -0.4281
 8576SOL    HW236408   3.943   3.520   1.066  0.6200 -0.2805  1.1825
 8577SOL     OW36409   0.934   1.915   0.387  0.2212  0.2525 -0.2524
 8577SOL    HW136410   1.021   1.903   0.340  1.0276 -1.0025  1.5063
 8577SOL    HW236411   0.947   1.972   0.469 -0.2192 -1.4088  1.0121
 8578SOL     OW36412   5.339   0.287   2.973 -0.1624 -0.2489 -0.2687
 8578SOL    HW136413   5.293   0.306   3.060  0.8565  0.6140  0.0940
 8578SOL    HW236414   5.437   0.295   2.985 -0.0461  0.6202 -1.6815
 8579SOL     OW36415   4.081   0.605   5.098  0.3394 -0.3545 -0.2559
 8579SOL    HW136416   4.047   0.606   5.004 -0.4006 -1.0622 -0.0063
 8579SOL    HW236417   4.026   0.668   5.154  1.0941  0.4362 -0.4036
 8580SOL     OW36418   0.045   5.527   2.851  0.3780 -0.3544 -0.7940
 8580SOL    HW136419   0.082   5.511   2.759 -1.9061  1.2335 -2.0296
 8580SOL    HW236420   0.045   5.625   2.870  1.1381 -0.6981  1.0592
 8581SOL     OW36421   0.617   4.378   3.388 -0.0904 -0.0834 -0.1453
 8581SOL    HW136422   0.705   4.419   3.366  0.7112 -1.9677 -0.5518
 8581SOL    HW236423   0.544   4.431   3.345  0.8666  1.1955 -0.2265
 8582SOL     OW36424   6.796   7.654   1.640 -0.0317 -0.5287  0.4125
 8582SOL    HW136425   6.707   7.698   1.658  0.3833  0.3102  0.4306
 8582SOL    HW236426   6.814   7.587   1.713  0.0338  0.3678  1.2331
 8583SOL     OW36427   3.905   0.695   1.498 -0.3490  0.6645  0.0237
 8583SOL    HW136428   3.900   0.705   1.399  1.6041 -0.2544 -0.1798
 8583SOL    HW236429   3.864   0.608   1.525 -0.6314  0.7922  0.0176
 8584SOL     OW36430   2.188   7.370   3.364  0.2329  0.4420 -0.2719
 8584SOL    HW136431   2.184   7.286   3.310  0.4549  0.6435 -0.6009
 8584SOL    HW236432   2.283   7.394   3.382  0.2020  1.2351 -1.1414
 8585SOL     OW36433   2.024   8.881   4.154  0.0039  0.1979  0.1665
 8585SOL    HW136434   2.048   8.873   4.057 -1.1063  0.7137 -0.1600
 8585SOL    HW236435   2.106   8.905   4.207  0.4132  0.9298 -0.7871
 8586SOL     OW36436   2.667   3.244   3.598  0.2080 -0.3748  0.1293
 8586SOL    HW136437   2.748   3.256   3.656 -0.0711 -2.5307  0.9985
 8586SOL    HW236438   2.662   3.149   3.566 -1.5077 -0.0459 -0.6362
 8587SOL     OW36439   1.281   9.876   2.847  0.4924 -0.3306  0.4195
 8587SOL    HW136440   1.371   9.868   2.890  0.8971 -0.7028 -0.4682
 8587SOL    HW236441   1.291   9.869   2.748 -0.6077 -1.2120  0.3574
 8588SOL     OW36442   3.185   1.071   2.697  0.5338 -0.2739 -0.4657
 8588SOL    HW136443   3.147   1.075   2.604  0.9954  0.6684 -0.6187
 8588SOL    HW236444   3.126   1.013   2.754  0.7690 -1.6596 -1.5825
 8589SOL     OW36445   1.574   7.703   4.978  0.8668 -0.0488 -0.0351
 8589SOL    HW136446   1.552   7.723   5.073 -1.1055  0.6403 -0.6164
 8589SOL    HW236447   1.627   7.618   4.973  0.2988 -0.5006  1.6007
 8590SOL     OW36448   8.863   0.978   3.353  0.3618 -0.5117  0.2938
 8590SOL    HW136449   8.869   1.000   3.255 -1.0690  0.3369  0.3888
 8590SOL    HW236450   8.779   0.928   3.371 -0.4557  1.2157  1.4274
 8591SOL     OW36451   0.924   5.158   1.786 -0.1442 -0.0071  1.0133
 8591SOL    HW136452   0.952   5.169   1.691 -0.1246  0.1172  1.0332
 8591SOL    HW236453   0.928   5.061   1.811 -2.7345 -0.4015  0.0810
 8592SOL     OW36454   0.910   2.072   3.828 -0.3868 -0.3960  0.1594
 8592SOL    HW136455   0.958   2.097   3.744  0.0810  0.0350  0.5478
 8592SOL    HW236456   0.823   2.029   3.806 -0.2977 -0.2130 -0.5457
 8593SOL     OW36457   5.650   1.032   4.289 -0.6844  0.0944  0.0040
 8593SOL    HW136458   5.619   1.107   4.230 -2.3848 -0.6179 -0.0504
 8593SOL    HW236459   5.633   1.056   4.385  0.3956  0.4931  0.1040
 8594SOL     OW36460   9.388   1.289   4.771  0.1380  0.7889  0.1203
 8594SOL    HW136461   9.373   1.207   4.826  1.9015  0.1120 -0.3586
 8594SOL    HW236462   9.413   1.365   4.831  1.9129  0.0895  0.3142
 8595SOL     OW36463   0.743   0.784   1.885  0.0794  0.0489  0.4076
 8595SOL    HW136464   0.778   0.701   1.928  0.1439  0.4764  1.2004
 8595SOL    HW236465   0.800   0.862   1.912  1.6411 -0.0345 -2.4361
 8596SOL     OW36466   1.963   4.439   5.318 -0.3533  0.6234  0.3538
 8596SOL    HW136467   2.023   4.449   5.397 -0.1069  0.3420  0.2022
 8596SOL    HW236468   1.939   4.342   5.307 -0.8376  0.7356  0.4182
 8597SOL     OW36469   4.636   9.691   0.693  0.2858  0.2770 -0.3105
 8597SOL    HW136470   4.620   9.661   0.599 -1.5514  0.0021  0.0798
 8597SOL    HW236471   4.578   9.640   0.756  1.3868  0.5665  0.9738
 8598SOL     OW36472   8.923   7.605   1.287  0.0168 -0.1149 -0.1465
 8598SOL    HW136473   8.940   7.663   1.208  0.4410  1.0622  0.7870
 8598SOL    HW236474   9.001   7.610   1.350 -0.2264 -1.1909  0.2611
 8599SOL     OW36475   1.266   3.266   1.070 -0.0816  0.3239  0.1379
 8599SOL    HW136476   1.171   3.254   1.041  0.0923  0.9779 -0.7416
 8599SOL    HW236477   1.271   3.339   1.139 -0.1545  0.6341 -0.1835
 8600SOL     OW36478   1.561   6.588   2.645  0.4341 -0.1481  0.3411
 8600SOL    HW136479   1.493   6.538   2.591  0.6853 -2.0491  1.7393
 8600SOL    HW236480   1.528   6.598   2.739  2.9353 -2.8844  1.5639
 8601SOL     OW36481   8.043   9.324   5.329  0.0043 -0.6826  0.1630
 8601SOL    HW136482   8.116   9.347   5.265 -0.0205 -3.1429 -0.8250
 8601SOL    HW236483   7.957   9.314   5.279 -0.6110  0.2147  1.0235
 8602SOL     OW36484   0.605   8.569   4.530 -0.2895 -0.4227 -0.0043
 8602SOL    HW136485   0.618   8.616   4.443 -1.7999 -0.4447 -0.2470
 8602SOL    HW236486   0.692   8.529   4.559  0.3067 -0.1037 -1.3081
 8603SOL     OW36487   0.312   8.842   2.428  0.3207  0.3179  0.0882
 8603SOL    HW136488   0.215   8.821   2.422  0.0965  1.5678 -0.8376
 8603SOL    HW236489   0.328   8.937   2.403  1.7532  0.2121  0.5176
 8604SOL     OW36490   9.291   0.954   3.460  0.0834  0.6415 -0.0844
 8604SOL    HW136491   9.226   1.023   3.427  0.9278  1.9462  0.9321
 8604SOL    HW236492   9.362   0.939   3.390  0.9938  2.2597  0.4595
 8605SOL     OW36493   2.126   4.702   1.256  0.3755  0.4358  0.7634
 8605SOL    HW136494   2.101   4.627   1.194  0.5695 -0.3956  1.6767
 8605SOL    HW236495   2.216   4.737   1.230 -0.9093  2.2354 -1.4076
 8606SOL     OW36496   0.130   2.215   4.788  0.2249 -0.7039  0.2154
 8606SOL    HW136497   0.149   2.283   4.859 -1.1548 -0.8992  0.7761
 8606SOL    HW236498   0.216   2.190   4.744  0.9411  0.3396  0.9673
 8607SOL     OW36499   1.413   0.070   2.654  0.3834  0.0570 -0.0495
 8607SOL    HW136500   1.431   0.031   2.563  1.9199 -0.0041  0.2719
 8607SOL    HW236501   1.499   0.092   2.698 -0.4145  3.8641 -0.2334
 8608SOL     OW36502   1.061   0.466   3.346  0.8754  0.6702 -0.8953
 8608SOL    HW136503   1.137   0.419   3.390  0.2525 -1.0198 -1.5780
 8608SOL    HW236504   1.035   0.416   3.263 -2.0104  0.3185  0.1565
 8609SOL     OW36505   0.685   3.056   4.091 -0.2275 -0.8107 -0.2270
 8609SOL    HW136506   0.779   3.069   4.123 -0.5474  0.0298  0.3901
 8609SOL    HW236507   0.672   3.104   4.004 -0.0883 -0.9115 -0.3022
 8610SOL     OW36508   7.526   1.110   1.085 -0.1615 -0.0870 -0.1065
 8610SOL    HW136509   7.531   1.118   1.184 -0.1198 -1.1220 -0.0134
 8610SOL    HW236510   7.619   1.115   1.047 -0.1863  0.4128 -0.1066
 8611SOL     OW36511   3.320   7.177   1.115  0.3299  0.2071  0.2462
 8611SOL    HW136512   3.247   7.109   1.104 -0.2845  0.3774  3.0390
 8611SOL    HW236513   3.315   7.218   1.206  2.7365  1.6467 -0.2139
 8612SOL     OW36514   8.753   4.199   1.861 -0.1511 -0.4263 -0.2139
 8612SOL    HW136515   8.816   4.160   1.928 -0.0783 -0.4415 -0.2915
 8612SOL    HW236516   8.720   4.127   1.800 -1.2492 -0.6414  0.6347
 8613SOL     OW36517   9.957   7.909   3.749  0.0182 -0.6909  0.3441
 8613SOL    HW136518   9.989   7.985   3.693 -2.4170  1.3478  1.6408
 8613SOL    HW236519  10.016   7.901   3.830  0.8384 -0.8212 -0.2518
 8614SOL     OW36520   2.959   6.997   3.540  0.6917 -0.3990  0.4454
 8614SOL    HW136521   2.924   7.029   3.452  1.0693  0.1367  0.4862
 8614SOL    HW236522   3.026   6.925   3.525  1.4969  0.3888  0.2475
 8615SOL     OW36523   9.152   8.903   5.618 -0.7494  0.4873  0.2855
 8615SOL    HW136524   9.102   8.903   5.532 -1.5583 -1.4987  0.7404
 8615SOL    HW236525   9.091   8.877   5.693  0.4133  0.2688  1.1792
 8616SOL     OW36526   7.263   3.038   0.929  0.0416 -0.3723  0.4784
 8616SOL    HW136527   7.330   2.965   0.912  1.9449  1.3947  0.1013
 8616SOL    HW236528   7.224   3.068   0.842  0.4425  0.1306  0.4704
 8617SOL     OW36529   2.885   0.086   3.570  0.5108 -0.4551 -0.3020
 8617SOL    HW136530   2.875   0.078   3.669  0.0495 -1.6584 -0.4466
 8617SOL    HW236531   2.889   0.183   3.545 -0.5695 -0.1253  0.7774
 8618SOL     OW36532   2.190   5.828   1.644  0.5068  0.0766 -0.0123
 8618SOL    HW136533   2.207   5.812   1.742  0.9658 -0.5264 -0.1833
 8618SOL    HW236534   2.153   5.744   1.604 -1.5314  0.9161  0.0454
 8619SOL     OW36535   2.731   2.270   1.441  0.4321  0.2175  0.2253
 8619SOL    HW136536   2.664   2.266   1.367  0.6091  0.1389  0.0711
 8619SOL    HW236537   2.733   2.183   1.490 -2.1135  1.3229  2.4472
 8620SOL     OW36538   7.968   6.325   2.669  0.3068  0.0858 -0.2134
 8620SOL    HW136539   7.989   6.414   2.710 -0.7994  0.2813 -0.0389
 8620SOL    HW236540   7.880   6.331   2.621  0.2322 -0.9202 -0.2119
 8621SOL     OW36541   9.959   0.122   5.262  0.0048 -0.5880 -0.0944
 8621SOL    HW136542   9.933   0.031   5.229 -0.3409 -0.8346  0.8293
 8621SOL    HW236543   9.941   0.127   5.361  0.7776  0.2133  0.0040
 8622SOL     OW36544   1.854   9.383   3.501 -0.0187 -0.1012  0.0285
 8622SOL    HW136545   1.935   9.395   3.559  1.0096 -3.1222 -0.6877
 8622SOL    HW236546   1.776   9.356   3.556  0.2616 -0.2989  0.3264
 8623SOL     OW36547   3.609   8.605   4.152  0.4236  0.1674 -0.6335
 8623SOL    HW136548   3.564   8.544   4.217 -1.4842  1.0730 -1.0653
 8623SOL    HW236549   3.600   8.567   4.059 -0.3810  0.8806 -0.8479
 8624SOL     OW36550   0.088   2.438   2.465  0.2966 -0.5458 -0.0965
 8624SOL    HW136551  -0.008   2.463   2.454 -0.2396 -1.9901  1.1268
 8624SOL    HW236552   0.115   2.376   2.391  0.2256 -0.3013 -0.3256
 8625SOL     OW36553   3.945   8.592   4.450 -0.4665 -0.2595  0.0829
 8625SOL    HW136554   3.870   8.616   4.512  0.3442 -0.8026  1.2934
 8625SOL    HW236555   4.033   8.606   4.497  0.1237 -1.9278 -0.4878
 8626SOL     OW36556   9.992   6.822   3.919 -0.2741  0.5360 -0.3788
 8626SOL    HW136557   9.915   6.865   3.965  0.0656 -0.4653  1.1494
 8626SOL    HW236558  10.068   6.886   3.914  0.1787  0.2019  1.7556
 8627SOL     OW36559   1.405   4.949   1.617 -0.0923 -0.1683  0.1104
 8627SOL    HW136560   1.392   5.042   1.652 -1.9717 -0.4976  0.3389
 8627SOL    HW236561   1.421   4.953   1.518  0.8363  0.4684  0.2842
 8628SOL     OW36562   4.766   7.439   1.799  0.0472 -0.3206 -0.5515
 8628SOL    HW136563   4.726   7.514   1.745 -1.6420  0.6660  1.9825
 8628SOL    HW236564   4.854   7.468   1.835  0.5476 -0.4834 -1.6248
 8629SOL     OW36565   9.042   0.580   0.562 -0.5715 -0.0038 -0.2206
 8629SOL    HW136566   9.012   0.490   0.531 -0.8221 -0.2194  0.6449
 8629SOL    HW236567   9.084   0.629   0.485  0.5251 -1.2559 -0.4348
 8630SOL     OW36568   3.768   3.518   0.359 -0.6080  0.1454 -0.1595
 8630SOL    HW136569   3.753   3.487   0.452 -0.7091  0.3176 -0.1190
 8630SOL    HW236570   3.692   3.490   0.301 -0.2611 -0.4765 -0.3141
 8631SOL     OW36571   4.205   9.094   1.941 -0.1608 -0.1969 -0.4670
 8631SOL    HW136572   4.205   9.136   2.031  0.2240 -1.8071  0.3092
 8631SOL    HW236573   4.275   9.137   1.884 -0.4740  0.8909 -0.0294
 8632SOL     OW36574   9.501   8.514   4.849  0.8000  0.1524 -0.2070
 8632SOL    HW136575   9.447   8.598   4.854  1.5107  0.6270 -0.4469
 8632SOL    HW236576   9.588   8.527   4.895  0.0635 -1.1353  1.6003
 8633SOL     OW36577   8.915   5.228   1.860  0.0347 -0.3380  0.2495
 8633SOL    HW136578   8.934   5.298   1.928 -0.3757 -1.2822  1.3489
 8633SOL    HW236579   8.900   5.140   1.905  0.8777 -1.2165 -1.1227
 8634SOL     OW36580   4.618   0.286   0.688 -0.0317  0.6513  0.2479
 8634SOL    HW136581   4.578   0.352   0.750 -0.9879 -1.9433  2.4946
 8634SOL    HW236582   4.717   0.280   0.705 -0.3595 -0.4145  1.9678
 8635SOL     OW36583   9.437   0.079   5.477  0.2825  0.0351 -0.6637
 8635SOL    HW136584   9.479   0.027   5.403  0.2010  0.4612 -1.0073
 8635SOL    HW236585   9.369   0.142   5.440 -1.1151 -1.0794 -0.0645
 8636SOL     OW36586   9.761   0.418   3.082 -0.4990  0.1122  0.0501
 8636SOL    HW136587   9.704   0.428   3.001  1.1978 -0.2057 -1.2105
 8636SOL    HW236588   9.857   0.418   3.055  0.0905  0.1052  2.0798
 8637SOL     OW36589   2.041   3.456   0.325  0.4905 -0.3858  0.7686
 8637SOL    HW136590   2.139   3.471   0.338  0.5183 -0.1413  0.3114
 8637SOL    HW236591   1.990   3.526   0.375  0.5169 -1.1650  1.9026
 8638SOL     OW36592   0.465   2.156   3.229 -0.3725 -0.1569  0.6941
 8638SOL    HW136593   0.429   2.127   3.140 -0.0434  1.5766 -0.0232
 8638SOL    HW236594   0.442   2.252   3.245 -2.0658 -0.9388  3.3481
 8639SOL     OW36595   2.920   4.873   1.006 -0.4683  0.0692 -0.4086
 8639SOL    HW136596   2.868   4.907   1.085 -1.0092  1.5508 -1.3845
 8639SOL    HW236597   3.016   4.902   1.014 -0.6046  0.5449 -0.4759
 8640SOL     OW36598   7.250   1.190   1.062  0.2659 -0.3131 -0.5423
 8640SOL    HW136599   7.287   1.256   0.996 -2.4617  1.5220 -0.2875
 8640SOL    HW236600   7.314   1.179   1.137  1.5112  0.7759 -1.4182
 8641SOL     OW36601   5.708   8.284   1.839 -0.1426 -0.4848  0.4978
 8641SOL    HW136602   5.764   8.224   1.782  0.6005  0.5464  0.1149
 8641SOL    HW236603   5.700   8.247   1.931  3.3592  0.6409  1.3071
 8642SOL     OW36604   0.013   6.104   1.502 -0.6321 -0.3450 -0.4285
 8642SOL    HW136605   0.111   6.109   1.482 -0.4555  0.1101  0.4963
 8642SOL    HW236606  -0.011   6.011   1.528 -0.7132 -0.7607 -1.9553
 8643SOL     OW36607   6.100   9.469   2.036  0.2125 -0.0884 -0.1636
 8643SOL    HW136608   6.127   9.450   2.130 -1.2614 -0.1062  0.2675
 8643SOL    HW236609   6.179   9.458   1.975  0.8695 -1.2848  0.9056
 8644SOL     OW36610   7.053   8.527   2.054 -0.1113 -0.3998 -0.1877
 8644SOL    HW136611   7.069   8.463   2.130 -0.3750 -1.0660 -0.6873
 8644SOL    HW236612   6.979   8.589   2.078 -1.2574 -1.6103 -0.4938
 8645SOL     OW36613   6.122   0.569   3.338  0.0663 -0.2583  0.2166
 8645SOL    HW136614   6.087   0.486   3.382  0.9089 -1.0569 -0.5662
 8645SOL    HW236615   6.222   0.567   3.340  0.0885  1.1670  0.9424
 8646SOL     OW36616   4.348   8.988   4.935 -0.0993 -0.0424 -0.6220
 8646SOL    HW136617   4.358   9.083   4.964 -1.0394 -0.6504  1.7738
 8646SOL    HW236618   4.439   8.947   4.925  0.2579  0.2918  1.1180
 8647SOL     OW36619   2.096   0.423   0.074  0.4178 -0.3397  0.5803
 8647SOL    HW136620   2.175   0.376   0.113  0.9384 -0.1460 -0.2393
 8647SOL    HW236621   2.033   0.355   0.035  0.5558 -0.4397  0.5314
 8648SOL     OW36622   5.188   6.802   1.650 -0.7726  0.2361 -0.5659
 8648SOL    HW136623   5.264   6.801   1.714 -0.2985 -1.6843 -1.1259
 8648SOL    HW236624   5.206   6.738   1.575 -2.4957  0.4763 -1.2136
 8649SOL     OW36625   0.992   8.295   0.419  0.3294 -0.5989  0.0026
 8649SOL    HW136626   1.063   8.325   0.355 -0.1508 -0.4625 -0.4662
 8649SOL    HW236627   0.902   8.320   0.384  0.0333 -0.9367  0.5090
 8650SOL     OW36628   2.116   1.849   4.733 -0.8161  0.0873 -0.7898
 8650SOL    HW136629   2.150   1.895   4.815 -0.8607 -0.4165 -0.4830
 8650SOL    HW236630   2.016   1.847   4.736 -0.8048 -0.3330 -0.6291
 8651SOL     OW36631   9.866   9.648   3.407 -0.3634  0.5954 -0.1594
 8651SOL    HW136632   9.900   9.554   3.416 -1.1693  0.3034 -0.1257
 8651SOL    HW236633   9.848   9.668   3.311 -0.7124  0.5285 -0.1080
 8652SOL     OW36634   2.293   9.430   3.923  0.0665  0.3506  0.2715
 8652SOL    HW136635   2.385   9.455   3.893  0.1989 -1.0311 -0.5211
 8652SOL    HW236636   2.298   9.392   4.016  0.3277  0.1511  0.1785
 8653SOL     OW36637   8.154   2.000   2.933 -0.4494  0.1325  0.2675
 8653SOL    HW136638   8.197   1.976   3.019  0.7563  2.4056  0.3224
 8653SOL    HW236639   8.213   2.061   2.881 -1.6271 -0.3371 -1.6979
 8654SOL     OW36640   9.362   7.808   3.718 -0.0068  0.0860  0.2301
 8654SOL    HW136641   9.438   7.802   3.654  1.5153 -0.4234  2.0383
 8654SOL    HW236642   9.394   7.848   3.804 -2.0869  1.0758  0.5843
 8655SOL     OW36643   0.904   2.975   2.314 -0.7285 -0.3021  0.7034
 8655SOL    HW136644   0.865   2.884   2.301  1.1001 -0.9048 -0.7954
 8655SOL    HW236645   1.004   2.968   2.323 -0.3847  1.6650 -1.0435
 8656SOL     OW36646   7.660   3.484   1.635  0.0640  0.1222  0.5486
 8656SOL    HW136647   7.649   3.582   1.620 -1.1050  0.0895  1.2283
 8656SOL    HW236648   7.752   3.466   1.671  0.3997  0.9228  0.1061
 8657SOL     OW36649   8.686   1.377   0.249 -0.1182  0.3599 -0.4926
 8657SOL    HW136650   8.760   1.310   0.245 -0.0191  0.4422  0.0064
 8657SOL    HW236651   8.641   1.372   0.338 -1.6490 -0.6954 -1.3147
 8658SOL     OW36652   4.275   8.584   2.392 -0.5282  0.4973  0.3185
 8658SOL    HW136653   4.326   8.663   2.427  0.5112 -0.2771  0.5702
 8658SOL    HW236654   4.333   8.502   2.396 -0.9604  0.0768 -1.7019
 8659SOL     OW36655   8.113   0.561   0.022  0.3268  0.3030 -0.5824
 8659SOL    HW136656   8.079   0.577  -0.070  0.1822  2.0535 -0.2440
 8659SOL    HW236657   8.207   0.595   0.030 -0.4446  2.2673  0.5241
 8660SOL     OW36658   7.094   1.785   2.307 -0.3154 -0.0387 -0.3025
 8660SOL    HW136659   7.100   1.799   2.406  1.5474 -1.6093 -0.1553
 8660SOL    HW236660   7.138   1.861   2.259 -0.7422  0.4586  0.0880
 8661SOL     OW36661   1.583   1.396   2.443 -0.3769  0.0250 -0.2641
 8661SOL    HW136662   1.566   1.415   2.540  1.0554  0.1130 -0.0259
 8661SOL    HW236663   1.679   1.372   2.430 -0.2825  1.1984 -1.8412
 8662SOL     OW36664   0.675   8.691   0.622 -0.5923 -0.3031  0.6347
 8662SOL    HW136665   0.638   8.755   0.554  0.7854 -2.0187 -1.8100
 8662SOL    HW236666   0.758   8.730   0.662 -0.8976  0.3344  0.6541
 8663SOL     OW36667   4.322   2.747   3.878  0.1676  0.1686  0.5133
 8663SOL    HW136668   4.391   2.776   3.813  0.5498  1.5622  1.5095
 8663SOL    HW236669   4.329   2.803   3.961 -1.0776 -0.7723  1.2699
 8664SOL     OW36670   9.525   3.264   2.358  0.7008 -0.1199  0.1736
 8664SOL    HW136671   9.489   3.356   2.373  0.1039 -0.1230 -1.1555
 8664SOL    HW236672   9.596   3.245   2.425 -0.8637  0.3764  2.0064
 8665SOL     OW36673   2.095   1.193   5.618  0.0211  0.4722  0.7495
 8665SOL    HW136674   2.060   1.284   5.637 -2.5205 -0.2527 -0.2308
 8665SOL    HW236675   2.133   1.190   5.525  0.4757  0.6308  0.9296
 8666SOL     OW36676   2.552   3.969   0.111  0.1427  0.5193  1.0546
 8666SOL    HW136677   2.566   3.997   0.016 -2.0913  0.3084  0.6420
 8666SOL    HW236678   2.634   3.924   0.145  0.7391  0.0387 -0.9781
 8667SOL     OW36679   0.748   9.108   1.878 -0.2236 -0.1483  0.9177
 8667SOL    HW136680   0.785   9.018   1.854 -0.8697 -0.5001  1.2307
 8667SOL    HW236681   0.789   9.138   1.964  1.1562  0.5553  0.0210
 8668SOL     OW36682   9.040   9.469   3.860  0.0914 -0.4426 -0.4024
 8668SOL    HW136683   8.960   9.518   3.893 -0.1594 -0.0094 -1.6019
 8668SOL    HW236684   9.096   9.439   3.937 -1.2711 -0.8276  0.4364
 8669SOL     OW36685   8.365   3.175   1.792  0.1296 -0.9874  0.0840
 8669SOL    HW136686   8.446   3.152   1.845  0.6346  1.3008  0.3399
 8669SOL    HW236687   8.389   3.179   1.695  0.5479  0.5907  0.2439
 8670SOL     OW36688   3.821   0.066   1.038 -0.0298  0.3298  0.1791
 8670SOL    HW136689   3.728   0.046   1.009  1.4341 -3.3024 -2.3794
 8670SOL    HW236690   3.870   0.111   0.964  1.2313 -0.9279  0.2354
 8671SOL     OW36691   4.342   9.787   4.105 -0.2665  0.9402 -0.3002
 8671SOL    HW136692   4.325   9.761   4.200  0.2324  0.5681 -0.3099
 8671SOL    HW236693   4.262   9.833   4.068 -0.2869  1.5316  0.4583
 8672SOL     OW36694   3.608   4.210   3.505 -0.0862 -0.6534 -0.1506
 8672SOL    HW136695   3.649   4.167   3.586 -1.9600 -1.1316  0.5705
 8672SOL    HW236696   3.556   4.141   3.455  1.7521 -0.5553 -2.2474
 8673SOL     OW36697   4.243   6.813   1.116  0.4443 -0.0264 -0.6919
 8673SOL    HW136698   4.152   6.849   1.137 -0.4246 -2.5812  0.1644
 8673SOL    HW236699   4.307   6.889   1.102 -1.5661  1.7976 -0.2263
 8674SOL     OW36700   3.193   5.667   1.859 -0.4360  0.1834 -0.7353
 8674SOL    HW136701   3.142   5.604   1.916  0.3133  0.1738 -0.0678
 8674SOL    HW236702   3.129   5.718   1.800 -1.0695 -0.8856 -0.9848
 8675SOL     OW36703   0.431   0.165   5.049 -0.3901  0.3715  0.1094
 8675SOL    HW136704   0.372   0.195   4.974  0.8331  0.5760 -0.7843
 8675SOL    HW236705   0.480   0.243   5.087  0.7737 -0.0864 -0.4431
 8676SOL     OW36706   2.522   2.240   3.474 -0.0471  0.6030  0.2185
 8676SOL    HW136707   2.499   2.337   3.473 -0.5659  0.4963  1.2061
 8676SOL    HW236708   2.535   2.208   3.380 -2.5490  1.0067 -0.2978
 8677SOL     OW36709   1.378   7.225   5.455 -0.4897  0.1112 -0.1428
 8677SOL    HW136710   1.405   7.310   5.500 -0.8774 -0.0246  0.3556
 8677SOL    HW236711   1.441   7.205   5.380  1.8450 -1.1047  2.0948
 8678SOL     OW36712   9.200   0.375   2.588 -0.6074 -0.3598  0.1157
 8678SOL    HW136713   9.160   0.389   2.678 -1.6513 -3.8595  0.2675
 8678SOL    HW236714   9.275   0.309   2.594 -0.3950 -0.2961 -1.5232
 8679SOL     OW36715   3.636   9.531   3.484  0.7552 -0.0538  0.1571
 8679SOL    HW136716   3.640   9.535   3.385 -0.9803  0.8828  0.0967
 8679SOL    HW236717   3.651   9.437   3.515 -2.1396 -1.0522 -1.2321
 8680SOL     OW36718   0.656   1.775   1.803 -0.2316  0.4322 -0.0447
 8680SOL    HW136719   0.653   1.782   1.903  0.6963  0.0810  0.0165
 8680SOL    HW236720   0.752   1.772   1.773 -0.4666  2.4865 -1.0935
 8681SOL     OW36721   4.309   3.308   5.028  0.4613 -0.3709 -0.2135
 8681SOL    HW136722   4.342   3.214   5.042 -0.7705 -0.6698  0.9268
 8681SOL    HW236723   4.225   3.321   5.082 -0.1425  0.9607 -1.4574
 8682SOL     OW36724   3.925   7.972   4.258 -0.1200  0.0817  0.1604
 8682SOL    HW136725   3.860   8.043   4.231 -1.6027 -1.3067  0.0269
 8682SOL    HW236726   3.967   7.997   4.346 -0.9693  0.8977  0.3406
 8683SOL     OW36727   5.261   7.647   2.483  0.0017 -0.0452  0.9179
 8683SOL    HW136728   5.270   7.745   2.467 -1.5871 -0.4409 -2.7259
 8683SOL    HW236729   5.352   7.606   2.486  0.6219  1.2862  0.6915
 8684SOL     OW36730   0.457   7.377   3.473 -0.5682 -0.1060  0.1883
 8684SOL    HW136731   0.504   7.409   3.391 -0.9856  0.0116 -0.0072
 8684SOL    HW236732   0.400   7.451   3.509 -0.3494 -0.1436  0.6097
 8685SOL     OW36733   2.446   2.280   0.126 -0.0761 -0.3743  0.0013
 8685SOL    HW136734   2.532   2.321   0.096  0.5948 -0.7743  1.3465
 8685SOL    HW236735   2.408   2.335   0.200  0.2651 -1.5517  1.0583
 8686SOL     OW36736   4.817   1.649   1.600 -0.0670 -0.2027  0.2792
 8686SOL    HW136737   4.729   1.690   1.626 -0.5743 -0.9850 -0.1662
 8686SOL    HW236738   4.832   1.661   1.502  0.4938  0.2370  0.4168
 8687SOL     OW36739   4.130   0.889   1.556  0.2591 -0.4558 -0.5667
 8687SOL    HW136740   4.050   0.832   1.538  1.2462 -1.8400 -0.6840
 8687SOL    HW236741   4.203   0.865   1.491  0.7609  0.8199 -0.4967
 8688SOL     OW36742   2.801   0.518   4.381 -0.0127 -0.1783 -0.1189
 8688SOL    HW136743   2.893   0.488   4.406  0.6576  0.8819 -1.2413
 8688SOL    HW236744   2.734   0.466   4.434  1.1872 -1.6097  0.0455
 8689SOL     OW36745   4.560   5.013   1.556 -0.0646  0.3142 -0.0212
 8689SOL    HW136746   4.465   4.985   1.570  0.2386 -1.2865 -1.0374
 8689SOL    HW236747   4.563   5.096   1.499 -0.8260  0.0478 -0.4417
 8690SOL     OW36748   9.256   1.782   4.677 -0.0161 -0.0444 -0.1554
 8690SOL    HW136749   9.243   1.685   4.659  2.2006 -0.6106  1.0336
 8690SOL    HW236750   9.211   1.807   4.763  1.5869 -0.6339  0.8770
 8691SOL     OW36751   9.498   8.777   2.659 -0.2618 -0.1155 -0.3160
 8691SOL    HW136752   9.506   8.715   2.736 -0.7779  1.0264  0.6663
 8691SOL    HW236753   9.518   8.727   2.574 -2.3308 -2.0135  0.2772
 8692SOL     OW36754   3.882   7.525   4.056  0.3724 -0.4121  0.2102
 8692SOL    HW136755   3.918   7.604   4.006 -1.1702  0.7658  0.9033
 8692SOL    HW236756   3.942   7.505   4.134  0.8236  0.0363 -0.0160
 8693SOL     OW36757   6.304   9.027   1.587  0.2943  0.3843 -0.2787
 8693SOL    HW136758   6.395   9.020   1.627  1.0063  0.3259 -1.8766
 8693SOL    HW236759   6.250   9.096   1.637  1.7379  1.5534 -0.3134
 8694SOL     OW36760   9.141   3.617   1.402 -0.5977 -0.1188  0.4730
 8694SOL    HW136761   9.096   3.682   1.464 -0.4813 -1.4416  2.0071
 8694SOL    HW236762   9.175   3.539   1.456  2.5037  0.2836 -0.8135
 8695SOL     OW36763   2.338   3.220   2.056 -0.1237  0.0707  0.4459
 8695SOL    HW136764   2.260   3.215   1.993 -0.1643 -1.6998  0.6137
 8695SOL    HW236765   2.307   3.203   2.149  0.5588 -1.2559  0.4335
 8696SOL     OW36766   9.870   2.216   0.914 -0.3747  0.4257  0.2894
 8696SOL    HW136767   9.937   2.170   0.972 -1.4306 -0.4425  0.8324
 8696SOL    HW236768   9.779   2.205   0.953 -1.1316 -0.2977 -1.6179
 8697SOL     OW36769   8.879   2.009   2.744 -0.0998 -0.1808 -0.1783
 8697SOL    HW136770   8.966   1.991   2.791 -0.4992  1.0294  1.0591
 8697SOL    HW236771   8.819   1.929   2.754 -0.5469  0.4123  2.2833
 8698SOL     OW36772   9.685   4.592   2.673  0.5837  0.5630 -0.0156
 8698SOL    HW136773   9.770   4.635   2.702  1.6343 -1.0711 -0.6325
 8698SOL    HW236774   9.681   4.499   2.707 -0.7600  0.4779 -0.3823
 8699SOL     OW36775   2.377   2.175   5.078  0.4392  0.5641 -0.1873
 8699SOL    HW136776   2.411   2.139   5.165 -1.1068 -0.7552 -0.1191
 8699SOL    HW236777   2.454   2.213   5.026  1.5933  0.0893  1.1375
 8700SOL     OW36778   5.019   7.051   2.029  1.0693 -0.2251  0.2842
 8700SOL    HW136779   5.028   7.150   2.030  0.9014 -0.1728 -1.2970
 8700SOL    HW236780   4.922   7.026   2.027  1.1236 -0.3820 -0.6643
 8701SOL     OW36781   0.511   6.986   4.161 -0.4827  0.5153  0.0926
 8701SOL    HW136782   0.414   7.008   4.171 -0.7808 -1.0812  0.8623
 8701SOL    HW236783   0.548   6.956   4.248  1.0659  2.3881  0.1263
 8702SOL     OW36784   3.015   1.297   3.102 -0.2934  1.0529  0.0608
 8702SOL    HW136785   3.010   1.377   3.042 -0.3928  0.8807 -0.1630
 8702SOL    HW236786   3.109   1.263   3.104 -0.7908 -0.6591 -2.2790
 8703SOL     OW36787   0.216   0.371   1.069 -0.2203  0.6460  0.7826
 8703SOL    HW136788   0.271   0.453   1.052 -0.5703 -0.0286 -4.5129
 8703SOL    HW236789   0.119   0.397   1.075 -0.4159  0.6540 -1.6764
 8704SOL     OW36790   1.190   8.336   3.902  0.2532 -0.2387  0.1767
 8704SOL    HW136791   1.289   8.330   3.918  0.4240 -0.5436 -0.9672
 8704SOL    HW236792   1.144   8.356   3.988  1.3510  0.3060  0.6538
 8705SOL     OW36793   2.231   4.396   2.917  0.2234  0.1497  0.5441
 8705SOL    HW136794   2.283   4.383   2.833  0.4909  0.5409  0.6460
 8705SOL    HW236795   2.133   4.399   2.895  0.3186  0.7167  0.1893
 8706SOL     OW36796   5.105   0.647   4.646  0.3624 -0.2817 -0.0927
 8706SOL    HW136797   5.189   0.596   4.661  0.1837  0.1158  2.3866
 8706SOL    HW236798   5.103   0.728   4.704 -1.0007  0.6020 -1.3183
 8707SOL     OW36799   2.105   9.106   2.550  0.2815  0.3732 -0.2663
 8707SOL    HW136800   2.133   9.031   2.490 -0.7883  1.5374 -2.2770
 8707SOL    HW236801   2.018   9.144   2.518 -0.9109  0.2990  2.7139
 8708SOL     OW36802   2.496   0.614   3.706  0.7082  0.8263  0.2603
 8708SOL    HW136803   2.570   0.657   3.758  0.9085 -0.4777  1.0800
 8708SOL    HW236804   2.416   0.673   3.707  0.8410  1.0120  1.7404
 8709SOL     OW36805   7.643   1.020   2.642 -0.0205 -0.5524  0.0300
 8709SOL    HW136806   7.564   0.975   2.600 -1.5356  1.2525  0.8865
 8709SOL    HW236807   7.662   1.105   2.593  1.8905 -1.3315 -0.6323
 8710SOL     OW36808   9.775   1.606   5.419 -0.4745 -0.7082 -0.1653
 8710SOL    HW136809   9.821   1.581   5.334  2.6804 -0.4596  1.3976
 8710SOL    HW236810   9.775   1.527   5.481 -1.3964 -0.4258  0.2059
 8711SOL     OW36811   8.868   1.699   4.009 -0.1722 -0.1420 -0.0582
 8711SOL    HW136812   8.946   1.639   3.991  1.5298  2.0488 -0.1692
 8711SOL    HW236813   8.792   1.673   3.950  0.9387 -1.4387 -0.9532
 8712SOL     OW36814   1.711   9.133   3.326 -0.6223  0.0480  0.6534
 8712SOL    HW136815   1.696   9.070   3.249  0.2742  0.8386 -0.1832
 8712SOL    HW236816   1.715   9.226   3.291 -1.4172  0.5130  1.8267
 8713SOL     OW36817   8.647   0.436   0.845 -0.0501  0.3672 -0.0073
 8713SOL    HW136818   8.672   0.398   0.756  0.1271 -1.3898  0.7755
 8713SOL    HW236819   8.707   0.399   0.915 -0.1030  1.8486  0.8407
 8714SOL     OW36820   2.835   3.277   4.313 -0.0848 -0.1243 -0.4621
 8714SOL    HW136821   2.783   3.192   4.318 -0.7846  0.2756 -0.8927
 8714SOL    HW236822   2.929   3.260   4.341 -0.7331 -0.6067  1.5025
 8715SOL     OW36823   2.697   4.494   0.223  0.6503 -0.5589  0.4136
 8715SOL    HW136824   2.793   4.521   0.230  0.1850  1.5204 -0.9468
 8715SOL    HW236825   2.690   4.395   0.218  2.8974 -0.6176 -1.9522
 8716SOL     OW36826   4.505   1.124   0.918  0.2302  1.0182  0.3100
 8716SOL    HW136827   4.597   1.120   0.877 -0.7678 -0.1787 -1.8908
 8716SOL    HW236828   4.513   1.130   1.017  2.6802  0.1780  0.1884
 8717SOL     OW36829   0.908   4.248   2.451 -0.2355  0.2096 -0.2631
 8717SOL    HW136830   0.954   4.160   2.463 -1.7375 -0.4357  0.8854
 8717SOL    HW236831   0.960   4.319   2.500  0.4768 -0.1874 -0.4283
 8718SOL     OW36832   2.744   2.752   2.832  0.8523  0.2170 -0.7451
 8718SOL    HW136833   2.694   2.682   2.883  0.0677  0.2025 -1.5231
 8718SOL    HW236834   2.828   2.776   2.882  0.2721 -0.0353  0.3761
 8719SOL     OW36835   9.620   7.262   4.326 -0.1904 -0.3377  0.5724
 8719SOL    HW136836   9.547   7.203   4.291 -1.1082  0.9347  0.3155
 8719SOL    HW236837   9.659   7.221   4.409 -1.2847 -0.9549  0.7907
 8720SOL     OW36838   4.316   8.836   3.506  0.6717 -0.2632  0.0347
 8720SOL    HW136839   4.333   8.932   3.531 -0.8051 -0.0404  0.1758
 8720SOL    HW236840   4.392   8.803   3.450  1.4105  0.8514  0.3580
 8721SOL     OW36841   4.648   6.817   2.952 -0.5376  0.3668 -0.3424
 8721SOL    HW136842   4.572   6.785   3.009  0.6247 -0.1939  0.9319
 8721SOL    HW236843   4.726   6.838   3.011  1.4268 -2.3273 -1.8863
 8722SOL     OW36844   8.409   7.253   2.477 -0.1437 -0.4067 -0.1013
 8722SOL    HW136845   8.330   7.192   2.477 -0.9552  0.6199 -0.4876
 8722SOL    HW236846   8.378   7.348   2.465  1.1439  0.0144 -0.2175
 8723SOL     OW36847   3.447   0.866   1.172 -0.1497  0.2093 -0.1743
 8723SOL    HW136848   3.452   0.783   1.227  2.0207 -0.3360 -1.1651
 8723SOL    HW236849   3.351   0.892   1.159 -0.8360 -2.1546  0.1010
 8724SOL     OW36850   3.094   4.159   4.577 -0.3045  0.7902 -0.3307
 8724SOL    HW136851   3.171   4.162   4.641 -1.3184  2.1397  0.8565
 8724SOL    HW236852   3.103   4.235   4.512  0.7720 -0.6282 -1.8894
 8725SOL     OW36853   9.382   1.235   4.254  0.7123  0.0064  0.0082
 8725SOL    HW136854   9.389   1.297   4.332  1.6338  1.2110 -1.0064
 8725SOL    HW236855   9.474   1.211   4.222  0.4451 -3.6383  1.7109
 8726SOL     OW36856   0.663   0.257   3.796  0.7955  0.1773  0.0064
 8726SOL    HW136857   0.669   0.307   3.709 -1.1233 -1.4612 -1.1041
 8726SOL    HW236858   0.688   0.161   3.782  1.8925  0.2103  1.5802
 8727SOL     OW36859   4.856   6.336   1.406  0.0412  0.0208  0.2064
 8727SOL    HW136860   4.852   6.247   1.360  0.4932  0.1909 -0.1610
 8727SOL    HW236861   4.947   6.350   1.444  0.4021  0.9635 -0.9908
 8728SOL     OW36862   4.163   8.505   3.233 -0.6087 -0.1782 -0.2451
 8728SOL    HW136863   4.180   8.407   3.235 -0.5891 -0.1703 -0.1028
 8728SOL    HW236864   4.243   8.552   3.196  0.6290  0.0742  2.6049
 8729SOL     OW36865   9.532   5.651   3.130  0.0213 -0.2434 -0.2319
 8729SOL    HW136866   9.497   5.585   3.197 -1.5075 -1.1570 -1.8832
 8729SOL    HW236867   9.616   5.615   3.089 -0.5131 -0.9303 -0.7364
 8730SOL     OW36868   9.701   7.891   1.570 -0.2461  0.2788 -0.0139
 8730SOL    HW136869   9.703   7.915   1.473 -0.9680  0.1451 -0.0663
 8730SOL    HW236870   9.765   7.948   1.621  2.0390 -1.3642 -0.9516
 8731SOL     OW36871   4.392   3.257   2.921  0.7766  0.1985 -0.4073
 8731SOL    HW136872   4.388   3.327   2.850  0.0734  0.4620 -0.1180
 8731SOL    HW236873   4.487   3.237   2.944  1.0426 -0.8318 -2.3495
 8732SOL     OW36874   9.738   8.134   5.343  0.0672  0.1788 -0.4794
 8732SOL    HW136875   9.836   8.152   5.336 -0.0381  0.9243 -0.0012
 8732SOL    HW236876   9.721   8.072   5.420  0.3808 -1.6574 -1.8528
 8733SOL     OW36877   1.597   1.457   3.173 -0.1396  0.3986  0.1057
 8733SOL    HW136878   1.642   1.444   3.261 -0.0939  0.0451  0.0302
 8733SOL    HW236879   1.589   1.369   3.126 -1.1512  0.4089  0.2363
 8734SOL     OW36880   1.999   5.721   2.840 -0.1070  0.0177  0.0272
 8734SOL    HW136881   2.091   5.695   2.811  0.2930  0.1168  1.1803
 8734SOL    HW236882   2.001   5.813   2.880 -1.0501  0.7924 -1.6435
 8735SOL     OW36883   3.268   1.204   3.101  0.4585 -0.0327  0.3561
 8735SOL    HW136884   3.328   1.271   3.147  2.8463 -0.5225 -1.9180
 8735SOL    HW236885   3.283   1.114   3.140 -0.9316  0.2984  1.7165
 8736SOL     OW36886   6.833   9.513   0.730 -0.2032 -0.3074 -0.3303
 8736SOL    HW136887   6.861   9.593   0.676 -2.4366  1.2822  0.7944
 8736SOL    HW236888   6.897   9.502   0.807 -0.0328  0.5507 -0.3415
 8737SOL     OW36889   2.289   0.072   5.371 -0.6335  0.3786 -0.4663
 8737SOL    HW136890   2.335   0.114   5.294  0.5516 -0.1200 -0.0357
 8737SOL    HW236891   2.195   0.107   5.377 -0.1557  1.7680 -1.0339
 8738SOL     OW36892   1.822   8.090   5.230  0.1209  0.0318  0.2414
 8738SOL    HW136893   1.880   8.159   5.188  0.5207 -0.6441 -0.3432
 8738SOL    HW236894   1.878   8.012   5.259 -0.5681 -0.9760 -1.0587
 8739SOL     OW36895   4.390   3.963   2.358 -0.0693 -0.3249 -0.0814
 8739SOL    HW136896   4.344   4.034   2.304  0.4233 -0.7997 -1.1444
 8739SOL    HW236897   4.480   3.996   2.387 -0.4045 -0.0047  0.6100
 8740SOL     OW36898   7.594   8.526   1.620 -0.0748 -0.3232 -0.3960
 8740SOL    HW136899   7.682   8.539   1.666  0.2245  0.5118 -1.1850
 8740SOL    HW236900   7.589   8.433   1.584  1.7645  0.4934 -2.9437
 8741SOL     OW36901   3.087   3.349   1.439  0.0725 -0.3855  0.2054
 8741SOL    HW136902   3.033   3.431   1.419  0.5115  0.0245  0.6904
 8741SOL    HW236903   3.029   3.268   1.428  0.5584 -0.2824 -3.8036
 8742SOL     OW36904   1.472   0.797   0.865 -1.0413 -0.2196 -1.1321
 8742SOL    HW136905   1.535   0.809   0.788 -0.8569 -0.1046 -0.9635
 8742SOL    HW236906   1.384   0.837   0.842 -1.2279 -0.8881 -1.5905
 8743SOL     OW36907   3.905   3.303   1.899 -0.0521  0.0100 -0.1160
 8743SOL    HW136908   3.811   3.316   1.867 -0.2795 -1.0446  0.1306
 8743SOL    HW236909   3.958   3.256   1.829 -0.4700 -2.0242  0.8986
 8744SOL     OW36910   6.974   8.780   1.724 -0.2297 -0.1807  0.0267
 8744SOL    HW136911   7.036   8.853   1.752  1.9485 -1.6196 -0.8803
 8744SOL    HW236912   7.008   8.692   1.760  0.0249 -1.4113 -3.0880
 8745SOL     OW36913   4.539   3.406   5.181 -0.4648 -0.5732 -0.0399
 8745SOL    HW136914   4.557   3.438   5.088 -0.2696 -0.1374  0.1511
 8745SOL    HW236915   4.473   3.330   5.177  0.6808 -1.5599 -0.6571
 8746SOL     OW36916   1.459   8.489   0.310  0.5277  0.3698 -0.2656
 8746SOL    HW136917   1.487   8.567   0.254  2.4085  0.3169  0.5560
 8746SOL    HW236918   1.478   8.404   0.261 -1.9478  0.4078 -1.3512
 8747SOL     OW36919   1.947   8.803   1.464 -0.2690 -0.1233 -0.3974
 8747SOL    HW136920   1.908   8.861   1.535 -0.8183 -0.5555 -0.3433
 8747SOL    HW236921   2.045   8.792   1.479 -0.5626 -1.0806  0.8951
 8748SOL     OW36922   9.245   1.323   3.006 -1.0626 -0.8121 -0.0872
 8748SOL    HW136923   9.197   1.256   2.950 -1.3772 -0.0367 -0.7436
 8748SOL    HW236924   9.337   1.339   2.969 -1.4344  0.0382 -0.6578
 8749SOL     OW36925   1.425   0.039   2.265 -0.0792 -0.2987 -0.6654
 8749SOL    HW136926   1.507   0.079   2.224  0.7420 -2.2169 -0.9668
 8749SOL    HW236927   1.442  -0.057   2.286 -2.1548 -0.6377 -0.4121
 8750SOL     OW36928   0.736   9.974   1.434 -0.4590  0.2126 -0.1046
 8750SOL    HW136929   0.674   9.942   1.362  2.2637  1.5569 -3.1747
 8750SOL    HW236930   0.829   9.982   1.398  0.9024  1.5912  3.4021
 8751SOL     OW36931   1.349   8.456   4.339  0.0895  0.1897 -0.2752
 8751SOL    HW136932   1.426   8.394   4.342  0.0016  0.0947  0.0628
 8751SOL    HW236933   1.381   8.549   4.323  0.2324  0.0774 -0.6340
 8752SOL     OW36934   4.585   3.587   3.669 -0.3538 -0.4191 -0.0647
 8752SOL    HW136935   4.540   3.606   3.582  0.2483  1.0558 -0.0642
 8752SOL    HW236936   4.525   3.529   3.725 -1.8544  0.7542 -0.4196
 8753SOL     OW36937   1.637   8.429   3.233 -0.4966  0.1303 -0.5655
 8753SOL    HW136938   1.672   8.410   3.325  1.0215 -0.4792 -1.2431
 8753SOL    HW236939   1.694   8.500   3.190 -0.0155 -0.9229 -1.7148
 8754SOL     OW36940   2.426   9.242   5.159  0.1937 -0.4833 -0.2395
 8754SOL    HW136941   2.513   9.259   5.113  0.2045  1.5828  0.4787
 8754SOL    HW236942   2.443   9.196   5.247  0.7455  1.5736  0.7579
 8755SOL     OW36943   6.678   0.477   2.841 -0.0741 -0.0909 -0.2781
 8755SOL    HW136944   6.776   0.471   2.862  0.1681 -1.0345 -1.6471
 8755SOL    HW236945   6.657   0.567   2.805 -0.0345  0.6928  1.5665
 8756SOL     OW36946   0.487   7.892   2.136 -0.6212  0.0121 -0.4065
 8756SOL    HW136947   0.533   7.829   2.200 -0.5690  0.0747 -0.3818
 8756SOL    HW236948   0.437   7.961   2.188 -0.8171 -0.1123 -0.4338
 8757SOL     OW36949   9.145   8.152   2.771 -0.5929 -0.5500 -0.4726
 8757SOL    HW136950   9.052   8.163   2.738 -0.3052  1.0847 -0.7582
 8757SOL    HW236951   9.146   8.159   2.871 -0.5598  1.1095 -0.5770
 8758SOL     OW36952   3.454   6.042   2.649  0.7391 -0.4026  0.3802
 8758SOL    HW136953   3.504   5.955   2.658 -0.3255 -1.1575 -0.7506
 8758SOL    HW236954   3.419   6.070   2.739  2.8225 -0.0675  1.1134
 8759SOL     OW36955   3.381   3.390   4.975 -0.0927 -0.1965  0.6282
 8759SOL    HW136956   3.305   3.449   5.004  0.0171  0.0663  0.3807
 8759SOL    HW236957   3.358   3.349   4.886 -0.4076 -0.9600  1.0555
 8760SOL     OW36958   8.317   0.026   3.056 -0.5653  0.4485  0.8111
 8760SOL    HW136959   8.258  -0.026   3.118 -0.4961  0.6599  1.0530
 8760SOL    HW236960   8.264   0.057   2.978  0.0630 -2.6468 -0.9340
 8761SOL     OW36961   5.349   7.009   3.254 -0.7891 -0.0670 -0.0207
 8761SOL    HW136962   5.357   6.974   3.347  0.9806  0.2083 -0.0535
 8761SOL    HW236963   5.297   6.944   3.198 -0.7689 -0.8390  0.8541
 8762SOL     OW36964   4.288   0.124   3.912  0.0573 -0.1262 -0.7560
 8762SOL    HW136965   4.347   0.052   3.873 -1.3807 -2.1758  0.7326
 8762SOL    HW236966   4.194   0.110   3.881 -0.2758  1.0276 -0.2860
 8763SOL     OW36967   5.362   0.051   2.376 -0.1150  0.1262  0.0375
 8763SOL    HW136968   5.297  -0.015   2.413  0.4785  0.4597  1.6875
 8763SOL    HW236969   5.441   0.002   2.339  0.2785 -0.0916  1.1639
 8764SOL     OW36970   9.369   8.234   2.973 -0.0129 -0.6490  0.3690
 8764SOL    HW136971   9.288   8.184   3.004 -0.9941  1.4713  1.3277
 8764SOL    HW236972   9.364   8.246   2.874 -1.2595  0.1085  0.5110
 8765SOL     OW36973   1.342   0.920   0.113 -0.1588  0.1651  0.3620
 8765SOL    HW136974   1.289   0.997   0.077  1.1852  1.3504  0.8861
 8765SOL    HW236975   1.360   0.933   0.210  0.2476 -0.7167  0.4147
 8766SOL     OW36976   9.976   0.788   0.218 -0.2601  0.2274  0.3154
 8766SOL    HW136977   9.965   0.837   0.305  0.4009  1.7767 -0.4390
 8766SOL    HW236978   9.994   0.692   0.235  3.2538  1.1217  2.0231
 8767SOL     OW36979   0.285   7.988   1.842  0.0723  0.5462  0.7839
 8767SOL    HW136980   0.311   8.045   1.920  3.2953 -1.3862  1.2470
 8767SOL    HW236981   0.282   7.892   1.871  3.1837 -0.4374 -1.7601
 8768SOL     OW36982   2.729   6.429   0.382  0.1383  0.4970 -0.0279
 8768SOL    HW136983   2.795   6.356   0.396 -0.1072  0.1765 -0.5495
 8768SOL    HW236984   2.718   6.447   0.284  0.2454  1.2765  0.0952
 8769SOL     OW36985   6.273   0.469   3.855 -0.0040 -0.0608  0.1576
 8769SOL    HW136986   6.369   0.493   3.838 -0.3107  1.3252  0.2723
 8769SOL    HW236987   6.243   0.512   3.940 -1.7136  2.4724 -1.6268
 8770SOL     OW36988   0.137   4.456   1.692 -0.0720  0.0513  0.1877
 8770SOL    HW136989   0.210   4.469   1.624 -0.4806  1.8372  0.0700
 8770SOL    HW236990   0.088   4.371   1.672  1.3076 -0.6471 -0.3409
 8771SOL     OW36991   1.084   0.055   2.851 -0.5200 -0.0693 -0.1260
 8771SOL    HW136992   1.164  -0.004   2.857 -0.9840 -0.6742  0.0904
 8771SOL    HW236993   1.057   0.085   2.942 -1.2134 -0.7721 -0.0953
 8772SOL     OW36994   4.928   1.241   3.110 -0.0825 -0.0194  0.8257
 8772SOL    HW136995   4.925   1.339   3.132 -0.4345  0.2872 -0.4964
 8772SOL    HW236996   4.837   1.202   3.122  0.0245 -0.1531  1.2048
 8773SOL     OW36997   3.464   0.472   4.676 -0.1315 -0.2958 -0.5632
 8773SOL    HW136998   3.463   0.512   4.585  0.6542 -0.0786 -0.4805
 8773SOL    HW236999   3.390   0.405   4.684 -2.2269  1.9616 -0.3185
 8774SOL     OW37000   3.624   6.267   1.708  0.1270  0.0721 -0.6168
 8774SOL    HW137001   3.538   6.239   1.750 -0.9494  2.9590 -0.8301
 8774SOL    HW237002   3.685   6.188   1.702 -2.0742 -1.7669  0.5383
 8775SOL     OW37003   2.687   2.012   1.773 -0.1396  0.2804  0.0534
 8775SOL    HW137004   2.626   2.004   1.852 -1.1651 -0.9337 -0.8498
 8775SOL    HW237005   2.728   2.103   1.772 -2.9092  1.5688 -0.0474
 8776SOL     OW37006   7.710   9.683   4.686 -0.8257 -0.3830  0.2967
 8776SOL    HW137007   7.693   9.588   4.660  0.9025 -1.0880  1.6690
 8776SOL    HW237008   7.700   9.742   4.605 -0.0754 -1.9578 -0.9688
 8777SOL     OW37009   6.379   8.231   2.856 -0.1878  0.1926 -0.5670
 8777SOL    HW137010   6.294   8.190   2.890  0.0650  1.0134  1.1368
 8777SOL    HW237011   6.362   8.327   2.833  0.0127  0.0502 -1.3016
 8778SOL     OW37012   4.780   5.562   1.497 -0.3398  0.1407  0.5746
 8778SOL    HW137013   4.766   5.507   1.415 -1.9149  3.0499 -1.1886
 8778SOL    HW237014   4.878   5.581   1.508 -0.1092 -0.3474 -0.5621
 8779SOL     OW37015   6.101   8.204   2.837  0.2205 -0.5200  0.3214
 8779SOL    HW137016   6.014   8.237   2.873  0.4532 -0.5115  0.8790
 8779SOL    HW237017   6.094   8.193   2.737 -0.0607  0.5798  0.2134
 8780SOL     OW37018   3.820   0.970   1.597  0.5520 -0.5023  0.1208
 8780SOL    HW137019   3.854   0.877   1.585  1.3573 -0.0554 -1.2836
 8780SOL    HW237020   3.883   1.034   1.552 -1.7347  0.4361 -1.8488
 8781SOL     OW37021   0.091   3.534   1.604  0.0571 -0.6268 -0.1800
 8781SOL    HW137022   0.130   3.506   1.516 -0.2498 -0.4286 -0.3765
 8781SOL    HW237023   0.109   3.631   1.620  1.9145 -1.1135  0.9153
 8782SOL     OW37024   1.402   8.011   1.436  0.1953 -0.3329  0.5154
 8782SOL    HW137025   1.326   8.061   1.394  0.1016 -0.3549  0.6607
 8782SOL    HW237026   1.484   8.021   1.379  0.3053  0.3890  0.7904
 8783SOL     OW37027   4.693   8.054   1.545 -1.0560  0.8687  0.0508
 8783SOL    HW137028   4.704   8.067   1.644  1.9677 -0.3203 -0.0921
 8783SOL    HW237029   4.763   8.108   1.497 -0.7250 -0.7499 -1.3102
 8784SOL     OW37030   1.836   0.284   2.439 -0.2564 -0.5155 -0.1825
 8784SOL    HW137031   1.864   0.376   2.465 -0.0160 -0.6021 -0.1312
 8784SOL    HW237032   1.772   0.289   2.362  0.6215 -0.3560 -0.9180
 8785SOL     OW37033   1.608   5.870   3.082 -0.9585  0.3925 -0.0570
 8785SOL    HW137034   1.566   5.858   3.172 -1.5511 -3.3514 -0.7639
 8785SOL    HW237035   1.694   5.920   3.093 -0.3778 -1.1111  2.7967
 8786SOL     OW37036   5.643   1.700   1.861  0.7344  0.2784 -0.4172
 8786SOL    HW137037   5.610   1.607   1.844 -1.7787  0.5173  2.7474
 8786SOL    HW237038   5.743   1.698   1.874  0.4985 -2.3100  1.4874
 8787SOL     OW37039   2.359   3.580   2.295  0.2837 -0.6881 -0.2091
 8787SOL    HW137040   2.436   3.642   2.282 -1.4809  1.6407  0.2638
 8787SOL    HW237041   2.382   3.512   2.364  0.9364  1.7104  1.9974
 8788SOL     OW37042   9.879   4.295   2.833  0.7262 -0.8662 -0.1093
 8788SOL    HW137043   9.938   4.365   2.794 -0.9952 -0.0302 -1.2412
 8788SOL    HW237044   9.905   4.205   2.797  3.4577 -0.9631  1.9571
 8789SOL     OW37045   6.858   9.158   3.193  0.1742  0.0567 -0.3352
 8789SOL    HW137046   6.955   9.150   3.218  0.4094  0.5855 -1.0827
 8789SOL    HW237047   6.809   9.203   3.267  0.0614 -2.2543  1.0529
 8790SOL     OW37048   1.987   4.572   1.590  0.2778 -0.1976 -0.2165
 8790SOL    HW137049   1.971   4.589   1.687  1.4746 -0.1078 -0.0297
 8790SOL    HW237050   1.931   4.635   1.535  1.0611  1.0884  0.4295
 8791SOL     OW37051   2.953   3.242   3.249 -0.1189  0.2019  0.3021
 8791SOL    HW137052   2.890   3.315   3.277  0.1483  0.4825  0.1771
 8791SOL    HW237053   2.941   3.223   3.151  0.9533  1.2245 -0.0464
 8792SOL     OW37054   7.343   1.119   3.641  0.1409  0.2570 -0.5357
 8792SOL    HW137055   7.350   1.064   3.724  0.0550 -0.6842 -1.1411
 8792SOL    HW237056   7.429   1.168   3.626 -0.5208  1.9780  1.1620
 8793SOL     OW37057   9.862   1.807   2.458 -0.0899 -0.2224 -1.3246
 8793SOL    HW137058   9.811   1.839   2.537  0.4614  1.3685 -1.5967
 8793SOL    HW237059   9.798   1.780   2.385 -0.5613  2.0944 -1.7955
 8794SOL     OW37060   1.008   4.012   2.495 -0.1947  0.1796 -0.3336
 8794SOL    HW137061   1.051   3.970   2.575  1.2664  2.7011  0.2429
 8794SOL    HW237062   0.969   3.940   2.437  1.8572 -1.9416  0.8217
 8795SOL     OW37063   8.548   0.692   0.766  0.2077 -0.4451 -0.1553
 8795SOL    HW137064   8.582   0.607   0.806 -0.4525 -0.0083  1.3965
 8795SOL    HW237065   8.472   0.672   0.705  1.4011 -1.1564 -1.4332
 8796SOL     OW37066   5.584   1.276   2.303 -0.1758 -0.4818  0.2917
 8796SOL    HW137067   5.670   1.312   2.339  0.4722 -2.1815  0.5061
 8796SOL    HW237068   5.538   1.347   2.249  0.8923  0.7424  0.9543
 8797SOL     OW37069   9.181   7.767   2.256 -0.5929 -0.4259 -0.3241
 8797SOL    HW137070   9.089   7.768   2.296 -0.1969  1.5952  0.6564
 8797SOL    HW237071   9.248   7.747   2.328  0.1373  3.3587  0.1749
 8798SOL     OW37072   7.530   0.662   0.479  0.8001  0.7668  0.4806
 8798SOL    HW137073   7.486   0.738   0.432 -0.0075  0.4958  0.7931
 8798SOL    HW237074   7.556   0.690   0.571  0.2205  0.5766  0.7057
 8799SOL     OW37075   4.075   6.163   1.944 -0.0926 -0.1957 -0.5066
 8799SOL    HW137076   4.160   6.144   1.896  0.9505 -0.8207  1.5164
 8799SOL    HW237077   4.076   6.257   1.978  0.6453 -0.7705  1.1351
 8800SOL     OW37078   5.066   0.637   3.110  0.0888 -0.2810 -0.1096
 8800SOL    HW137079   5.011   0.717   3.135  2.9846  1.0780  2.2238
 8800SOL    HW237080   5.022   0.555   3.146 -1.2525  0.5920  0.3116
 8801SOL     OW37081   2.019   1.476   0.321 -0.0052  0.6817 -0.4475
 8801SOL    HW137082   1.939   1.534   0.306  0.4765  0.9372 -2.1457
 8801SOL    HW237083   2.091   1.503   0.258  0.6895 -0.9062 -0.3452
 8802SOL     OW37084   3.168   5.222   2.279 -0.7513  0.1444 -0.3272
 8802SOL    HW137085   3.130   5.294   2.337 -0.8600 -0.7365  0.7079
 8802SOL    HW237086   3.208   5.151   2.337  1.1490  0.3291 -1.3621
 8803SOL     OW37087   6.740   0.182   1.480 -0.0294  0.2079 -0.7363
 8803SOL    HW137088   6.829   0.218   1.452  0.1616 -0.4527 -0.9942
 8803SOL    HW237089   6.698   0.134   1.404  0.6676 -1.9433  0.1713
 8804SOL     OW37090   2.077   0.015   1.263 -0.0930  0.4645 -0.6193
 8804SOL    HW137091   2.163   0.062   1.282 -0.1323  1.2353 -2.2602
 8804SOL    HW237092   2.013   0.030   1.338  0.7770  0.8976  0.0441
 8805SOL     OW37093   0.069   9.763   1.524 -0.0796  0.4518  0.5607
 8805SOL    HW137094   0.065   9.863   1.533 -1.6278  0.6434 -1.7070
 8805SOL    HW237095   0.123   9.738   1.444 -1.0240 -0.4541  0.1853
 8806SOL     OW37096   3.482   9.982   1.418 -0.5854  0.0408  0.1954
 8806SOL    HW137097   3.564   9.972   1.476 -0.1748 -0.6634 -0.5019
 8806SOL    HW237098   3.400   9.969   1.474 -0.3086  2.9861  1.3829
 8807SOL     OW37099   2.562   6.927   3.386  0.1551 -0.1574 -0.2300
 8807SOL    HW137100   2.584   6.970   3.474  0.1796 -1.5435  0.4540
 8807SOL    HW237101   2.531   6.997   3.322  0.4137  0.9129  0.7878
 8808SOL     OW37102   3.251   9.551   1.314  0.3340 -0.1767 -0.1235
 8808SOL    HW137103   3.208   9.565   1.402 -1.1962  0.6498 -0.9949
 8808SOL    HW237104   3.301   9.633   1.287  0.1334 -0.1413 -0.3931
 8809SOL     OW37105   3.232   8.088   5.603 -0.3437  0.0432 -0.5317
 8809SOL    HW137106   3.281   8.003   5.624  1.8286  1.2696 -0.5197
 8809SOL    HW237107   3.159   8.068   5.537 -0.7668 -2.0563  0.5064
 8810SOL     OW37108   9.518   5.564   2.227  0.2131 -0.3311 -0.1004
 8810SOL    HW137109   9.532   5.663   2.236 -0.5686 -0.3181  0.9943
 8810SOL    HW237110   9.443   5.536   2.285  1.3941 -1.8195  0.7290
 8811SOL     OW37111   1.154   0.644   5.042  0.4096  0.3417  0.3517
 8811SOL    HW137112   1.206   0.604   4.966  0.7090 -1.4607  1.4940
 8811SOL    HW237113   1.095   0.717   5.006 -0.6434 -1.5300 -1.8831
 8812SOL     OW37114   3.607   1.058   0.167  0.3403  0.2141  0.1322
 8812SOL    HW137115   3.532   1.002   0.202 -0.2841 -0.5550 -2.3729
 8812SOL    HW237116   3.592   1.153   0.194 -0.8657 -0.1296  0.7358
 8813SOL     OW37117   3.147   4.465   3.563 -0.1378  0.5095  0.3104
 8813SOL    HW137118   3.070   4.401   3.563  1.3120 -1.2587 -1.0796
 8813SOL    HW237119   3.208   4.443   3.639 -0.5150  1.3360  0.8603
 8814SOL     OW37120   1.763   5.737   3.384  0.6036 -0.1975 -0.6848
 8814SOL    HW137121   1.684   5.725   3.323 -0.1201  0.3552  0.1388
 8814SOL    HW237122   1.845   5.703   3.338 -0.4356 -2.7222 -0.7536
 8815SOL     OW37123   3.041   4.651   0.469 -0.2546  0.0900 -0.9692
 8815SOL    HW137124   3.037   4.733   0.526 -1.9208 -0.2568 -0.5677
 8815SOL    HW237125   3.094   4.580   0.515 -1.4839 -0.1468  0.1254
 8816SOL     OW37126   7.174   9.291   1.927  0.7819 -0.0039 -0.2334
 8816SOL    HW137127   7.190   9.387   1.905  0.3222  0.3078  0.7534
 8816SOL    HW237128   7.215   9.271   2.016 -1.7022  0.0543  0.9595
 8817SOL     OW37129   5.059   3.278   1.760  0.0866  0.0769  0.5727
 8817SOL    HW137130   5.044   3.367   1.803 -2.6479 -0.5657  1.0393
 8817SOL    HW237131   5.090   3.213   1.830  3.1808  0.8679  0.0253
 8818SOL     OW37132   3.245   7.686   1.776 -0.0704  0.1965 -0.4068
 8818SOL    HW137133   3.176   7.708   1.845  0.6637  0.9966  0.0804
 8818SOL    HW237134   3.294   7.604   1.803 -0.6151 -0.1973 -0.5993
 8819SOL     OW37135   3.064   3.900   3.313  0.1821  0.1504  0.0344
 8819SOL    HW137136   3.067   3.966   3.388  1.3586  0.0062  0.1195
 8819SOL    HW237137   2.984   3.841   3.324  0.1392  0.3691  0.9698
 8820SOL     OW37138   1.016   2.125   1.227  0.7218 -0.2107 -0.1636
 8820SOL    HW137139   1.103   2.160   1.191  0.6707  1.6372  1.4307
 8820SOL    HW237140   0.971   2.196   1.281  0.1868 -2.4479  2.4752
 8821SOL     OW37141   3.868   8.969   1.690  0.1085  0.2938 -0.0445
 8821SOL    HW137142   3.880   8.998   1.785  0.0912  0.2564 -0.0314
 8821SOL    HW237143   3.899   9.042   1.629  0.4430  0.1822 -0.0118
 8822SOL     OW37144   4.456   3.470   5.624  0.2656  0.1138 -0.3002
 8822SOL    HW137145   4.361   3.475   5.591 -0.0185 -0.9942  0.3408
 8822SOL    HW237146   4.516   3.451   5.547 -0.0788  0.4552 -0.6563
 8823SOL     OW37147   8.484   1.009   5.324 -0.3354 -0.8247 -0.7879
 8823SOL    HW137148   8.466   1.107   5.323 -1.5609 -1.0390 -1.7951
 8823SOL    HW237149   8.564   0.990   5.381 -0.6402  0.6526  0.1640
 8824SOL     OW37150   9.421   9.307   4.949  0.5652 -0.4678 -0.5030
 8824SOL    HW137151   9.354   9.241   4.916 -0.9655  1.9148 -2.3170
 8824SOL    HW237152   9.510   9.288   4.907  0.1639 -1.3813 -0.9516
 8825SOL     OW37153   0.598   0.970   3.424 -0.2396 -0.5582 -0.3262
 8825SOL    HW137154   0.516   0.940   3.473 -0.7597 -0.7627 -1.2903
 8825SOL    HW237155   0.629   0.896   3.364  0.2926 -0.2615 -0.4147
 8826SOL     OW37156   0.375   1.687   0.008  0.1782 -0.3928 -0.3435
 8826SOL    HW137157   0.334   1.608   0.054 -2.6600  0.5103 -1.2480
 8826SOL    HW237158   0.395   1.664  -0.087  0.4852 -0.3794 -0.2844
 8827SOL     OW37159   1.231   6.318   2.065  0.1880 -0.1305 -0.1667
 8827SOL    HW137160   1.325   6.287   2.049  0.7493  2.5496 -2.5238
 8827SOL    HW237161   1.169   6.270   2.004  0.1820 -1.0361  0.5449
 8828SOL     OW37162   2.866   2.969   3.389 -0.0921 -0.9269  0.3078
 8828SOL    HW137163   2.820   2.971   3.300 -0.7533 -0.4682  0.6523
 8828SOL    HW237164   2.960   3.001   3.379 -0.4458  0.0213 -0.0661
 8829SOL     OW37165   1.387   5.626   1.783 -0.2011  0.5111  0.1443
 8829SOL    HW137166   1.467   5.627   1.722 -0.2692 -0.8545  0.0132
 8829SOL    HW237167   1.416   5.650   1.876  0.5743 -0.9665  0.3121
 8830SOL     OW37168   3.137   5.400   5.285  0.3170  0.0881  0.5108
 8830SOL    HW137169   3.102   5.445   5.203 -2.0338  0.5271  1.7030
 8830SOL    HW237170   3.172   5.469   5.349 -0.9120  0.0534  1.2470
 8831SOL     OW37171   3.821   8.209   1.072 -0.1247 -0.4595  0.1080
 8831SOL    HW137172   3.793   8.288   1.017 -2.0515 -1.2443 -0.0684
 8831SOL    HW237173   3.901   8.233   1.127 -0.7457  1.6482  0.1209
 8832SOL     OW37174   9.594   4.020   2.912 -0.5009 -0.5262  0.1965
 8832SOL    HW137175   9.600   4.023   2.813  0.1198 -0.2394  0.2395
 8832SOL    HW237176   9.683   3.994   2.951 -0.7619 -0.7224  0.6726
 8833SOL     OW37177   3.213   2.501   3.023  0.1440  0.6382 -0.1919
 8833SOL    HW137178   3.220   2.585   3.077  2.5157 -0.0021  0.5251
 8833SOL    HW237179   3.288   2.497   2.957 -0.0252 -0.8509 -0.3163
 8834SOL     OW37180   9.696   1.952   1.187  0.1442  0.3038  0.7606
 8834SOL    HW137181   9.760   1.996   1.250 -0.2666  0.2713  1.2119
 8834SOL    HW237182   9.677   2.013   1.110  2.5993 -0.6464 -0.6697
 8835SOL     OW37183   4.378   4.326   1.333 -0.5120  0.4511  0.0200
 8835SOL    HW137184   4.356   4.389   1.258  0.6757  0.7233 -0.1176
 8835SOL    HW237185   4.363   4.232   1.303 -0.2708  0.5720 -0.4878
 8836SOL     OW37186   1.282   7.586   2.584  0.0318 -0.8540  0.4318
 8836SOL    HW137187   1.342   7.649   2.634 -0.6424 -0.5209  0.8477
 8836SOL    HW237188   1.241   7.634   2.506  0.3880 -1.1097  0.0879
 8837SOL     OW37189   2.844   1.191   2.182 -0.1149  0.9822 -0.2836
 8837SOL    HW137190   2.889   1.273   2.146  0.6498  0.0404 -1.4978
 8837SOL    HW237191   2.914   1.125   2.209 -0.7447  0.5067  0.1864
 8838SOL     OW37192   2.087   7.822   4.014  0.2257  0.0764  0.4235
 8838SOL    HW137193   2.037   7.901   3.978 -1.8870 -0.3410  2.2788
 8838SOL    HW237194   2.132   7.848   4.100 -0.6285 -0.7558  1.1343
 8839SOL     OW37195   1.748   0.953   0.260 -0.5543  0.4076  0.1917
 8839SOL    HW137196   1.695   0.871   0.241 -0.7406  0.6906 -0.4970
 8839SOL    HW237197   1.795   0.942   0.348  2.5454 -2.0216 -1.6902
 8840SOL     OW37198   8.738   9.798   1.390  0.4582  0.3502  0.1510
 8840SOL    HW137199   8.662   9.780   1.327 -0.0300 -0.5624  0.9747
 8840SOL    HW237200   8.733   9.892   1.423  1.0925  1.0384 -1.6594
 8841SOL     OW37201   1.721   8.328   0.801  0.2286 -0.0498  0.3058
 8841SOL    HW137202   1.661   8.315   0.722  0.0081  1.5086  0.1840
 8841SOL    HW237203   1.738   8.241   0.846 -0.1435 -0.8539 -1.1063
 8842SOL     OW37204   7.394   7.918   2.422  0.5321  0.1840  0.5005
 8842SOL    HW137205   7.365   7.943   2.329  0.1290 -0.7442  0.3661
 8842SOL    HW237206   7.415   7.820   2.424  2.1728  0.5369  0.9854
 8843SOL     OW37207   1.640   9.875   4.085  0.1712 -0.0430  0.4711
 8843SOL    HW137208   1.547   9.840   4.095  0.2427 -0.4514 -0.2593
 8843SOL    HW237209   1.643   9.941   4.011  0.4081  0.1620  0.6641
 8844SOL     OW37210   2.176   9.682   2.838  0.4033 -0.2589 -0.4557
 8844SOL    HW137211   2.146   9.589   2.820  1.7570 -0.7111 -0.3633
 8844SOL    HW237212   2.181   9.698   2.936  2.4509 -0.8409 -0.4438
 8845SOL     OW37213   3.659   7.455   1.441  0.2532  0.0360  0.2617
 8845SOL    HW137214   3.623   7.502   1.521 -0.1151 -0.0411  0.1440
 8845SOL    HW237215   3.610   7.486   1.359 -0.4006 -0.9641  0.2512
 8846SOL     OW37216   4.647   0.676   0.518  0.2695 -0.1660 -0.6652
 8846SOL    HW137217   4.675   0.768   0.543 -0.2048 -0.1669 -0.1306
 8846SOL    HW237218   4.726   0.625   0.484  0.9582 -0.2451  1.0327
 8847SOL     OW37219   2.500   5.993   2.572 -0.3248 -0.1767  0.1887
 8847SOL    HW137220   2.487   6.027   2.479  0.5150  0.8363  0.4249
 8847SOL    HW237221   2.464   6.060   2.637 -0.1697 -0.5037  0.6126
 8848SOL     OW37222   1.120   3.369   1.893 -0.1200  0.2593  0.0632
 8848SOL    HW137223   1.105   3.335   1.986 -0.2318  1.6396  0.5707
 8848SOL    HW237224   1.218   3.390   1.881 -0.1256  0.2020 -0.0785
 8849SOL     OW37225   1.578   4.276   0.331  0.1879 -0.1504 -0.0902
 8849SOL    HW137226   1.677   4.264   0.326  0.2363  0.7843 -1.5597
 8849SOL    HW237227   1.550   4.353   0.273 -1.3218  0.0048  0.8174
 8850SOL     OW37228   2.479   4.014   4.917  0.0431 -0.6314  0.5941
 8850SOL    HW137229   2.555   4.020   4.982  1.2426 -1.9044 -0.6676
 8850SOL    HW237230   2.397   3.986   4.965  0.4799  0.2502  1.8877
 8851SOL     OW37231   5.250   1.250   1.733  0.2833  0.5750  0.5767
 8851SOL    HW137232   5.308   1.201   1.798  0.9253  1.3590  0.5978
 8851SOL    HW237233   5.282   1.344   1.724 -0.4992  0.7865 -0.0172
 8852SOL     OW37234   2.641   8.910   2.253  0.3331  0.1708  0.5395
 8852SOL    HW137235   2.714   8.850   2.285 -0.2632 -0.1190  1.3813
 8852SOL    HW237236   2.633   8.903   2.154  1.2426 -0.0269  0.4808
 8853SOL     OW37237   2.167   2.658   1.739  0.3294  0.0216 -0.4398
 8853SOL    HW137238   2.162   2.583   1.673 -0.4380 -0.9067  0.6455
 8853SOL    HW237239   2.156   2.746   1.692 -1.7958 -0.7075 -1.3672
 8854SOL     OW37240   9.705   3.949   1.381  0.3444  0.1205  0.0465
 8854SOL    HW137241   9.691   3.932   1.284  0.1442 -1.8017  0.3864
 8854SOL    HW237242   9.617   3.966   1.426  0.6645  3.5077 -0.5245
 8855SOL     OW37243   8.338   9.150   4.227  0.3453 -0.3606 -0.4372
 8855SOL    HW137244   8.332   9.051   4.212 -0.2710 -0.3680 -0.1652
 8855SOL    HW237245   8.257   9.181   4.277  1.4377 -0.0327  1.1800
 8856SOL     OW37246   8.494   0.920   4.739 -0.0705 -0.0188 -0.3699
 8856SOL    HW137247   8.522   0.842   4.795  0.0685  0.4256  0.1867
 8856SOL    HW237248   8.431   0.978   4.792  0.7723  0.8872 -0.3439
 8857SOL     OW37249   1.409   6.354   1.099  0.0466  0.1933 -0.0790
 8857SOL    HW137250   1.474   6.374   1.171  0.2168  1.3889 -0.5595
 8857SOL    HW237251   1.316   6.367   1.133  0.0785 -0.7737  0.3816
 8858SOL     OW37252   8.301   8.798   0.090 -0.3315  0.0811  0.2151
 8858SOL    HW137253   8.346   8.746   0.163  0.8588 -0.0328 -0.5948
 8858SOL    HW237254   8.260   8.734   0.025  1.3032  0.1453 -0.8866
 8859SOL     OW37255   2.692   4.552   1.832 -0.0357 -0.0466  0.5329
 8859SOL    HW137256   2.718   4.455   1.834 -1.4355 -0.4336  0.4424
 8859SOL    HW237257   2.600   4.562   1.870  0.0389  1.2274  0.3748
 8860SOL     OW37258   5.081   9.241   1.271 -0.6166 -0.6776 -0.2583
 8860SOL    HW137259   4.982   9.245   1.285 -0.3370 -1.0733  2.0777
 8860SOL    HW237260   5.118   9.334   1.273 -0.9224 -0.5396 -0.9840
 8861SOL     OW37261   1.591   3.362   3.027  0.1963  0.2513 -0.8422
 8861SOL    HW137262   1.612   3.444   2.974 -0.2739  0.0223 -1.3883
 8861SOL    HW237263   1.675   3.309   3.041  0.3172  0.2771 -1.4310
 8862SOL     OW37264   6.156   6.779   3.241  0.5775  0.2458  0.1580
 8862SOL    HW137265   6.080   6.730   3.198 -0.1705  0.6933  0.9477
 8862SOL    HW237266   6.120   6.852   3.299  1.4859 -1.1863  2.6098
 8863SOL     OW37267   2.818   2.329   0.365  0.2226  0.2071 -0.4093
 8863SOL    HW137268   2.788   2.310   0.458  1.4314 -0.0347 -0.0553
 8863SOL    HW237269   2.829   2.427   0.352 -2.3585  0.4301 -1.0713
 8864SOL     OW37270   0.896   2.336   1.322 -0.0713 -0.4416  0.1756
 8864SOL    HW137271   0.885   2.434   1.308  0.9662 -0.3353  0.0377
 8864SOL    HW237272   0.877   2.314   1.418  1.1435  0.1365  0.5723
 8865SOL     OW37273   3.059   7.420   4.039  0.4902 -0.1552  0.7314
 8865SOL    HW137274   3.147   7.462   4.062  0.5891 -1.4803  2.8976
 8865SOL    HW237275   2.992   7.445   4.108 -0.1234 -1.3969  0.5886
 8866SOL     OW37276   2.499   1.687   0.034 -0.4651  0.5477 -0.5903
 8866SOL    HW137277   2.518   1.605   0.088  1.1245  1.6957  0.6231
 8866SOL    HW237278   2.491   1.766   0.094  0.8682  1.7711 -1.9711
 8867SOL     OW37279   3.987   0.833   4.549  0.8675  0.1901  0.0991
 8867SOL    HW137280   4.022   0.839   4.455  1.2827 -0.4291  0.2074
 8867SOL    HW237281   3.890   0.812   4.546  0.0416  3.7670 -0.2275
 8868SOL     OW37282   9.200   7.826   4.836  0.1185 -0.1963  0.4865
 8868SOL    HW137283   9.174   7.772   4.756  1.6648 -0.5987  0.2565
 8868SOL    HW237284   9.272   7.891   4.812 -0.3745  0.6582  1.2309
 8869SOL     OW37285   3.217   1.924   4.478  0.0356 -0.2580 -0.0443
 8869SOL    HW137286   3.246   1.908   4.573  0.9875 -0.5424 -0.3776
 8869SOL    HW237287   3.158   1.849   4.448  0.5538 -0.6860 -0.0037
 8870SOL     OW37288   2.889   9.484   5.013  0.1433  0.4843 -0.2378
 8870SOL    HW137289   2.943   9.538   5.078  2.0508 -1.0008 -0.5654
 8870SOL    HW237290   2.793   9.514   5.017  0.3577  0.9253  2.7080
 8871SOL     OW37291   1.791   0.747   2.989  0.1638 -0.1572  0.1827
 8871SOL    HW137292   1.707   0.717   2.945 -0.3743  3.3551 -1.3551
 8871SOL    HW237293   1.771   0.821   3.054  2.0089  0.5251  0.0192
 8872SOL     OW37294   9.894   2.955   3.932 -0.3454 -0.4424  0.0302
 8872SOL    HW137295   9.851   3.043   3.951  1.8564  0.9481 -1.0837
 8872SOL    HW237296   9.834   2.900   3.875 -1.9017  0.1781  1.0285
 8873SOL     OW37297   3.574   0.463   5.135 -0.1081  0.2005 -0.4820
 8873SOL    HW137298   3.605   0.418   5.218 -1.0821 -2.5075 -1.5338
 8873SOL    HW237299   3.639   0.535   5.110  0.5037  0.6711  2.2599
 8874SOL     OW37300   4.656   9.504   1.836  0.2620  0.0915  0.4594
 8874SOL    HW137301   4.701   9.582   1.794  1.3264  0.7915  2.7801
 8874SOL    HW237302   4.666   9.510   1.936 -3.3955 -0.7213  0.9305
 8875SOL     OW37303   8.278   7.828   3.644  0.1867  0.2824  0.2402
 8875SOL    HW137304   8.323   7.785   3.565 -0.3841  0.1807 -0.0278
 8875SOL    HW237305   8.346   7.881   3.695  0.6345  0.0660 -0.1210
 8876SOL     OW37306   7.675   9.300   3.609 -0.6035 -0.8932  0.5539
 8876SOL    HW137307   7.692   9.387   3.563 -3.5512 -1.8812 -2.6139
 8876SOL    HW237308   7.748   9.236   3.588  0.8879  0.3600  1.8033
 8877SOL     OW37309   1.439   4.555   3.103  0.7220 -0.2647  0.4870
 8877SOL    HW137310   1.527   4.596   3.081  1.5298 -1.5031  1.3203
 8877SOL    HW237311   1.386   4.617   3.160  0.7489  0.7903 -0.6199
 8878SOL     OW37312   1.531   3.583   0.429  0.0267 -0.3618 -0.3190
 8878SOL    HW137313   1.530   3.530   0.344  1.0777 -0.2623 -0.4011
 8878SOL    HW237314   1.549   3.522   0.506 -1.9088 -0.6069 -0.0441
 8879SOL     OW37315   9.554   4.815   1.740 -0.2385 -0.5470 -0.1191
 8879SOL    HW137316   9.500   4.746   1.789 -0.6253  0.7017  1.2586
 8879SOL    HW237317   9.493   4.887   1.707  0.3164 -0.2259 -0.4376
 8880SOL     OW37318   9.144   0.704   0.117 -0.4699  0.3496  0.1466
 8880SOL    HW137319   9.054   0.664   0.098 -0.6421  0.6226  0.3896
 8880SOL    HW237320   9.136   0.772   0.190 -0.0966  0.5044  0.0461
 8881SOL     OW37321   9.634   9.585   3.796  0.5356 -0.1586  0.7497
 8881SOL    HW137322   9.596   9.525   3.726  2.3933 -2.0752  1.3213
 8881SOL    HW237323   9.711   9.637   3.759 -1.7108  2.7200 -0.0360
 8882SOL     OW37324   1.180   1.574   3.491 -0.2340  0.4234 -0.7095
 8882SOL    HW137325   1.161   1.595   3.587  1.6697 -0.0736 -0.1901
 8882SOL    HW237326   1.227   1.652   3.449  0.5114 -0.0472 -0.7485
 8883SOL     OW37327   9.352   9.840   5.569  0.0758 -0.2327 -0.4113
 8883SOL    HW137328   9.366   9.936   5.541 -0.2744 -0.7677 -2.5324
 8883SOL    HW237329   9.426   9.812   5.630  0.1056  1.4297  0.3513
 8884SOL     OW37330   9.825   9.784   1.729  0.2053  0.0602 -0.3719
 8884SOL    HW137331   9.913   9.777   1.681  0.7968 -2.0487  0.9113
 8884SOL    HW237332   9.750   9.784   1.663  1.1197  0.2799 -1.4211
 8885SOL     OW37333   3.853   7.596   1.303  0.6068 -0.8691  0.3845
 8885SOL    HW137334   3.764   7.560   1.333 -0.9408  1.1234 -1.5674
 8885SOL    HW237335   3.924   7.528   1.321 -1.5223 -3.1291  0.6940
 8886SOL     OW37336   3.151   7.944   2.845  0.0347 -0.3027 -0.2228
 8886SOL    HW137337   3.078   7.878   2.859 -0.3925 -0.5159 -3.1211
 8886SOL    HW237338   3.114   8.037   2.851 -0.7779 -0.4089 -2.7451
 8887SOL     OW37339   8.106   1.303   1.905  0.4285 -0.1688  0.4769
 8887SOL    HW137340   8.135   1.397   1.886  2.2529 -0.4865  1.5642
 8887SOL    HW237341   8.116   1.284   2.002 -1.1477 -1.1027  0.4694
 8888SOL     OW37342   2.491   7.419   3.390  0.1526 -0.1169  0.0966
 8888SOL    HW137343   2.474   7.505   3.343  1.3460  0.0624 -0.0122
 8888SOL    HW237344   2.577   7.379   3.358 -0.3775 -1.3463  0.1504
 8889SOL     OW37345   8.766   2.490   0.339  0.5126 -0.1870  0.5561
 8889SOL    HW137346   8.669   2.512   0.342  0.6678  0.3442  1.8414
 8889SOL    HW237347   8.808   2.535   0.260 -0.4842 -1.2885 -0.6186
 8890SOL     OW37348   8.476   1.631   4.766  0.1570  0.7932  0.1446
 8890SOL    HW137349   8.574   1.643   4.752  0.4667 -0.4408  1.1235
 8890SOL    HW237350   8.428   1.641   4.679  1.2886  0.1043 -0.5594
 8891SOL     OW37351   8.799   1.295   5.258  0.2046 -0.3257  0.1107
 8891SOL    HW137352   8.780   1.376   5.313  0.5443  0.1467 -0.4551
 8891SOL    HW237353   8.897   1.275   5.262  0.4655  0.5793 -1.4929
 8892SOL     OW37354   0.558   5.357   3.119  0.0567  0.1967 -0.0868
 8892SOL    HW137355   0.557   5.405   3.207  1.1223 -0.3406  0.2332
 8892SOL    HW237356   0.649   5.366   3.078 -0.4669  0.5416 -1.1952
 8893SOL     OW37357   4.620   7.175   3.492  0.0705  0.0338  0.6294
 8893SOL    HW137358   4.521   7.185   3.505 -0.0182  0.4846 -0.3943
 8893SOL    HW237359   4.639   7.093   3.438  0.2149  0.3572  0.1897
 8894SOL     OW37360   2.716   3.031   4.298 -0.2635  0.6330  0.4210
 8894SOL    HW137361   2.787   2.983   4.247 -0.1990 -0.6884  1.7405
 8894SOL    HW237362   2.627   3.014   4.256  0.1764  2.3180 -1.2568
 8895SOL     OW37363   2.985   5.094   2.644 -0.4127 -0.2935  0.1231
 8895SOL    HW137364   3.034   5.053   2.567 -0.2348 -0.7598  0.4791
 8895SOL    HW237365   2.925   5.026   2.685 -1.0983  0.1759 -0.0855
 8896SOL     OW37366   9.316   8.446   2.477  0.1399  0.8571 -0.4165
 8896SOL    HW137367   9.402   8.482   2.441 -0.6726  1.9473 -1.2946
 8896SOL    HW237368   9.240   8.502   2.445 -0.8905  0.0297  0.5252
 8897SOL     OW37369   9.740   8.478   2.919  0.5202  0.0997 -0.0743
 8897SOL    HW137370   9.662   8.531   2.884  2.1977  2.1243 -0.8017
 8897SOL    HW237371   9.766   8.514   3.009  1.5443  0.3908 -0.4850
 8898SOL     OW37372   8.837   0.592   0.271 -0.2454 -0.0688 -0.1238
 8898SOL    HW137373   8.867   0.599   0.176  0.8306 -1.3673  0.1132
 8898SOL    HW237374   8.857   0.677   0.318 -0.8960  0.6303 -1.0806
 8899SOL     OW37375   3.242   5.645   1.329  0.4474  0.2299 -0.2348
 8899SOL    HW137376   3.213   5.554   1.301 -1.8120  0.4660  1.1903
 8899SOL    HW237377   3.330   5.639   1.376  0.3660 -1.1886 -0.2435
 8900SOL     OW37378   2.565   9.906   0.036 -0.3176 -0.8175 -0.4274
 8900SOL    HW137379   2.491   9.871  -0.022 -2.5920  1.0313  1.2544
 8900SOL    HW237380   2.544   9.887   0.132  0.7000  0.9365  0.1741
 8901SOL     OW37381   3.209   8.126   1.437 -0.0993 -0.1024 -0.6828
 8901SOL    HW137382   3.293   8.179   1.449 -0.6943  0.4014  1.4047
 8901SOL    HW237383   3.150   8.173   1.371  0.2327  0.8100 -0.3484
 8902SOL     OW37384   1.632   3.839   4.078  0.2936  0.1515  0.2962
 8902SOL    HW137385   1.699   3.791   4.135  0.4182  0.6379  0.5599
 8902SOL    HW237386   1.645   3.812   3.983 -0.4667 -1.3099  0.5916
 8903SOL     OW37387   2.951   8.937   5.533  0.8508  0.1295 -0.1433
 8903SOL    HW137388   2.867   8.960   5.582 -0.1328 -0.1011 -1.6767
 8903SOL    HW237389   3.025   8.921   5.598 -0.7189 -1.3521  1.3192
 8904SOL     OW37390   3.903   9.479   2.869  0.0726 -0.6730  0.2583
 8904SOL    HW137391   3.876   9.540   2.943 -1.3155  0.7103 -1.3208
 8904SOL    HW237392   3.883   9.384   2.894 -0.9283 -0.1650  1.4004
 8905SOL     OW37393   9.940   5.698   1.336 -0.1589 -0.1001 -0.1686
 8905SOL    HW137394   9.918   5.705   1.433 -1.1724  0.2751 -0.4198
 8905SOL    HW237395   9.887   5.624   1.295 -1.2099  1.0148 -0.8462
 8906SOL     OW37396   5.012   9.277   3.482  0.0076  0.3595  0.5702
 8906SOL    HW137397   5.021   9.204   3.550  0.4334  0.9058  1.1019
 8906SOL    HW237398   5.087   9.271   3.417 -1.9603 -1.9315 -1.5657
 8907SOL     OW37399   7.681   9.177   0.929  0.3366  0.1259 -0.5719
 8907SOL    HW137400   7.731   9.128   1.000 -0.0767 -1.4166 -1.3215
 8907SOL    HW237401   7.745   9.236   0.878  0.6753  1.0189  0.8698
 8908SOL     OW37402   3.548   8.817   2.820  0.7147 -0.6108 -0.6566
 8908SOL    HW137403   3.483   8.814   2.896 -0.2856  0.2720 -1.4673
 8908SOL    HW237404   3.527   8.894   2.760  0.4612 -2.2272 -2.7192
 8909SOL     OW37405   1.154   7.539   2.948  0.5612 -0.2434 -0.2773
 8909SOL    HW137406   1.127   7.478   2.873 -0.7743 -0.6784  0.5320
 8909SOL    HW237407   1.127   7.498   3.035  0.5623  1.0571  0.3417
 8910SOL     OW37408   3.722   3.575   3.737 -0.2024  0.3445  0.5290
 8910SOL    HW137409   3.822   3.580   3.733 -0.2151 -0.2044 -1.1041
 8910SOL    HW237410   3.684   3.667   3.739  0.2908  0.6333 -1.5113
 8911SOL     OW37411   2.704   2.061   0.908 -0.3987 -0.2722  0.0149
 8911SOL    HW137412   2.744   2.152   0.892  0.2733 -0.6988 -0.7674
 8911SOL    HW237413   2.756   2.014   0.980 -0.7247 -0.0571  0.3951
 8912SOL     OW37414   0.058   1.989   2.389  0.2278  0.4244 -0.3099
 8912SOL    HW137415  -0.016   1.930   2.422  0.9455 -1.2225 -1.5645
 8912SOL    HW237416   0.131   1.932   2.349  0.7758  2.1704 -1.8852
 8913SOL     OW37417   4.330   7.432   1.264  0.5737  0.5411 -0.3811
 8913SOL    HW137418   4.403   7.493   1.295 -0.4774  0.4816  2.3627
 8913SOL    HW237419   4.252   7.486   1.232  0.5429  0.6161 -0.1761
 8914SOL     OW37420   2.562   7.638   1.109  0.3459  0.1995 -0.0757
 8914SOL    HW137421   2.544   7.612   1.205  1.5326 -0.8695 -0.1286
 8914SOL    HW237422   2.655   7.672   1.101 -0.4513  2.3592 -0.4678
 8915SOL     OW37423   2.857   3.159   0.037  0.1524  0.0484 -0.3832
 8915SOL    HW137424   2.851   3.116  -0.053  0.1035  1.6136 -1.1510
 8915SOL    HW237425   2.948   3.198   0.050 -0.3106  1.1575 -0.3890
 8916SOL     OW37426   6.485   9.232   3.819 -0.1108  0.1162 -0.2427
 8916SOL    HW137427   6.397   9.205   3.781  0.4011  0.1688 -1.4678
 8916SOL    HW237428   6.487   9.331   3.833 -0.5018  0.0315  0.4782
 8917SOL     OW37429   0.272   9.141   3.543 -0.0108  0.6267  0.4432
 8917SOL    HW137430   0.271   9.075   3.619 -1.5188  1.5024  1.2120
 8917SOL    HW237431   0.363   9.143   3.501  0.9095  0.3015  2.3839
 8918SOL     OW37432   1.782   7.762   2.931  0.1302  0.1552  0.4272
 8918SOL    HW137433   1.689   7.798   2.936  1.4489  3.4458  2.4742
 8918SOL    HW237434   1.793   7.690   3.000 -1.2966 -1.3704 -0.8759
 8919SOL     OW37435   2.606   9.513   4.152 -0.3020  0.7862 -0.5298
 8919SOL    HW137436   2.671   9.585   4.177 -0.9066  1.0390  0.3817
 8919SOL    HW237437   2.637   9.426   4.190 -0.5350  0.9238 -0.0127
 8920SOL     OW37438   6.539   1.510   3.430 -0.3630 -0.7875 -0.0496
 8920SOL    HW137439   6.554   1.504   3.331 -1.7455 -0.7697 -0.2722
 8920SOL    HW237440   6.460   1.454   3.455 -0.3407 -0.3745  0.9746
 8921SOL     OW37441   4.888   8.736   3.447 -0.0522 -0.2070  0.3402
 8921SOL    HW137442   4.855   8.768   3.358  0.7356 -0.6524 -0.1135
 8921SOL    HW237443   4.912   8.815   3.504 -0.2077  0.0681  0.0255
 8922SOL     OW37444   1.581   3.719   2.310 -0.8306 -0.4930 -1.0598
 8922SOL    HW137445   1.555   3.800   2.257 -1.3489 -0.1994 -0.3513
 8922SOL    HW237446   1.662   3.739   2.365 -2.8625  0.5859  1.6345
 8923SOL     OW37447   1.625   7.013   3.133  0.1505  0.0132 -0.7889
 8923SOL    HW137448   1.685   6.934   3.146  2.1190  1.7212  0.6886
 8923SOL    HW237449   1.565   7.023   3.212 -0.5883 -0.3701 -1.2850
 8924SOL     OW37450   5.786   7.915   1.865  0.2033  0.2948  0.0133
 8924SOL    HW137451   5.701   7.914   1.812  0.4547  1.1724 -0.4245
 8924SOL    HW237452   5.863   7.938   1.805  1.0371 -2.2770  0.0234
 8925SOL     OW37453   1.922   1.804   2.199 -0.4132 -0.1321 -0.0972
 8925SOL    HW137454   1.882   1.770   2.114  2.0557 -1.9776 -0.5839
 8925SOL    HW237455   2.016   1.834   2.183 -0.0062 -0.2301  1.9156
 8926SOL     OW37456   1.170   1.992   2.769 -0.1598  0.5043 -0.1609
 8926SOL    HW137457   1.221   1.961   2.849  0.5594 -0.3257 -0.9251
 8926SOL    HW237458   1.232   2.043   2.708 -0.6664  1.0122 -0.2492
 8927SOL     OW37459   7.239   0.425   0.736  0.0545  0.1840 -0.3529
 8927SOL    HW137460   7.284   0.459   0.654  0.5339 -0.5217 -0.3889
 8927SOL    HW237461   7.226   0.326   0.729  2.1349 -0.2591  1.3434
 8928SOL     OW37462   1.350   8.709   3.361  0.3243  0.2417  0.7966
 8928SOL    HW137463   1.363   8.654   3.443 -0.9319 -0.1492  0.7482
 8928SOL    HW237464   1.273   8.673   3.309  1.8781 -0.2633 -1.1924
 8929SOL     OW37465   6.121   9.679   2.823  0.4253 -0.1396 -0.0614
 8929SOL    HW137466   6.103   9.650   2.917  0.6331 -2.7353 -0.7744
 8929SOL    HW237467   6.046   9.650   2.764  0.3040  1.4643 -0.7184
 8930SOL     OW37468   1.522   4.082   0.601  0.1407 -0.4222  0.3585
 8930SOL    HW137469   1.478   4.170   0.583  0.1346 -0.6547 -0.8058
 8930SOL    HW237470   1.452   4.010   0.605  0.1646 -0.4113  1.1217
 8931SOL     OW37471   3.892   1.608   2.512  0.4245 -0.2367  0.1657
 8931SOL    HW137472   3.946   1.626   2.429  0.8937  0.5948  0.6443
 8931SOL    HW237473   3.819   1.675   2.520  0.2331 -0.4589  0.3060
 8932SOL     OW37474   8.172   3.412   1.418 -0.0779 -0.0440  0.3852
 8932SOL    HW137475   8.219   3.324   1.415  0.2965  0.1976 -0.6635
 8932SOL    HW237476   8.074   3.396   1.432  0.1421 -0.5798  1.3919
 8933SOL     OW37477   2.003   3.358   3.230  0.0868 -0.3871 -0.0820
 8933SOL    HW137478   1.942   3.338   3.154  1.2400 -1.3820 -0.7602
 8933SOL    HW237479   2.098   3.342   3.202  0.6287  0.6415  1.1113
 8934SOL     OW37480   2.558   0.818   4.195  0.1893  0.1860 -0.6742
 8934SOL    HW137481   2.572   0.791   4.290 -1.7392  0.4000 -0.3036
 8934SOL    HW237482   2.563   0.737   4.136  0.2750 -0.1150 -0.2538
 8935SOL     OW37483   3.886   7.196   4.299  0.1012  0.2686  0.1709
 8935SOL    HW137484   3.848   7.283   4.330  1.8525  0.7689  1.0252
 8935SOL    HW237485   3.882   7.192   4.199 -1.3322  0.6837  0.1971
 8936SOL     OW37486   0.175   6.676   2.397  0.2206  0.5613 -0.3274
 8936SOL    HW137487   0.078   6.662   2.379  0.4098 -1.8805  0.4059
 8936SOL    HW237488   0.186   6.726   2.483 -0.3660 -0.7508  0.5252
 8937SOL     OW37489   0.169   3.137   1.504  0.3104 -0.4427  0.0759
 8937SOL    HW137490   0.198   3.137   1.408 -1.3010  0.5909 -0.4338
 8937SOL    HW237491   0.132   3.047   1.527  0.2626 -0.5530 -0.4154
 8938SOL     OW37492   9.455   6.822   1.607 -0.4406 -0.0687 -0.2454
 8938SOL    HW137493   9.550   6.854   1.597 -0.4294 -0.0619 -0.1204
 8938SOL    HW237494   9.423   6.785   1.520 -0.6268  0.7547 -0.5321
 8939SOL     OW37495   0.452   2.458   5.530 -0.0204 -0.2865 -0.1308
 8939SOL    HW137496   0.359   2.424   5.544  0.0818 -0.4674  0.1123
 8939SOL    HW237497   0.517   2.386   5.552  0.2764  0.7600  2.6171
 8940SOL     OW37498   2.781   6.572   1.830  0.3855 -0.4814  0.1684
 8940SOL    HW137499   2.828   6.494   1.870  0.4086 -0.4783  0.1469
 8940SOL    HW237500   2.794   6.572   1.731 -0.0603 -0.7474  0.1075
 8941SOL     OW37501   8.623   1.498   2.416 -0.2954  0.1794 -0.6868
 8941SOL    HW137502   8.537   1.530   2.456  0.0006 -1.8252  1.6934
 8941SOL    HW237503   8.618   1.399   2.401  2.2809 -0.3132  1.3754
 8942SOL     OW37504   0.356   6.196   1.310  0.4983  0.3920 -0.5191
 8942SOL    HW137505   0.418   6.178   1.234  1.9515 -1.0243  0.9451
 8942SOL    HW237506   0.405   6.184   1.396 -1.5186  0.4060  0.6699
 8943SOL     OW37507   2.909   0.851   0.859  0.2451  0.2036 -0.2083
 8943SOL    HW137508   2.824   0.878   0.814 -0.4745 -0.2422  0.8542
 8943SOL    HW237509   2.978   0.828   0.790 -0.2944  1.1625 -1.0819
 8944SOL     OW37510   5.887   7.836   2.462 -0.0046  0.1907  0.0679
 8944SOL    HW137511   5.804   7.877   2.423 -1.8840 -1.0877  2.5808
 8944SOL    HW237512   5.967   7.870   2.412 -2.1008  0.3172 -3.4004
 8945SOL     OW37513   7.235   8.039   2.761 -0.6796 -0.1786  0.8105
 8945SOL    HW137514   7.291   7.987   2.825 -0.1672 -0.9157 -0.2335
 8945SOL    HW237515   7.290   8.109   2.716 -0.5608 -0.9487 -0.2677
 8946SOL     OW37516   1.741   8.660   3.093 -0.1461  0.6883  0.1448
 8946SOL    HW137517   1.744   8.644   2.994 -1.3819 -1.1492  0.3847
 8946SOL    HW237518   1.832   8.689   3.124  0.7016 -0.3803 -1.2585
 8947SOL     OW37519   7.381   8.882   3.164  0.0174 -0.2649 -0.5651
 8947SOL    HW137520   7.428   8.906   3.079  1.2243  2.7688  0.9046
 8947SOL    HW237521   7.367   8.783   3.167  0.5882 -0.5072 -3.9492
 8948SOL     OW37522   2.342   7.432   0.017 -0.4419 -0.4469  0.0273
 8948SOL    HW137523   2.332   7.351   0.074 -2.2926 -1.0093 -1.0670
 8948SOL    HW237524   2.350   7.405  -0.079 -2.1398  0.6876 -0.4582
 8949SOL     OW37525   7.614   0.539   1.030 -0.0628 -0.1852  0.3223
 8949SOL    HW137526   7.527   0.548   0.981  0.1931 -0.0079 -0.1087
 8949SOL    HW237527   7.612   0.595   1.113  0.2870  1.2256 -0.6058
 8950SOL     OW37528   7.246   0.673   3.269  0.7750  0.0112 -0.1467
 8950SOL    HW137529   7.174   0.706   3.329  0.3245 -3.1889  1.2049
 8950SOL    HW237530   7.327   0.649   3.323  0.9431 -1.4037 -0.9731
 8951SOL     OW37531   4.687   9.094   3.122 -0.2665 -0.0249 -0.2440
 8951SOL    HW137532   4.706   9.121   3.216 -0.3869 -0.8836  0.0291
 8951SOL    HW237533   4.712   9.169   3.060  0.8296  0.1312  0.3771
 8952SOL     OW37534   3.352   4.245   0.928  0.1972 -0.1605  0.1254
 8952SOL    HW137535   3.383   4.268   0.835  0.7603 -0.7563  0.1606
 8952SOL    HW237536   3.431   4.220   0.984 -0.0768  0.8018  0.9447
 8953SOL     OW37537   9.723   1.356   1.725  0.2817 -0.2977 -0.5702
 8953SOL    HW137538   9.669   1.273   1.738  1.2041 -0.9232 -0.6910
 8953SOL    HW237539   9.664   1.436   1.736 -0.5368 -0.9588 -0.0811
 8954SOL     OW37540   8.369   8.651   1.464  0.2106 -0.4511 -0.3518
 8954SOL    HW137541   8.368   8.701   1.550  0.6059 -0.4326 -0.3612
 8954SOL    HW237542   8.449   8.592   1.459  0.8590  0.4936 -1.2449
 8955SOL     OW37543   7.948   0.326   2.577  0.5467 -0.2592  0.1166
 8955SOL    HW137544   8.043   0.334   2.606  0.1257  2.9737  0.8161
 8955SOL    HW237545   7.942   0.346   2.479  0.6439 -1.0050 -0.0448
 8956SOL     OW37546   8.190   6.309   3.549 -0.3549  0.0703  0.1938
 8956SOL    HW137547   8.165   6.402   3.521  1.3686  0.5774  0.3319
 8956SOL    HW237548   8.145   6.288   3.636  0.0407  1.1498  0.6711
 8957SOL     OW37549   9.760   2.337   3.063 -0.1673  0.1405 -0.5741
 8957SOL    HW137550   9.772   2.238   3.055 -0.2236 -0.0728  1.5076
 8957SOL    HW237551   9.694   2.369   2.995  0.3534 -1.1426 -1.6896
 8958SOL     OW37552   3.815   9.150   2.187  0.1959 -0.0750 -0.3993
 8958SOL    HW137553   3.728   9.122   2.147 -1.7714  1.6376  2.4538
 8958SOL    HW237554   3.841   9.085   2.259 -0.8136  1.5043  1.4514
 8959SOL     OW37555   9.983   3.390   1.795 -0.3162 -0.7443  0.0121
 8959SOL    HW137556  10.028   3.457   1.736  2.5162 -0.5991  2.1849
 8959SOL    HW237557   9.897   3.427   1.830 -0.2524  0.5612 -1.2054
 8960SOL     OW37558   3.269   7.899   1.992  0.0538  0.0094 -0.3282
 8960SOL    HW137559   3.182   7.876   1.949 -0.1378 -0.7316  0.4433
 8960SOL    HW237560   3.326   7.817   1.997  1.3742  0.7830 -2.1167
 8961SOL     OW37561   7.405   1.695   3.115 -0.5181 -0.3676  0.0009
 8961SOL    HW137562   7.440   1.677   3.207  0.5289  0.6429 -0.1868
 8961SOL    HW237563   7.357   1.783   3.114  2.7262  1.5080 -1.2149
 8962SOL     OW37564   6.896   0.004   2.338  0.0753  0.2346  0.7460
 8962SOL    HW137565   6.824   0.060   2.298 -0.6896 -1.3592 -0.1842
 8962SOL    HW237566   6.854  -0.072   2.389  1.0844 -1.1673 -0.4691
 8963SOL     OW37567   2.501   7.653   2.595  0.4394 -1.0508 -0.1216
 8963SOL    HW137568   2.504   7.621   2.500  1.5566 -3.1549  0.5825
 8963SOL    HW237569   2.582   7.620   2.643 -0.2482 -0.2000  1.6476
 8964SOL     OW37570   3.417   4.490   4.969  0.5594  0.0629 -0.2307
 8964SOL    HW137571   3.436   4.573   5.022  0.6528  0.2638 -0.5762
 8964SOL    HW237572   3.472   4.414   5.003  0.8963  0.2847 -0.2819
 8965SOL     OW37573   9.182   9.770   4.936  0.1194  0.0653 -0.0162
 8965SOL    HW137574   9.196   9.805   5.029  0.9022 -1.2114  0.3497
 8965SOL    HW237575   9.100   9.712   4.935  0.8541 -0.9886  0.1818
 8966SOL     OW37576   8.366   9.573   4.653 -0.3785 -0.2539  0.2125
 8966SOL    HW137577   8.346   9.478   4.631 -0.3433 -0.2133  0.0058
 8966SOL    HW237578   8.426   9.612   4.583  1.8599 -0.9090  1.6976
 8967SOL     OW37579   0.314   8.424   3.908  0.1699 -0.6418  0.5415
 8967SOL    HW137580   0.391   8.465   3.957  0.3859 -1.1992  0.6768
 8967SOL    HW237581   0.228   8.449   3.953  0.1638  1.1894 -0.4726
 8968SOL     OW37582   3.690   9.212   4.497  0.2501 -0.6462  0.6691
 8968SOL    HW137583   3.640   9.278   4.441  1.8705  2.7693  3.0277
 8968SOL    HW237584   3.772   9.182   4.449 -0.2335 -0.5486 -0.2187
 8969SOL     OW37585   0.065   2.474   4.295 -0.0491 -0.1083 -0.3838
 8969SOL    HW137586  -0.032   2.484   4.271  0.8821  0.9287 -3.9893
 8969SOL    HW237587   0.093   2.551   4.352 -0.9770  0.4062 -0.6040
 8970SOL     OW37588   4.640   1.971   0.140  0.4266 -0.1532  0.5961
 8970SOL    HW137589   4.666   1.981   0.236 -0.2618 -0.5702  0.8265
 8970SOL    HW237590   4.596   1.882   0.127 -0.9859  0.6001  0.2149
 8971SOL     OW37591   2.537   8.151   0.338 -0.4777 -0.1818  0.4603
 8971SOL    HW137592   2.634   8.147   0.316 -0.1932 -0.0123  1.6358
 8971SOL    HW237593   2.517   8.237   0.385 -1.2517 -0.0818 -0.0464
 8972SOL     OW37594   3.582   2.967   3.926  0.1223  0.1272 -0.2222
 8972SOL    HW137595   3.499   3.022   3.924 -0.2855 -0.5533 -3.3577
 8972SOL    HW237596   3.658   3.020   3.888  0.6400 -0.0539  0.5398
 8973SOL     OW37597   8.247   8.372   1.816 -0.3830  0.9043  0.2404
 8973SOL    HW137598   8.155   8.333   1.802 -0.3726  0.2551  1.9398
 8973SOL    HW237599   8.249   8.423   1.901  0.8543  0.8972  0.2222
 8974SOL     OW37600   5.184   3.976   0.559  0.1275 -0.5648 -0.9137
 8974SOL    HW137601   5.228   3.917   0.627 -2.5063 -0.5770  0.8624
 8974SOL    HW237602   5.242   4.055   0.541  0.5346 -0.1082  2.0383
 8975SOL     OW37603   1.897   8.804   1.184  0.8224  0.5754  0.1737
 8975SOL    HW137604   1.863   8.897   1.172 -1.9148 -0.3561  0.3470
 8975SOL    HW237605   1.911   8.785   1.281 -1.9562 -0.2704  0.4539
 8976SOL     OW37606   0.855   0.789   1.501  0.0030  0.3250  0.0861
 8976SOL    HW137607   0.833   0.742   1.587  1.6446  1.4006  1.1233
 8976SOL    HW237608   0.801   0.874   1.495  1.7415  1.5538  1.3093
 8977SOL     OW37609   3.134   7.248   2.587 -0.9869 -0.1781  0.2544
 8977SOL    HW137610   3.063   7.180   2.569  0.2926 -1.7921  1.1830
 8977SOL    HW237611   3.221   7.202   2.603 -0.1338  1.6798  1.0886
 8978SOL     OW37612   3.297   9.628   4.184  0.2644  0.0109  0.4801
 8978SOL    HW137613   3.363   9.661   4.117 -1.2554 -0.8182 -1.4548
 8978SOL    HW237614   3.346   9.592   4.264  2.2682 -2.2516 -1.6686
 8979SOL     OW37615   0.731   7.003   1.614  0.4825  0.9382 -0.1766
 8979SOL    HW137616   0.812   7.008   1.673  1.6132  0.2325 -1.6452
 8979SOL    HW237617   0.757   6.966   1.525 -1.5789  0.1352 -0.4674
 8980SOL     OW37618   8.722   2.070   5.552 -1.1792 -0.1861  0.9888
 8980SOL    HW137619   8.651   2.024   5.606 -1.8596 -1.3461 -0.8483
 8980SOL    HW237620   8.690   2.082   5.458  0.8043 -0.1615  0.2955
 8981SOL     OW37621   0.076   8.092   3.599 -0.5329  0.0051  0.2538
 8981SOL    HW137622   0.076   8.125   3.505  0.5648 -0.2075  0.1698
 8981SOL    HW237623   0.167   8.057   3.622 -1.0950 -0.9675  1.0342
 8982SOL     OW37624   8.970   0.140   0.345 -0.0128 -0.4591 -0.2549
 8982SOL    HW137625   8.914   0.084   0.405 -0.4183  1.0803  0.8293
 8982SOL    HW237626   9.064   0.107   0.346 -0.0285 -0.4862  1.1840
 8983SOL     OW37627   8.637   8.919   2.544  0.2506 -0.0342 -0.1136
 8983SOL    HW137628   8.626   8.820   2.553 -0.3079  0.1621  1.5430
 8983SOL    HW237629   8.609   8.963   2.629  0.3759  1.5636 -0.8913
 8984SOL     OW37630   1.639   4.977   0.366 -0.1284  0.0840 -0.0032
 8984SOL    HW137631   1.682   5.065   0.388  1.5402 -0.0589 -2.4617
 8984SOL    HW237632   1.642   4.917   0.446  2.6460  0.7676  0.4519
 8985SOL     OW37633   0.976   7.531   2.634 -0.0624 -0.1408 -0.1318
 8985SOL    HW137634   0.936   7.533   2.542 -0.3414  0.8813 -0.0040
 8985SOL    HW237635   1.074   7.550   2.629  0.0186 -0.6097 -0.2700
 8986SOL     OW37636   0.906   6.624   3.159  0.1302 -0.0997  0.4149
 8986SOL    HW137637   0.831   6.641   3.095  0.9770  1.7310 -0.1180
 8986SOL    HW237638   0.940   6.530   3.145 -0.7422 -0.2621 -0.7071
 8987SOL     OW37639   8.945   9.971   4.056  0.4357  0.0725  0.1844
 8987SOL    HW137640   8.987   9.970   3.965  0.3115  0.2702  0.1247
 8987SOL    HW237641   8.965  10.057   4.102 -1.1407  0.7888 -0.4363
 8988SOL     OW37642   6.767   7.561   1.328 -0.5477  0.0746  0.1857
 8988SOL    HW137643   6.862   7.556   1.360 -0.8115 -0.8226  0.8603
 8988SOL    HW237644   6.719   7.634   1.376 -0.1521  0.6418 -0.2806
 8989SOL     OW37645   3.889   1.700   5.300  0.1784 -0.4330 -0.1523
 8989SOL    HW137646   3.920   1.724   5.392  1.9571  0.4660 -0.9474
 8989SOL    HW237647   3.823   1.625   5.306  1.5101 -1.5270  1.7582
 8990SOL     OW37648   4.065   1.158   5.079  0.4686 -0.7257 -0.1491
 8990SOL    HW137649   4.094   1.207   5.161 -2.5873 -0.6190  0.9484
 8990SOL    HW237650   3.969   1.132   5.089  0.4647 -1.9896 -3.1088
 8991SOL     OW37651   9.184   2.405   0.921 -0.4696  0.0546  0.0466
 8991SOL    HW137652   9.106   2.389   0.981 -1.3713 -0.1190 -1.1618
 8991SOL    HW237653   9.213   2.500   0.929 -1.2551  0.3035 -0.0510
 8992SOL     OW37654   2.502   0.757   0.658 -0.3527 -0.0843 -0.7947
 8992SOL    HW137655   2.556   0.712   0.587 -1.5123  0.4510 -2.0311
 8992SOL    HW237656   2.412   0.779   0.622 -0.1704  2.2639  0.1267
 8993SOL     OW37657   7.459   8.810   4.220 -0.1269  0.6229  0.2682
 8993SOL    HW137658   7.411   8.744   4.277  1.0193  0.6662  1.2880
 8993SOL    HW237659   7.541   8.768   4.182  0.4316  1.3523  0.6537
 8994SOL     OW37660   2.086   9.431   3.622  0.2779  0.3073 -0.2919
 8994SOL    HW137661   2.088   9.484   3.538  0.0460 -1.2751 -1.3080
 8994SOL    HW237662   2.056   9.490   3.698 -0.5835  1.4581 -1.5048
 8995SOL     OW37663   5.655   0.625   3.819 -0.0007  0.2564 -0.1707
 8995SOL    HW137664   5.565   0.669   3.823  0.6148  1.5013  0.3907
 8995SOL    HW237665   5.690   0.614   3.912  0.4730 -0.1254 -0.3925
 8996SOL     OW37666   5.222   9.985   1.007  0.3644 -0.0514  0.3226
 8996SOL    HW137667   5.301  10.024   1.054  2.2179 -1.0841 -1.8289
 8996SOL    HW237668   5.248   9.961   0.913 -2.8282  0.6952 -0.8283
 8997SOL     OW37669   5.023   7.170   3.415  0.1996  0.1512  0.1381
 8997SOL    HW137670   4.968   7.251   3.436 -0.4623 -0.0410 -0.8347
 8997SOL    HW237671   5.103   7.198   3.361  0.3058  0.2413  0.3421
 8998SOL     OW37672   4.025   9.847   3.601 -0.5120  0.2479  0.0391
 8998SOL    HW137673   4.032   9.754   3.563  0.4145  0.2728  0.1426
 8998SOL    HW237674   4.014   9.842   3.700 -0.7496  0.2442  0.0134
 8999SOL     OW37675   0.144   2.685   5.573  0.1594 -0.3833 -0.0688
 8999SOL    HW137676   0.056   2.699   5.620  0.5228  0.8022  0.2868
 8999SOL    HW237677   0.128   2.643   5.484 -0.7725 -0.1896 -0.0015
 9000SOL     OW37678   7.482   7.331   3.355 -0.1870  0.6482  0.2871
 9000SOL    HW137679   7.471   7.429   3.337  2.6807  1.1507  1.1185
 9000SOL    HW237680   7.571   7.314   3.397 -1.1135 -2.1895  1.2454
 9001SOL     OW37681   0.156   2.371   2.027  0.7426  0.8491  0.1408
 9001SOL    HW137682   0.134   2.467   2.011 -0.4083  0.6844  0.6316
 9001SOL    HW237683   0.152   2.321   1.941 -1.3299  0.7439  0.2704
 9002SOL     OW37684   3.003   0.519   5.421 -0.3910  0.4401 -0.3252
 9002SOL    HW137685   3.100   0.539   5.433 -0.6479  0.5897  1.6796
 9002SOL    HW237686   2.992   0.451   5.349  1.2481 -0.0387 -0.1543
 9003SOL     OW37687   3.071   6.545   1.478 -0.1287 -0.4431 -0.2231
 9003SOL    HW137688   3.025   6.510   1.397 -1.4073 -1.9866  1.1184
 9003SOL    HW237689   3.072   6.474   1.549  0.6157  0.9987  1.2399
 9004SOL     OW37690   2.563   7.903   0.518  0.1513 -0.0234  0.9640
 9004SOL    HW137691   2.563   7.992   0.473  1.1402 -0.1533  0.6882
 9004SOL    HW237692   2.477   7.890   0.567 -0.7406  0.3177 -0.4892
 9005SOL     OW37693   3.770   8.938   2.647  0.7083  0.2072 -0.5934
 9005SOL    HW137694   3.819   8.916   2.731  0.5222 -2.0999 -1.0472
 9005SOL    HW237695   3.732   9.030   2.653 -0.3777 -0.3946  2.3254
 9006SOL     OW37696   0.558   4.151   0.565 -0.2211 -0.1455 -0.2698
 9006SOL    HW137697   0.461   4.144   0.590 -0.1485  1.2264  0.4321
 9006SOL    HW237698   0.570   4.226   0.500  0.4142 -0.1241 -0.1311
 9007SOL     OW37699   2.541   3.636   1.387 -0.7721 -0.0341 -0.1565
 9007SOL    HW137700   2.485   3.595   1.315  0.4445  1.7616 -2.1738
 9007SOL    HW237701   2.487   3.703   1.438 -0.7864  0.8776 -1.3698
 9008SOL     OW37702   8.661   6.544   2.062  0.4174  0.3632  0.5920
 9008SOL    HW137703   8.613   6.608   2.002  1.3565  1.3334  0.8751
 9008SOL    HW237704   8.664   6.454   2.018 -1.1372  0.4268  0.3144
 9009SOL     OW37705   2.931   6.942   0.221 -0.0418  0.0530 -0.1958
 9009SOL    HW137706   2.937   6.862   0.282  0.6442  1.2080  1.2862
 9009SOL    HW237707   2.989   6.926   0.141 -0.0881 -1.0294 -0.0289
 9010SOL     OW37708   5.103   9.238   4.777 -0.5407 -0.5872 -0.4921
 9010SOL    HW137709   5.069   9.319   4.729 -1.1217 -0.3629  0.2885
 9010SOL    HW237710   5.202   9.232   4.766 -0.2533  1.1498  0.8032
 9011SOL     OW37711   3.707   7.466   2.057 -0.2886 -0.2485  0.4060
 9011SOL    HW137712   3.697   7.377   2.013  0.9614  0.0683 -0.5603
 9011SOL    HW237713   3.799   7.501   2.041 -0.4646  0.7851  1.5977
 9012SOL     OW37714   2.471   7.919   4.669  0.0470  0.3291  0.3831
 9012SOL    HW137715   2.374   7.942   4.659 -0.1915 -1.2880 -1.0917
 9012SOL    HW237716   2.496   7.925   4.765 -0.9025  3.1461  0.5159
 9013SOL     OW37717   5.658   8.961   1.878  0.0482 -0.9070 -0.3290
 9013SOL    HW137718   5.745   8.918   1.855 -0.5429 -1.4619 -1.6068
 9013SOL    HW237719   5.588   8.891   1.888 -0.6647 -0.3365 -1.2328
 9014SOL     OW37720   0.498   8.335   2.519  0.2461 -0.1817  0.6315
 9014SOL    HW137721   0.496   8.369   2.614 -0.2019  1.4044  0.0755
 9014SOL    HW237722   0.592   8.323   2.490  0.3883 -0.7231  1.2931
 9015SOL     OW37723   3.780   8.044   2.594  0.3390  0.2643 -0.1664
 9015SOL    HW137724   3.807   7.954   2.561  1.5978  0.3954  0.4697
 9015SOL    HW237725   3.848   8.077   2.660 -0.2001  1.6006 -0.2638
 9016SOL     OW37726   0.731   3.293   0.659  0.2539  0.5255  0.2196
 9016SOL    HW137727   0.758   3.359   0.589 -1.2026 -0.4394 -1.3033
 9016SOL    HW237728   0.643   3.320   0.698 -0.0178 -0.1358  0.0796
 9017SOL     OW37729   2.265   8.077   2.600 -0.3845 -0.0946  0.1041
 9017SOL    HW137730   2.270   8.156   2.661  1.6199  0.0831 -0.2381
 9017SOL    HW237731   2.343   8.017   2.617 -1.5366 -1.6878 -0.0951
 9018SOL     OW37732   1.293   9.108   1.981  0.2855 -0.2257 -0.0120
 9018SOL    HW137733   1.387   9.144   1.989  0.6662 -1.2319  0.0906
 9018SOL    HW237734   1.281   9.032   2.045 -0.2516 -0.8199 -0.8124
 9019SOL     OW37735   1.348   0.796   2.352 -0.2322  0.0777  0.2092
 9019SOL    HW137736   1.361   0.725   2.422 -0.7186  0.8778  1.1196
 9019SOL    HW237737   1.435   0.842   2.335 -0.6444  1.6993  2.2739
 9020SOL     OW37738   0.394   2.498   0.413 -0.0660  0.2464  0.3839
 9020SOL    HW137739   0.491   2.474   0.416  0.9016  3.9408  1.1619
 9020SOL    HW237740   0.375   2.551   0.330 -1.4069 -0.3776  0.2780
 9021SOL     OW37741   0.567   9.889   4.599  0.1229  0.1901  0.1993
 9021SOL    HW137742   0.537   9.979   4.632 -1.8351 -0.2267 -0.3962
 9021SOL    HW237743   0.655   9.867   4.640  0.4378  2.2052  0.6764
 9022SOL     OW37744   2.528   3.715   0.210  0.1329  0.1365  0.3765
 9022SOL    HW137745   2.572   3.655   0.143  0.0576 -0.6955  1.0581
 9022SOL    HW237746   2.484   3.791   0.164  1.8346  0.6955 -0.3782
 9023SOL     OW37747   2.466   8.781   2.442  0.4616 -0.0994  0.1164
 9023SOL    HW137748   2.451   8.708   2.375  1.5545  0.5202 -0.8329
 9023SOL    HW237749   2.508   8.859   2.396  1.6934  0.1515  1.6309
 9024SOL     OW37750   2.734   8.765   2.867 -0.7439  0.0530 -0.5804
 9024SOL    HW137751   2.669   8.838   2.889 -2.2065 -0.5966 -2.5849
 9024SOL    HW237752   2.705   8.719   2.782  1.3874 -1.3844 -0.5633
 9025SOL     OW37753   3.103   8.792   3.943  0.3726  0.1936  0.5332
 9025SOL    HW137754   3.137   8.856   3.874 -2.5043 -0.9200 -2.0264
 9025SOL    HW237755   3.126   8.698   3.916 -0.3274 -0.2263  1.3463
 9026SOL     OW37756   5.376   9.687   3.251 -0.0097  0.1004 -0.1596
 9026SOL    HW137757   5.318   9.740   3.190  0.1172 -2.1392 -2.2951
 9026SOL    HW237758   5.460   9.738   3.270 -0.2754  1.0455 -1.4384
 9027SOL     OW37759   9.136   2.089   3.461  0.3375 -0.4899 -0.3359
 9027SOL    HW137760   9.162   2.071   3.556  1.1709  0.6483 -0.3368
 9027SOL    HW237761   9.171   2.017   3.402  0.3181 -0.8919  0.1373
 9028SOL     OW37762   2.531   1.188   3.458  0.3617  0.1448  0.3521
 9028SOL    HW137763   2.475   1.127   3.514 -0.2439 -1.2472 -1.7365
 9028SOL    HW237764   2.492   1.195   3.367  2.4080  0.8476 -0.4984
 9029SOL     OW37765   3.891   0.851   2.266  0.5428  0.4891 -0.3743
 9029SOL    HW137766   3.924   0.829   2.358  2.5617  0.1970 -1.1411
 9029SOL    HW237767   3.838   0.774   2.230 -0.2022  0.5808  0.5081
 9030SOL     OW37768   2.953   7.485   0.963  0.4908  0.5254 -0.1004
 9030SOL    HW137769   3.036   7.429   0.957 -0.6143 -1.0031 -1.5195
 9030SOL    HW237770   2.873   7.426   0.967 -0.5477  1.9821  1.7155
 9031SOL     OW37771   3.494   3.774   0.963 -0.2695 -0.0206 -0.3029
 9031SOL    HW137772   3.431   3.850   0.975 -0.3016 -0.0005 -0.5922
 9031SOL    HW237773   3.546   3.760   1.047 -2.2841 -1.5026  0.7563
 9032SOL     OW37774   4.052   2.731   4.303 -0.2137  0.2742  0.0754
 9032SOL    HW137775   4.030   2.669   4.379 -1.7292  0.1275 -0.4706
 9032SOL    HW237776   4.145   2.765   4.315 -0.1398 -0.3753  1.5732
 9033SOL     OW37777   9.166   4.872   2.447  0.3313  0.5862 -0.1466
 9033SOL    HW137778   9.084   4.830   2.409 -0.0520  0.2283  1.0417
 9033SOL    HW237779   9.238   4.803   2.458 -0.4033  0.1172  2.1039
 9034SOL     OW37780   9.824   0.417   0.446  0.1516 -0.5408 -0.3623
 9034SOL    HW137781   9.769   0.454   0.521 -0.3870  0.1331 -1.0727
 9034SOL    HW237782   9.775   0.342   0.402  0.3229 -0.7189 -0.2537
 9035SOL     OW37783   4.008   6.403   2.071 -0.5640 -0.0877 -0.4372
 9035SOL    HW137784   3.943   6.418   1.997 -1.4671 -1.4858  0.0633
 9035SOL    HW237785   3.961   6.362   2.150  0.5664  0.5257  0.5799
 9036SOL     OW37786   2.078   7.685   0.426 -0.0347 -0.2211  0.7302
 9036SOL    HW137787   2.124   7.617   0.484  1.7760  0.8274  0.5524
 9036SOL    HW237788   1.985   7.654   0.407  0.8606 -2.8594  0.3514
 9037SOL     OW37789   1.713   3.450   3.986  0.5621  1.1154  0.9028
 9037SOL    HW137790   1.738   3.366   3.938 -1.2639  2.1836 -2.0536
 9037SOL    HW237791   1.768   3.459   4.069  0.8632 -2.9278  1.2441
 9038SOL     OW37792   9.374   4.898   3.352  0.0841 -0.0278 -0.4865
 9038SOL    HW137793   9.403   4.825   3.414  1.0527  1.3604  0.7139
 9038SOL    HW237794   9.433   4.898   3.271 -0.3182 -0.9670 -0.7906
 9039SOL     OW37795   9.329   4.641   1.835  0.2603 -0.1945  0.6488
 9039SOL    HW137796   9.371   4.585   1.764  1.9593  0.8622  0.7667
 9039SOL    HW237797   9.278   4.583   1.898 -0.0924 -1.3009 -0.6238
 9040SOL     OW37798   3.278   1.802   0.419  0.0092  0.0826 -0.1304
 9040SOL    HW137799   3.201   1.862   0.438 -0.4467 -0.1974 -1.0676
 9040SOL    HW237800   3.308   1.758   0.504 -0.6333  0.4528  0.2917
 9041SOL     OW37801   9.952   8.284   0.632  0.1489 -0.1251  0.3288
 9041SOL    HW137802  10.025   8.271   0.700  0.4767 -0.9666 -0.1805
 9041SOL    HW237803   9.907   8.372   0.648  0.4136 -0.1889  1.4615
 9042SOL     OW37804   3.802   2.782   2.708 -0.4176  0.1584  0.3647
 9042SOL    HW137805   3.734   2.844   2.668 -0.2414 -0.0178 -0.2052
 9042SOL    HW237806   3.844   2.728   2.636 -1.0518 -1.1036  0.9291
 9043SOL     OW37807   7.594   0.403   2.397 -0.4508 -0.8446 -0.5994
 9043SOL    HW137808   7.633   0.317   2.431 -0.6342 -0.9281 -0.5992
 9043SOL    HW237809   7.612   0.411   2.299 -1.3711 -1.3988 -0.8222
 9044SOL     OW37810   3.687   6.463   1.345  0.0441 -0.8117 -0.1645
 9044SOL    HW137811   3.614   6.399   1.367  0.3449 -0.8912  0.6367
 9044SOL    HW237812   3.747   6.423   1.276 -0.7211 -0.7051 -0.8980
 9045SOL     OW37813   9.821   7.437   3.130 -0.0032 -0.0584  0.0251
 9045SOL    HW137814   9.848   7.459   3.224 -1.6875  0.3481  0.4251
 9045SOL    HW237815   9.787   7.343   3.126 -0.1879  0.0148 -0.1326
 9046SOL     OW37816   6.154   8.319   1.470  0.1187  0.2181  0.2543
 9046SOL    HW137817   6.224   8.391   1.469 -0.0685  0.4102 -0.9039
 9046SOL    HW237818   6.170   8.258   1.547  0.6327  1.1642  0.9163
 9047SOL     OW37819   4.523   1.879   3.545  0.3716  0.2232  0.2397
 9047SOL    HW137820   4.586   1.939   3.496 -0.5679  0.0305 -1.2137
 9047SOL    HW237821   4.551   1.784   3.531  0.6853  0.2169  0.8982
 9048SOL     OW37822   7.052   9.716   1.705 -0.0033 -0.1706  0.1641
 9048SOL    HW137823   7.122   9.670   1.650  0.7047  1.2667 -0.1600
 9048SOL    HW237824   6.969   9.660   1.707 -0.1946 -0.0607 -2.7444
 9049SOL     OW37825   5.526   7.395   1.979 -0.0241  0.5936 -0.7943
 9049SOL    HW137826   5.512   7.478   2.033 -0.3580  0.9177 -1.3699
 9049SOL    HW237827   5.448   7.381   1.918  0.5568  0.4843 -1.5259
 9050SOL     OW37828   9.182   4.434   1.941 -0.1193 -0.1479 -0.2622
 9050SOL    HW137829   9.203   4.394   2.030 -2.5154 -1.0666 -0.0808
 9050SOL    HW237830   9.216   4.374   1.869 -1.8436 -1.4789  0.0208
 9051SOL     OW37831   0.948   7.294   1.570  0.3245 -0.1245 -0.6971
 9051SOL    HW137832   0.975   7.201   1.594  0.0819 -0.4211 -1.5564
 9051SOL    HW237833   0.967   7.355   1.647 -1.1255 -1.1837  0.5493
 9052SOL     OW37834   3.242   9.699   3.309 -0.3651 -0.4129 -0.1962
 9052SOL    HW137835   3.305   9.667   3.238 -0.8496 -0.7571 -0.4719
 9052SOL    HW237836   3.294   9.748   3.379 -0.0550  1.2456 -1.5314
 9053SOL     OW37837   7.678   6.798   2.878 -0.1926  0.3822 -0.0903
 9053SOL    HW137838   7.660   6.886   2.833 -0.8652  0.8672  1.0943
 9053SOL    HW237839   7.619   6.790   2.958 -0.3906 -1.3182 -0.3992
 9054SOL     OW37840   2.534   6.660   5.578 -0.5868  0.1366 -0.0883
 9054SOL    HW137841   2.444   6.655   5.534 -0.1896  1.1311 -1.0466
 9054SOL    HW237842   2.533   6.734   5.645 -0.5645 -0.0196  0.0819
 9055SOL     OW37843   9.291   0.520   5.612 -0.7551 -0.0270 -0.0691
 9055SOL    HW137844   9.379   0.563   5.590  0.3778 -1.2714  1.8583
 9055SOL    HW237845   9.230   0.588   5.651 -0.2636  0.6070 -0.3891
 9056SOL     OW37846   2.133   0.793   1.574  0.3777 -0.2846 -0.3762
 9056SOL    HW137847   2.191   0.747   1.642  1.2066  0.4843 -0.5489
 9056SOL    HW237848   2.038   0.766   1.587  0.4850  0.1286  1.3165
 9057SOL     OW37849   1.712   5.640   0.426 -0.1738 -0.1298  0.0820
 9057SOL    HW137850   1.701   5.541   0.436  0.4201 -0.1165  0.9435
 9057SOL    HW237851   1.810   5.663   0.428 -0.3759  0.7584  2.9566
 9058SOL     OW37852   4.511   6.213   1.264  0.1930  0.8277  0.0309
 9058SOL    HW137853   4.529   6.239   1.359 -0.1812  1.3659 -0.0398
 9058SOL    HW237854   4.416   6.180   1.257  0.0525  1.2996 -0.2615
 9059SOL     OW37855   0.714   7.084   3.984 -0.2352  0.3779 -0.3657
 9059SOL    HW137856   0.643   7.070   4.054  1.5573  0.9297  1.6055
 9059SOL    HW237857   0.727   6.999   3.934  0.9058 -1.1177  2.3487
 9060SOL     OW37858   3.827   0.345   4.737 -0.5910  0.1969 -0.6272
 9060SOL    HW137859   3.727   0.347   4.742 -0.5284  1.4864  0.5220
 9060SOL    HW237860   3.856   0.263   4.690 -2.2321  0.2325 -1.7542
 9061SOL     OW37861   0.259   8.670   0.085 -0.5833 -0.0220 -0.1271
 9061SOL    HW137862   0.350   8.698   0.052 -1.2559  1.2394 -0.9474
 9061SOL    HW237863   0.189   8.721   0.036 -1.7893 -1.7316 -0.2040
 9062SOL     OW37864   9.416   9.303   2.651 -0.1153  0.4161  0.1954
 9062SOL    HW137865   9.446   9.209   2.633  1.7827  1.0596 -0.1623
 9062SOL    HW237866   9.402   9.350   2.563 -0.1683  0.7363  0.3764
 9063SOL     OW37867   3.996   2.450   0.354  0.1414 -0.1691 -0.0554
 9063SOL    HW137868   4.031   2.542   0.343  0.4144 -0.2283  0.2909
 9063SOL    HW237869   4.036   2.409   0.437  1.6919 -1.3674 -1.3733
 9064SOL     OW37870   3.886   8.317   0.093 -0.7898  0.2602 -0.1455
 9064SOL    HW137871   3.893   8.245   0.163 -0.8666  0.2093 -0.1896
 9064SOL    HW237872   3.830   8.284   0.017  1.9668 -0.8767 -1.7466
 9065SOL     OW37873   9.960   9.094   3.769 -0.1864  0.0809 -0.5597
 9065SOL    HW137874   9.984   8.997   3.760 -0.2785  0.1404 -1.4600
 9065SOL    HW237875  10.043   9.150   3.760 -0.2053  0.1184 -0.5021
 9066SOL     OW37876   4.163   1.676   1.134  0.0325 -0.4049 -0.4200
 9066SOL    HW137877   4.108   1.753   1.166 -1.4313 -0.4684 -2.6006
 9066SOL    HW237878   4.128   1.591   1.174  0.4580 -0.1459  0.5188
 9067SOL     OW37879   1.241   2.835   1.403 -0.3680  0.1942 -0.0943
 9067SOL    HW137880   1.253   2.891   1.321 -0.7215  0.9404  0.3552
 9067SOL    HW237881   1.286   2.746   1.390 -0.0395  0.4760 -0.9189
 9068SOL     OW37882   5.447   8.811   2.467  0.1256 -0.1701  0.1729
 9068SOL    HW137883   5.495   8.876   2.408  1.0951  0.2365  1.3710
 9068SOL    HW237884   5.496   8.723   2.466 -0.0420 -0.2644  0.1200
 9069SOL     OW37885   3.506   0.810   1.545  0.4182  0.1667  0.3512
 9069SOL    HW137886   3.406   0.808   1.548  0.2962 -0.9251 -2.4148
 9069SOL    HW237887   3.540   0.900   1.572 -1.3320  0.5960  1.1166
 9070SOL     OW37888   1.168   2.218   0.858 -0.6474 -0.1980  0.0741
 9070SOL    HW137889   1.209   2.127   0.850 -0.4568 -0.2929  1.9353
 9070SOL    HW237890   1.176   2.250   0.952 -0.3270  1.9404 -0.6462
 9071SOL     OW37891   0.203   2.141   2.545 -0.0682  0.2930 -0.1259
 9071SOL    HW137892   0.135   2.082   2.500 -0.8530  0.6494  0.5775
 9071SOL    HW237893   0.200   2.232   2.502  1.5897 -0.3304 -1.6448
 9072SOL     OW37894   1.276   8.724   4.847 -0.0237 -0.0352 -0.4735
 9072SOL    HW137895   1.286   8.694   4.942 -0.0880 -2.3485 -1.1851
 9072SOL    HW237896   1.363   8.712   4.799 -0.7613 -1.5588 -1.4479
 9073SOL     OW37897   6.159   9.570   3.469  0.0897  0.4895 -0.4044
 9073SOL    HW137898   6.112   9.529   3.547  0.9755  0.2957  0.0430
 9073SOL    HW237899   6.184   9.498   3.404  0.5990  0.4641 -0.1846
 9074SOL     OW37900   1.309   1.976   0.837 -0.0274 -0.5837 -0.0203
 9074SOL    HW137901   1.303   1.967   0.936 -1.9062  1.1756  0.0556
 9074SOL    HW237902   1.272   1.895   0.793 -1.7396 -0.2044  0.7024
 9075SOL     OW37903   7.181   1.317   2.036  0.0005 -0.1000 -0.1826
 9075SOL    HW137904   7.158   1.240   2.095 -0.2829  0.1027 -0.0298
 9075SOL    HW237905   7.181   1.402   2.089 -2.0004  0.3381 -0.8235
 9076SOL     OW37906   3.928   2.476   4.792 -0.4211  0.3597 -0.2885
 9076SOL    HW137907   3.884   2.476   4.881 -0.3109  1.1361 -0.2305
 9076SOL    HW237908   3.859   2.473   4.720 -0.5000 -0.6267 -0.1751
 9077SOL     OW37909   9.394   9.213   3.914  0.1740 -0.0151  0.2280
 9077SOL    HW137910   9.487   9.245   3.897  0.7305 -0.6117  2.0196
 9077SOL    HW237911   9.346   9.278   3.972 -0.6288  0.4237 -0.9114
 9078SOL     OW37912   4.524   8.302   4.015  0.5546 -0.2973  0.2575
 9078SOL    HW137913   4.542   8.274   3.921  0.2582 -0.9833  0.3964
 9078SOL    HW237914   4.611   8.313   4.064  0.7223  0.5878 -0.2446
 9079SOL     OW37915   9.436   7.398   2.098  0.3113 -0.2240 -0.4335
 9079SOL    HW137916   9.494   7.324   2.063 -1.3903 -1.9893  0.3690
 9079SOL    HW237917   9.464   7.421   2.191 -0.1911 -1.0140 -0.0795
 9080SOL     OW37918   0.990   5.437   1.484  0.8347  0.5635  0.3389
 9080SOL    HW137919   0.946   5.451   1.396 -1.1530  0.6687  1.3189
 9080SOL    HW237920   0.971   5.344   1.516  2.1127  0.2993  0.3433
 9081SOL     OW37921   1.911   1.662   3.371  0.2167  0.2842 -0.1227
 9081SOL    HW137922   1.918   1.564   3.390 -0.3520  0.0640 -1.0235
 9081SOL    HW237923   1.816   1.691   3.382  0.3163  0.6487 -0.2305
 9082SOL     OW37924   1.707   0.023   2.580  0.6236 -0.0425 -0.0423
 9082SOL    HW137925   1.765   0.033   2.498 -0.1483  1.8212 -0.3666
 9082SOL    HW237926   1.708  -0.073   2.608 -0.9551 -1.2134 -3.6421
 9083SOL     OW37927   4.338   9.204   3.365  0.4959  0.3274  0.8574
 9083SOL    HW137928   4.306   9.290   3.326 -2.7271 -0.6070  1.3172
 9083SOL    HW237929   4.339   9.211   3.465  0.9052  0.0488  0.8743
 9084SOL     OW37930   7.591   0.514   2.106 -1.0354 -0.2130 -0.2096
 9084SOL    HW137931   7.679   0.557   2.124 -1.8064  1.3246 -0.0571
 9084SOL    HW237932   7.562   0.536   2.012 -2.1694  0.9307  0.3934
 9085SOL     OW37933   1.176   0.988   2.303 -0.2731 -0.0447  0.1562
 9085SOL    HW137934   1.248   0.920   2.318 -0.6658 -1.3533 -3.4168
 9085SOL    HW237935   1.087   0.944   2.309 -0.5641  0.3318 -1.2299
 9086SOL     OW37936   2.992   1.972   2.012 -0.5137  0.1236 -0.0802
 9086SOL    HW137937   2.932   1.996   1.936 -0.8953  0.9050  0.4615
 9086SOL    HW237938   2.946   1.907   2.073  0.3439 -1.6727 -1.2946
 9087SOL     OW37939   3.085   3.497   0.176  0.4780  0.2055 -0.8837
 9087SOL    HW137940   3.133   3.582   0.198 -0.3765  0.5015 -0.1143
 9087SOL    HW237941   3.147   3.419   0.186  0.9599  0.6401 -0.4725
 9088SOL     OW37942   7.715   8.853   1.879 -0.6310  0.3501 -0.3158
 9088SOL    HW137943   7.622   8.849   1.843 -1.7575  1.1875  2.3384
 9088SOL    HW237944   7.779   8.874   1.806 -2.8244  2.2018 -1.7531
 9089SOL     OW37945   5.735   8.139   3.883  0.3602  1.0147 -0.1014
 9089SOL    HW137946   5.640   8.169   3.891  0.2419  0.3732  1.0693
 9089SOL    HW237947   5.738   8.040   3.868  0.8021  1.3133 -2.1088
 9090SOL     OW37948   4.785   9.498   1.008 -0.5033  0.3268 -0.3152
 9090SOL    HW137949   4.793   9.597   1.004 -0.3196  0.3744  1.1877
 9090SOL    HW237950   4.690   9.472   0.987 -1.0307  0.9443  1.2596
 9091SOL     OW37951   8.209   7.379   2.139  0.2345 -0.6288 -0.3712
 9091SOL    HW137952   8.241   7.368   2.045 -0.3323 -0.2994 -0.6051
 9091SOL    HW237953   8.206   7.289   2.184 -0.9767 -1.0074 -1.1594
 9092SOL     OW37954   3.861   3.869   4.840  0.5360 -0.2127  0.5006
 9092SOL    HW137955   3.901   3.778   4.827 -0.7979 -0.3764 -3.0619
 9092SOL    HW237956   3.766   3.860   4.870 -0.5030 -0.1696 -2.5308
 9093SOL     OW37957   1.034   7.427   1.313 -0.6174 -0.1949 -0.5169
 9093SOL    HW137958   1.131   7.406   1.304 -0.2906  1.4257 -0.9317
 9093SOL    HW237959   1.006   7.414   1.408  0.2223  0.2114 -0.2085
 9094SOL     OW37960   0.724   2.996   0.111 -0.0711  0.2559 -0.2421
 9094SOL    HW137961   0.821   2.972   0.113  0.5926  2.7839  0.1417
 9094SOL    HW237962   0.701   3.049   0.192 -1.9703 -0.9435  0.0335
 9095SOL     OW37963   3.640   5.014   2.062 -0.2076  0.0335  0.4038
 9095SOL    HW137964   3.552   4.979   2.094  0.2002  0.1841  1.7355
 9095SOL    HW237965   3.643   5.113   2.075  0.9857 -0.2402  2.4845
 9096SOL     OW37966   4.647   9.364   4.096  0.2780  0.3073 -0.0056
 9096SOL    HW137967   4.683   9.325   4.011 -0.4062 -0.0076 -0.1595
 9096SOL    HW237968   4.581   9.436   4.074 -0.2529 -0.0991  0.2497
 9097SOL     OW37969   4.904   0.493   2.026 -0.1929 -0.7125 -0.4596
 9097SOL    HW137970   4.999   0.515   2.003  0.4332 -1.7513  1.0479
 9097SOL    HW237971   4.873   0.550   2.102 -1.2730  0.6285 -1.8661
 9098SOL     OW37972   8.099   8.189   2.805 -0.5981  0.1698  0.3939
 9098SOL    HW137973   8.085   8.141   2.891 -0.7063 -0.8931 -0.2075
 9098SOL    HW237974   8.011   8.209   2.763 -0.5423  0.5536  0.4613
 9099SOL     OW37975   9.501   5.593   1.528  0.4282  0.4841  0.0920
 9099SOL    HW137976   9.586   5.548   1.505 -0.3538 -0.2144 -1.4923
 9099SOL    HW237977   9.434   5.525   1.558 -0.1888  0.7851 -0.5822
 9100SOL     OW37978   4.112   3.604   0.195 -0.0448  0.1440  0.6143
 9100SOL    HW137979   4.191   3.609   0.256 -0.7687  0.1571  1.5479
 9100SOL    HW237980   4.031   3.641   0.241 -1.1475 -2.1301  0.5716
 9101SOL     OW37981   1.691   3.081   5.385 -0.0549  0.2263  0.2399
 9101SOL    HW137982   1.710   3.113   5.478 -0.6304  0.3784  0.3063
 9101SOL    HW237983   1.643   3.152   5.335 -1.0068 -0.3919  0.2707
 9102SOL     OW37984   7.517   6.416   3.085 -0.5597 -0.6189 -0.2475
 9102SOL    HW137985   7.438   6.468   3.116 -0.6065 -1.5613  1.2432
 9102SOL    HW237986   7.600   6.449   3.131 -0.3234 -0.6779 -0.6261
 9103SOL     OW37987   7.498   9.583   0.506  0.7466 -0.7039 -0.1747
 9103SOL    HW137988   7.416   9.532   0.532 -0.4239  0.1051 -2.1832
 9103SOL    HW237989   7.539   9.624   0.588 -1.0910 -0.7835  0.8063
 9104SOL     OW37990   4.217   2.164   1.916 -0.5026 -0.1219  0.0780
 9104SOL    HW137991   4.282   2.224   1.870 -0.5423  0.7569  1.1452
 9104SOL    HW237992   4.160   2.218   1.978  1.0205 -1.6026  2.8354
 9105SOL     OW37993   3.185   4.689   3.189 -0.5522 -0.3887  0.0675
 9105SOL    HW137994   3.226   4.780   3.187 -1.2148 -0.0857  0.1831
 9105SOL    HW237995   3.242   4.629   3.246 -0.0009 -0.1086 -0.1779
 9106SOL     OW37996   2.913   7.256   1.294  0.0055  0.4541 -0.7850
 9106SOL    HW137997   2.938   7.160   1.308 -1.9010  0.1330  0.7263
 9106SOL    HW237998   2.832   7.261   1.235  0.1312  1.1224 -0.9011
 9107SOL     OW37999   4.387   1.499   3.062  0.2488  0.1179 -0.2648
 9107SOL    HW138000   4.288   1.503   3.048  0.6049  1.6537 -2.6583
 9107SOL    HW238001   4.424   1.421   3.010  0.1519 -1.3894  1.8497
 9108SOL     OW38002   8.401   6.392   3.025  0.1115  0.9315 -0.2437
 9108SOL    HW138003   8.349   6.450   3.087  0.2582  0.9954 -0.1790
 9108SOL    HW238004   8.475   6.347   3.077 -1.2108 -0.8647  0.1485
 9109SOL     OW38005   8.684   7.089   1.800  0.5933  0.8767  0.3884
 9109SOL    HW138006   8.731   7.014   1.755  0.8831  1.3684 -0.1255
 9109SOL    HW238007   8.669   7.065   1.896  0.5739  0.1140  0.1987
 9110SOL     OW38008   2.090   4.651   3.512  0.0705 -0.0284  0.3380
 9110SOL    HW138009   2.009   4.638   3.456 -0.4744  0.0900  1.1004
 9110SOL    HW238010   2.152   4.715   3.466 -0.1970 -0.2251 -0.3062
 9111SOL     OW38011   1.068   6.257   3.577 -0.4790  0.3538 -0.6233
 9111SOL    HW138012   1.153   6.270   3.629 -0.5065 -0.3910 -0.3795
 9111SOL    HW238013   1.060   6.328   3.507 -0.0481  0.8977 -0.1216
 9112SOL     OW38014   0.226   4.112   2.588 -0.0204 -0.2081 -0.8934
 9112SOL    HW138015   0.179   4.050   2.526  0.5023 -0.3161 -1.1780
 9112SOL    HW238016   0.162   4.183   2.618 -0.6544 -0.9650 -0.4520
 9113SOL     OW38017   9.900   1.338   4.225  0.0313  0.3544  0.0749
 9113SOL    HW138018   9.980   1.315   4.282 -1.5930 -0.9739  1.8634
 9113SOL    HW238019   9.884   1.436   4.230  0.3162  0.3503  1.3921
 9114SOL     OW38020   4.766   0.869   2.865 -0.1620 -0.3105 -0.0778
 9114SOL    HW138021   4.859   0.903   2.875  0.0260 -0.9140  0.2473
 9114SOL    HW238022   4.765   0.770   2.874 -1.0826 -0.1561  1.7806
 9115SOL     OW38023   3.927   3.982   1.857  0.5769 -0.1022  0.1853
 9115SOL    HW138024   3.845   4.036   1.843  1.2366  0.5575 -1.2135
 9115SOL    HW238025   4.007   4.042   1.858  1.1589 -0.8722  0.2530
 9116SOL     OW38026   3.899   2.905   4.461 -0.2597 -0.1908  0.1240
 9116SOL    HW138027   3.950   2.834   4.413  0.2192  0.5625 -0.4911
 9116SOL    HW238028   3.903   2.888   4.560 -0.8686 -1.4899 -0.0679
 9117SOL     OW38029   3.130   3.501   0.499 -0.4782  0.5273 -0.1907
 9117SOL    HW138030   3.171   3.410   0.491 -1.3670  0.1516 -0.5985
 9117SOL    HW238031   3.171   3.562   0.432  0.6161  0.6173  0.5493
 9118SOL     OW38032   0.016   1.331   0.321 -0.5890  0.1585  0.3439
 9118SOL    HW138033   0.000   1.236   0.348  1.3851 -0.2162  0.2767
 9118SOL    HW238034   0.107   1.360   0.351 -1.5331  2.3505  1.1974
 9119SOL     OW38035   3.592   6.958   4.197  0.6023 -0.0412  0.1272
 9119SOL    HW138036   3.516   6.919   4.145  0.6177 -0.1836  0.2111
 9119SOL    HW238037   3.644   7.020   4.139  0.7015 -0.3075 -0.0675
 9120SOL     OW38038   2.759   5.777   3.012 -0.3043  0.3377  0.0056
 9120SOL    HW138039   2.720   5.868   3.005  0.0372  0.2840 -2.8036
 9120SOL    HW238040   2.704   5.722   3.076 -1.1065  2.1619  0.9069
 9121SOL     OW38041   2.301   4.669   0.488 -0.3501 -0.1281  0.3824
 9121SOL    HW138042   2.333   4.622   0.405 -0.6918 -0.4549  0.4324
 9121SOL    HW238043   2.296   4.767   0.470 -0.4993 -0.2050 -0.0116
 9122SOL     OW38044   8.253   5.470   2.783  0.1425  0.4449 -0.1734
 9122SOL    HW138045   8.191   5.397   2.813  1.4026 -1.0649 -1.2262
 9122SOL    HW238046   8.213   5.517   2.704 -0.5052  0.7011  0.2938
 9123SOL     OW38047   8.261   7.406   1.543  0.0014 -0.4081 -0.0991
 9123SOL    HW138048   8.348   7.359   1.536 -0.3054 -0.9466 -0.3086
 9123SOL    HW238049   8.261   7.486   1.482 -0.0400 -1.0137 -0.9057
 9124SOL     OW38050   2.569   2.578   5.518  0.0598 -0.1371 -0.1379
 9124SOL    HW138051   2.582   2.667   5.474 -1.2345  0.4490  0.6551
 9124SOL    HW238052   2.574   2.589   5.617 -0.7911 -0.8326 -0.0157
 9125SOL     OW38053   1.026   6.837   2.997 -0.3855  0.3169 -0.8030
 9125SOL    HW138054   0.979   6.921   2.967  0.1811  1.4761  1.4353
 9125SOL    HW238055   0.979   6.799   3.077  1.3970  0.5019  0.3680
 9126SOL     OW38056   1.344   3.379   3.906  0.3476 -0.0985 -0.0952
 9126SOL    HW138057   1.347   3.425   3.994 -0.0379 -0.9909  0.3830
 9126SOL    HW238058   1.298   3.438   3.839  0.7803  0.6408  0.2477
 9127SOL     OW38059   5.614   1.112   3.426  1.0827 -0.3996  0.7590
 9127SOL    HW138060   5.689   1.046   3.434 -0.2881 -1.7333  3.3481
 9127SOL    HW238061   5.545   1.075   3.363  1.9466  0.2235 -0.5802
 9128SOL     OW38062   2.663   0.678   2.489  0.5395  0.2812  0.4088
 9128SOL    HW138063   2.620   0.743   2.552  0.5546 -0.1035  0.8286
 9128SOL    HW238064   2.600   0.602   2.473  0.0221  1.0079 -1.0743
 9129SOL     OW38065   9.561   1.393   5.221  0.6291 -0.2287 -0.1951
 9129SOL    HW138066   9.637   1.369   5.161  0.8048 -1.1255  0.3807
 9129SOL    HW238067   9.536   1.489   5.206  0.1578 -0.6416 -2.2575
 9130SOL     OW38068   8.320   5.598   1.958 -0.0871 -0.5492 -0.2947
 9130SOL    HW138069   8.344   5.532   2.029  0.6785  0.1952  0.1569
 9130SOL    HW238070   8.339   5.691   1.992  1.7570 -0.2525 -2.0059
 9131SOL     OW38071   8.254   9.080   1.187 -1.0480 -0.0947 -0.3073
 9131SOL    HW138072   8.231   9.013   1.258 -1.0261 -0.2176 -0.4164
 9131SOL    HW238073   8.300   9.033   1.111 -2.2214 -0.1660 -0.9733
 9132SOL     OW38074   2.290   3.813   3.497 -0.2977 -0.0056  0.3258
 9132SOL    HW138075   2.267   3.791   3.592 -2.8156 -2.1866 -0.7278
 9132SOL    HW238076   2.302   3.729   3.445 -0.0650  1.1646 -1.5655
 9133SOL     OW38077   8.218   7.846   2.587 -0.1696  0.1625 -0.0906
 9133SOL    HW138078   8.127   7.810   2.607 -0.9195  2.8889  1.5553
 9133SOL    HW238079   8.280   7.769   2.567 -2.0963 -1.9176  1.6760
 9134SOL     OW38080   6.778   1.197   1.833 -0.5860 -0.2641 -0.0911
 9134SOL    HW138081   6.858   1.194   1.892  0.1194 -2.1240 -1.1034
 9134SOL    HW238082   6.742   1.104   1.820 -3.0394  0.5558  0.5064
 9135SOL     OW38083   4.083   7.589   3.413 -0.5710  0.2040 -0.2261
 9135SOL    HW138084   4.030   7.551   3.489 -1.9960  1.2810 -0.6521
 9135SOL    HW238085   4.078   7.689   3.416  1.3701  0.3248 -0.3488
 9136SOL     OW38086   8.353   1.280   5.625  0.8194 -0.4232  0.4726
 9136SOL    HW138087   8.274   1.220   5.634 -0.5630  1.4444  1.2190
 9136SOL    HW238088   8.396   1.291   5.715  0.3226  0.6291  0.5996
 9137SOL     OW38089   2.509   5.777   1.462 -0.0057 -0.3748  0.3553
 9137SOL    HW138090   2.474   5.702   1.407 -0.0096 -1.1822  1.4412
 9137SOL    HW238091   2.440   5.850   1.467 -0.3068 -0.6343 -0.0637
 9138SOL     OW38092   8.366   8.355   3.328 -0.8939  0.0707  0.0786
 9138SOL    HW138093   8.365   8.325   3.424 -0.0414  0.2393  0.1483
 9138SOL    HW238094   8.448   8.410   3.312 -0.0158 -1.6029 -1.2550
 9139SOL     OW38095   0.280   7.618   3.572  0.2256 -0.5303 -0.1617
 9139SOL    HW138096   0.185   7.618   3.544 -0.0888 -1.1601  0.8499
 9139SOL    HW238097   0.285   7.620   3.672  1.2534 -1.0771 -0.1878
 9140SOL     OW38098   0.669   3.527   2.015 -0.3061  0.7506  0.9917
 9140SOL    HW138099   0.724   3.555   1.936  0.4299 -0.3014  1.1144
 9140SOL    HW238100   0.659   3.427   2.014 -0.9227  0.8057  1.8181
 9141SOL     OW38101   4.868   9.758   0.990  0.3396  0.3989  0.4874
 9141SOL    HW138102   4.915   9.784   1.075  0.5912  0.2118  0.4062
 9141SOL    HW238103   4.787   9.816   0.978  1.0871  1.4033  0.1362
 9142SOL     OW38104   7.959   0.494   3.390 -0.3012 -0.1494  0.3155
 9142SOL    HW138105   8.029   0.427   3.365 -1.6477 -0.7034 -2.0870
 9142SOL    HW238106   7.980   0.582   3.347 -0.9865 -0.2678 -0.2631
 9143SOL     OW38107   0.402   1.103   0.467  0.7134  0.3355  0.5374
 9143SOL    HW138108   0.492   1.129   0.431  0.4967 -0.3587 -0.5298
 9143SOL    HW238109   0.357   1.184   0.504  1.8296  0.6664  1.2103
 9144SOL     OW38110   0.887   4.601   2.641  0.0387  0.5506 -0.1113
 9144SOL    HW138111   0.842   4.664   2.578  1.4177  0.7378 -0.9393
 9144SOL    HW238112   0.986   4.602   2.624  0.4071  0.4548  1.9334
 9145SOL     OW38113   3.387   2.533   0.891  0.1841 -0.0297  0.1079
 9145SOL    HW138114   3.470   2.568   0.935 -0.1697 -0.3473  1.0562
 9145SOL    HW238115   3.352   2.601   0.826 -0.3173  1.2786  1.6972
 9146SOL     OW38116   3.082   2.913   2.213 -0.1242  0.0221  0.0370
 9146SOL    HW138117   2.992   2.912   2.256 -1.0174 -0.2615 -1.7686
 9146SOL    HW238118   3.132   2.831   2.239 -0.3750  0.1861  1.0604
 9147SOL     OW38119   4.043   8.899   4.191  0.2183  0.2758  1.1987
 9147SOL    HW138120   3.965   8.838   4.205  1.0842 -1.3426 -0.8012
 9147SOL    HW238121   4.015   8.978   4.137 -0.0692 -0.2332  0.6025
 9148SOL     OW38122   1.362   1.718   5.433 -0.8353  0.4842 -0.4707
 9148SOL    HW138123   1.266   1.739   5.448 -0.4855  0.9423  1.2004
 9148SOL    HW238124   1.371   1.624   5.401 -1.7514  0.0833  0.4281
 9149SOL     OW38125   5.021   4.376   5.284 -0.7641 -0.5598  0.0238
 9149SOL    HW138126   5.012   4.449   5.353  0.4545 -1.2459  0.9284
 9149SOL    HW238127   5.109   4.386   5.237 -2.3846  1.0635 -2.8348
 9150SOL     OW38128   1.347   2.159   1.716 -0.1307  0.4287 -0.1064
 9150SOL    HW138129   1.322   2.101   1.793  1.5794 -0.7794 -0.4221
 9150SOL    HW238130   1.441   2.190   1.728 -0.6778  2.2453 -0.4976
 9151SOL     OW38131   1.481   1.295   1.537  0.1182  0.1450 -0.1793
 9151SOL    HW138132   1.518   1.204   1.517  1.4787  0.2174  1.8722
 9151SOL    HW238133   1.406   1.315   1.474  1.3919 -1.3888 -2.2378
 9152SOL     OW38134   3.965   0.596   4.849 -0.1114 -0.2212  0.0963
 9152SOL    HW138135   3.906   0.537   4.795 -1.9285  1.4805  0.1565
 9152SOL    HW238136   4.000   0.671   4.791  0.6901 -0.3035  0.4587
 9153SOL     OW38137   7.635   2.816   3.387 -0.6085 -0.0241  0.4222
 9153SOL    HW138138   7.555   2.763   3.359 -0.0300 -0.8013  0.2017
 9153SOL    HW238139   7.666   2.783   3.477 -0.1023 -0.2249  0.1758
 9154SOL     OW38140   0.515   6.960   3.023  0.3076  0.1361  0.2235
 9154SOL    HW138141   0.487   6.886   3.086  2.6831 -2.1498 -1.3125
 9154SOL    HW238142   0.471   6.945   2.934  0.7513  0.6348 -0.0745
 9155SOL     OW38143   4.068   2.909   2.743 -0.0509  0.4603  0.3300
 9155SOL    HW138144   4.040   3.002   2.770  0.0129  0.5660  0.0345
 9155SOL    HW238145   3.990   2.860   2.705  0.0394  0.5763 -0.0084
 9156SOL     OW38146   2.242   7.870   1.890  0.0094 -0.8856 -0.7690
 9156SOL    HW138147   2.173   7.867   1.817 -0.3793  0.6102 -0.4988
 9156SOL    HW238148   2.306   7.945   1.871 -1.5540  1.1662  1.6363
 9157SOL     OW38149   3.728   6.857   2.573 -0.0534  0.0481 -0.1077
 9157SOL    HW138150   3.808   6.821   2.620 -0.5273  1.0010  1.4732
 9157SOL    HW238151   3.756   6.925   2.505  0.4903  0.1675  0.2394
 9158SOL     OW38152   5.318   6.896   3.498  0.0149 -0.2095  0.3066
 9158SOL    HW138153   5.220   6.911   3.510 -0.0536 -1.2252  1.1596
 9158SOL    HW238154   5.337   6.798   3.505  1.1133  0.0018  0.3307
 9159SOL     OW38155   3.784   4.135   4.338  0.1109  0.1912  0.6406
 9159SOL    HW138156   3.816   4.103   4.248  0.2368 -0.2839  0.8539
 9159SOL    HW238157   3.698   4.185   4.326  0.4383  0.6626  0.1817
 9160SOL     OW38158   3.844   9.211   0.205 -0.0586  0.1157  0.7604
 9160SOL    HW138159   3.852   9.129   0.149  2.3525  1.5572 -1.0833
 9160SOL    HW238160   3.889   9.196   0.293 -1.7986 -1.3408  1.4390
 9161SOL     OW38161   5.691   0.067   2.009 -0.2851 -0.0545 -0.4098
 9161SOL    HW138162   5.636   0.149   1.997  1.6132  1.0696 -1.8215
 9161SOL    HW238163   5.683   0.009   1.928  0.8280  0.2806 -0.7761
 9162SOL     OW38164   7.214   9.076   1.547  0.8038  0.5519 -0.0231
 9162SOL    HW138165   7.208   9.156   1.607  1.0141  1.5257 -1.2736
 9162SOL    HW238166   7.291   9.086   1.484 -0.2667  0.2563 -1.4362
 9163SOL     OW38167   1.018   7.218   1.958  0.0101  0.3201  0.1489
 9163SOL    HW138168   1.036   7.311   1.929  0.3438 -0.2326 -1.4558
 9163SOL    HW238169   1.052   7.205   2.051  0.0493  1.7590  0.3427
 9164SOL     OW38170   5.204   8.758   2.198  0.6503 -0.0756 -0.2716
 9164SOL    HW138171   5.193   8.792   2.291  0.5680 -0.5257 -0.1159
 9164SOL    HW238172   5.184   8.660   2.195 -0.5144  0.1679 -0.9810
 9165SOL     OW38173   4.335   3.406   2.704 -0.4146 -0.2368  0.3133
 9165SOL    HW138174   4.396   3.378   2.630  0.8300  0.6926  0.9636
 9165SOL    HW238175   4.311   3.503   2.692 -1.3380 -0.4493  0.3653
 9166SOL     OW38176   8.391   1.927   2.540 -0.0143 -0.0064  0.9653
 9166SOL    HW138177   8.480   1.970   2.554  0.8091 -0.6872 -1.7817
 9166SOL    HW238178   8.320   1.997   2.539  1.0196  1.0668 -1.0067
 9167SOL     OW38179   3.579   8.963   4.616  0.5201  0.0855  0.0926
 9167SOL    HW138180   3.539   8.951   4.707 -2.2025 -1.0612 -1.1878
 9167SOL    HW238181   3.622   9.053   4.610 -1.6594  1.2929  1.6530
 9168SOL     OW38182   4.755   1.361   3.727  0.3067 -0.3704 -0.0029
 9168SOL    HW138183   4.662   1.394   3.738  0.2386  0.0313 -1.5518
 9168SOL    HW238184   4.794   1.400   3.643  0.4482 -3.7199 -1.5719
 9169SOL     OW38185   8.229   8.536   3.720  0.2245  0.4357 -0.3781
 9169SOL    HW138186   8.323   8.508   3.703 -0.4592 -3.0918  1.0771
 9169SOL    HW238187   8.213   8.541   3.818 -0.8469  2.0524 -0.6176
 9170SOL     OW38188   1.706   2.506   0.390 -0.2416  0.1420  0.1938
 9170SOL    HW138189   1.609   2.482   0.385 -0.0517 -0.7478  0.6209
 9170SOL    HW238190   1.761   2.423   0.376  0.4709  0.7879 -0.9474
 9171SOL     OW38191   0.651   9.521   3.659  0.4234  0.3024 -0.3321
 9171SOL    HW138192   0.615   9.480   3.742 -1.6301 -0.5772 -1.6236
 9171SOL    HW238193   0.656   9.620   3.671  1.6599  0.0574  1.3852
 9172SOL     OW38194   4.377   6.954   2.987 -0.4496 -0.0251 -0.1960
 9172SOL    HW138195   4.335   6.863   2.992 -1.6942  0.6632  3.1643
 9172SOL    HW238196   4.336   7.006   2.912  0.1290 -2.1110 -2.0183
 9173SOL     OW38197   6.914   8.313   1.326  0.5484 -0.5331 -0.5446
 9173SOL    HW138198   6.981   8.363   1.271  1.4634  0.5836  1.5233
 9173SOL    HW238199   6.861   8.378   1.380  0.9578 -1.6935  1.3004
 9174SOL     OW38200   0.614   9.098   5.055 -0.1818 -0.6650 -0.0835
 9174SOL    HW138201   0.687   9.039   5.022 -0.4122 -1.1733  0.3109
 9174SOL    HW238202   0.649   9.191   5.068  1.3650 -1.6780  3.6394
 9175SOL     OW38203   3.221   5.056   0.721  0.9368 -0.7349 -0.5165
 9175SOL    HW138204   3.182   5.147   0.718  0.4134 -0.9745 -1.4337
 9175SOL    HW238205   3.319   5.061   0.742  0.9059  0.0306 -0.5732
 9176SOL     OW38206   3.644   0.377   1.357 -0.1811  0.4415  0.0095
 9176SOL    HW138207   3.724   0.364   1.299  0.9826 -0.8879  1.8663
 9176SOL    HW238208   3.566   0.328   1.317  0.5408 -0.2697 -0.5469
 9177SOL     OW38209   7.386   8.507   1.850  0.0900 -0.1827 -0.3628
 9177SOL    HW138210   7.329   8.576   1.894 -0.2180 -1.7981  1.8859
 9177SOL    HW238211   7.480   8.515   1.885 -0.0736 -1.2390  0.3454
 9178SOL     OW38212   0.519   9.399   2.852  0.0749  0.1957 -0.1098
 9178SOL    HW138213   0.488   9.459   2.925  0.7654 -0.9638  1.1470
 9178SOL    HW238214   0.579   9.328   2.889  0.2705 -0.5366 -1.7578
 9179SOL     OW38215   2.494   1.494   0.238  0.4012 -0.0912 -0.5667
 9179SOL    HW138216   2.501   1.522   0.334  0.2618  0.5231 -0.7364
 9179SOL    HW238217   2.471   1.397   0.234  0.4919 -0.1396  0.0238
 9180SOL     OW38218   1.525   6.748   2.994  0.7100  0.0329 -0.0591
 9180SOL    HW138219   1.586   6.770   3.070 -1.5283  0.8396  1.5510
 9180SOL    HW238220   1.461   6.824   2.979 -0.1624 -0.9479 -1.4482
 9181SOL     OW38221   1.844   3.007   4.985 -0.3310 -0.2530 -0.2578
 9181SOL    HW138222   1.789   2.986   4.905 -0.2462  2.0099 -0.9455
 9181SOL    HW238223   1.932   3.045   4.957  0.0214 -0.1712  0.8988
 9182SOL     OW38224   1.752   7.035   4.700  0.3408 -0.2855 -0.7019
 9182SOL    HW138225   1.821   7.107   4.700  0.7476 -0.6738 -1.0135
 9182SOL    HW238226   1.711   7.028   4.609 -0.2593  0.0796 -0.4685
 9183SOL     OW38227   9.603   1.085   3.422  0.7125 -0.1135 -0.1484
 9183SOL    HW138228   9.656   1.009   3.462  1.7778  0.7421  0.0851
 9183SOL    HW238229   9.536   1.048   3.358  1.6220 -1.2328 -0.4827
 9184SOL     OW38230   6.827   6.733   2.875 -0.1367  1.0574  0.3150
 9184SOL    HW138231   6.755   6.797   2.903 -0.2768  1.6601 -1.3309
 9184SOL    HW238232   6.866   6.764   2.788  0.3820 -0.6482 -0.0666
 9185SOL     OW38233   9.466   1.486   3.962 -0.0484  0.1983 -0.1295
 9185SOL    HW138234   9.498   1.554   3.896 -0.0276  1.0034  0.7039
 9185SOL    HW238235   9.519   1.495   4.046 -1.3379  0.4085  0.6598
 9186SOL     OW38236   1.971   5.252   1.747 -0.5822  0.0269 -0.2955
 9186SOL    HW138237   2.011   5.317   1.811 -0.3997  0.3697 -0.7502
 9186SOL    HW238238   1.954   5.165   1.793 -1.6181  0.6561  0.5481
 9187SOL     OW38239   5.351   0.637   3.137 -0.6829  0.3742 -0.1516
 9187SOL    HW138240   5.410   0.639   3.057 -0.1300 -0.3791  0.2309
 9187SOL    HW238241   5.256   0.646   3.108 -0.4694  0.3759 -0.8735
 9188SOL     OW38242   1.158   3.199   4.181  1.0114 -0.1210 -0.0566
 9188SOL    HW138243   1.231   3.136   4.154  0.4715  0.0750 -2.0442
 9188SOL    HW238244   1.194   3.292   4.186  0.9460 -0.0573 -0.8016
 9189SOL     OW38245   3.295   1.826   1.547 -0.0832  0.9106 -0.1086
 9189SOL    HW138246   3.275   1.803   1.642 -0.6529 -0.2408 -0.4911
 9189SOL    HW238247   3.272   1.748   1.489  2.5566  0.6823 -0.9138
 9190SOL     OW38248   0.627   5.302   1.723  0.2452 -0.1726  0.3883
 9190SOL    HW138249   0.556   5.307   1.794  0.6449  3.2505  0.6394
 9190SOL    HW238250   0.716   5.289   1.766  0.2407 -0.2773  0.3657
 9191SOL     OW38251   1.539   8.501   0.929 -0.4779  0.4978  0.9062
 9191SOL    HW138252   1.463   8.485   0.866 -0.6599  1.5538  0.8423
 9191SOL    HW238253   1.624   8.468   0.888 -0.8388 -0.3269  0.8121
 9192SOL     OW38254   5.367   9.644   2.391 -0.2493  0.1827  0.2249
 9192SOL    HW138255   5.402   9.611   2.479 -0.9966  0.0154  0.4644
 9192SOL    HW238256   5.342   9.566   2.334 -0.4721  0.3015  0.1582
 9193SOL     OW38257   0.580   8.971   2.858  0.3821  0.2452 -0.1058
 9193SOL    HW138258   0.523   8.937   2.783  1.7825 -0.1769 -0.9960
 9193SOL    HW238259   0.673   8.938   2.847  0.3903 -0.6609  2.4018
 9194SOL     OW38260   0.193   8.140   0.510  0.2285  0.0402  0.3324
 9194SOL    HW138261   0.176   8.047   0.476  1.8847 -0.8673  1.8618
 9194SOL    HW238262   0.117   8.170   0.567 -0.7732  0.0223 -0.9938
 9195SOL     OW38263   8.370   8.624   4.334  0.3566 -0.4094 -0.1038
 9195SOL    HW138264   8.412   8.617   4.425  2.1617 -0.1447 -0.8935
 9195SOL    HW238265   8.418   8.563   4.271  1.4013  1.9892 -1.7042
 9196SOL     OW38266   8.152   8.085   2.523 -0.1204  0.0297 -0.2367
 9196SOL    HW138267   8.172   7.989   2.544  1.2641  0.1700 -0.9043
 9196SOL    HW238268   8.182   8.143   2.598  1.9167  0.2265 -1.1729
 9197SOL     OW38269   1.606   7.862   3.526 -0.5252 -0.0629 -0.1412
 9197SOL    HW138270   1.544   7.800   3.575 -0.0668 -0.3256  0.1112
 9197SOL    HW238271   1.636   7.818   3.441  0.4258 -0.5218  0.4214
 9198SOL     OW38272   0.604   1.384   4.190  0.3191  0.1295  0.2424
 9198SOL    HW138273   0.604   1.465   4.249 -0.4267 -0.1298  0.6017
 9198SOL    HW238274   0.684   1.387   4.129  0.6641  0.7897  0.7227
 9199SOL     OW38275   8.039   0.754   4.554 -0.1109 -0.1893 -0.0323
 9199SOL    HW138276   8.051   0.691   4.478 -0.1844  0.1632 -0.3398
 9199SOL    HW238277   7.973   0.825   4.529 -0.3135 -0.2066  0.4444
 9200SOL     OW38278   3.113   1.432   5.412  0.1182 -0.0086  0.3305
 9200SOL    HW138279   3.087   1.378   5.492  0.1748  0.9182  0.9746
 9200SOL    HW238280   3.044   1.420   5.341  1.2846 -2.7763 -0.4319
 9201SOL     OW38281   1.976   0.693   0.426 -0.4278 -0.4424  0.3392
 9201SOL    HW138282   1.961   0.673   0.329 -0.3479 -0.0948  0.2525
 9201SOL    HW238283   2.058   0.647   0.458 -1.0676 -1.4624  0.5280
 9202SOL     OW38284   9.742   0.239   0.708  0.2792  0.1203  0.6435
 9202SOL    HW138285   9.671   0.197   0.764  0.9829  0.3819  1.7610
 9202SOL    HW238286   9.729   0.338   0.705 -0.6525 -0.0370 -0.9518
 9203SOL     OW38287   5.003   0.704   2.430  0.0621 -1.1043 -0.0227
 9203SOL    HW138288   5.067   0.641   2.475 -0.0580 -1.0858  0.1728
 9203SOL    HW238289   4.988   0.784   2.488 -0.2277 -1.1617 -0.0165
 9204SOL     OW38290   0.229   6.555   3.746  0.3096  0.2997  0.0296
 9204SOL    HW138291   0.254   6.652   3.742  1.7088 -0.0881 -1.0904
 9204SOL    HW238292   0.165   6.540   3.822 -1.2771  2.3813 -0.8365
 9205SOL     OW38293   3.759   5.641   1.851 -0.5588 -0.5937 -0.2242
 9205SOL    HW138294   3.756   5.735   1.885 -0.9442 -0.0268 -1.7424
 9205SOL    HW238295   3.769   5.643   1.751 -0.9369 -2.1636 -0.3002
 9206SOL     OW38296   3.021   6.909   1.283 -0.0119  0.4231 -0.1047
 9206SOL    HW138297   3.079   6.928   1.204 -0.4947  1.3446 -0.2480
 9206SOL    HW238298   3.072   6.855   1.350  0.9333  1.0295 -0.3294
 9207SOL     OW38299   4.082   4.772   0.413 -0.0223 -0.1518  0.1947
 9207SOL    HW138300   4.152   4.728   0.357  0.0949 -1.0402  1.0249
 9207SOL    HW238301   3.998   4.782   0.359 -0.0956 -1.5255  0.0249
 9208SOL     OW38302   2.135   2.495   4.941 -0.0797 -0.5855 -0.2515
 9208SOL    HW138303   2.085   2.580   4.958 -0.5577 -0.5298 -1.8405
 9208SOL    HW238304   2.140   2.442   5.026 -1.4672  0.1298  0.3043
 9209SOL     OW38305   4.395   4.434   0.743 -0.4127  0.1394  0.4732
 9209SOL    HW138306   4.446   4.357   0.782 -2.3557 -1.7178 -0.5322
 9209SOL    HW238307   4.297   4.413   0.745 -0.8333  1.7511 -1.6439
 9210SOL     OW38308   9.213   6.687   3.426  0.1185  0.3449 -0.2032
 9210SOL    HW138309   9.124   6.689   3.380  0.2135  0.5173 -0.3786
 9210SOL    HW238310   9.282   6.729   3.368  1.1273 -3.2500 -1.7262
 9211SOL     OW38311   1.269   8.067   5.239  0.4545  0.0924  0.0683
 9211SOL    HW138312   1.204   8.132   5.201 -0.4863 -0.5997  0.4650
 9211SOL    HW238313   1.361   8.105   5.235  0.2586  0.4026 -2.0231
 9212SOL     OW38314   1.284   0.622   3.593  0.1434 -0.2105 -0.1342
 9212SOL    HW138315   1.191   0.657   3.583 -0.5062 -1.3191  1.6614
 9212SOL    HW238316   1.284   0.523   3.578  1.3304  0.0190 -1.7456
 9213SOL     OW38317   0.523   4.071   3.514  0.2369  0.2895  0.4716
 9213SOL    HW138318   0.472   4.076   3.427  1.2968 -0.3623 -0.1942
 9213SOL    HW238319   0.462   4.095   3.589 -0.8337  0.3749 -0.4060
 9214SOL     OW38320   3.023   7.923   0.314 -0.1130  0.2591  0.0818
 9214SOL    HW138321   3.047   8.010   0.357 -2.0835  0.4212  0.9268
 9214SOL    HW238322   2.969   7.868   0.379  0.0706 -1.0755 -0.8781
 9215SOL     OW38323   2.394   1.432   2.651  0.0312  0.0740 -0.4387
 9215SOL    HW138324   2.414   1.518   2.699 -0.8392 -0.2889  0.5619
 9215SOL    HW238325   2.480   1.393   2.616  0.6926  0.2062  1.0267
 9216SOL     OW38326   1.657   0.049   0.745  0.9497 -0.1196 -0.2035
 9216SOL    HW138327   1.665   0.125   0.809 -1.2197 -1.2173  1.4259
 9216SOL    HW238328   1.739  -0.008   0.751  0.6353 -0.3937  1.8784
 9217SOL     OW38329   0.675   0.434   1.683 -0.9078 -0.2914  0.2287
 9217SOL    HW138330   0.676   0.336   1.662 -0.3290 -0.1212 -0.5424
 9217SOL    HW238331   0.761   0.476   1.653 -1.2525  0.4964  0.3261
 9218SOL     OW38332   9.586   7.693   3.538  0.2185 -0.2373  0.3939
 9218SOL    HW138333   9.610   7.606   3.497  0.5095  0.1837 -0.3340
 9218SOL    HW238334   9.628   7.700   3.629  1.8359 -0.0308 -0.3520
 9219SOL     OW38335   3.894   1.969   3.498  0.5797 -0.0400  0.2090
 9219SOL    HW138336   3.913   2.034   3.424  2.3044  0.3581  0.9811
 9219SOL    HW238337   3.946   1.885   3.482  1.8165  0.4492  1.4929
 9220SOL     OW38338   1.298   7.759   2.914 -0.4500  0.1341  0.4566
 9220SOL    HW138339   1.237   7.822   2.866 -1.1966 -1.2348 -0.4230
 9220SOL    HW238340   1.251   7.672   2.929 -0.1423  0.4484  3.4766
 9221SOL     OW38341   0.225   8.417   3.641 -0.2977  0.1741  0.0289
 9221SOL    HW138342   0.294   8.374   3.583 -0.7172 -0.2185 -0.1813
 9221SOL    HW238343   0.245   8.397   3.737  0.6293  1.1637  0.0579
 9222SOL     OW38344   4.071   1.619   2.297 -0.4648  0.1489  0.3218
 9222SOL    HW138345   4.150   1.559   2.309 -1.9600 -1.7105  1.2342
 9222SOL    HW238346   4.036   1.609   2.203 -0.4544 -0.0615  0.3407
 9223SOL     OW38347   1.766   2.293   2.321 -0.2068  0.1777  0.0486
 9223SOL    HW138348   1.752   2.207   2.272 -1.1129  0.7293 -0.6968
 9223SOL    HW238349   1.836   2.347   2.274  3.2298 -1.7969  2.7373
 9224SOL     OW38350   8.162   8.561   3.346  0.1941 -0.0903  0.1363
 9224SOL    HW138351   8.066   8.540   3.360  0.4961  0.6269  3.9102
 9224SOL    HW238352   8.211   8.479   3.317 -1.1542 -1.0088  0.4663
 9225SOL     OW38353   3.131   1.376   1.967  0.0534  0.2970  0.2506
 9225SOL    HW138354   3.086   1.456   2.008  0.9271  1.3741 -0.8573
 9225SOL    HW238355   3.229   1.381   1.985 -0.0060 -1.0343  0.9842
 9226SOL     OW38356   8.380   5.132   1.796  0.4094  0.1848  0.6328
 9226SOL    HW138357   8.340   5.096   1.712 -0.6388  1.3475  0.6155
 9226SOL    HW238358   8.419   5.057   1.850 -1.2124 -0.9027  0.3344
 9227SOL     OW38359   0.058   9.072   5.534  0.2451  0.0492  0.3074
 9227SOL    HW138360   0.085   9.123   5.453 -0.9143 -0.2264 -0.2567
 9227SOL    HW238361   0.051   9.134   5.612  3.0381  0.0567  0.6275
 9228SOL     OW38362   4.000   1.311   2.814 -0.0327 -0.4948  0.5303
 9228SOL    HW138363   3.990   1.410   2.807 -1.1784 -0.5092  1.7731
 9228SOL    HW238364   4.092   1.285   2.784  0.6482  1.0572  1.2000
 9229SOL     OW38365   9.411   3.991   3.241  0.3680  0.5454  0.0444
 9229SOL    HW138366   9.410   4.072   3.182  0.7618 -0.5327 -1.4803
 9229SOL    HW238367   9.498   3.985   3.289  0.2875  1.1053  0.2509
 9230SOL     OW38368   0.277   8.664   3.435  0.5065  0.1519  0.6583
 9230SOL    HW138369   0.301   8.757   3.408 -1.5756  0.6296  0.4159
 9230SOL    HW238370   0.221   8.667   3.518 -1.3869 -0.7497 -0.5668
 9231SOL     OW38371   1.914   6.150   1.763  0.3916 -0.0908 -0.1554
 9231SOL    HW138372   1.994   6.163   1.821  0.6294  2.6984 -1.0304
 9231SOL    HW238373   1.944   6.123   1.671  0.0568 -3.5988  0.6882
 9232SOL     OW38374   7.908   3.785   0.961  0.6758 -0.0844 -0.2321
 9232SOL    HW138375   7.978   3.824   0.902 -0.2572  1.3450 -0.4196
 9232SOL    HW238376   7.883   3.694   0.928  0.7217  0.3853 -1.5658
 9233SOL     OW38377   9.393   1.639   3.344  0.2295  0.4487 -0.0790
 9233SOL    HW138378   9.488   1.644   3.374  0.4407  0.3898 -0.7346
 9233SOL    HW238379   9.365   1.544   3.339  0.7713  0.3662 -1.8514
 9234SOL     OW38380   2.106   3.796   5.448 -0.6796  0.1879 -0.0956
 9234SOL    HW138381   2.012   3.797   5.413 -0.7957 -0.0159  0.2152
 9234SOL    HW238382   2.114   3.728   5.520 -0.7721  1.5480  1.2140
 9235SOL     OW38383   5.081   2.934   1.448 -0.3654 -0.4267  0.2575
 9235SOL    HW138384   5.123   3.025   1.446 -0.4390 -0.3987 -0.0379
 9235SOL    HW238385   5.011   2.931   1.520 -1.3138  0.1747 -0.6214
 9236SOL     OW38386   4.962   3.726   5.494  0.1367  0.5389  0.2271
 9236SOL    HW138387   5.008   3.814   5.482 -0.8613  1.0854  0.3473
 9236SOL    HW238388   4.863   3.739   5.490 -0.0069 -0.7214 -0.7144
 9237SOL     OW38389   7.790   0.057   3.035 -1.1325 -0.6299 -0.6217
 9237SOL    HW138390   7.738   0.008   3.105 -0.0553 -0.2663  0.4363
 9237SOL    HW238391   7.841   0.132   3.077  0.8713 -1.4722 -1.5119
 9238SOL     OW38392   0.906   7.080   0.744  0.1404 -0.0548 -0.0528
 9238SOL    HW138393   0.929   7.026   0.826  0.4909 -3.6323 -2.4007
 9238SOL    HW238394   0.991   7.111   0.701  0.0786 -0.7897 -0.7117
 9239SOL     OW38395   2.521   1.674   1.127 -0.4885  0.0873 -0.1776
 9239SOL    HW138396   2.440   1.727   1.102 -0.5602 -0.2331 -0.6280
 9239SOL    HW238397   2.494   1.583   1.157 -0.2588 -0.2364 -0.9344
 9240SOL     OW38398   9.995   2.485   3.197  0.1295 -0.0646  0.8491
 9240SOL    HW138399  10.059   2.492   3.273  0.4563 -0.4477  0.6120
 9240SOL    HW238400  10.004   2.395   3.154  1.3293  0.8100 -0.8373
 9241SOL     OW38401   2.881   7.992   4.793 -0.2679  0.3944  0.2613
 9241SOL    HW138402   2.792   8.037   4.801  0.1108  1.0643  0.7522
 9241SOL    HW238403   2.896   7.934   4.874  0.3964  1.4650  0.9089
 9242SOL     OW38404   2.868   1.484   3.233 -0.7171  0.1540 -0.5424
 9242SOL    HW138405   2.901   1.405   3.282  0.2774  1.4512  0.9092
 9242SOL    HW238406   2.896   1.478   3.137 -0.3978 -1.0764 -0.3784
 9243SOL     OW38407   8.218   8.944   2.586  0.1347  0.1066 -0.5148
 9243SOL    HW138408   8.147   9.002   2.625 -0.2422 -0.1775 -0.7701
 9243SOL    HW238409   8.278   8.909   2.659  0.4077  0.8739 -0.3712
 9244SOL     OW38410   1.935   1.407   2.328 -0.6086  0.0540  0.6898
 9244SOL    HW138411   1.954   1.420   2.425  0.8870  1.6456  0.2102
 9244SOL    HW238412   2.019   1.417   2.276 -1.4194 -0.6713 -0.7920
 9245SOL     OW38413   2.888   2.454   3.316 -0.1924 -0.1918 -0.6110
 9245SOL    HW138414   2.854   2.371   3.272 -1.9185 -1.3337  2.6806
 9245SOL    HW238415   2.945   2.429   3.394 -1.3655  1.7030  0.8891
 9246SOL     OW38416   0.417   0.455   0.164  0.0097 -0.0867  0.1508
 9246SOL    HW138417   0.331   0.409   0.144  0.0608 -0.7083  1.3622
 9246SOL    HW238418   0.413   0.549   0.129 -1.0817 -0.1614  0.0507
 9247SOL     OW38419   9.442   0.288   3.436  0.0177 -0.3464  0.3890
 9247SOL    HW138420   9.386   0.359   3.393 -1.6869 -0.8429  1.6952
 9247SOL    HW238421   9.528   0.278   3.387 -0.4393  1.4465 -0.8199
 9248SOL     OW38422   9.852   4.966   3.196 -0.0324  0.5427  0.4009
 9248SOL    HW138423   9.797   4.987   3.276 -1.3078  0.0723 -0.3425
 9248SOL    HW238424   9.798   4.980   3.113  1.6849  2.3665 -0.4667
 9249SOL     OW38425   7.911   8.651   5.612  0.4023  0.2948  0.1152
 9249SOL    HW138426   7.812   8.638   5.619  0.1755  1.2590 -1.1731
 9249SOL    HW238427   7.936   8.739   5.652  0.9872 -0.7342  2.0764
 9250SOL     OW38428   2.562   5.001   3.554 -0.8116 -0.4851  0.2449
 9250SOL    HW138429   2.572   4.947   3.638 -0.4953 -0.3330  0.3076
 9250SOL    HW238430   2.465   5.014   3.534 -0.9614 -3.6310 -1.4171
 9251SOL     OW38431   8.305   9.342   3.826 -0.3551  0.4162  0.2752
 9251SOL    HW138432   8.372   9.326   3.754  1.7251  1.0695  1.9944
 9251SOL    HW238433   8.265   9.255   3.855 -0.1503  0.0019 -0.6840
 9252SOL     OW38434   1.363   8.434   1.208  0.6635  0.1879  0.6244
 9252SOL    HW138435   1.345   8.531   1.221  1.3150  0.5038 -0.7181
 9252SOL    HW238436   1.457   8.422   1.175  0.0417 -0.7606 -0.8651
 9253SOL     OW38437   3.231   8.094   2.180  0.1591 -0.1646 -0.4820
 9253SOL    HW138438   3.269   8.037   2.253 -1.1928 -0.2708  0.1415
 9253SOL    HW238439   3.201   8.035   2.104  0.8867 -0.1037 -0.8269
 9254SOL     OW38440   9.217   6.044   2.686 -0.1106  0.2880 -0.1009
 9254SOL    HW138441   9.127   6.011   2.655  0.0132 -1.3927  1.2219
 9254SOL    HW238442   9.285   5.973   2.671  0.4490  0.4535  1.5150
 9255SOL     OW38443   3.599   0.144   2.060  0.1453 -0.3814 -0.2234
 9255SOL    HW138444   3.540   0.069   2.092 -0.0043 -0.2578 -0.2065
 9255SOL    HW238445   3.543   0.213   2.014  0.5500 -1.2766 -2.1133
 9256SOL     OW38446   3.687   9.706   1.931 -0.4981 -0.0433  0.5653
 9256SOL    HW138447   3.718   9.674   1.842 -0.0330  1.8808  0.0186
 9256SOL    HW238448   3.749   9.673   2.002  0.2345  0.0520 -0.0317
 9257SOL     OW38449   1.538   0.649   1.914  0.1943  0.4388  0.9535
 9257SOL    HW138450   1.499   0.642   2.006  0.6189 -0.0316  1.1070
 9257SOL    HW238451   1.608   0.578   1.903 -1.1729 -0.7128 -0.3973
 9258SOL     OW38452   2.143   8.558   0.406  0.2036  0.2130 -0.3328
 9258SOL    HW138453   2.146   8.510   0.319  0.8673  1.1384 -0.8273
 9258SOL    HW238454   2.209   8.518   0.469 -0.4197 -0.5881 -0.1730
 9259SOL     OW38455   9.857   7.245   2.204 -0.0041 -0.2432  0.6573
 9259SOL    HW138456   9.883   7.149   2.207 -0.0164 -0.2248  1.5917
 9259SOL    HW238457   9.760   7.253   2.181 -0.1935 -0.4877  1.3579
 9260SOL     OW38458   3.827   7.731   1.071  0.1864  0.0312  0.4058
 9260SOL    HW138459   3.782   7.820   1.082 -1.6593 -0.5635 -1.8911
 9260SOL    HW238460   3.827   7.683   1.159  0.0469  1.7590  1.3777
 9261SOL     OW38461   2.282   6.965   4.716  0.1030  0.2109  0.5114
 9261SOL    HW138462   2.345   6.914   4.775  0.7188  0.9455  0.5023
 9261SOL    HW238463   2.300   6.942   4.621  0.5732  0.6516  0.4908
 9262SOL     OW38464   2.061   6.917   2.393  0.4507  0.0566 -0.2032
 9262SOL    HW138465   1.993   6.927   2.320 -0.0781  2.2503  0.5644
 9262SOL    HW238466   2.026   6.957   2.477  2.2528  0.2180  0.4849
 9263SOL     OW38467   8.018   1.026   1.599 -0.2620  0.5089 -0.0317
 9263SOL    HW138468   8.011   1.117   1.640  0.7175  0.1450  0.9792
 9263SOL    HW238469   8.012   0.957   1.670 -0.6985 -0.2117 -0.7624
 9264SOL     OW38470   8.220   9.885   5.014 -0.5906 -0.1866  0.7169
 9264SOL    HW138471   8.185   9.978   5.015 -0.2026 -0.0437  2.4142
 9264SOL    HW238472   8.145   9.821   4.995 -1.1665  0.3405  1.2233
 9265SOL     OW38473   4.515   1.267   2.935 -0.0090  0.0003 -0.0685
 9265SOL    HW138474   4.553   1.264   2.843 -1.7753 -2.0606 -0.7680
 9265SOL    HW238475   4.582   1.235   3.001  0.4301 -0.8518 -0.9313
 9266SOL     OW38476   9.276   7.992   1.407 -0.5392  0.4071  0.0092
 9266SOL    HW138477   9.347   7.957   1.468  0.7461  1.6338 -0.7509
 9266SOL    HW238478   9.187   7.990   1.454  0.2395  0.2560  1.4947
 9267SOL     OW38479   0.984   1.250   4.173 -0.3812  0.3666  0.3811
 9267SOL    HW138480   1.079   1.262   4.201 -0.3636 -1.4312  1.1906
 9267SOL    HW238481   0.981   1.189   4.093 -0.7925  1.1407 -0.1942
 9268SOL     OW38482   6.747   9.550   3.605 -0.0173  0.1156  0.5163
 9268SOL    HW138483   6.681   9.527   3.676 -0.3058  1.7078  0.7806
 9268SOL    HW238484   6.817   9.478   3.599 -1.7650 -1.5922  0.2177
 9269SOL     OW38485   0.306   7.459   4.520  0.0637  0.1531 -0.0332
 9269SOL    HW138486   0.365   7.441   4.442 -0.2995 -0.1816 -0.2340
 9269SOL    HW238487   0.361   7.460   4.604  0.6213  1.5650 -0.3971
 9270SOL     OW38488   1.414   3.577   0.978  0.1334 -0.0416  0.1862
 9270SOL    HW138489   1.315   3.573   0.975  0.1293 -0.5901  0.9548
 9270SOL    HW238490   1.452   3.496   0.932  0.2313  0.1656 -0.1041
 9271SOL     OW38491   8.606   2.548   1.937 -0.4087  0.2925 -0.0268
 9271SOL    HW138492   8.578   2.552   1.841 -0.8746  0.0216  0.0962
 9271SOL    HW238493   8.705   2.545   1.942 -0.2955  2.2657 -0.4413
 9272SOL     OW38494   1.026   3.795   2.047  0.1960  0.2569 -0.7492
 9272SOL    HW138495   0.996   3.699   2.042  0.3591  0.2294 -1.2624
 9272SOL    HW238496   1.038   3.831   1.954 -2.3479  1.5723 -0.6119
 9273SOL     OW38497   0.618   7.101   5.522  0.2330 -0.2234  0.2928
 9273SOL    HW138498   0.561   7.089   5.603  0.7956 -0.8041  0.6045
 9273SOL    HW238499   0.697   7.158   5.544 -0.7646  1.4467 -0.3958
 9274SOL     OW38500   2.601   1.517   3.328  0.1516  0.6792 -0.2869
 9274SOL    HW138501   2.534   1.497   3.257 -0.9516  1.2094  0.5963
 9274SOL    HW238502   2.693   1.501   3.292 -0.4404 -0.1145 -1.4855
 9275SOL     OW38503   8.512   9.627   3.352  0.1241  0.2040  0.0571
 9275SOL    HW138504   8.518   9.720   3.315 -1.3824 -0.0915 -1.0138
 9275SOL    HW238505   8.416   9.597   3.350  0.8590 -2.1870 -1.7195
 9276SOL     OW38506   4.380   6.428   2.647  0.6509  0.7952 -0.2240
 9276SOL    HW138507   4.390   6.377   2.562 -1.4061  1.6681 -1.0252
 9276SOL    HW238508   4.443   6.505   2.648  0.6086  0.8385 -1.0035
 9277SOL     OW38509   3.496   9.356   5.119  0.2187  0.1230 -0.5338
 9277SOL    HW138510   3.538   9.339   5.208  0.2142  0.4023 -0.4780
 9277SOL    HW238511   3.547   9.428   5.071  0.3017 -0.1195 -0.8129
 9278SOL     OW38512   1.357   0.915   4.896 -0.8340 -0.1879  0.0679
 9278SOL    HW138513   1.453   0.890   4.905 -0.8238  0.0733  0.6530
 9278SOL    HW238514   1.348   1.014   4.896 -1.0138 -0.1976 -0.9060
 9279SOL     OW38515   2.576   5.993   2.190  0.1130 -0.1916  0.0385
 9279SOL    HW138516   2.549   5.898   2.207  1.2026 -0.7154 -1.0875
 9279SOL    HW238517   2.674   5.996   2.172  0.0895  1.1714  0.1509
 9280SOL     OW38518   4.597   8.817   4.958 -0.1004  0.8151  0.0878
 9280SOL    HW138519   4.677   8.844   5.013 -0.0763 -0.7245  0.8295
 9280SOL    HW238520   4.539   8.757   5.012 -1.5715  1.6064 -0.6034
 9281SOL     OW38521   6.536   8.014   1.568 -0.0554  0.2412  0.4679
 9281SOL    HW138522   6.458   8.019   1.505  1.5859  1.7347 -1.4888
 9281SOL    HW238523   6.537   8.095   1.626 -1.0260 -0.6939  1.8328
 9282SOL     OW38524   5.962   0.835   3.844  0.2383 -0.1582  0.6633
 9282SOL    HW138525   5.913   0.774   3.907 -0.5488 -0.8245 -0.5606
 9282SOL    HW238526   6.004   0.781   3.772 -0.0106  0.6978 -0.1319
 9283SOL     OW38527   2.528   9.755   1.529  0.0454 -0.1696  0.1462
 9283SOL    HW138528   2.510   9.755   1.430  2.1926  1.9475 -0.2951
 9283SOL    HW238529   2.469   9.821   1.574  1.3172  1.2297 -0.2082
 9284SOL     OW38530   5.092   7.125   3.027  0.7295 -0.5704  0.0687
 9284SOL    HW138531   5.110   7.136   2.929  1.9017 -0.6122  0.2680
 9284SOL    HW238532   5.001   7.161   3.049  0.4512 -0.5809 -1.0359
 9285SOL     OW38533   6.045   0.325   0.825  0.3996  0.3902 -0.6716
 9285SOL    HW138534   6.045   0.399   0.758  0.1214  0.0163 -1.0885
 9285SOL    HW238535   5.977   0.256   0.799 -2.6308  2.1789  2.1511
 9286SOL     OW38536   3.358   1.155   1.853  0.4109  0.4768  0.6375
 9286SOL    HW138537   3.437   1.190   1.803 -0.4450  1.8048  0.1882
 9286SOL    HW238538   3.389   1.114   1.939  2.0575 -3.1387 -1.5661
 9287SOL     OW38539   2.160   4.185   3.099 -0.1722  0.1006  0.0888
 9287SOL    HW138540   2.185   4.261   3.038  0.9944  0.5322  1.0748
 9287SOL    HW238541   2.074   4.145   3.069 -1.9055  3.1683  0.7406
 9288SOL     OW38542   3.236   0.328   2.074  0.1795 -0.2430 -0.0251
 9288SOL    HW138543   3.214   0.233   2.095 -0.7128 -0.3006 -1.2045
 9288SOL    HW238544   3.312   0.331   2.009 -0.8326 -0.1994 -1.2262
 9289SOL     OW38545   1.071   6.453   2.635  0.5228 -0.6884  0.1084
 9289SOL    HW138546   1.110   6.506   2.560 -1.3859  1.2472  0.4475
 9289SOL    HW238547   1.091   6.499   2.722 -0.9409 -0.6365  0.4218
 9290SOL     OW38548   4.183   4.318   5.035  0.0288  0.5633 -0.5959
 9290SOL    HW138549   4.275   4.347   5.009  0.0061 -0.2710 -1.6398
 9290SOL    HW238550   4.143   4.264   4.961 -0.7694 -0.2606  0.4270
 9291SOL     OW38551   2.155   9.829   0.113 -0.7451  0.5595  0.0450
 9291SOL    HW138552   2.055   9.830   0.109 -0.8548  0.0568  1.9625
 9291SOL    HW238553   2.186   9.748   0.163  0.6476  0.4975 -0.8805
 9292SOL     OW38554   2.263   5.573   2.814 -0.4908 -0.3473 -0.2166
 9292SOL    HW138555   2.338   5.631   2.780  0.0316 -1.2056 -0.5527
 9292SOL    HW238556   2.243   5.597   2.909 -0.3693  0.4782 -0.3940
 9293SOL     OW38557   1.736   0.833   1.918 -0.3854 -0.3407  0.0709
 9293SOL    HW138558   1.718   0.913   1.860 -0.6756 -0.2522  0.2807
 9293SOL    HW238559   1.654   0.775   1.921 -1.2916  0.9883  2.4812
 9294SOL     OW38560   2.146   7.189   2.779  0.1280  0.1230 -0.0317
 9294SOL    HW138561   2.073   7.125   2.754  0.7545 -0.1306 -1.2561
 9294SOL    HW238562   2.123   7.281   2.747  0.3614  0.0298 -0.4801
 9295SOL     OW38563   4.981   1.096   3.918  0.3845 -0.2538 -0.0729
 9295SOL    HW138564   5.028   1.009   3.905  2.7598  0.7523  1.5812
 9295SOL    HW238565   4.970   1.114   4.016 -2.9294 -0.1550 -0.3943
 9296SOL     OW38566   3.229   1.535   0.924 -0.2429 -0.0192 -0.4565
 9296SOL    HW138567   3.289   1.460   0.951 -1.1957 -0.0711  1.5819
 9296SOL    HW238568   3.247   1.614   0.982 -3.1028 -0.4877  1.1256
 9297SOL     OW38569   1.372   7.001   1.115  0.6631  0.6865  0.2149
 9297SOL    HW138570   1.365   6.902   1.124  1.1360  0.6658  0.3786
 9297SOL    HW238571   1.281   7.040   1.097  0.3449  0.3137  0.9803
 9298SOL     OW38572   1.733   8.649   4.874  0.4120  0.0889 -0.2953
 9298SOL    HW138573   1.741   8.597   4.959  0.2938  0.2252 -0.2005
 9298SOL    HW238574   1.797   8.726   4.876  0.4728  0.0412 -0.3685
 9299SOL     OW38575   9.195   8.760   3.351  0.2230  0.3359 -0.3499
 9299SOL    HW138576   9.273   8.722   3.401  1.5416  0.2612 -2.4119
 9299SOL    HW238577   9.150   8.829   3.408  3.2174  2.0883  0.0098
 9300SOL     OW38578   4.082   4.859   1.427 -0.0400  0.6798 -0.1460
 9300SOL    HW138579   4.173   4.859   1.386 -0.2428 -2.1042 -0.6823
 9300SOL    HW238580   4.019   4.810   1.367 -1.9805  2.7500  0.1129
 9301SOL     OW38581   1.972   8.120   1.533  0.1219 -0.2677  0.0674
 9301SOL    HW138582   1.984   8.216   1.510 -0.1730 -0.3628 -0.5019
 9301SOL    HW238583   1.922   8.074   1.459  0.1590 -0.8291  0.3877
 9302SOL     OW38584   1.044   2.527   4.312  0.7614  0.0549 -0.5672
 9302SOL    HW138585   0.953   2.486   4.298  0.0912  0.6038  1.9896
 9302SOL    HW238586   1.113   2.472   4.264 -0.5490 -2.0597 -0.1062
 9303SOL     OW38587   7.784   1.596   2.776  0.2225 -0.0609 -0.3170
 9303SOL    HW138588   7.751   1.633   2.689  1.3254 -0.1128 -0.7645
 9303SOL    HW238589   7.875   1.632   2.796  2.1375 -3.8551 -1.6751
 9304SOL     OW38590   9.349   8.566   1.035 -0.2105 -0.2109  0.0917
 9304SOL    HW138591   9.368   8.468   1.044  0.3691 -0.0714  0.4076
 9304SOL    HW238592   9.396   8.602   0.955 -0.0280 -0.0950  0.2487
 9305SOL     OW38593   3.755   4.141   5.543 -0.1327 -0.1962 -0.0700
 9305SOL    HW138594   3.770   4.163   5.640 -0.5977  2.8967 -0.6496
 9305SOL    HW238595   3.837   4.097   5.506  1.1223  1.1024  1.0703
 9306SOL     OW38596   8.507   9.237   0.511 -0.3278  0.4296  0.5631
 9306SOL    HW138597   8.592   9.259   0.558  0.2179  0.4544 -0.4112
 9306SOL    HW238598   8.508   9.142   0.481 -0.5823  0.4630  0.4347
 9307SOL     OW38599   9.576   0.622   5.557 -0.1948  1.3887  0.1407
 9307SOL    HW138600   9.603   0.527   5.539  0.7050  1.5832  0.4207
 9307SOL    HW238601   9.612   0.650   5.646 -0.5621  1.9552  0.1086
 9308SOL     OW38602   3.171   6.664   4.736  0.0842 -0.0903  0.5177
 9308SOL    HW138603   3.087   6.640   4.785 -1.9674  3.8461 -0.8357
 9308SOL    HW238604   3.234   6.708   4.800  0.7076 -2.1213  1.3179
 9309SOL     OW38605   3.706   7.815   0.059  0.3774  0.1475  0.3383
 9309SOL    HW138606   3.620   7.766   0.071  0.4961 -0.1632 -0.0432
 9309SOL    HW238607   3.776   7.776   0.118  0.8616 -1.1269 -1.0482
 9310SOL     OW38608   5.838   8.586   2.762  0.1851 -0.0183  0.4320
 9310SOL    HW138609   5.832   8.628   2.671 -0.1558  0.0175  0.4686
 9310SOL    HW238610   5.908   8.633   2.816 -1.5424  1.7988  1.1490
 9311SOL     OW38611   3.306   2.996   3.077  0.3139 -0.2124  0.3749
 9311SOL    HW138612   3.281   3.075   3.021  1.6887  0.3259  0.4959
 9311SOL    HW238613   3.349   3.027   3.162 -1.2581 -1.0421  1.4831
 9312SOL     OW38614   8.687   7.655   1.851  0.0907  0.2626  0.4785
 9312SOL    HW138615   8.719   7.693   1.938  0.7660  1.0523 -0.1044
 9312SOL    HW238616   8.765   7.644   1.789 -0.4967  0.4457 -0.3049
 9313SOL     OW38617   8.098   1.344   2.211 -0.1091  0.1442  0.0850
 9313SOL    HW138618   8.172   1.404   2.179 -0.2690 -0.2638 -1.1132
 9313SOL    HW238619   8.138   1.263   2.255  0.2192 -0.5232 -1.3765
 9314SOL     OW38620   3.730   3.247   1.553  0.2361  0.0396  0.4908
 9314SOL    HW138621   3.816   3.299   1.547  0.3039 -0.0450  0.7200
 9314SOL    HW238622   3.680   3.257   1.467 -0.4840  1.7449  1.0880
 9315SOL     OW38623   2.891   6.829   2.800  0.0079 -0.1445  0.3885
 9315SOL    HW138624   2.988   6.805   2.801 -0.3217 -1.5462 -0.5297
 9315SOL    HW238625   2.842   6.770   2.736 -1.4234  0.6903  0.6821
 9316SOL     OW38626   2.242   6.708   2.309  0.0032  0.3654  0.0967
 9316SOL    HW138627   2.191   6.780   2.355  0.1446  0.6993 -0.2745
 9316SOL    HW238628   2.291   6.745   2.231 -0.0978 -0.1739 -0.2283
 9317SOL     OW38629   1.645   0.248   0.114  0.0830  0.7288 -0.3342
 9317SOL    HW138630   1.590   0.282   0.191  0.8775  0.3371  0.4096
 9317SOL    HW238631   1.717   0.188   0.148 -1.9697 -2.6711 -1.7116
 9318SOL     OW38632   2.672   6.091   1.872  0.4885 -0.2654  0.1865
 9318SOL    HW138633   2.683   6.065   1.968  0.5026 -0.6844  0.0721
 9318SOL    HW238634   2.654   6.189   1.866 -1.4191 -0.5643  0.7614
 9319SOL     OW38635   2.548   9.928   0.697 -0.0599 -0.4575  0.2300
 9319SOL    HW138636   2.570   9.833   0.720  0.2289  0.2292  2.9550
 9319SOL    HW238637   2.626   9.986   0.720 -1.0270  0.7140  0.5585
 9320SOL     OW38638   0.878   6.480   1.146 -0.0387 -0.2074  0.4027
 9320SOL    HW138639   0.819   6.508   1.070  0.1491  1.3184  0.8006
 9320SOL    HW238640   0.829   6.491   1.232  0.2888 -0.4348  0.6184
 9321SOL     OW38641   8.021   1.251   3.950  0.2241  0.0797 -0.0061
 9321SOL    HW138642   8.045   1.173   4.007  0.2616  0.1888  0.1286
 9321SOL    HW238643   8.064   1.334   3.987  0.5365  0.0952 -0.3951
 9322SOL     OW38644   8.226   1.909   2.082  0.3471  0.2842  0.7357
 9322SOL    HW138645   8.202   2.006   2.093 -1.0812 -0.1208  1.3010
 9322SOL    HW238646   8.311   1.890   2.130  1.0632  1.4394 -0.0635
 9323SOL     OW38647   5.623   6.691   2.331  0.4304  0.2845 -0.3067
 9323SOL    HW138648   5.591   6.596   2.325  2.2900 -0.2652 -1.9766
 9323SOL    HW238649   5.547   6.753   2.315 -0.3340 -0.9601 -1.5910
 9324SOL     OW38650   3.965   0.256   1.453 -0.7598  0.1598 -0.7014
 9324SOL    HW138651   3.949   0.302   1.540 -1.8770 -0.3635 -0.6169
 9324SOL    HW238652   3.922   0.166   1.454 -1.3180  0.3905 -2.0105
 9325SOL     OW38653   0.114   8.970   1.468  0.4792 -0.2836  0.3973
 9325SOL    HW138654   0.205   8.953   1.432 -0.0631 -0.0878 -1.1126
 9325SOL    HW238655   0.100   9.069   1.480  0.7427 -0.3615  1.3953
 9326SOL     OW38656   3.654   7.746   1.768  0.2985  0.3363  0.0863
 9326SOL    HW138657   3.738   7.693   1.777  0.3455  0.3850 -0.0671
 9326SOL    HW238658   3.658   7.826   1.829  0.4304  0.4266 -0.0411
 9327SOL     OW38659   3.317   8.680   4.636  0.2196  0.2347  0.1445
 9327SOL    HW138660   3.336   8.740   4.558  3.1475  0.3893  0.8919
 9327SOL    HW238661   3.290   8.735   4.715  2.0390  0.5578  0.5763
 9328SOL     OW38662   1.720   6.188   3.490 -0.1968  0.4403 -0.1473
 9328SOL    HW138663   1.766   6.249   3.554  1.3171  2.5859 -3.1443
 9328SOL    HW238664   1.627   6.219   3.474 -0.8896 -0.6282  1.6208
 9329SOL     OW38665   9.775   8.169   2.390 -0.2014  0.8845  0.9439
 9329SOL    HW138666   9.859   8.161   2.336  0.2301 -2.3874  1.9737
 9329SOL    HW238667   9.696   8.177   2.328  0.6641  1.6529 -0.0673
 9330SOL     OW38668   7.506   1.528   2.908  0.0831 -0.0462 -0.6417
 9330SOL    HW138669   7.455   1.588   2.970  0.0146 -1.0236  0.2597
 9330SOL    HW238670   7.565   1.584   2.850 -1.2510  1.0256 -1.0098
 9331SOL     OW38671   1.525   3.990   1.509 -0.1550 -0.0971 -0.3102
 9331SOL    HW138672   1.463   3.973   1.586 -0.6494 -2.0291 -1.0958
 9331SOL    HW238673   1.486   4.060   1.449 -0.7365 -0.0382  0.1346
 9332SOL     OW38674   9.029   5.795   2.129  0.3890  0.3961  0.3119
 9332SOL    HW138675   8.998   5.705   2.098  1.2854  0.7352 -1.6403
 9332SOL    HW238676   8.952   5.858   2.130 -0.5944 -0.7231  3.2049
 9333SOL     OW38677   8.108   0.434   5.288 -0.7469 -0.3859  0.2651
 9333SOL    HW138678   8.069   0.410   5.377 -0.4687 -0.1826  0.4450
 9333SOL    HW238679   8.110   0.534   5.279  2.2914 -0.2945  1.4203
 9334SOL     OW38680   7.197   9.562   5.451 -0.4021  0.1913  0.3847
 9334SOL    HW138681   7.132   9.630   5.417 -0.1398 -0.1320 -0.7816
 9334SOL    HW238682   7.236   9.511   5.374  0.4319 -0.3485  1.1474
 9335SOL     OW38683   2.652   2.837   5.424 -0.7984 -0.7089 -0.0597
 9335SOL    HW138684   2.623   2.884   5.341  0.1657 -0.9679 -0.5546
 9335SOL    HW238685   2.742   2.871   5.451 -2.0411  0.9418  2.1104
 9336SOL     OW38686   2.077   0.160   3.987 -0.1226 -0.8222 -0.6470
 9336SOL    HW138687   2.016   0.112   3.925 -1.5284  0.8877 -0.6070
 9336SOL    HW238688   2.149   0.206   3.935 -1.3430  0.6720 -1.0328
 9337SOL     OW38689   6.158   9.435   4.168 -0.5661 -0.1376  0.0368
 9337SOL    HW138690   6.169   9.402   4.074 -1.6883 -0.5974  0.0652
 9337SOL    HW238691   6.244   9.475   4.199  0.0573 -0.7224 -0.9044
 9338SOL     OW38692   2.832   6.203   2.660 -0.1310 -0.5806  0.0332
 9338SOL    HW138693   2.781   6.195   2.746 -1.2101 -0.2357 -0.5666
 9338SOL    HW238694   2.921   6.243   2.678 -0.4172 -0.3481  0.9725
 9339SOL     OW38695   6.254   1.002   2.204 -0.4385  0.1080 -0.5280
 9339SOL    HW138696   6.311   0.973   2.281 -0.7884  0.0742 -0.2806
 9339SOL    HW238697   6.305   0.991   2.119 -0.5828 -1.2509 -0.4404
 9340SOL     OW38698   0.416   8.063   2.371  0.5958 -0.2392 -0.0310
 9340SOL    HW138699   0.374   8.133   2.314 -1.0349 -1.6917 -0.6727
 9340SOL    HW238700   0.366   8.056   2.458 -0.9203 -2.3860 -1.0370
 9341SOL     OW38701   8.924   4.072   1.562  0.5510  0.2642  0.1070
 9341SOL    HW138702   8.982   3.993   1.579  0.0045 -0.4130 -1.1672
 9341SOL    HW238703   8.830   4.051   1.589  0.3850  0.4534 -0.3241
 9342SOL     OW38704   7.127   8.528   1.798 -0.0495 -0.0921  0.0634
 9342SOL    HW138705   7.084   8.531   1.888  0.1000 -0.9817  0.1657
 9342SOL    HW238706   7.226   8.531   1.808 -0.0338 -0.1172 -0.0823
 9343SOL     OW38707   4.002   2.049   0.930 -0.0488 -0.3051  0.1539
 9343SOL    HW138708   3.983   1.951   0.934 -1.1797 -0.1775 -1.6823
 9343SOL    HW238709   3.987   2.090   1.020 -2.6934 -1.2804  0.2025
 9344SOL     OW38710   9.390   5.200   2.367  0.5283 -0.3101  0.1198
 9344SOL    HW138711   9.418   5.127   2.305  0.3127  0.4894 -0.9166
 9344SOL    HW238712   9.340   5.270   2.317 -0.3236 -0.0311  1.3329
 9345SOL     OW38713   5.962   6.851   3.865  0.6902  0.4766 -0.3816
 9345SOL    HW138714   5.870   6.878   3.896  0.9324  2.7334 -1.5551
 9345SOL    HW238715   5.958   6.758   3.829 -1.0415  0.3578  0.0421
 9346SOL     OW38716   4.946   0.751   5.599  0.1472  0.5694  0.2864
 9346SOL    HW138717   4.870   0.701   5.557 -0.9400  1.5760  1.0235
 9346SOL    HW238718   4.991   0.693   5.666 -1.3319  0.6746  1.3979
 9347SOL     OW38719   7.739   9.674   2.806  0.1961  0.2714 -0.2143
 9347SOL    HW138720   7.669   9.672   2.878 -0.6452 -0.2474 -1.0478
 9347SOL    HW238721   7.777   9.582   2.794  0.3199  0.3537 -0.4546
 9348SOL     OW38722   6.798   8.554   3.097  0.1095 -0.1516 -0.5054
 9348SOL    HW138723   6.732   8.620   3.061 -0.1953  0.1407  0.5642
 9348SOL    HW238724   6.861   8.527   3.024 -0.7313  0.1250 -1.3491
 9349SOL     OW38725   3.998   0.841   3.029 -0.2258 -0.9992 -0.0455
 9349SOL    HW138726   3.935   0.828   2.953 -0.8039 -0.2838  0.3013
 9349SOL    HW238727   4.058   0.919   3.010 -1.1500 -0.0748  0.7211
 9350SOL     OW38728   3.151   9.973   1.079 -0.2920  0.2088  0.2650
 9350SOL    HW138729   3.062   9.952   1.039  0.0909  3.0922 -2.2874
 9350SOL    HW238730   3.223   9.953   1.012  0.7818  0.5310  1.3014
 9351SOL     OW38731   9.743   9.099   3.212  0.2118  0.3606  0.1838
 9351SOL    HW138732   9.716   9.184   3.257 -1.2597 -1.1552  2.1915
 9351SOL    HW238733   9.672   9.072   3.147  1.2370  1.2627 -1.3637
 9352SOL     OW38734   6.494   8.725   3.263  0.1260  0.8925 -0.1412
 9352SOL    HW138735   6.535   8.807   3.304 -3.0528  2.3124  0.3707
 9352SOL    HW238736   6.532   8.711   3.171  0.7705  2.9461 -0.2128
 9353SOL     OW38737   7.321   7.377   2.762  0.3581  0.6258 -0.0064
 9353SOL    HW138738   7.313   7.353   2.859  1.4506  0.5131  0.0713
 9353SOL    HW238739   7.231   7.378   2.719 -0.3133  2.1183  1.3586
 9354SOL     OW38740   0.494   9.680   5.612 -0.3265 -0.5209 -0.0255
 9354SOL    HW138741   0.576   9.659   5.665 -0.2769 -0.7577 -0.1950
 9354SOL    HW238742   0.520   9.701   5.518 -0.5352 -1.4624 -0.3011
 9355SOL     OW38743   8.423   8.327   3.884 -0.2649 -0.2496 -0.0029
 9355SOL    HW138744   8.347   8.289   3.936 -1.1843  0.3958 -0.8490
 9355SOL    HW238745   8.506   8.328   3.941 -1.0354 -0.3598  1.1369
 9356SOL     OW38746   3.180   8.387   4.978  0.0205 -0.0843 -0.5859
 9356SOL    HW138747   3.232   8.396   5.064 -1.5126  0.8520  0.2597
 9356SOL    HW238748   3.167   8.291   4.958  0.6382 -0.3207  0.0814
 9357SOL     OW38749   4.142   9.789   3.084  0.0613 -0.1314 -0.2073
 9357SOL    HW138750   4.236   9.824   3.082 -0.4395  1.3476  1.4001
 9357SOL    HW238751   4.078   9.866   3.087 -1.1630 -1.1489  0.0219
 9358SOL     OW38752   9.099   1.167   0.601  0.5342  0.0506  0.2354
 9358SOL    HW138753   9.116   1.223   0.520 -0.1344  2.2321  1.5575
 9358SOL    HW238754   9.094   1.071   0.575  2.0223  0.5599 -2.0483
 9359SOL     OW38755   1.651   9.781   0.339 -0.0459 -0.5257  0.0483
 9359SOL    HW138756   1.743   9.818   0.344  0.0423 -0.5895 -0.9850
 9359SOL    HW238757   1.614   9.794   0.247 -0.6751 -1.4291  0.1590
 9360SOL     OW38758   3.145   3.242   3.650  0.8135  0.2249  0.5250
 9360SOL    HW138759   3.120   3.309   3.581  1.2508  0.4809  0.6112
 9360SOL    HW238760   3.174   3.289   3.733 -0.7531 -0.0818  1.2683
 9361SOL     OW38761   3.329   7.874   3.029 -0.3808 -0.0177  0.1868
 9361SOL    HW138762   3.365   7.954   3.077 -0.2842 -0.5192  0.9709
 9361SOL    HW238763   3.265   7.903   2.958 -1.6915  0.7021  1.6146
 9362SOL     OW38764   3.127   4.363   5.331 -0.4545 -0.4384  0.4959
 9362SOL    HW138765   3.188   4.442   5.340 -0.2710 -0.5196 -0.0034
 9362SOL    HW238766   3.130   4.329   5.237  1.0020 -2.2604  1.1475
 9363SOL     OW38767   1.842   9.632   3.166  0.1345  0.7544 -0.4575
 9363SOL    HW138768   1.830   9.541   3.205 -0.3252  0.7787 -0.5395
 9363SOL    HW238769   1.873   9.695   3.238  0.3987  0.5465 -0.3897
 9364SOL     OW38770   3.983   6.309   3.452  0.1118  0.2370  0.1816
 9364SOL    HW138771   3.968   6.363   3.368 -1.4106  0.8135  0.7968
 9364SOL    HW238772   3.982   6.212   3.429 -0.0013  0.3965 -0.5173
 9365SOL     OW38773   9.713   6.172   2.806 -0.5250 -0.4378  0.5356
 9365SOL    HW138774   9.771   6.146   2.729  0.0241 -0.8149  1.0751
 9365SOL    HW238775   9.703   6.095   2.868 -1.1006 -0.1831  0.7622
 9366SOL     OW38776   3.340   4.807   2.871 -0.0389  0.1139 -0.3974
 9366SOL    HW138777   3.305   4.868   2.942  0.0299 -1.0958  0.6891
 9366SOL    HW238778   3.264   4.768   2.820 -0.0778  1.2490 -1.2374
 9367SOL     OW38779   1.346   7.150   1.794  0.2987 -0.2213  0.2372
 9367SOL    HW138780   1.381   7.184   1.707  1.7233 -1.7308  0.1924
 9367SOL    HW238781   1.298   7.223   1.842 -1.5758  0.3027 -2.3439
 9368SOL     OW38782   4.252   8.098   0.135  0.6876 -0.4098  0.3714
 9368SOL    HW138783   4.300   8.166   0.189 -0.5427 -0.5367  1.6419
 9368SOL    HW238784   4.166   8.136   0.102  1.1651 -0.5189 -1.0435
 9369SOL     OW38785   8.771   8.360   3.620  0.5260  0.3564 -0.1340
 9369SOL    HW138786   8.805   8.418   3.546  2.4628  1.7081  1.7678
 9369SOL    HW238787   8.802   8.266   3.606  1.1798  0.6744 -0.8502
 9370SOL     OW38788   1.686   6.841   1.660  0.3788 -0.4270 -0.1164
 9370SOL    HW138789   1.775   6.800   1.679  1.4497  0.9756 -1.9522
 9370SOL    HW238790   1.640   6.789   1.588 -0.0886 -0.8739  0.5026
 9371SOL     OW38791   1.960   5.979   1.186 -0.2687 -0.1173 -0.6546
 9371SOL    HW138792   1.948   5.957   1.089  0.8197  0.2839 -0.8868
 9371SOL    HW238793   2.056   5.967   1.211 -0.5139 -0.0544  0.3360
 9372SOL     OW38794   2.176   4.040   4.396  0.1561  0.4645 -0.4490
 9372SOL    HW138795   2.238   4.092   4.455  0.9965  0.9875 -1.7695
 9372SOL    HW238796   2.110   3.990   4.453 -1.3444  3.7892  0.8745
 9373SOL     OW38797   9.336   1.286   1.476  0.2164 -0.0025 -0.2621
 9373SOL    HW138798   9.409   1.266   1.410 -0.3906 -1.2502 -0.5728
 9373SOL    HW238799   9.247   1.272   1.432 -0.1939 -0.9210  0.8408
 9374SOL     OW38800   9.640   3.240   2.811 -0.0180 -0.6160  0.2484
 9374SOL    HW138801   9.728   3.204   2.843  1.4181  1.4378 -1.1834
 9374SOL    HW238802   9.566   3.204   2.867  1.7049 -2.7509  1.1949
 9375SOL     OW38803   3.482   9.179   3.309  0.2364 -0.5949  0.0472
 9375SOL    HW138804   3.449   9.273   3.304 -0.8439 -0.9708 -0.1266
 9375SOL    HW238805   3.526   9.154   3.223  0.5725 -0.2292  0.1150
 9376SOL     OW38806   7.160   1.415   3.222  0.2643 -0.2612  0.0534
 9376SOL    HW138807   7.150   1.318   3.241  0.4524 -0.7336 -2.1510
 9376SOL    HW238808   7.208   1.427   3.135 -0.4056  1.7935 -0.0524
 9377SOL     OW38809   3.452   0.610   2.015  0.3522 -0.1438  0.8679
 9377SOL    HW138810   3.377   0.669   2.042 -0.0895 -0.5606  0.5703
 9377SOL    HW238811   3.497   0.647   1.933 -0.7684 -0.8985 -0.1152
 9378SOL     OW38812   1.475   7.696   2.287  0.3223 -0.4499 -0.0167
 9378SOL    HW138813   1.508   7.737   2.203 -0.0432 -0.0964  0.0105
 9378SOL    HW238814   1.412   7.759   2.333  0.7024 -0.5393  0.6375
 9379SOL     OW38815   7.848   7.786   2.951 -0.0140  0.3081 -0.7319
 9379SOL    HW138816   7.875   7.719   3.020  0.5799  1.1244 -0.1612
 9379SOL    HW238817   7.764   7.756   2.906 -0.9580  0.2422  1.0283
 9380SOL     OW38818   3.705   8.002   1.854 -0.5272  0.2156  0.5573
 9380SOL    HW138819   3.665   8.037   1.938 -0.7646  2.2768 -0.4009
 9380SOL    HW238820   3.736   8.078   1.797 -1.1905 -1.1281 -1.6422
 9381SOL     OW38821   8.499   6.526   2.334 -0.2420 -0.1697 -0.0365
 9381SOL    HW138822   8.425   6.522   2.401 -1.3941 -1.7099 -1.3747
 9381SOL    HW238823   8.521   6.434   2.302 -1.1297  0.6768 -3.2848
 9382SOL     OW38824   2.473   3.122   0.463  0.3186 -0.1680  0.3252
 9382SOL    HW138825   2.408   3.116   0.386  0.9366  0.9533 -0.2916
 9382SOL    HW238826   2.566   3.121   0.428  0.6017  0.8580  1.0147
 9383SOL     OW38827   1.193   2.517   0.461 -0.4529  0.0489  0.2887
 9383SOL    HW138828   1.104   2.478   0.435  0.2053 -1.6726  0.5465
 9383SOL    HW238829   1.230   2.466   0.539  0.8413  0.6541  0.0816
 9384SOL     OW38830   8.204   9.547   0.161 -0.0239  0.1902  0.2042
 9384SOL    HW138831   8.194   9.451   0.186  1.8763 -0.3542 -0.9636
 9384SOL    HW238832   8.220   9.554   0.062 -0.8040  1.7534  0.1720
 9385SOL     OW38833   4.555   3.118   1.261  0.9008 -0.5047  0.1384
 9385SOL    HW138834   4.483   3.056   1.294  0.3031 -0.7815 -1.6651
 9385SOL    HW238835   4.619   3.068   1.204  0.6142  0.4404 -1.0417
 9386SOL     OW38836   2.838   3.532   0.744  0.3850 -0.1295  0.0719
 9386SOL    HW138837   2.839   3.514   0.645 -1.4510  0.7256 -0.1207
 9386SOL    HW238838   2.916   3.589   0.768 -0.4010  1.5542 -1.2678
 9387SOL     OW38839   1.201   1.115   4.479  0.1931  1.0627  0.2121
 9387SOL    HW138840   1.170   1.205   4.510 -1.6871  1.2002 -1.8573
 9387SOL    HW238841   1.148   1.044   4.526  0.2543  1.1158  0.3616
 9388SOL     OW38842   4.330   1.624   4.160 -0.5477  0.2652 -0.3619
 9388SOL    HW138843   4.316   1.693   4.232  0.2360  0.4430 -0.3752
 9388SOL    HW238844   4.346   1.535   4.203 -1.3831  0.1201 -0.3421
 9389SOL     OW38845   3.784   4.721   0.269  0.1234 -0.5493  0.6147
 9389SOL    HW138846   3.762   4.648   0.335  1.2738  0.2607  1.9338
 9389SOL    HW238847   3.781   4.809   0.316  1.3282  0.0076 -0.3264
 9390SOL     OW38848   0.745   9.783   3.691  0.2827  0.0158 -0.0913
 9390SOL    HW138849   0.673   9.852   3.681 -1.8087 -2.0593  0.1477
 9390SOL    HW238850   0.773   9.778   3.786  0.1398  0.2557 -0.0350
 9391SOL     OW38851   1.819   0.322   2.061 -0.3690 -0.3099  0.0717
 9391SOL    HW138852   1.899   0.377   2.039  1.6195 -2.8180  0.7571
 9391SOL    HW238853   1.744   0.345   1.999  0.3916  3.0779  0.3465
 9392SOL     OW38854   8.299   0.745   1.425 -0.6932  0.4620  0.2697
 9392SOL    HW138855   8.280   0.833   1.469  0.7560  1.2313 -0.5994
 9392SOL    HW238856   8.384   0.707   1.461 -0.8996 -0.2089  0.0697
 9393SOL     OW38857   0.819   7.780   4.411 -0.4823  0.2427  0.4169
 9393SOL    HW138858   0.746   7.727   4.369  0.7244 -0.4105 -0.8813
 9393SOL    HW238859   0.817   7.873   4.375 -1.1015  0.4239  0.9061
 9394SOL     OW38860   0.009   1.862   3.976  0.1835 -0.3952 -0.5009
 9394SOL    HW138861   0.011   1.957   3.942 -0.3979 -0.6047 -1.1384
 9394SOL    HW238862   0.048   1.859   4.068 -0.0154  0.5071 -0.3779
 9395SOL     OW38863   0.248   8.681   4.537  0.2572 -0.4187  0.2741
 9395SOL    HW138864   0.208   8.750   4.597 -1.5267 -0.6476 -0.6168
 9395SOL    HW238865   0.321   8.633   4.585 -0.8118 -0.2660  2.0953
 9396SOL     OW38866   7.366   0.570   4.596 -0.5548 -0.3241  0.7712
 9396SOL    HW138867   7.273   0.536   4.609 -0.2705 -0.9421  1.2174
 9396SOL    HW238868   7.372   0.663   4.634 -1.0176 -0.2357  0.6366
 9397SOL     OW38869   4.228   2.767   1.136 -0.0429 -0.9079 -0.3630
 9397SOL    HW138870   4.144   2.735   1.180  0.6164 -1.1784  0.7189
 9397SOL    HW238871   4.291   2.690   1.123  0.4653 -0.5256 -0.2069
 9398SOL     OW38872   0.781   8.343   2.833  0.1157  0.8552  0.4782
 9398SOL    HW138873   0.861   8.354   2.892 -0.8828  0.6418  1.9039
 9398SOL    HW238874   0.714   8.413   2.855 -0.9181 -0.1877  0.6741
 9399SOL     OW38875   3.543   9.584   5.534  0.0272  0.1005  0.1450
 9399SOL    HW138876   3.554   9.599   5.436  1.7840 -1.5292  0.0519
 9399SOL    HW238877   3.481   9.507   5.550 -2.1764  1.8937  0.3968
 9400SOL     OW38878   0.591   1.045   5.214  0.3693  0.6781 -0.0318
 9400SOL    HW138879   0.496   1.024   5.189 -0.2543  2.2146  1.0498
 9400SOL    HW238880   0.611   1.141   5.193  1.4059  0.6075  0.5953
 9401SOL     OW38881   0.475   8.855   5.198 -0.0329  0.6718  0.1756
 9401SOL    HW138882   0.396   8.880   5.142 -0.7521 -1.1060  0.3722
 9401SOL    HW238883   0.538   8.798   5.145  0.7007  1.3324  0.3063
 9402SOL     OW38884   3.018   2.602   4.346  0.0959  0.8312 -0.0979
 9402SOL    HW138885   2.997   2.529   4.410  0.5379  0.0148 -0.8643
 9402SOL    HW238886   3.027   2.688   4.395  0.5142  0.2050  0.9379
 9403SOL     OW38887   9.802   3.675   1.810 -0.6768 -0.6321 -0.2585
 9403SOL    HW138888   9.891   3.717   1.828  0.5402 -2.8919 -0.7930
 9403SOL    HW238889   9.741   3.693   1.888  0.2360  0.8952  0.1369
 9404SOL     OW38890   6.367   9.992   1.572 -0.5608 -0.6441 -0.4508
 9404SOL    HW138891   6.300   9.931   1.529 -0.5547 -0.8822 -0.1265
 9404SOL    HW238892   6.437  10.017   1.506 -0.0455 -1.7396 -0.3269
 9405SOL     OW38893   8.795   2.585   1.280  0.1824  0.3831  0.0302
 9405SOL    HW138894   8.716   2.610   1.224 -0.4523 -1.0080  0.2966
 9405SOL    HW238895   8.765   2.546   1.367  1.1616  0.5092  0.4394
 9406SOL     OW38896   0.655   4.404   2.658  0.1996 -0.3155 -0.4571
 9406SOL    HW138897   0.727   4.462   2.620  0.3231  0.2160  0.5804
 9406SOL    HW238898   0.694   4.343   2.727 -0.1553 -0.7903 -0.6696
 9407SOL     OW38899   2.715   4.982   0.239 -0.5556 -0.4726 -0.1332
 9407SOL    HW138900   2.732   4.986   0.338  0.4914 -1.0259 -0.2865
 9407SOL    HW238901   2.728   4.888   0.208 -0.0477 -0.1236 -0.9605
 9408SOL     OW38902   0.830   4.532   3.327  0.2301  0.1044  0.0091
 9408SOL    HW138903   0.913   4.537   3.272 -0.6162  2.8548 -1.1213
 9408SOL    HW238904   0.827   4.611   3.389  0.5311 -2.2595  3.1145
 9409SOL     OW38905   3.682   0.404   2.949  0.0563  0.2444 -0.3873
 9409SOL    HW138906   3.732   0.444   2.872 -1.0517 -1.0719 -1.8332
 9409SOL    HW238907   3.592   0.374   2.917 -0.2158 -0.7663  1.3216
 9410SOL     OW38908   8.981   9.924   2.247  0.1024  0.1304  0.4472
 9410SOL    HW138909   9.065   9.889   2.206 -0.5809 -1.4023  0.3077
 9410SOL    HW238910   9.003   9.993   2.316  1.5045 -0.7541  0.8952
 9411SOL     OW38911   6.666   8.234   4.139  0.3855  0.3465 -0.3257
 9411SOL    HW138912   6.674   8.137   4.117  0.5108  0.1668  0.4808
 9411SOL    HW238913   6.703   8.289   4.065 -0.3302 -0.2062 -1.0996
 9412SOL     OW38914   2.403   1.072   4.732 -0.5421  0.5345  0.6177
 9412SOL    HW138915   2.498   1.042   4.736 -0.3264  0.8743 -1.2587
 9412SOL    HW238916   2.359   1.058   4.821  1.2603  0.4017  1.5044
 9413SOL     OW38917   4.569   3.980   0.397 -0.7612  0.5945  0.0322
 9413SOL    HW138918   4.618   4.067   0.410  0.3894  0.1071 -0.9650
 9413SOL    HW238919   4.539   3.973   0.302  0.5621 -0.8232 -0.2902
 9414SOL     OW38920   2.854   3.861   4.393  0.3694  0.9979 -0.1564
 9414SOL    HW138921   2.827   3.900   4.304 -0.3185  1.8840  0.4233
 9414SOL    HW238922   2.909   3.779   4.379 -3.7002 -1.6197 -1.4022
 9415SOL     OW38923   2.869   8.947   4.404 -0.0609  0.5641 -0.7634
 9415SOL    HW138924   2.928   8.925   4.326  1.8719  0.1440  0.7803
 9415SOL    HW238925   2.915   8.921   4.489 -2.0409  1.2238  0.5398
 9416SOL     OW38926   7.762   9.195   3.281  0.6593  0.4661  0.6060
 9416SOL    HW138927   7.690   9.211   3.213 -0.0902  0.2189  1.3243
 9416SOL    HW238928   7.850   9.225   3.244  0.2078  0.6733 -0.3292
 9417SOL     OW38929   5.903   8.087   2.043 -0.9691  0.8656  0.2259
 9417SOL    HW138930   5.841   8.021   1.999 -1.0374  0.5635  0.7747
 9417SOL    HW238931   5.976   8.038   2.089 -0.1502  1.2344 -0.6652
 9418SOL     OW38932   3.574   2.871   0.560 -0.1262 -0.3432 -0.3574
 9418SOL    HW138933   3.648   2.812   0.593  0.8540  0.7727 -0.5041
 9418SOL    HW238934   3.614   2.948   0.510 -1.4279 -0.0144 -0.8944
 9419SOL     OW38935   4.160   3.485   3.259  0.2690  0.9348 -0.4395
 9419SOL    HW138936   4.138   3.478   3.162 -2.2563 -0.4085  0.1893
 9419SOL    HW238937   4.142   3.579   3.290  0.3930  1.1853 -1.1212
 9420SOL     OW38938   0.134   7.529   0.557 -0.4426  0.1241 -0.0449
 9420SOL    HW138939   0.231   7.506   0.563 -0.6930 -1.1200 -0.7203
 9420SOL    HW238940   0.125   7.628   0.542  0.7169  0.2492 -0.0101
 9421SOL     OW38941   0.634   8.274   1.323 -0.0555 -0.0407  0.1575
 9421SOL    HW138942   0.586   8.303   1.406 -0.2232 -1.3766  0.5316
 9421SOL    HW238943   0.640   8.351   1.260 -2.6262  0.1961  0.1333
 9422SOL     OW38944   0.594   0.344   5.203 -0.3910 -0.6584  0.4498
 9422SOL    HW138945   0.682   0.361   5.159  0.2404  1.7542  2.5684
 9422SOL    HW238946   0.577   0.413   5.273 -3.5679 -1.6261  0.7212
 9423SOL     OW38947   1.221   8.256   1.586  0.1439  0.7004  0.3712
 9423SOL    HW138948   1.245   8.245   1.489  1.9729  0.2108  0.8529
 9423SOL    HW238949   1.195   8.167   1.624 -1.1317  0.9949  0.1849
 9424SOL     OW38950   9.073   8.438   0.435  0.2202  0.5858  0.3908
 9424SOL    HW138951   9.148   8.466   0.494  0.5745 -1.0766  0.7493
 9424SOL    HW238952   9.074   8.493   0.352  0.1067  2.4881  1.6355
 9425SOL     OW38953   3.401   7.559   4.557 -0.5327 -0.4582  0.5856
 9425SOL    HW138954   3.463   7.482   4.569  1.4145  1.1553  0.9666
 9425SOL    HW238955   3.310   7.533   4.589  0.1333 -2.5352  0.8789
 9426SOL     OW38956   3.437   3.187   5.150  0.0271  0.1053  0.3818
 9426SOL    HW138957   3.439   3.210   5.247  0.5686 -0.5038  0.5179
 9426SOL    HW238958   3.426   3.271   5.096 -1.4290  0.3343  1.0093
 9427SOL     OW38959   7.582   2.245   1.746  0.0268 -0.1754  0.4133
 9427SOL    HW138960   7.613   2.163   1.794  0.7791 -0.7475 -1.0053
 9427SOL    HW238961   7.657   2.311   1.741 -0.8635  1.0155  2.3963
 9428SOL     OW38962   9.659   9.826   1.496  0.4773  0.9103 -0.1008
 9428SOL    HW138963   9.608   9.746   1.528 -0.4161  1.8788  0.9589
 9428SOL    HW238964   9.700   9.807   1.407 -0.6984 -0.3193 -0.3864
 9429SOL     OW38965   3.759   9.875   0.231  0.2677 -0.1766 -0.6643
 9429SOL    HW138966   3.781   9.794   0.285 -0.4225 -0.1230 -0.2930
 9429SOL    HW238967   3.842   9.927   0.214  0.6205 -0.6379 -0.3767
 9430SOL     OW38968   0.270   9.353   3.100  0.2871  0.0978  0.3718
 9430SOL    HW138969   0.335   9.412   3.146  0.1289  0.8985 -0.4168
 9430SOL    HW238970   0.299   9.258   3.107  1.6030  0.4633 -0.0743
 9431SOL     OW38971   0.275   1.102   5.188 -0.1106 -0.1271  0.0769
 9431SOL    HW138972   0.259   1.004   5.180 -3.1359  0.3792 -0.6973
 9431SOL    HW238973   0.189   1.151   5.175  1.6321  2.7209 -1.2073
 9432SOL     OW38974   4.469   2.154   3.345  0.2036 -0.3834 -0.1659
 9432SOL    HW138975   4.418   2.082   3.298  0.4280  0.1353 -1.2374
 9432SOL    HW238976   4.410   2.198   3.413  0.1258 -1.6950  0.6305
 9433SOL     OW38977   4.604   8.193   0.233  0.1745  0.2065  0.0577
 9433SOL    HW138978   4.603   8.146   0.145  0.1039 -1.4292  0.9143
 9433SOL    HW238979   4.518   8.244   0.244 -1.8603 -3.2655  1.0880
 9434SOL     OW38980   8.760   0.854   3.586  0.6428 -0.3544 -0.0314
 9434SOL    HW138981   8.719   0.843   3.677  0.6738  0.4394  0.0819
 9434SOL    HW238982   8.835   0.919   3.591  0.8092 -0.5033 -0.5795
 9435SOL     OW38983   2.362   5.292   1.945  0.0767 -0.1303  0.3225
 9435SOL    HW138984   2.336   5.196   1.939 -1.2569  0.2479 -0.1833
 9435SOL    HW238985   2.379   5.328   1.853  1.3862 -0.0881  0.5679
 9436SOL     OW38986   7.281   7.882   2.168 -1.1218  0.2373  0.2221
 9436SOL    HW138987   7.249   7.828   2.090  0.0953 -0.5083  0.2220
 9436SOL    HW238988   7.244   7.844   2.252  0.6379 -1.3453  0.3245
 9437SOL     OW38989   2.984   4.494   0.243 -0.4740 -0.6060  0.2598
 9437SOL    HW138990   3.024   4.540   0.323  0.4169 -0.4426 -0.2761
 9437SOL    HW238991   3.001   4.396   0.250  1.5450 -0.3540 -0.8160
 9438SOL     OW38992   2.170   0.787   1.305 -0.3637  0.1542 -0.4124
 9438SOL    HW138993   2.148   0.797   1.402 -0.0842  0.5916 -0.3915
 9438SOL    HW238994   2.269   0.782   1.294 -0.2282  2.8191 -0.9002
 9439SOL     OW38995   8.770   1.572   4.451 -0.0710 -0.2042 -0.2686
 9439SOL    HW138996   8.698   1.605   4.389  0.3996 -2.0249 -1.8253
 9439SOL    HW238997   8.847   1.635   4.449 -0.7427  0.6410 -0.2105
 9440SOL     OW38998   5.057   0.355   4.096 -0.6705 -0.1717 -0.2418
 9440SOL    HW138999   5.057   0.362   4.196 -1.9593 -1.7523 -0.0941
 9440SOL    HW239000   5.082   0.262   4.069 -0.2383  0.2669 -1.3897
 9441SOL     OW39001   1.588   2.088   0.861  0.2655 -0.0509  0.1258
 9441SOL    HW139002   1.510   2.064   0.802 -0.0642  3.1404 -0.8428
 9441SOL    HW239003   1.658   2.018   0.853 -1.7067 -2.0146 -0.4787
 9442SOL     OW39004   8.898   0.564   4.765  0.4876 -0.0272  0.7179
 9442SOL    HW139005   8.915   0.623   4.686 -0.9316  0.1540  0.5414
 9442SOL    HW239006   8.880   0.621   4.845  2.3179 -0.2027  1.2901
 9443SOL     OW39007   9.620   7.851   2.698 -0.2988 -0.0440 -0.1037
 9443SOL    HW139008   9.686   7.819   2.766 -0.7457 -0.9538 -0.0956
 9443SOL    HW239009   9.607   7.781   2.628  2.5277  2.1020 -2.9016
 9444SOL     OW39010   7.723   0.377   3.722  0.4448  0.3798 -0.0149
 9444SOL    HW139011   7.741   0.304   3.656  0.6807  2.1948 -1.9937
 9444SOL    HW239012   7.646   0.351   3.781 -0.9204 -0.5280 -2.1563
 9445SOL     OW39013   9.071   8.946   1.417 -0.3583 -0.0566 -0.0847
 9445SOL    HW139014   9.151   8.952   1.356  2.7412  0.1604  3.8320
 9445SOL    HW239015   9.041   8.851   1.423 -0.7528 -0.0753 -1.9418
 9446SOL     OW39016   0.862   2.888   2.853  0.2604 -0.0289 -0.1031
 9446SOL    HW139017   0.802   2.872   2.931  0.0700  1.3464  0.0535
 9446SOL    HW239018   0.808   2.926   2.778  0.8005  0.5256 -0.2118
 9447SOL     OW39019   6.265   7.955   2.956 -0.5572 -0.6989  0.5974
 9447SOL    HW139020   6.167   7.970   2.944 -0.7638 -2.0927  0.5440
 9447SOL    HW239021   6.285   7.943   3.054 -0.5252 -1.0531  0.5464
 9448SOL     OW39022   6.216   8.184   1.681  0.0612 -0.4060  0.0004
 9448SOL    HW139023   6.182   8.223   1.767 -0.1144  2.9511 -1.4933
 9448SOL    HW239024   6.314   8.203   1.673 -0.1111  0.1010 -0.9363
 9449SOL     OW39025   3.994   6.638   1.452 -0.1400 -0.1812  0.3518
 9449SOL    HW139026   4.027   6.732   1.459 -0.2255 -0.1761  0.6996
 9449SOL    HW239027   3.894   6.637   1.454 -0.1269 -0.3278  1.0063
 9450SOL     OW39028   2.270   1.593   1.313 -0.1258 -0.4801 -0.0189
 9450SOL    HW139029   2.357   1.543   1.319  0.0403 -0.0459  1.2716
 9450SOL    HW239030   2.288   1.690   1.302 -0.4551 -0.4267 -0.0971
 9451SOL     OW39031   2.891   5.453   1.443  0.3381 -0.0619 -0.0538
 9451SOL    HW139032   2.932   5.541   1.420  0.8905 -0.9739 -2.7661
 9451SOL    HW239033   2.791   5.461   1.439  0.3642  0.6566  0.6296
 9452SOL     OW39034   1.201   5.369   2.127 -0.2341  0.1436 -0.4997
 9452SOL    HW139035   1.300   5.387   2.130  0.0235 -1.4149  1.1932
 9452SOL    HW239036   1.168   5.380   2.033  1.9077 -1.1284 -1.4395
 9453SOL     OW39037   2.716   3.545   2.050 -0.6576 -0.0870 -0.1041
 9453SOL    HW139038   2.669   3.483   1.987 -0.0607 -0.0136 -0.6286
 9453SOL    HW239039   2.650   3.607   2.092 -1.3727 -1.6442  1.0706
 9454SOL     OW39040   8.794   8.819   2.093 -0.6051 -0.2107 -0.0334
 9454SOL    HW139041   8.797   8.862   2.003  2.3071  0.5747  0.3994
 9454SOL    HW239042   8.812   8.888   2.164  3.0436 -1.8442  0.7428
 9455SOL     OW39043   3.036   8.612   2.378 -0.6889  0.1196 -0.4382
 9455SOL    HW139044   3.056   8.592   2.474 -1.0571  0.2348 -0.3396
 9455SOL    HW239045   3.122   8.619   2.328 -0.5015 -0.1520 -0.1596
 9456SOL     OW39046   8.171   6.970   1.626  0.1574 -0.5688 -0.2660
 9456SOL    HW139047   8.250   6.981   1.565 -0.1111 -1.1148 -0.7216
 9456SOL    HW239048   8.127   7.058   1.638  2.4961  0.3111  2.2977
 9457SOL     OW39049   0.012   9.116   0.785 -0.0231 -0.5317  0.5980
 9457SOL    HW139050  -0.001   9.036   0.727  1.8347  0.3159 -1.0534
 9457SOL    HW239051   0.096   9.106   0.838  0.8038  0.7592 -0.4280
 9458SOL     OW39052   0.294   1.713   0.803 -0.7602 -0.1707  0.1008
 9458SOL    HW139053   0.244   1.680   0.883 -0.4639 -1.9436 -0.4214
 9458SOL    HW239054   0.392   1.708   0.821 -0.7174  3.2251  1.0915
 9459SOL     OW39055   6.703   3.879   0.969  0.4862 -0.1945  0.9574
 9459SOL    HW139056   6.708   3.808   1.039 -0.1447 -0.4373  0.7599
 9459SOL    HW239057   6.717   3.837   0.879  1.1867  0.0985  0.9281
 9460SOL     OW39058   1.272   9.769   2.573  0.0191  0.4162  0.1029
 9460SOL    HW139059   1.243   9.808   2.485  3.7985  0.9015 -1.0182
 9460SOL    HW239060   1.211   9.693   2.597 -1.3635  0.5560 -2.7252
 9461SOL     OW39061   1.260   9.840   1.328 -0.2730  0.6322 -0.5628
 9461SOL    HW139062   1.205   9.805   1.252 -0.1149  1.1901 -0.9388
 9461SOL    HW239063   1.199   9.881   1.396 -0.4840 -0.6126  0.0203
 9462SOL     OW39064   8.039   8.272   4.397  0.1190 -0.1642  0.6222
 9462SOL    HW139065   8.048   8.365   4.359  0.2268 -0.0546  0.9110
 9462SOL    HW239066   8.019   8.208   4.323 -1.0000  0.2469  0.5567
 9463SOL     OW39067   3.473   0.006   3.716 -0.4317  0.1051 -0.0356
 9463SOL    HW139068   3.485   0.079   3.783 -0.7233 -0.9342  1.1568
 9463SOL    HW239069   3.538  -0.068   3.735 -1.6510 -0.9382  0.1259
 9464SOL     OW39070   0.685   3.394   2.422  0.4920  0.1804  0.1111
 9464SOL    HW139071   0.738   3.438   2.495 -0.6354  1.9660 -0.1216
 9464SOL    HW239072   0.663   3.462   2.352  1.3466 -1.4581 -1.7799
 9465SOL     OW39073   8.131   9.567   2.218  0.1456  0.0453 -0.0788
 9465SOL    HW139074   8.198   9.556   2.146 -1.4019 -0.7464 -1.4343
 9465SOL    HW239075   8.114   9.479   2.263  0.0380  0.2432  0.2772
 9466SOL     OW39076   0.583   0.347   4.505 -0.0584 -0.1022  0.1866
 9466SOL    HW139077   0.511   0.381   4.444 -0.3318 -0.2088  0.4447
 9466SOL    HW239078   0.634   0.424   4.543  0.0122 -0.0290 -0.0550
 9467SOL     OW39079   2.941   2.758   4.092  0.5049  0.0508 -0.0227
 9467SOL    HW139080   2.989   2.844   4.106  0.7985 -0.3448  1.5456
 9467SOL    HW239081   2.969   2.692   4.163  0.5803 -1.4554 -1.4172
 9468SOL     OW39082   9.880   5.271   2.690  0.2832 -0.0883  0.3212
 9468SOL    HW139083   9.977   5.292   2.702  0.4180  0.3388 -1.4333
 9468SOL    HW239084   9.862   5.251   2.594 -0.9870 -2.1722  0.9568
 9469SOL     OW39085   8.086   6.627   1.946 -0.7215 -0.2989 -0.5846
 9469SOL    HW139086   8.114   6.581   1.861  3.3987  1.8390 -0.5420
 9469SOL    HW239087   8.081   6.726   1.930 -2.6159 -0.1250  1.0070
 9470SOL     OW39088   3.816   0.447   4.320 -0.2276  0.1485  0.2949
 9470SOL    HW139089   3.888   0.447   4.390 -1.0174 -2.3947  1.1479
 9470SOL    HW239090   3.828   0.367   4.261 -3.6399 -1.6128  1.8480
 9471SOL     OW39091   3.846   7.660   2.701 -0.2982 -0.0903  0.0099
 9471SOL    HW139092   3.788   7.712   2.638 -1.2526 -0.3043  0.7102
 9471SOL    HW239093   3.811   7.669   2.794  0.3588 -0.8281  0.3315
 9472SOL     OW39094   4.297   7.917   3.656  0.2316  0.0048 -0.0988
 9472SOL    HW139095   4.263   7.830   3.693  0.7103 -0.6208 -1.1207
 9472SOL    HW239096   4.226   7.959   3.600  0.2458 -0.0583 -0.1640
 9473SOL     OW39097   2.090   9.625   5.146 -0.4397  0.3416  0.7976
 9473SOL    HW139098   2.178   9.588   5.176 -0.5466 -0.7235 -0.1853
 9473SOL    HW239099   2.071   9.594   5.053 -1.5471  1.1102  0.7637
 9474SOL     OW39100   4.252   3.526   1.126  0.3190 -0.1258 -0.1177
 9474SOL    HW139101   4.293   3.441   1.093  0.1564 -0.6486  0.9867
 9474SOL    HW239102   4.219   3.513   1.219  0.9154  1.3602  0.3235
 9475SOL     OW39103   5.643   7.352   2.975  0.0938  0.5483 -0.1906
 9475SOL    HW139104   5.629   7.420   2.904 -0.5201  0.2446 -0.3679
 9475SOL    HW239105   5.597   7.381   3.059 -0.2208  0.3325 -0.2842
 9476SOL     OW39106   2.846   3.353   2.683  0.2402 -0.0976  0.0898
 9476SOL    HW139107   2.931   3.374   2.634  0.4936 -0.2952  0.4456
 9476SOL    HW239108   2.824   3.427   2.746 -0.1837  0.2419 -0.4478
 9477SOL     OW39109   0.104   5.292   3.064 -0.0728  0.9341  0.2249
 9477SOL    HW139110   0.146   5.362   3.007 -0.7153  1.1307 -0.0123
 9477SOL    HW239111   0.012   5.272   3.030 -0.0299  0.2340  0.5049
 9478SOL     OW39112   4.975   8.684   4.775  0.6922  0.0346  0.2243
 9478SOL    HW139113   4.882   8.707   4.746  0.7659  0.1157  0.0478
 9478SOL    HW239114   5.039   8.752   4.739  0.9101 -0.4419 -0.3018
 9479SOL     OW39115   1.542   1.196   5.044 -0.4281  0.1235  0.1871
 9479SOL    HW139116   1.526   1.199   5.143  0.6846 -2.3187  0.4726
 9479SOL    HW239117   1.455   1.184   4.997 -0.7702 -0.5363  0.9725
 9480SOL     OW39118   4.997   6.551   1.697 -0.6012 -0.7069  0.6873
 9480SOL    HW139119   4.931   6.616   1.660 -0.6603 -1.0849  0.1270
 9480SOL    HW239120   4.950   6.484   1.754 -0.8937 -1.7324 -0.7217
 9481SOL     OW39121   9.078   1.490   2.714  0.0288 -0.4087  0.1166
 9481SOL    HW139122   9.015   1.479   2.637  1.3429 -0.2005 -0.9934
 9481SOL    HW239123   9.169   1.459   2.688  0.3933 -0.7450  1.7326
 9482SOL     OW39124   4.060   3.118   3.867 -0.1238  0.6960 -0.2559
 9482SOL    HW139125   4.055   3.167   3.780 -0.3799 -0.2836 -0.8057
 9482SOL    HW239126   4.153   3.122   3.902  0.1529  0.4734 -0.9554
 9483SOL     OW39127   7.153   0.179   3.046 -0.2209  0.1447  0.5243
 9483SOL    HW139128   7.176   0.276   3.057 -1.4208  0.6861 -1.4328
 9483SOL    HW239129   7.068   0.159   3.095 -0.1755  0.1900  0.6191
 9484SOL     OW39130   3.391   1.631   4.393  0.7110  0.1871  0.4907
 9484SOL    HW139131   3.469   1.671   4.343  0.5895 -1.5761 -1.1697
 9484SOL    HW239132   3.347   1.561   4.336 -0.0981 -1.1404  2.6724
 9485SOL     OW39133   2.942   3.694   5.209 -0.0725 -0.7739  0.5143
 9485SOL    HW139134   2.846   3.716   5.227  0.4427 -0.7862  3.5414
 9485SOL    HW239135   2.955   3.681   5.111 -2.5334  2.1338 -0.2839
 9486SOL     OW39136   4.358   9.864   3.484 -0.6124  0.1498 -0.3964
 9486SOL    HW139137   4.444   9.879   3.436 -0.7018  2.4032  0.0947
 9486SOL    HW239138   4.290   9.929   3.450 -1.2895  0.3073  1.2515
 9487SOL     OW39139   1.744   2.277   4.879 -0.4018  0.2985 -0.1109
 9487SOL    HW139140   1.748   2.259   4.781  2.3926  0.3193 -0.0474
 9487SOL    HW239141   1.704   2.366   4.896 -0.8798  0.2988 -1.2426
 9488SOL     OW39142   5.796   9.831   4.299 -0.0793  0.5156 -0.0515
 9488SOL    HW139143   5.843   9.917   4.319  1.0321  0.0937 -0.7889
 9488SOL    HW239144   5.795   9.816   4.200  1.0199 -1.0097  0.1444
 9489SOL     OW39145   0.015   2.073   1.066 -0.0452  0.1370  0.1129
 9489SOL    HW139146   0.071   2.064   1.148 -1.6325  0.4981  1.2495
 9489SOL    HW239147  -0.012   1.982   1.033  1.1976 -0.0373 -0.4444
 9490SOL     OW39148   4.394   4.023   4.587 -0.5097  0.1427  0.0647
 9490SOL    HW139149   4.430   3.937   4.624 -1.0485  0.1695  0.6734
 9490SOL    HW239150   4.428   4.099   4.642  2.8864  0.6538 -2.6596
 9491SOL     OW39151   2.436   2.091   0.882  0.2937 -0.0077 -0.4337
 9491SOL    HW139152   2.441   2.102   0.782 -0.0782  1.9041 -0.2599
 9491SOL    HW239153   2.529   2.086   0.919  0.4294 -1.4478 -0.9407
 9492SOL     OW39154   7.469   9.465   2.706  0.8689  0.7182  0.3995
 9492SOL    HW139155   7.480   9.564   2.702  0.7183  0.6816 -1.5287
 9492SOL    HW239156   7.559   9.421   2.697  0.8150  0.6684  0.0922
 9493SOL     OW39157   0.592   9.633   5.361  0.5228  0.0733 -0.0611
 9493SOL    HW139158   0.557   9.668   5.274  0.5581 -1.4271 -0.7022
 9493SOL    HW239159   0.606   9.534   5.353  1.3980  0.0780  1.3690
 9494SOL     OW39160   1.370   3.880   0.871  0.4945  0.0402  0.4583
 9494SOL    HW139161   1.435   3.857   0.944  0.8657 -0.3841 -0.0029
 9494SOL    HW239162   1.359   3.802   0.810  0.0568  0.3395  0.1505
 9495SOL     OW39163   0.049   0.365   4.271 -0.3892  0.0213 -0.4194
 9495SOL    HW139164   0.129   0.307   4.257 -0.4869 -0.6337  1.5851
 9495SOL    HW239165  -0.031   0.321   4.233 -0.0486 -0.0043 -1.1147
 9496SOL     OW39166   8.968   9.346   5.480  0.2446  0.1051  0.1808
 9496SOL    HW139167   9.033   9.328   5.406 -0.4867 -1.0432 -0.2137
 9496SOL    HW239168   9.003   9.418   5.540  0.9573  0.8802 -1.1529
 9497SOL     OW39169   9.157   7.346   2.374  0.8824  0.2938 -0.1576
 9497SOL    HW139170   9.122   7.255   2.398 -1.5391  0.9780 -0.9932
 9497SOL    HW239171   9.241   7.336   2.320  1.6237 -1.3936  1.2503
 9498SOL     OW39172   0.150   0.396   0.041 -0.0830 -0.2108 -0.5475
 9498SOL    HW139173   0.112   0.463   0.104 -0.9464 -1.2894  0.1064
 9498SOL    HW239174   0.119   0.416  -0.052  0.3126  0.7592 -0.4645
 9499SOL     OW39175   3.034   5.254   5.607  0.5632  0.1188 -0.1573
 9499SOL    HW139176   3.013   5.349   5.585 -2.6985 -0.6522 -0.6047
 9499SOL    HW239177   3.080   5.250   5.696  0.4646  2.0863  0.0101
 9500SOL     OW39178   3.153   8.087   4.197 -0.3207 -0.1190  0.5192
 9500SOL    HW139179   3.169   8.016   4.129  0.6082  0.0974  0.5109
 9500SOL    HW239180   3.195   8.061   4.284 -1.3583 -0.3165  0.9679
 9501SOL     OW39181   3.521   0.218   5.606  0.1845 -0.0545  0.1310
 9501SOL    HW139182   3.601   0.172   5.644  0.6704  0.9797  0.3767
 9501SOL    HW239183   3.439   0.189   5.655  0.4878 -0.6431  0.2943
 9502SOL     OW39184   1.685   4.622   2.991  0.6257  0.4920 -0.5426
 9502SOL    HW139185   1.664   4.719   3.004 -1.3572  0.0268 -0.0760
 9502SOL    HW239186   1.752   4.592   3.058  1.8340  1.7220 -1.1878
 9503SOL     OW39187   4.851   9.201   2.594 -0.1123 -0.0169 -0.3795
 9503SOL    HW139188   4.889   9.241   2.511  1.3817  0.6605  0.6110
 9503SOL    HW239189   4.751   9.199   2.587  0.0010 -0.2117 -2.2845
 9504SOL     OW39190   1.389   9.726   1.881 -0.3979 -0.6055 -0.2585
 9504SOL    HW139191   1.360   9.643   1.930 -0.7235 -2.2237 -3.1091
 9504SOL    HW239192   1.324   9.746   1.808  0.1765  1.6678 -0.1590
 9505SOL     OW39193   1.688   4.167   3.160 -0.3435 -0.1076 -0.1682
 9505SOL    HW139194   1.676   4.075   3.122  1.5666 -0.0579 -0.9175
 9505SOL    HW239195   1.769   4.169   3.217  0.0103  1.2998 -0.7026
 9506SOL     OW39196   2.480   8.930   3.110  0.5587 -0.8473  0.2114
 9506SOL    HW139197   2.419   8.905   3.035 -0.6290 -1.9517  1.5069
 9506SOL    HW239198   2.446   9.014   3.154  1.9368  0.4894 -1.2235
 9507SOL     OW39199   7.612   1.146   0.336  0.2260  0.2796  0.4499
 9507SOL    HW139200   7.678   1.208   0.380  0.2878  0.8638 -0.4617
 9507SOL    HW239201   7.528   1.144   0.389  0.9544 -0.4223  1.5959
 9508SOL     OW39202   1.023   9.772   5.225  0.2891  0.1493 -0.6195
 9508SOL    HW139203   1.090   9.711   5.268  0.6263  1.6116  0.9979
 9508SOL    HW239204   0.942   9.779   5.284  0.1802  1.1037 -0.8695
 9509SOL     OW39205   4.515   2.927   1.540 -0.5356  0.0795 -0.2786
 9509SOL    HW139206   4.459   2.904   1.621  1.2172  0.6217  1.1042
 9509SOL    HW239207   4.456   2.966   1.470 -2.2064 -0.9971  0.4764
 9510SOL     OW39208   7.910   2.552   1.673  0.2880 -0.7269  0.2349
 9510SOL    HW139209   7.992   2.601   1.642  0.2436 -1.2245 -0.7019
 9510SOL    HW239210   7.872   2.598   1.753 -0.1784  1.2238 -1.0572
 9511SOL     OW39211   4.686   8.839   1.828 -0.3044  0.0541 -0.1480
 9511SOL    HW139212   4.595   8.799   1.830  0.1671 -0.9513  2.0606
 9511SOL    HW239213   4.747   8.783   1.771 -0.0470 -1.5314  1.6578
 9512SOL     OW39214   8.630   8.821   3.701 -0.1079  0.0127 -0.2105
 9512SOL    HW139215   8.712   8.782   3.659  0.5961  0.7725  0.4438
 9512SOL    HW239216   8.557   8.753   3.701  0.3956 -0.5286 -1.1790
 9513SOL     OW39217   1.113   5.337   1.124  0.5523  0.1475  0.0531
 9513SOL    HW139218   1.109   5.319   1.025  0.3641  0.5227 -0.0068
 9513SOL    HW239219   1.106   5.435   1.141  2.7110  0.2946  0.3198
 9514SOL     OW39220   6.975   9.598   1.151 -0.6442 -0.0710 -0.0086
 9514SOL    HW139221   7.048   9.608   1.218 -0.1683 -1.1766 -0.3576
 9514SOL    HW239222   6.889   9.631   1.191 -0.2281 -0.0490  0.8879
 9515SOL     OW39223   0.963   2.444   0.282  0.5408  0.4798  0.6703
 9515SOL    HW139224   1.017   2.418   0.202  1.8077 -0.7224  1.8904
 9515SOL    HW239225   0.915   2.364   0.318 -0.1388  1.0393  1.0177
 9516SOL     OW39226   7.551   9.567   2.037  0.1385 -0.2970  0.7229
 9516SOL    HW139227   7.544   9.618   2.123 -0.5666  0.5360  0.1655
 9516SOL    HW239228   7.617   9.611   1.977  2.5413 -2.2719  1.8029
 9517SOL     OW39229   0.694   9.251   1.242  0.1871  0.2950  0.0837
 9517SOL    HW139230   0.727   9.169   1.196 -1.3333  1.4882 -3.3774
 9517SOL    HW239231   0.771   9.311   1.264  1.1230 -1.1878  0.8633
 9518SOL     OW39232   7.863   6.622   3.326  0.1251  0.4381  0.2933
 9518SOL    HW139233   7.949   6.571   3.332  0.2962  0.7450  0.4526
 9518SOL    HW239234   7.816   6.621   3.414 -0.4125 -0.3817  0.0071
 9519SOL     OW39235   3.341   8.946   5.503  0.4531 -0.2348 -0.4470
 9519SOL    HW139236   3.278   8.915   5.574 -0.6001 -0.5897 -1.5127
 9519SOL    HW239237   3.373   8.866   5.451  2.2347 -0.1117  0.4600
 9520SOL     OW39238   5.277   9.943   3.062  0.3705  0.0405  0.1507
 9520SOL    HW139239   5.274   9.936   2.962  0.9228  0.2383  0.1206
 9520SOL    HW239240   5.369   9.923   3.094  0.3981  0.8363  0.5612
 9521SOL     OW39241   5.319   0.003   1.551  0.1941 -0.0437  0.0290
 9521SOL    HW139242   5.250   0.007   1.623  0.7047  0.0517  0.5101
 9521SOL    HW239243   5.320  -0.089   1.511 -1.0042  0.2607 -0.7670
 9522SOL     OW39244   3.165   1.881   4.798  0.0639  0.2262 -0.3302
 9522SOL    HW139245   3.125   1.868   4.888  1.1242  0.6287  0.2111
 9522SOL    HW239246   3.183   1.792   4.756 -1.6974  0.0438 -0.7283
 9523SOL     OW39247   1.675   2.488   1.183 -0.3525 -0.1737 -0.4579
 9523SOL    HW139248   1.642   2.502   1.276  0.4810 -0.0953 -0.1716
 9523SOL    HW239249   1.604   2.442   1.130 -1.7000  1.7956 -0.4179
 9524SOL     OW39250   7.406   9.550   0.020 -0.4987  0.3374 -0.3482
 9524SOL    HW139251   7.455   9.608  -0.046  1.2790 -0.0525  0.5812
 9524SOL    HW239252   7.308   9.553   0.002 -0.1355  1.1736 -2.2614
 9525SOL     OW39253   7.444   0.500   1.359 -0.5433  0.5171  0.1422
 9525SOL    HW139254   7.387   0.572   1.399 -1.7652  0.7410 -1.9215
 9525SOL    HW239255   7.530   0.539   1.327 -0.5214  0.7537  0.4856
 9526SOL     OW39256   8.774   0.885   1.542 -0.4044 -0.1801  0.3718
 9526SOL    HW139257   8.674   0.879   1.543 -0.3716 -0.6805  0.8802
 9526SOL    HW239258   8.806   0.899   1.448 -0.8680 -1.3752  0.0333
 9527SOL     OW39259   9.327   8.030   2.562 -0.0228 -0.0388  0.2793
 9527SOL    HW139260   9.272   8.061   2.639 -0.3911  3.2069 -1.2102
 9527SOL    HW239261   9.414   8.079   2.561  0.7178 -1.3423 -0.3709
 9528SOL     OW39262   9.371   9.870   4.702 -0.8008 -0.1159 -0.3022
 9528SOL    HW139263   9.409   9.937   4.765  0.9161 -1.6070  0.2872
 9528SOL    HW239264   9.308   9.810   4.751  0.3882 -1.1548 -0.0356
 9529SOL     OW39265   4.765   9.617   4.315 -0.3728 -0.0263 -0.1416
 9529SOL    HW139266   4.729   9.706   4.287  0.9577  0.7633  0.5793
 9529SOL    HW239267   4.851   9.599   4.267 -0.7425 -1.0207 -0.4347
 9530SOL     OW39268   1.549   1.052   1.303  0.7874  0.8657 -0.7563
 9530SOL    HW139269   1.575   0.971   1.252  2.7677  0.0867  1.4037
 9530SOL    HW239270   1.621   1.121   1.296 -0.3376  1.9995 -1.5686
 9531SOL     OW39271   8.962   0.588   2.956  0.2177 -0.1116  0.3975
 9531SOL    HW139272   8.873   0.600   3.001  0.4083 -1.8608  1.2555
 9531SOL    HW239273   8.994   0.677   2.923 -1.5276  0.6501  0.6866
 9532SOL     OW39274   3.355   7.533   0.275 -0.2855  0.4150 -0.0310
 9532SOL    HW139275   3.326   7.459   0.336 -1.2392  1.0770  0.3444
 9532SOL    HW239276   3.376   7.614   0.330  1.1925  0.2932 -0.4043
 9533SOL     OW39277   1.519   1.879   4.554  0.0761  0.0536 -0.3442
 9533SOL    HW139278   1.460   1.888   4.474  0.3004  0.4134 -0.4699
 9533SOL    HW239279   1.565   1.966   4.571  0.4572 -0.1858 -0.1545
 9534SOL     OW39280   5.458   0.099   1.108  0.0115 -0.1332 -0.5334
 9534SOL    HW139281   5.474   0.145   1.021  1.6435 -0.1439 -0.2547
 9534SOL    HW239282   5.531   0.033   1.125  1.5331  2.2327  2.4160
 9535SOL     OW39283   3.406   5.169   3.172 -0.3511 -0.0715 -0.4770
 9535SOL    HW139284   3.339   5.225   3.221 -0.3760  0.8720 -1.5812
 9535SOL    HW239285   3.463   5.227   3.115 -0.3739 -1.1661 -1.6451
 9536SOL     OW39286   9.050   9.110   2.280  0.0071  0.5664  0.6089
 9536SOL    HW139287   9.026   9.064   2.365 -2.3378 -0.0065 -0.3298
 9536SOL    HW239288   9.018   9.205   2.282  0.7822  0.8250  0.7393
 9537SOL     OW39289   2.613   6.135   5.595 -0.2512 -0.5145 -0.6831
 9537SOL    HW139290   2.563   6.169   5.516 -1.9545  0.8267  0.9113
 9537SOL    HW239291   2.548   6.100   5.663  0.9035  1.6752  1.6319
 9538SOL     OW39292   6.410   0.419   4.667 -0.5138  0.4897 -0.2573
 9538SOL    HW139293   6.384   0.483   4.596  2.2029 -0.1629 -1.9121
 9538SOL    HW239294   6.427   0.469   4.752  0.2255  1.8160 -1.1601
 9539SOL     OW39295   2.995   9.728   2.214  0.2135  0.1935 -0.0821
 9539SOL    HW139296   2.938   9.645   2.216 -0.1137  0.3191 -2.5306
 9539SOL    HW239297   3.025   9.750   2.307 -0.8309 -1.8835  0.7846
 9540SOL     OW39298   9.229   7.915   0.995  0.5324  0.0545  0.3980
 9540SOL    HW139299   9.325   7.886   1.003  1.2780  2.2567 -0.0313
 9540SOL    HW239300   9.219   7.971   0.913 -0.9850  0.3958  0.8107
 9541SOL     OW39301   9.751   9.641   0.084 -0.6151 -0.6301  0.0817
 9541SOL    HW139302   9.837   9.678   0.119 -1.5937  1.5427  0.2202
 9541SOL    HW239303   9.768   9.590  -0.000  0.7076  0.3695 -0.2662
 9542SOL     OW39304   2.781   8.717   3.858  0.0278 -0.2902  0.1859
 9542SOL    HW139305   2.705   8.760   3.809  0.5239 -0.1401 -0.4571
 9542SOL    HW239306   2.764   8.722   3.956  0.2191  1.6211  0.1307
 9543SOL     OW39307   8.810   6.922   1.630  0.1246  0.2721  0.5131
 9543SOL    HW139308   8.735   6.953   1.571  0.0766 -0.8758 -0.0182
 9543SOL    HW239309   8.897   6.954   1.593  0.0548 -0.0114  0.1092
 9544SOL     OW39310   7.926   3.408   1.114  0.0747 -0.2024  0.0094
 9544SOL    HW139311   7.881   3.455   1.037 -0.4966  0.2010  0.5835
 9544SOL    HW239312   7.951   3.315   1.086  1.0650  0.3836 -1.0809
 9545SOL     OW39313   9.816   0.073   3.838  0.3217 -0.0719 -0.1616
 9545SOL    HW139314   9.800   0.166   3.804 -1.2761  0.0340  0.8294
 9545SOL    HW239315   9.768   0.008   3.779  0.7934 -0.2085 -0.3961
 9546SOL     OW39316   3.235   8.303   5.265  0.6874  0.3826 -0.2472
 9546SOL    HW139317   3.162   8.235   5.263  1.3933 -0.3700 -0.5347
 9546SOL    HW239318   3.215   8.371   5.336 -0.3504  0.2521 -0.4126
 9547SOL     OW39319   1.854   1.153   4.116  0.1695 -0.2702 -0.4057
 9547SOL    HW139320   1.898   1.110   4.194 -0.2476  2.4512  1.4165
 9547SOL    HW239321   1.765   1.109   4.099  0.2023 -0.7963  0.7558
 9548SOL     OW39322   0.701   5.364   2.271 -0.7300  0.1968  0.4438
 9548SOL    HW139323   0.800   5.377   2.277 -0.6002 -0.4131 -0.3202
 9548SOL    HW239324   0.666   5.408   2.189 -0.7812 -1.3119 -0.3711
 9549SOL     OW39325   0.231   2.224   0.680  0.1509  0.1410 -0.4411
 9549SOL    HW139326   0.298   2.285   0.721 -1.1646  1.1373  0.2896
 9549SOL    HW239327   0.251   2.129   0.706  0.9969  0.4754  0.1350
 9550SOL     OW39328   4.673   2.307   2.762  0.6044 -0.0397 -0.0902
 9550SOL    HW139329   4.600   2.375   2.763  0.9844  0.3737  1.4620
 9550SOL    HW239330   4.750   2.341   2.707 -0.2919 -0.4036 -1.5814
 9551SOL     OW39331   3.110   6.132   1.247 -0.2133  0.0494 -0.1015
 9551SOL    HW139332   3.209   6.132   1.239 -0.4191  0.4796 -2.9654
 9551SOL    HW239333   3.072   6.053   1.198 -1.4006  1.0470 -0.8158
 9552SOL     OW39334   2.336   7.255   3.873 -0.2525  0.0771  0.4154
 9552SOL    HW139335   2.430   7.287   3.859  0.7092 -1.3921  3.2511
 9552SOL    HW239336   2.330   7.159   3.849 -1.1525  0.2806 -0.1798
 9553SOL     OW39337   4.586   1.627   3.480  0.3374 -0.2486  0.1638
 9553SOL    HW139338   4.535   1.558   3.533  2.2209 -1.2804  0.6685
 9553SOL    HW239339   4.569   1.614   3.383 -0.0853 -0.8141  0.3112
 9554SOL     OW39340   0.887   7.925   5.021  0.5248  0.2771 -0.2213
 9554SOL    HW139341   0.845   7.835   5.010 -0.6760  0.6624  1.0689
 9554SOL    HW239342   0.851   7.969   5.103  0.8656  2.0746 -1.0067
 9555SOL     OW39343   7.893   2.928   2.987 -0.2418 -0.2639 -0.0929
 9555SOL    HW139344   7.889   2.857   2.917 -0.2783 -1.2575  0.8889
 9555SOL    HW239345   7.802   2.938   3.028  0.7108 -2.9194  2.9055
 9556SOL     OW39346   0.603   7.193   1.724  0.1565  0.3322  0.4375
 9556SOL    HW139347   0.537   7.212   1.652 -0.1189 -0.9235  0.3464
 9556SOL    HW239348   0.655   7.111   1.701  0.7770  0.5141  1.1759
 9557SOL     OW39349   3.916   0.194   0.798  0.3950 -0.1011 -0.1886
 9557SOL    HW139350   3.945   0.131   0.726  1.1850 -0.7013  0.6442
 9557SOL    HW239351   3.861   0.267   0.758 -0.5078 -1.2966 -1.1766
 9558SOL     OW39352   9.249   8.922   3.126  0.4697  0.1980  0.0037
 9558SOL    HW139353   9.207   8.909   3.216  0.5568 -0.1762 -0.0071
 9558SOL    HW239354   9.181   8.954   3.061  0.2706 -0.1061  0.0608
 9559SOL     OW39355   2.850   6.314   3.522 -0.1451 -0.1246 -0.4516
 9559SOL    HW139356   2.768   6.347   3.568 -0.5245 -0.6532 -0.7415
 9559SOL    HW239357   2.906   6.261   3.585  0.8177  1.6467  0.2126
 9560SOL     OW39358   2.127   8.863   2.370  0.5075  0.6609 -0.4511
 9560SOL    HW139359   2.115   8.778   2.422  1.4459  1.5156  1.1980
 9560SOL    HW239360   2.153   8.841   2.276  1.3332 -0.8565  0.1196
 9561SOL     OW39361   6.518   0.167   3.999 -0.0989  0.7679  0.2343
 9561SOL    HW139362   6.468   0.187   4.084 -0.3588  0.5651  0.1284
 9561SOL    HW239363   6.597   0.229   3.992  0.2714  0.3857  0.9182
 9562SOL     OW39364   1.767   0.067   4.515 -1.1132 -0.1142  0.4012
 9562SOL    HW139365   1.791   0.154   4.472 -2.8533  0.6343  0.8917
 9562SOL    HW239366   1.733   0.004   4.445 -1.3344  0.1511  0.2673
 9563SOL     OW39367   4.426   3.640   0.626 -0.0611 -0.1612 -0.1016
 9563SOL    HW139368   4.391   3.718   0.676  2.5020  0.2551  1.1428
 9563SOL    HW239369   4.394   3.555   0.669  0.3594  0.2095  0.9702
 9564SOL     OW39370   3.868   3.291   0.858  0.1074  0.0282  0.5623
 9564SOL    HW139371   3.861   3.365   0.925 -2.5955  0.2013  0.1408
 9564SOL    HW239372   3.905   3.328   0.773  0.5397  0.4868  0.9402
 9565SOL     OW39373   8.208   8.189   4.013 -0.0170  0.0308 -0.0280
 9565SOL    HW139374   8.159   8.112   3.973 -0.3853 -0.3540  1.1313
 9565SOL    HW239375   8.144   8.264   4.031  0.1919  0.2971 -0.3834
 9566SOL     OW39376   3.451   4.258   1.313  0.0902  0.0638  0.1610
 9566SOL    HW139377   3.492   4.168   1.299  0.3770  0.3622 -1.0114
 9566SOL    HW239378   3.367   4.265   1.259  0.5121  0.7866 -0.4091
 9567SOL     OW39379   2.550   1.720   1.430  0.3106  0.1957 -0.5035
 9567SOL    HW139380   2.516   1.798   1.482 -0.5061  0.8364 -1.9534
 9567SOL    HW239381   2.589   1.752   1.344 -1.1355 -1.0637 -1.6659
 9568SOL     OW39382   7.370   8.294   4.112 -0.2894  0.2056  0.2243
 9568SOL    HW139383   7.288   8.239   4.119  0.7445 -1.2356  1.2857
 9568SOL    HW239384   7.451   8.235   4.114  0.8229  1.6886  0.6420
 9569SOL     OW39385   2.192   6.442   3.709 -0.7997 -0.0801  0.6349
 9569SOL    HW139386   2.243   6.487   3.636  0.8149 -1.2846  1.0016
 9569SOL    HW239387   2.160   6.511   3.774  0.8832  0.6501  0.7213
 9570SOL     OW39388   3.203   4.858   1.907 -0.8743 -0.0015 -0.1118
 9570SOL    HW139389   3.119   4.912   1.905  0.3196  1.8683 -1.6234
 9570SOL    HW239390   3.231   4.836   1.814  0.3366 -0.5544  0.3722
 9571SOL     OW39391   1.877   0.305   4.756  0.0466  0.1453 -0.3335
 9571SOL    HW139392   1.959   0.248   4.752 -0.2219 -0.3491  0.8374
 9571SOL    HW239393   1.835   0.310   4.666 -0.8921 -2.9744 -0.1156
 9572SOL     OW39394   0.872   8.740   5.479  0.3174  0.1982  0.2240
 9572SOL    HW139395   0.800   8.795   5.436  1.1477  0.8750 -0.3226
 9572SOL    HW239396   0.874   8.758   5.577 -0.2437  0.1900  0.2407
 9573SOL     OW39397   7.438   1.192   2.434 -0.3107 -0.0247  0.4663
 9573SOL    HW139398   7.531   1.223   2.412 -0.3496 -0.2359 -0.0112
 9573SOL    HW239399   7.400   1.251   2.505 -0.6955  1.5656 -1.0211
 9574SOL     OW39400   8.522   6.686   2.918 -0.4722  0.3624 -0.3419
 9574SOL    HW139401   8.515   6.670   2.820 -2.7703  1.5481 -0.4267
 9574SOL    HW239402   8.516   6.785   2.936 -2.7857 -0.0081  1.1378
 9575SOL     OW39403   8.862   0.759   4.534 -0.0153  0.1246  0.3761
 9575SOL    HW139404   8.881   0.705   4.452  0.2969  0.3907  0.2752
 9575SOL    HW239405   8.791   0.827   4.513 -0.2532 -0.1007  0.4457
 9576SOL     OW39406   7.967   2.311   1.349  0.4398 -0.3202  0.0089
 9576SOL    HW139407   8.053   2.364   1.349  0.7060 -0.7529  0.3353
 9576SOL    HW239408   7.891   2.372   1.325  1.2709 -0.6439 -3.6543
 9577SOL     OW39409   1.087   7.402   5.303  0.4299  0.3929  0.0679
 9577SOL    HW139410   1.110   7.305   5.308  0.5644  0.4770  1.2472
 9577SOL    HW239411   0.995   7.413   5.268  1.1484 -0.0734 -2.0277
 9578SOL     OW39412   4.805   2.973   1.532 -0.0868 -0.0343  0.3446
 9578SOL    HW139413   4.840   3.034   1.460 -0.7091  0.8169  0.7500
 9578SOL    HW239414   4.706   2.983   1.539 -0.0421 -0.1857  1.2559
 9579SOL     OW39415   3.008   9.930   1.353 -0.3331  0.1251 -0.1160
 9579SOL    HW139416   3.042   9.865   1.422 -0.9492 -0.6193 -0.5148
 9579SOL    HW239417   3.081   9.950   1.288  0.2829  0.9022  0.8079
 9580SOL     OW39418   1.083   0.708   0.492 -0.1109 -0.7840  0.1425
 9580SOL    HW139419   1.157   0.686   0.429 -1.1733 -1.6835 -0.8015
 9580SOL    HW239420   1.060   0.805   0.483  0.7956 -0.5550  0.2748
 9581SOL     OW39421   7.978   2.740   1.175 -0.0206 -0.2674 -0.1920
 9581SOL    HW139422   8.004   2.766   1.268 -0.7754 -1.2201  0.2995
 9581SOL    HW239423   7.899   2.793   1.146  0.9204  0.8448 -0.7281
 9582SOL     OW39424   4.155   7.634   4.795  0.0582 -0.0131  0.1462
 9582SOL    HW139425   4.247   7.614   4.829  0.0692 -0.4267 -0.1227
 9582SOL    HW239426   4.141   7.733   4.794  0.0918  0.0159  1.2611
 9583SOL     OW39427   4.864   1.903   3.067 -0.6062  0.0904  0.4997
 9583SOL    HW139428   4.806   1.833   3.024 -0.5340  0.4000 -0.1020
 9583SOL    HW239429   4.829   1.993   3.045  0.7586  0.3234 -0.8299
 9584SOL     OW39430   4.759   8.899   5.563  0.1941 -0.0559  0.1651
 9584SOL    HW139431   4.668   8.889   5.523  1.2916  0.6047 -2.5572
 9584SOL    HW239432   4.801   8.809   5.574 -0.3478 -0.2823  0.3881
 9585SOL     OW39433   4.503   2.976   2.864 -0.3703 -0.0110 -0.2518
 9585SOL    HW139434   4.581   3.016   2.816  0.5535 -0.8978  0.5108
 9585SOL    HW239435   4.426   3.041   2.862  1.0115  1.6815  0.7382
 9586SOL     OW39436   0.624   1.544   3.882 -0.0603 -0.2345 -0.1225
 9586SOL    HW139437   0.526   1.564   3.876  0.2008  0.4938 -2.4735
 9586SOL    HW239438   0.636   1.445   3.895 -1.1319 -0.0479  2.7366
 9587SOL     OW39439   4.142   4.740   0.691  0.1511 -0.6731 -0.7952
 9587SOL    HW139440   4.234   4.775   0.707 -0.0921 -0.5116  0.3068
 9587SOL    HW239441   4.123   4.738   0.593  1.0420  0.0188 -0.9834
 9588SOL     OW39442   0.501   7.483   4.714 -0.0517  0.0737 -0.4260
 9588SOL    HW139443   0.569   7.534   4.662 -0.7612  1.4431 -0.0516
 9588SOL    HW239444   0.545   7.439   4.792  0.7943 -0.9726 -1.4852
 9589SOL     OW39445   0.664   2.853   2.646 -0.1414  0.2221 -0.9834
 9589SOL    HW139446   0.669   2.756   2.621 -3.0399 -0.1042 -0.5131
 9589SOL    HW239447   0.602   2.900   2.584  0.8917  1.7075 -0.9114
 9590SOL     OW39448   5.097   1.753   3.406  0.2514  0.0430  0.1495
 9590SOL    HW139449   5.087   1.818   3.331  1.2842  0.8800  0.7167
 9590SOL    HW239450   5.080   1.801   3.493  2.0769 -0.1891  0.6373
 9591SOL     OW39451   9.692   0.799   5.153  0.8986  0.1051  0.1843
 9591SOL    HW139452   9.783   0.824   5.185  0.7259 -0.5066  1.1622
 9591SOL    HW239453   9.625   0.815   5.225  0.5310 -1.3906  0.2030
 9592SOL     OW39454   3.642   3.885   4.335  0.3676  0.0146  0.2372
 9592SOL    HW139455   3.702   3.964   4.340  0.1493  0.2729 -1.1657
 9592SOL    HW239456   3.552   3.913   4.302 -0.2039 -0.5573  1.2649
 9593SOL     OW39457   7.645   9.670   0.715 -0.1445  0.4141  0.0831
 9593SOL    HW139458   7.721   9.609   0.737 -0.9143  0.1788  2.1990
 9593SOL    HW239459   7.672   9.733   0.642  0.3371 -3.1685 -3.0152
 9594SOL     OW39460   2.594   4.428   2.795 -0.6370  0.7251 -0.2869
 9594SOL    HW139461   2.528   4.386   2.733 -2.2398  1.5315  0.8222
 9594SOL    HW239462   2.592   4.381   2.884 -0.1213  1.1010 -0.0709
 9595SOL     OW39463   9.585   9.205   0.577 -0.4473 -0.1843  0.4461
 9595SOL    HW139464   9.613   9.265   0.652 -0.9706 -0.7006  1.0591
 9595SOL    HW239465   9.560   9.116   0.614  0.3555 -0.7985 -0.4631
 9596SOL     OW39466   1.494   0.018   1.797  0.4650 -0.8138  0.2175
 9596SOL    HW139467   1.446   0.031   1.884  2.0926 -0.1174  1.0414
 9596SOL    HW239468   1.483  -0.077   1.767 -1.5570 -0.6168  0.2793
 9597SOL     OW39469   8.925   2.067   0.102  0.6874 -0.3167 -0.1977
 9597SOL    HW139470   8.880   2.084   0.015 -0.6742 -0.2315  0.5187
 9597SOL    HW239471   8.996   1.998   0.090  0.4389 -0.3720 -1.3517
 9598SOL     OW39472   3.197   4.711   3.736 -0.7039  0.3652 -0.0735
 9598SOL    HW139473   3.166   4.786   3.677  1.0014  1.5462  0.5199
 9598SOL    HW239474   3.181   4.624   3.689 -0.2339  1.2340 -1.8966
 9599SOL     OW39475   1.741   0.968   5.420 -0.2760 -0.6932  0.2341
 9599SOL    HW139476   1.763   0.932   5.330  0.8238 -0.0382  0.2320
 9599SOL    HW239477   1.646   0.948   5.442  0.0808 -2.9316 -0.0922
 9600SOL     OW39478   8.570   3.826   1.437  0.0055 -0.4209 -0.2203
 9600SOL    HW139479   8.525   3.738   1.456 -2.2422  0.6198 -0.5867
 9600SOL    HW239480   8.637   3.813   1.365 -1.8868 -1.4314 -1.8565
 9601SOL     OW39481   8.943   1.703   2.882 -0.8118 -0.0199  0.6420
 9601SOL    HW139482   8.850   1.676   2.907  0.3453 -3.2063  1.8345
 9601SOL    HW239483   8.967   1.663   2.794 -0.3274  0.1565  0.6934
 9602SOL     OW39484   7.444   2.274   2.052  0.0412  0.1705  0.2787
 9602SOL    HW139485   7.444   2.360   2.002 -1.7059 -0.3714 -0.7055
 9602SOL    HW239486   7.352   2.257   2.090 -0.0313 -1.9262 -0.7633
 9603SOL     OW39487   4.188   3.255   3.413 -0.9427 -0.4393  0.3356
 9603SOL    HW139488   4.205   3.165   3.375  0.2949 -0.1598  0.2004
 9603SOL    HW239489   4.178   3.321   3.339 -0.7877 -0.2899  0.4452
 9604SOL     OW39490   2.227   1.835   0.101 -0.3264  0.6565 -0.1390
 9604SOL    HW139491   2.168   1.916   0.098 -1.2283  0.1263  1.9250
 9604SOL    HW239492   2.313   1.858   0.147  0.8176  1.2630 -2.5526
 9605SOL     OW39493   7.418   9.540   1.024 -0.4811 -0.0590  0.6424
 9605SOL    HW139494   7.428   9.571   0.930 -1.1189  2.0980  1.2555
 9605SOL    HW239495   7.420   9.440   1.027  0.2409 -0.1309 -1.5625
 9606SOL     OW39496   1.646   2.069   5.480 -0.8853  0.1105 -0.4109
 9606SOL    HW139497   1.702   1.987   5.463 -1.1872  0.2030 -1.8979
 9606SOL    HW239498   1.706   2.148   5.489 -0.6608 -0.0834 -0.1870
 9607SOL     OW39499   9.018   9.673   0.742  0.4823 -0.0972 -0.2855
 9607SOL    HW139500   9.015   9.681   0.842 -1.3823  2.0883 -0.4717
 9607SOL    HW239501   9.074   9.748   0.705  0.8544 -0.6743 -0.8929
 9608SOL     OW39502   9.583   0.991   2.439 -0.2978  0.2537  0.2543
 9608SOL    HW139503   9.581   1.043   2.353  2.7562 -0.1493 -0.1386
 9608SOL    HW239504   9.538   0.903   2.425 -1.0441  0.7498 -0.5370
 9609SOL     OW39505   2.463   5.998   0.917 -0.1058 -0.8128 -0.5463
 9609SOL    HW139506   2.429   6.090   0.897 -0.1996 -0.6926  0.1765
 9609SOL    HW239507   2.386   5.936   0.931 -0.0344 -0.6512  0.5761
 9610SOL     OW39508   3.680   2.591   5.226 -0.1238  0.0355 -0.9849
 9610SOL    HW139509   3.651   2.510   5.278  0.5590  0.1023 -0.4858
 9610SOL    HW239510   3.769   2.622   5.260 -0.8900  1.6659 -0.4188
 9611SOL     OW39511   0.379   7.255   1.034 -0.3927 -0.5839 -0.3846
 9611SOL    HW139512   0.380   7.252   0.934 -2.1805  0.8023 -0.4638
 9611SOL    HW239513   0.285   7.247   1.066  0.2504 -1.7736  1.2268
 9612SOL     OW39514   1.013   0.004   4.683  0.3455 -0.4164 -0.0729
 9612SOL    HW139515   0.964   0.087   4.656  2.6986  0.7063 -0.9925
 9612SOL    HW239516   0.950  -0.059   4.729 -1.6863  1.4508 -0.2635
 9613SOL     OW39517   0.317   7.737   5.134 -0.0612 -0.1694  0.0254
 9613SOL    HW139518   0.218   7.742   5.148  0.0150 -0.4636  0.7101
 9613SOL    HW239519   0.364   7.787   5.207  0.3223 -0.9694  0.3344
 9614SOL     OW39520   1.105   7.443   3.823 -0.4806 -0.1904 -0.1863
 9614SOL    HW139521   1.095   7.456   3.724  0.7753  0.3899 -0.2429
 9614SOL    HW239522   1.066   7.521   3.871 -2.4986 -1.1709 -0.1404
 9615SOL     OW39523   3.968   6.879   3.157  0.2103 -0.1165  0.2813
 9615SOL    HW139524   3.914   6.912   3.079  1.7061  0.2564 -0.6354
 9615SOL    HW239525   3.919   6.897   3.242 -1.7912 -1.2049 -0.6151
 9616SOL     OW39526   0.680   4.800   3.378 -0.3604  0.2456 -0.4070
 9616SOL    HW139527   0.649   4.799   3.283  0.1469  0.1708 -0.5727
 9616SOL    HW239528   0.613   4.848   3.435 -1.4807 -1.1665 -0.5191
 9617SOL     OW39529   1.019   0.365   3.078  0.1563 -0.0119  0.0276
 9617SOL    HW139530   1.050   0.279   3.118  0.1800  0.1260  0.3114
 9617SOL    HW239531   1.050   0.371   2.983  0.9845  0.1189  0.3015
 9618SOL     OW39532   7.213   1.127   2.248  0.1444 -0.1488 -0.0952
 9618SOL    HW139533   7.295   1.158   2.296  0.2079  0.9528 -0.8703
 9618SOL    HW239534   7.171   1.051   2.297  1.8390 -0.9565  0.1029
 9619SOL     OW39535   4.457   3.319   2.484 -0.2034 -0.0541 -0.2688
 9619SOL    HW139536   4.458   3.304   2.386  0.0489 -2.6366  0.0864
 9619SOL    HW239537   4.504   3.243   2.530  0.6333  1.6571  1.7745
 9620SOL     OW39538   4.510   1.651   2.059 -0.2960 -0.7931 -0.1127
 9620SOL    HW139539   4.479   1.689   2.146  0.1987  0.0051 -0.2794
 9620SOL    HW239540   4.609   1.638   2.061  0.0304  1.3293 -1.3323
 9621SOL     OW39541   0.006   8.260   5.556 -0.3279 -0.5933  0.6082
 9621SOL    HW139542   0.057   8.252   5.471 -0.8206  2.1828 -0.0153
 9621SOL    HW239543   0.058   8.218   5.631  1.1166 -1.1320 -0.6816
 9622SOL     OW39544   2.452   8.599   0.379  0.3391 -0.1638  0.9408
 9622SOL    HW139545   2.401   8.671   0.331  1.0058 -0.2371  0.1165
 9622SOL    HW239546   2.542   8.588   0.337 -0.6786 -3.1839 -0.5671
 9623SOL     OW39547   3.231   8.288   2.720 -0.3798 -0.2433 -0.0138
 9623SOL    HW139548   3.139   8.263   2.749 -0.5866  0.6119  0.0845
 9623SOL    HW239549   3.262   8.224   2.649 -1.5971  0.2917 -1.0439
 9624SOL     OW39550   9.980   9.481   4.723 -0.8917  0.1675 -0.9084
 9624SOL    HW139551  10.056   9.473   4.659  2.0547  0.2400  2.4115
 9624SOL    HW239552   9.926   9.397   4.721  0.9859 -1.0572 -1.2559
 9625SOL     OW39553   1.215   4.867   0.616  0.0304 -0.5199  0.2571
 9625SOL    HW139554   1.266   4.927   0.677  0.1190  0.1622 -0.4893
 9625SOL    HW239555   1.117   4.885   0.626 -0.0160 -1.1040  0.9222
 9626SOL     OW39556   4.173   4.124   3.863 -0.4718  0.5216  0.0274
 9626SOL    HW139557   4.172   4.031   3.826  0.3200  0.6964 -0.4406
 9626SOL    HW239558   4.135   4.187   3.795 -0.2585  0.6545  0.0304
 9627SOL     OW39559   0.647   0.937   2.481  0.6064 -0.0628 -0.1241
 9627SOL    HW139560   0.578   0.892   2.537  0.0370 -0.8794 -1.4360
 9627SOL    HW239561   0.732   0.946   2.532 -0.3393  0.5840  1.3703
 9628SOL     OW39562   2.316   9.771   4.750 -0.3271  0.3925  0.0706
 9628SOL    HW139563   2.334   9.863   4.714 -1.7401 -0.2189 -2.2996
 9628SOL    HW239564   2.325   9.772   4.850  2.6418  2.3851 -0.1616
 9629SOL     OW39565   5.467   9.507   1.898 -0.1258 -0.2211  0.1901
 9629SOL    HW139566   5.369   9.526   1.896 -0.0815  0.1011  0.8267
 9629SOL    HW239567   5.494   9.481   1.991  0.3563 -0.4754 -0.0224
 9630SOL     OW39568   2.546   1.718   3.662  0.6371 -0.0746 -0.6254
 9630SOL    HW139569   2.635   1.717   3.708  0.6958  0.0654 -0.7373
 9630SOL    HW239570   2.529   1.808   3.622  0.6917 -0.2607 -1.0807
 9631SOL     OW39571   6.985   8.545   2.896  1.0507  0.7067 -0.6711
 9631SOL    HW139572   7.070   8.502   2.865  0.0288 -1.4695 -0.5413
 9631SOL    HW239573   6.918   8.543   2.822  0.0119 -0.6501  0.2829
 9632SOL     OW39574   5.777   9.870   4.042  0.1493  0.1107  0.1221
 9632SOL    HW139575   5.826   9.949   4.004 -0.1250 -0.1442 -0.7618
 9632SOL    HW239576   5.739   9.815   3.968 -0.5536 -0.2893  0.7722
 9633SOL     OW39577   3.598   8.348   1.978 -0.6392  0.9143  0.7399
 9633SOL    HW139578   3.693   8.354   2.008 -1.0426 -0.9627  2.4607
 9633SOL    HW239579   3.581   8.418   1.908  2.0946  1.0099  0.1098
 9634SOL     OW39580   7.590   3.721   1.292  0.0925 -0.3501  0.3555
 9634SOL    HW139581   7.490   3.713   1.291  0.0783 -0.1734  0.3652
 9634SOL    HW239582   7.616   3.815   1.315  0.2541 -0.2005 -0.4274
 9635SOL     OW39583   6.472   9.304   1.759  0.2362  0.0759  0.3803
 9635SOL    HW139584   6.416   9.385   1.776 -1.1456 -0.6399 -0.7028
 9635SOL    HW239585   6.526   9.318   1.675 -1.0906 -0.6892 -0.6099
 9636SOL     OW39586   3.805   7.684   4.403  0.2091  0.4459  0.0862
 9636SOL    HW139587   3.838   7.748   4.334  2.2988 -2.0397 -1.2883
 9636SOL    HW239588   3.836   7.714   4.493  0.3584  1.8437 -0.4070
 9637SOL     OW39589   3.961   2.664   3.822 -0.6671  0.1556  0.1432
 9637SOL    HW139590   3.947   2.735   3.890 -0.6452  0.5670 -0.2793
 9637SOL    HW239591   3.876   2.647   3.773 -0.1960  1.2813 -1.0947
 9638SOL     OW39592   3.216   3.410   1.659 -0.2788  0.8961 -0.8354
 9638SOL    HW139593   3.183   3.497   1.696 -0.5817  0.7351 -0.7308
 9638SOL    HW239594   3.175   3.394   1.569 -1.5709  0.0315 -0.1149
 9639SOL     OW39595   8.148   7.924   3.248  0.0771  0.0727 -0.7985
 9639SOL    HW139596   8.182   8.009   3.207 -0.7896  0.6410 -0.3709
 9639SOL    HW239597   8.145   7.935   3.348  1.2633 -0.9522 -0.6441
 9640SOL     OW39598   1.257   2.562   4.576  0.1001 -0.1032  0.0110
 9640SOL    HW139599   1.333   2.591   4.517  1.2413 -1.0638  0.9931
 9640SOL    HW239600   1.176   2.545   4.519  0.8911 -0.0417 -1.1603
 9641SOL     OW39601   9.410   6.261   1.408  0.1056 -0.3479 -0.2973
 9641SOL    HW139602   9.447   6.169   1.398 -0.2568 -0.3478 -1.7832
 9641SOL    HW239603   9.482   6.328   1.387  0.0640 -0.2971 -0.2827
 9642SOL     OW39604   8.692   8.783   0.760 -0.7273  0.6577 -0.1803
 9642SOL    HW139605   8.737   8.707   0.806  0.9082  0.9146 -1.2852
 9642SOL    HW239606   8.593   8.771   0.764 -0.4865 -1.9203 -0.9649
 9643SOL     OW39607   3.108   8.531   2.633  0.0221  0.5916  0.0657
 9643SOL    HW139608   3.085   8.554   2.727  0.3145  2.5277 -0.3157
 9643SOL    HW239609   3.161   8.446   2.631  0.7740  1.0057  1.7266
 9644SOL     OW39610   0.777   5.910   2.132 -0.9050 -0.1836  0.1812
 9644SOL    HW139611   0.827   5.888   2.049 -0.6535  0.3494  0.1914
 9644SOL    HW239612   0.712   5.984   2.114  0.6927  1.4574  0.9695
 9645SOL     OW39613   4.027   3.681   2.292  0.0482 -0.3873 -0.0655
 9645SOL    HW139614   4.025   3.678   2.192 -0.2237 -1.0515 -0.0386
 9645SOL    HW239615   4.014   3.589   2.329  2.6552 -0.5508  0.5472
 9646SOL     OW39616   7.397   8.804   1.281  0.4558  0.7646 -0.3147
 9646SOL    HW139617   7.358   8.769   1.367 -1.5199  0.8729 -1.1382
 9646SOL    HW239618   7.434   8.895   1.296 -1.4532  1.4985  0.0432
 9647SOL     OW39619   2.341   7.848   0.665 -0.6709 -0.7702 -0.3590
 9647SOL    HW139620   2.263   7.909   0.648 -1.0361 -1.1952 -0.2321
 9647SOL    HW239621   2.307   7.756   0.683 -0.1930 -0.7214  0.8372
 9648SOL     OW39622   7.036   0.117   4.557  0.2759  0.1555  0.1548
 9648SOL    HW139623   7.078   0.029   4.579  1.9965  0.7081 -0.8178
 9648SOL    HW239624   7.039   0.131   4.458  0.0484  1.3280  0.3115
 9649SOL     OW39625   5.753   9.116   3.728 -0.2114 -0.0196 -0.3833
 9649SOL    HW139626   5.805   9.098   3.645 -0.7064 -0.6292 -0.5668
 9649SOL    HW239627   5.815   9.146   3.800  0.4513 -1.0927 -0.4942
 9650SOL     OW39628   1.620   8.709   5.209  0.0840 -0.0352  0.5505
 9650SOL    HW139629   1.521   8.711   5.222 -0.2471 -0.9848 -1.5343
 9650SOL    HW239630   1.652   8.614   5.218  0.1570 -0.3951 -2.8180
 9651SOL     OW39631   2.441   3.900   4.656 -0.7037  0.2952  0.1140
 9651SOL    HW139632   2.518   3.884   4.595 -0.6577  3.0275 -0.6599
 9651SOL    HW239633   2.467   3.966   4.727 -2.7868  2.8279 -1.3487
 9652SOL     OW39634   3.571   9.629   5.278 -0.1237  0.1962  0.2672
 9652SOL    HW139635   3.581   9.582   5.190  0.5002 -0.1389  0.5167
 9652SOL    HW239636   3.568   9.728   5.262  0.0345  0.1382 -0.1256
 9653SOL     OW39637   0.725   0.211   0.431  0.1342 -0.1015 -0.7270
 9653SOL    HW139638   0.768   0.239   0.517  1.2662 -1.3958 -0.8462
 9653SOL    HW239639   0.647   0.269   0.412  0.5864  0.9554  0.5839
 9654SOL     OW39640   1.041   4.610   1.819  0.1505 -0.0987 -0.1226
 9654SOL    HW139641   1.108   4.672   1.777  0.2187 -0.5586 -0.6989
 9654SOL    HW239642   1.044   4.521   1.772 -1.5133  0.1586 -0.7676
 9655SOL     OW39643   2.805   2.209   3.173 -0.5720  0.4522  0.4138
 9655SOL    HW139644   2.849   2.148   3.108 -0.0803  1.5251 -0.2831
 9655SOL    HW239645   2.709   2.182   3.186 -1.3403  1.6195 -2.5450
 9656SOL     OW39646   8.224   8.787   5.247  0.1316  0.0889  0.2391
 9656SOL    HW139647   8.171   8.867   5.218 -3.7698 -2.1812  0.7411
 9656SOL    HW239648   8.228   8.783   5.346  1.2688  0.2467  0.2020
 9657SOL     OW39649   7.866   7.053   3.360  0.1707  0.0960 -0.2139
 9657SOL    HW139650   7.769   7.065   3.384 -0.7570 -3.1393 -2.0788
 9657SOL    HW239651   7.907   6.984   3.419  0.4109 -0.9843 -1.6131
 9658SOL     OW39652   5.312   7.198   3.724 -0.8952 -0.2265  0.0022
 9658SOL    HW139653   5.398   7.223   3.679 -2.0264  0.3538 -1.9141
 9658SOL    HW239654   5.332   7.150   3.809  1.3254  0.1248 -0.2760
 9659SOL     OW39655   0.391   7.872   4.569 -0.2592  0.2686 -0.3110
 9659SOL    HW139656   0.476   7.876   4.621  0.6463  0.7131 -1.7865
 9659SOL    HW239657   0.324   7.816   4.617  0.8000  0.0886  0.9640
 9660SOL     OW39658   9.500   0.485   4.216 -0.2921  0.2050 -0.6148
 9660SOL    HW139659   9.454   0.481   4.127  0.0915  0.0429 -0.8030
 9660SOL    HW239660   9.553   0.569   4.223 -1.3507  0.8496 -0.0358
 9661SOL     OW39661   6.549   7.830   2.284 -0.6420  0.2048 -0.1703
 9661SOL    HW139662   6.547   7.754   2.218 -1.9251  1.2920 -1.4226
 9661SOL    HW239663   6.643   7.858   2.301 -0.3027 -0.0704 -1.5749
 9662SOL     OW39664   9.465   1.213   1.716 -0.1162 -0.0640  0.2241
 9662SOL    HW139665   9.431   1.254   1.631 -0.5471 -0.2365  0.3109
 9662SOL    HW239666   9.435   1.118   1.721 -0.9306  0.2321  1.0383
 9663SOL     OW39667   7.394   0.585   2.872  0.0855 -1.0558  0.0991
 9663SOL    HW139668   7.358   0.574   2.779  0.0261 -0.3210  0.0281
 9663SOL    HW239669   7.383   0.680   2.900 -3.9927 -2.1751  2.5734
 9664SOL     OW39670   4.169   9.275   0.271 -0.7286 -0.1153 -0.6151
 9664SOL    HW139671   4.197   9.259   0.176  1.1809  4.3626 -0.9349
 9664SOL    HW239672   4.250   9.272   0.330 -1.1276  2.3064  0.0869
 9665SOL     OW39673   8.715   4.122   2.229 -0.0351 -0.2439 -0.3531
 9665SOL    HW139674   8.733   4.153   2.323  0.9754 -0.4961 -0.4577
 9665SOL    HW239675   8.622   4.148   2.203  1.0238  3.4722 -0.7382
 9666SOL     OW39676   2.437   4.883   0.700 -0.4427  0.4933  0.1531
 9666SOL    HW139677   2.417   4.909   0.605  1.1988 -1.4839 -0.7847
 9666SOL    HW239678   2.389   4.799   0.723  2.1899 -1.2251 -0.3039
 9667SOL     OW39679   3.226   0.650   4.585 -0.4668  0.5327  0.4265
 9667SOL    HW139680   3.276   0.654   4.672  0.3353 -1.4707  0.0750
 9667SOL    HW239681   3.200   0.556   4.565  1.4805  0.5652 -2.6798
 9668SOL     OW39682   2.592   2.294   2.727  0.0230  0.4791  0.2763
 9668SOL    HW139683   2.649   2.260   2.652 -1.3508 -0.7736 -0.2107
 9668SOL    HW239684   2.650   2.338   2.796  1.5876 -0.9171 -0.1305
 9669SOL     OW39685   0.840   7.190   1.317  0.0000  0.2733 -0.2098
 9669SOL    HW139686   0.859   7.239   1.403  0.4656 -0.0568 -0.1265
 9669SOL    HW239687   0.789   7.251   1.255 -0.2950  0.5293  0.2776
 9670SOL     OW39688   6.603   1.484   3.161  0.3303  0.0468 -0.0715
 9670SOL    HW139689   6.687   1.432   3.152  0.3704  0.0276  0.3982
 9670SOL    HW239690   6.535   1.450   3.095  0.8081  0.3112 -0.7067
 9671SOL     OW39691   2.008   8.110   2.623  0.3088  0.4346  0.0000
 9671SOL    HW139692   1.989   8.188   2.562  0.5229  0.8091  0.4071
 9671SOL    HW239693   2.107   8.093   2.625  0.0428 -1.6366 -2.2748
 9672SOL     OW39694   0.834   5.295   3.033  0.2157 -0.0645  0.4130
 9672SOL    HW139695   0.829   5.214   3.091 -2.0777  0.3135  0.7951
 9672SOL    HW239696   0.823   5.267   2.937  1.3586 -0.4013  0.3745
 9673SOL     OW39697   7.716   1.280   2.582 -0.1514  0.6791 -0.0756
 9673SOL    HW139698   7.808   1.302   2.550 -0.2741 -0.0504 -0.9653
 9673SOL    HW239699   7.654   1.354   2.559 -0.0534  0.5652 -0.7241
 9674SOL     OW39700   8.948   2.738   2.354  0.8462 -0.0040  0.2465
 9674SOL    HW139701   9.043   2.761   2.375  0.7427 -1.0581  1.9575
 9674SOL    HW239702   8.937   2.639   2.353  0.5120 -0.0130 -3.5245
 9675SOL     OW39703   1.756   1.807   0.898 -0.3649  0.2937  0.2405
 9675SOL    HW139704   1.832   1.745   0.917  0.7787  1.2138 -1.2502
 9675SOL    HW239705   1.688   1.760   0.842  0.5014  0.3615 -0.8943
 9676SOL     OW39706   3.751   4.081   4.665  0.1987 -0.0084 -0.6208
 9676SOL    HW139707   3.806   4.120   4.591  2.2124 -0.3085  0.6996
 9676SOL    HW239708   3.788   3.992   4.692 -0.9005 -0.1972  0.3225
 9677SOL     OW39709   1.156   9.391   2.800 -0.5681 -0.2504  0.1538
 9677SOL    HW139710   1.242   9.355   2.835 -1.7483 -1.1374  2.2189
 9677SOL    HW239711   1.079   9.344   2.844 -2.1227  0.2654 -1.9132
 9678SOL     OW39712   1.985   8.282   0.520 -0.4377 -0.0518  0.4318
 9678SOL    HW139713   2.027   8.359   0.568  0.5486  1.8349 -3.3110
 9678SOL    HW239714   1.890   8.305   0.498 -0.1548  0.0790 -0.6511
 9679SOL     OW39715   2.197   3.532   4.779  0.5232 -0.5374 -0.0301
 9679SOL    HW139716   2.284   3.579   4.796  0.1213 -0.2780  1.3736
 9679SOL    HW239717   2.209   3.434   4.789  0.3475 -0.4116  1.6914
 9680SOL     OW39718   5.347   8.678   4.068  0.8509 -0.0456 -0.2910
 9680SOL    HW139719   5.333   8.628   4.153  0.6515  0.0387 -0.2736
 9680SOL    HW239720   5.338   8.776   4.085 -0.4524 -0.0954 -0.6541
 9681SOL     OW39721   6.219   0.260   2.952 -0.3302 -0.0047  0.3665
 9681SOL    HW139722   6.126   0.284   2.927 -1.1079 -0.8211  2.3536
 9681SOL    HW239723   6.229   0.161   2.955  0.4301  0.0740  0.7371
 9682SOL     OW39724   8.756   8.371   2.040 -0.1664  0.1979 -0.6198
 9682SOL    HW139725   8.772   8.275   2.017 -0.8890  0.0373 -0.4809
 9682SOL    HW239726   8.826   8.428   1.997  1.2122 -0.5428  0.6075
 9683SOL     OW39727   8.713   7.092   2.851  0.7785 -0.3615  0.1007
 9683SOL    HW139728   8.767   7.018   2.812 -0.5512 -1.1677 -0.2072
 9683SOL    HW239729   8.636   7.114   2.792 -0.3564 -0.5367  1.4745
 9684SOL     OW39730   9.749   5.943   1.377 -0.1557  0.0931  0.0981
 9684SOL    HW139731   9.822   5.876   1.360 -0.3351 -0.0967  0.0700
 9684SOL    HW239732   9.763   5.985   1.466 -0.9138 -1.1131  0.7992
 9685SOL     OW39733   4.733   9.890   3.999  0.0820  0.3736  0.0250
 9685SOL    HW139734   4.714   9.908   4.096 -3.9535  2.2702 -1.0363
 9685SOL    HW239735   4.798   9.959   3.965  1.9278 -0.6059  1.4389
 9686SOL     OW39736   7.608   7.752   2.168  0.0824 -0.5839  0.7336
 9686SOL    HW139737   7.621   7.666   2.218 -0.4245 -1.5091 -0.7043
 9686SOL    HW239738   7.523   7.796   2.199 -0.2753 -1.1953  0.6180
 9687SOL     OW39739   1.458   6.788   5.173  0.1405 -0.4966  0.0602
 9687SOL    HW139740   1.395   6.797   5.096  0.6592 -0.8213 -0.4113
 9687SOL    HW239741   1.516   6.870   5.178 -0.0083 -0.4011  0.2090
 9688SOL     OW39742   1.295   1.996   4.301  0.1020 -0.1141 -0.2577
 9688SOL    HW139743   1.362   2.038   4.239  0.3009  0.9538  0.6854
 9688SOL    HW239744   1.215   2.054   4.308  0.2603 -0.0241  0.8334
 9689SOL     OW39745   0.356   8.361   4.275 -0.4123  0.0191 -0.6073
 9689SOL    HW139746   0.287   8.382   4.344  2.3825  0.3690  2.2301
 9689SOL    HW239747   0.396   8.271   4.293  0.6209  0.2760 -1.5503
 9690SOL     OW39748   9.438   7.447   4.357 -0.1333  0.0031 -0.3905
 9690SOL    HW139749   9.458   7.485   4.448  0.1671  2.0364 -1.2716
 9690SOL    HW239750   9.504   7.375   4.335 -0.2890 -0.5918  1.0372
 9691SOL     OW39751   9.447   9.774   0.621 -0.3629  0.1133 -0.2452
 9691SOL    HW139752   9.540   9.769   0.656 -0.3701  0.6827 -0.1461
 9691SOL    HW239753   9.394   9.696   0.655  0.8202 -1.7680 -2.5085
 9692SOL     OW39754   4.723   0.593   1.177  0.2586  0.0700 -0.4092
 9692SOL    HW139755   4.633   0.620   1.212 -0.2331 -0.6331 -1.1185
 9692SOL    HW239756   4.730   0.493   1.178  1.8662  0.1696  1.7342
 9693SOL     OW39757   3.568   0.267   3.582  0.9286  0.2241  0.4652
 9693SOL    HW139758   3.607   0.216   3.658 -0.7186 -2.0987 -0.1849
 9693SOL    HW239759   3.478   0.303   3.607  0.0499 -1.1707 -0.5523
 9694SOL     OW39760   0.421   2.408   3.286 -0.3370  0.7460 -0.3720
 9694SOL    HW139761   0.436   2.486   3.225 -1.2107  1.4229  0.2728
 9694SOL    HW239762   0.353   2.432   3.355  0.6444 -0.0008  0.8845
 9695SOL     OW39763   5.793   6.819   2.506  0.8401  0.6339 -0.0622
 9695SOL    HW139764   5.731   6.854   2.576  1.0137  2.6206 -0.8650
 9695SOL    HW239765   5.741   6.774   2.434  0.6303 -1.0271  1.0973
 9696SOL     OW39766   3.464   0.203   5.255  0.0692  0.2291 -0.2148
 9696SOL    HW139767   3.537   0.253   5.301 -1.7280  0.9946  1.8786
 9696SOL    HW239768   3.384   0.199   5.314 -1.3892 -1.1350 -2.2199
 9697SOL     OW39769   8.121   9.390   4.523 -0.5947 -0.1474  0.4076
 9697SOL    HW139770   8.213   9.352   4.519 -0.5041  0.0336  0.7297
 9697SOL    HW239771   8.070   9.346   4.597 -0.1560  1.0881  1.4530
 9698SOL     OW39772   1.197   5.797   3.022 -0.2252  0.0374  0.0211
 9698SOL    HW139773   1.207   5.800   2.922 -1.3118 -0.7965 -0.1146
 9698SOL    HW239774   1.239   5.713   3.057  1.1787  0.8876  0.3905
 9699SOL     OW39775   3.809   9.979   3.523  0.5606 -0.1531  0.4198
 9699SOL    HW139776   3.826  10.071   3.559  0.0381  0.4614 -0.8497
 9699SOL    HW239777   3.892   9.924   3.533  1.5737  1.1091 -0.6704
 9700SOL     OW39778   9.015   0.060   4.759 -0.1244 -0.2209 -0.4138
 9700SOL    HW139779   9.103   0.082   4.801 -0.6514 -1.0138  1.1295
 9700SOL    HW239780   9.030   0.009   4.675  0.9272  0.9762 -0.9622
 9701SOL     OW39781   5.626   8.083   2.317  0.3551  0.3752 -0.0044
 9701SOL    HW139782   5.567   8.114   2.392  1.8506  0.9813  0.9461
 9701SOL    HW239783   5.711   8.136   2.317  0.7395 -0.2049 -1.6115
 9702SOL     OW39784   4.736   7.212   1.957  0.4012 -0.1680 -0.3673
 9702SOL    HW139785   4.738   7.300   1.910 -0.6391 -0.1775 -0.4386
 9702SOL    HW239786   4.734   7.139   1.889 -1.7339 -0.1686 -0.3464
 9703SOL     OW39787   2.749   6.891   1.255  0.2955  0.8265  0.1847
 9703SOL    HW139788   2.724   6.912   1.160  1.2179  1.3012  0.0389
 9703SOL    HW239789   2.848   6.899   1.266  0.1074  1.5808  1.3994
 9704SOL     OW39790   3.051   6.949   5.202 -0.1043 -0.0630  0.3736
 9704SOL    HW139791   3.146   6.960   5.233  0.2809  1.7839 -1.3366
 9704SOL    HW239792   3.043   6.865   5.147  0.3265 -0.7057  1.2902
 9705SOL     OW39793   3.553   7.074   2.216  0.5598 -0.2829  0.2284
 9705SOL    HW139794   3.539   6.989   2.166  3.3650 -1.1787  0.8677
 9705SOL    HW239795   3.482   7.083   2.286  1.0733 -2.8865  1.1632
 9706SOL     OW39796   9.807   7.621   4.500  0.1929  0.0045 -0.6124
 9706SOL    HW139797   9.830   7.570   4.416 -0.3664  0.6566 -1.1592
 9706SOL    HW239798   9.763   7.707   4.476 -3.5936 -1.5580  0.4297
 9707SOL     OW39799   4.467   8.100   2.936  0.4833  0.0982 -0.4156
 9707SOL    HW139800   4.521   8.045   3.000  1.1089  0.8042 -0.3175
 9707SOL    HW239801   4.442   8.186   2.981  0.3056  0.2835 -0.8717
 9708SOL     OW39802   9.635   1.924   3.698  0.2162 -0.0414 -0.5671
 9708SOL    HW139803   9.574   1.986   3.647  0.1553  0.0634 -0.3685
 9708SOL    HW239804   9.725   1.925   3.656  1.3907  3.3229  1.8003
 9709SOL     OW39805   8.418   0.547   4.529 -0.0192  0.3048  0.6633
 9709SOL    HW139806   8.328   0.519   4.565 -0.2281  0.0231 -0.0709
 9709SOL    HW239807   8.489   0.519   4.593 -0.5297  1.4347  1.7585
 9710SOL     OW39808   3.635   7.542   0.890 -0.1571  0.8629  0.0737
 9710SOL    HW139809   3.556   7.505   0.841  0.1193  0.1598  0.1533
 9710SOL    HW239810   3.673   7.472   0.950  2.1778  0.3188 -1.9660
 9711SOL     OW39811   0.878   3.801   2.886  0.2903 -0.5359 -0.7304
 9711SOL    HW139812   0.950   3.846   2.939  1.5723 -2.5961 -0.6568
 9711SOL    HW239813   0.805   3.771   2.948 -0.3907  1.1032 -0.7358
 9712SOL     OW39814   2.652   5.950   3.599 -0.0433 -0.3271  0.5783
 9712SOL    HW139815   2.709   6.012   3.654  0.4416 -1.1768  1.0337
 9712SOL    HW239816   2.641   5.989   3.508 -1.0210  1.1927  1.3167
 9713SOL     OW39817   1.306   7.676   0.776  0.0206 -0.0401 -0.1316
 9713SOL    HW139818   1.246   7.689   0.855  0.6459  2.4388 -0.0329
 9713SOL    HW239819   1.382   7.616   0.801  0.1492  0.6338  1.1264
 9714SOL     OW39820   1.993   0.282   0.632 -0.1948  0.6059 -0.0847
 9714SOL    HW139821   2.066   0.332   0.586  1.2962  0.9349  2.5429
 9714SOL    HW239822   1.912   0.280   0.573  0.6243  3.6328 -1.4212
 9715SOL     OW39823   9.402   4.181   3.033  0.3149  0.7381  0.4974
 9715SOL    HW139824   9.457   4.122   2.974  0.4963  0.8512  0.5566
 9715SOL    HW239825   9.393   4.271   2.991  1.2331  1.1117  1.0897
 9716SOL     OW39826   1.010   8.932   4.249 -0.3582  0.2874 -0.4137
 9716SOL    HW139827   0.977   8.922   4.343 -1.0532  1.5502 -0.5196
 9716SOL    HW239828   0.935   8.915   4.185 -0.1287  0.4416 -0.7250
 9717SOL     OW39829   1.401   8.667   1.805 -0.4543 -0.0428  0.3210
 9717SOL    HW139830   1.494   8.703   1.800 -0.0606 -0.9414  1.0166
 9717SOL    HW239831   1.336   8.741   1.785  0.2749  1.3974  2.9642
 9718SOL     OW39832   0.757   2.881   2.031 -0.0922  0.6119 -0.4089
 9718SOL    HW139833   0.752   2.893   2.130  1.8657  0.4746 -0.2786
 9718SOL    HW239834   0.664   2.873   1.994 -0.8724  1.4907  1.2932
 9719SOL     OW39835   0.909   1.735   3.568 -0.1295  0.5122 -0.6551
 9719SOL    HW139836   0.842   1.744   3.494 -0.3574 -0.9245 -0.6536
 9719SOL    HW239837   0.985   1.798   3.552 -0.5650  0.7969 -1.6825
 9720SOL     OW39838   0.681   6.472   1.328 -0.4239  0.0742  0.1813
 9720SOL    HW139839   0.659   6.429   1.416  0.0047 -1.0354 -0.2478
 9720SOL    HW239840   0.663   6.570   1.334  0.8538  0.2358  1.9406
 9721SOL     OW39841   0.750   5.254   1.086 -0.0965 -0.4441  0.7305
 9721SOL    HW139842   0.665   5.301   1.111 -0.3858 -0.5552 -0.0507
 9721SOL    HW239843   0.739   5.155   1.101 -0.2365 -0.5001  0.2554
 9722SOL     OW39844   3.492   8.052   4.058  0.1282 -1.0860 -0.0895
 9722SOL    HW139845   3.554   7.975   4.040  2.5117  1.1392 -1.7747
 9722SOL    HW239846   3.448   8.081   3.973 -0.6315 -0.4845  0.4986
 9723SOL     OW39847   7.553   1.932   1.012  0.2081 -0.2280 -0.1192
 9723SOL    HW139848   7.480   1.864   1.014  1.8553 -2.1254 -2.3034
 9723SOL    HW239849   7.626   1.903   1.075  0.1883  0.3977  0.1955
 9724SOL     OW39850   2.453   4.615   1.963 -0.3740 -0.1429  0.2699
 9724SOL    HW139851   2.363   4.632   1.921 -0.0725  3.6227  0.9680
 9724SOL    HW239852   2.450   4.529   2.013 -2.8196 -1.3430 -1.8169
 9725SOL     OW39853   3.799   7.854   3.865 -1.0291  0.3203  0.1949
 9725SOL    HW139854   3.868   7.821   3.929 -1.3328 -0.4103  0.1489
 9725SOL    HW239855   3.789   7.953   3.875  0.0481  0.4380  0.1769
 9726SOL     OW39856   2.810   1.017   4.452 -0.3577  0.8742 -0.1564
 9726SOL    HW139857   2.837   1.058   4.365  0.3355  1.8910  0.5247
 9726SOL    HW239858   2.868   1.053   4.525  0.2098 -1.2538  0.4779
 9727SOL     OW39859   0.418   9.692   0.353 -0.1448 -0.2164  1.2683
 9727SOL    HW139860   0.333   9.744   0.358  0.1339  0.5365 -1.1912
 9727SOL    HW239861   0.495   9.755   0.340  0.4290 -1.0996  0.2998
 9728SOL     OW39862   9.837   8.236   3.672  0.2350 -0.0552 -0.1133
 9728SOL    HW139863   9.891   8.152   3.680 -0.0294 -0.1632  0.5608
 9728SOL    HW239864   9.885   8.311   3.717  0.6493  0.2529 -1.0404
 9729SOL     OW39865   4.283   3.401   4.610  0.3290 -0.7545 -0.3643
 9729SOL    HW139866   4.205   3.338   4.611 -1.8842  1.8354  1.4307
 9729SOL    HW239867   4.293   3.440   4.519 -0.2080 -1.4199 -0.7140
 9730SOL     OW39868   4.101   9.527   2.343 -0.9056 -0.0557 -0.2547
 9730SOL    HW139869   4.065   9.585   2.416 -1.5578  2.0764 -2.2166
 9730SOL    HW239870   4.030   9.464   2.312 -1.0975  0.0555 -0.0425
 9731SOL     OW39871   9.144   2.873   2.825  0.0933 -0.1551  0.2950
 9731SOL    HW139872   9.213   2.940   2.853 -0.4532  1.2778 -1.6453
 9731SOL    HW239873   9.184   2.782   2.824  0.9976  0.1871  2.4867
 9732SOL     OW39874   1.023   0.928   4.602 -0.4557  0.5078  0.0708
 9732SOL    HW139875   1.061   0.836   4.604 -1.3769  0.1374  1.6597
 9732SOL    HW239876   0.929   0.924   4.567  0.0382  1.0655 -1.3556
 9733SOL     OW39877   0.135   8.161   2.857 -0.4871  0.4225  0.1201
 9733SOL    HW139878   0.040   8.148   2.831 -0.4616  1.3824 -0.4490
 9733SOL    HW239879   0.146   8.246   2.908  0.2673  0.9287 -0.8691
 9734SOL     OW39880   2.070   1.436   1.116  0.4639  0.3154 -0.2495
 9734SOL    HW139881   2.117   1.466   1.199 -0.3789  1.5449 -0.2125
 9734SOL    HW239882   1.991   1.495   1.099 -0.4238 -1.0428 -0.9253
 9735SOL     OW39883   1.344   3.672   0.666 -0.6196 -0.1644 -0.9666
 9735SOL    HW139884   1.377   3.633   0.580 -1.5840 -0.0347 -1.4015
 9735SOL    HW239885   1.270   3.616   0.702 -0.9957  0.4221 -0.8181
 9736SOL     OW39886   3.357   8.309   2.294  0.2454 -0.4224  0.3922
 9736SOL    HW139887   3.438   8.282   2.348 -1.1658 -2.3614  1.6074
 9736SOL    HW239888   3.324   8.230   2.242 -0.0306  0.7377 -1.2428
 9737SOL     OW39889   0.067   2.840   3.154  0.1830  0.4623 -0.4382
 9737SOL    HW139890   0.124   2.781   3.096 -1.7470 -0.3414 -1.5843
 9737SOL    HW239891   0.109   2.930   3.161  1.4161 -0.0030 -1.5589
 9738SOL     OW39892   3.602   5.271   2.119  0.1305 -0.7368  0.1460
 9738SOL    HW139893   3.648   5.272   2.208  0.5025 -0.3037 -0.0489
 9738SOL    HW239894   3.610   5.360   2.076 -1.9184 -0.2895  0.6177
 9739SOL     OW39895   8.350   9.230   2.062 -0.4141 -0.5769  0.0496
 9739SOL    HW139896   8.330   9.202   2.156  1.1914  0.9981  0.8924
 9739SOL    HW239897   8.439   9.191   2.035  1.2871  2.6229  0.8237
 9740SOL     OW39898   4.820   8.848   3.211  0.4252 -0.4245 -0.0591
 9740SOL    HW139899   4.778   8.938   3.199 -1.6750 -1.0285  2.5295
 9740SOL    HW239900   4.871   8.824   3.128 -2.2085  1.4401 -2.2897
 9741SOL     OW39901   2.172   8.567   5.528 -0.1370 -0.0269 -0.7205
 9741SOL    HW139902   2.137   8.500   5.593  0.7958  0.8871  0.7567
 9741SOL    HW239903   2.151   8.659   5.561  0.4167  0.4445 -1.6790
 9742SOL     OW39904   1.922   8.637   0.518 -0.2215  0.2519 -0.1854
 9742SOL    HW139905   2.004   8.610   0.468 -0.5180 -1.3980  0.1922
 9742SOL    HW239906   1.943   8.650   0.615 -0.5219 -0.7301  0.0120
 9743SOL     OW39907   8.547   0.268   1.369 -0.2373  0.4380 -0.1718
 9743SOL    HW139908   8.578   0.226   1.455 -0.3288  1.1707  0.2312
 9743SOL    HW239909   8.463   0.225   1.338 -0.4899  0.5268  0.3923
 9744SOL     OW39910   3.437   0.041   5.049 -0.6032  0.1554 -0.6191
 9744SOL    HW139911   3.370  -0.019   5.093 -0.8566  1.2068  0.4625
 9744SOL    HW239912   3.437   0.130   5.094  2.4538 -0.2239  0.2464
 9745SOL     OW39913   0.672   1.616   1.551  0.5361  0.3297  0.1492
 9745SOL    HW139914   0.707   1.707   1.525 -0.0659  0.4400 -0.2819
 9745SOL    HW239915   0.586   1.627   1.600 -0.0992 -0.0561 -0.8548
 9746SOL     OW39916   3.674   9.424   2.472  0.1757  0.1456 -0.1437
 9746SOL    HW139917   3.689   9.505   2.529  1.3383 -0.6060  0.6562
 9746SOL    HW239918   3.578   9.419   2.445  0.1611  1.9708 -0.4965
 9747SOL     OW39919   4.357   9.307   0.458 -0.0222  0.2008  0.2243
 9747SOL    HW139920   4.356   9.336   0.553  2.8415  1.1572  0.0219
 9747SOL    HW239921   4.374   9.209   0.452 -0.0750  0.1664  0.6953
 9748SOL     OW39922   0.946   0.310   5.266 -0.2295  0.1616  0.1525
 9748SOL    HW139923   1.011   0.236   5.283 -0.2752  0.1039  0.0767
 9748SOL    HW239924   0.895   0.330   5.349 -0.8982 -0.5513 -0.0846
 9749SOL     OW39925   9.746   7.136   4.563 -0.3434  0.0134  0.8514
 9749SOL    HW139926   9.780   7.047   4.594 -0.1870 -0.3182 -0.2691
 9749SOL    HW239927   9.786   7.208   4.619  0.6680 -0.5194  0.8271
 9750SOL     OW39928   2.579   7.535   5.135 -0.3876  0.1254  0.5727
 9750SOL    HW139929   2.568   7.480   5.052  0.7805  0.3207  0.2760
 9750SOL    HW239930   2.499   7.524   5.194 -0.2472 -1.7656  0.4456
 9751SOL     OW39931   9.964   2.554   2.927 -0.1464  0.3443  0.8536
 9751SOL    HW139932   9.957   2.529   3.023 -1.3005 -1.2933  0.3682
 9751SOL    HW239933   9.959   2.472   2.870  0.5898  1.2782 -0.6109
 9752SOL     OW39934   3.926   8.302   5.394  0.4924 -0.6032  0.4683
 9752SOL    HW139935   3.866   8.337   5.322  2.4858 -1.4990 -1.6770
 9752SOL    HW239936   3.870   8.262   5.467 -1.5440 -0.3564 -0.9121
 9753SOL     OW39937   0.199   1.382   3.789 -0.2854 -0.2413  0.2185
 9753SOL    HW139938   0.106   1.418   3.791 -0.2615 -0.2229  1.1081
 9753SOL    HW239939   0.264   1.453   3.818  0.0038 -0.2677 -0.3531
 9754SOL     OW39940   0.832   6.407   2.859  0.5513  0.3024 -0.1683
 9754SOL    HW139941   0.833   6.361   2.948 -0.3888  0.1456 -0.2329
 9754SOL    HW239942   0.915   6.384   2.808 -0.2535 -1.9502 -0.5257
 9755SOL     OW39943   2.790   2.400   2.356  0.1064 -0.5524 -0.7951
 9755SOL    HW139944   2.761   2.373   2.265 -1.3110 -0.9823 -0.2309
 9755SOL    HW239945   2.890   2.406   2.360  0.1517 -0.1522 -2.4664
 9756SOL     OW39946   3.004   8.074   3.716  0.4983  0.4334  0.3942
 9756SOL    HW139947   3.073   8.093   3.646  1.2228  0.1032  1.0121
 9756SOL    HW239948   2.938   8.150   3.719 -1.0014 -0.6940 -2.3536
 9757SOL     OW39949   4.382   9.020   0.059  0.1003  0.2911  0.0367
 9757SOL    HW139950   4.322   9.091   0.020  0.8325  0.6542 -0.4353
 9757SOL    HW239951   4.326   8.947   0.097 -0.6508  0.6301 -0.4033
 9758SOL     OW39952   8.692   0.394   5.195 -0.1867  0.4739 -0.4922
 9758SOL    HW139953   8.775   0.342   5.217 -1.5186 -1.6190 -0.2088
 9758SOL    HW239954   8.676   0.390   5.097 -1.0591 -0.8857 -0.3039
 9759SOL     OW39955   0.701   6.034   0.796 -0.6915 -0.2105 -0.2381
 9759SOL    HW139956   0.795   6.015   0.766 -1.2556  0.1025 -2.2523
 9759SOL    HW239957   0.660   5.951   0.832  1.2835  0.2486  3.3732
 9760SOL     OW39958   4.405   8.212   2.185 -0.0918 -0.4703 -0.1327
 9760SOL    HW139959   4.319   8.162   2.197 -0.0756 -0.4984 -0.1350
 9760SOL    HW239960   4.419   8.231   2.088 -1.5567  2.0845  0.1146
 9761SOL     OW39961   7.406   0.159   3.680  0.1679 -0.0230 -0.3849
 9761SOL    HW139962   7.418   0.240   3.624  0.6866 -1.8758 -3.0279
 9761SOL    HW239963   7.483   0.152   3.744  0.2707  1.3932 -0.3322
 9762SOL     OW39964   1.244   6.874   4.293  0.5261 -0.2240 -1.1264
 9762SOL    HW139965   1.163   6.914   4.251 -0.2635 -2.2502 -1.6229
 9762SOL    HW239966   1.260   6.915   4.382 -1.7666 -0.6363 -0.4926
 9763SOL     OW39967   2.155   1.481   2.188  0.4973 -0.3914  0.0110
 9763SOL    HW139968   2.145   1.465   2.090  1.5537 -0.1208 -0.1450
 9763SOL    HW239969   2.198   1.570   2.203  0.8126 -0.6599  0.7105
 9764SOL     OW39970   2.213   9.584   1.653  0.2700 -0.2036  0.0282
 9764SOL    HW139971   2.284   9.601   1.721 -0.5671 -2.2061  1.4669
 9764SOL    HW239972   2.124   9.604   1.693 -0.0767  0.8980 -1.2842
 9765SOL     OW39973   0.010   2.085   4.239  0.5131  0.4785  0.7597
 9765SOL    HW139974  -0.018   2.103   4.333  0.9573 -1.1588  1.2190
 9765SOL    HW239975   0.063   2.001   4.236 -0.9522 -0.3998 -1.2349
 9766SOL     OW39976   5.034   9.025   1.538 -0.2019  0.1866 -0.3777
 9766SOL    HW139977   5.048   8.974   1.623 -0.6303  0.1417 -0.3377
 9766SOL    HW239978   5.099   9.102   1.535 -1.8923  1.7365  1.1908
 9767SOL     OW39979   3.209   9.366   3.161 -0.2527  0.0198  0.2857
 9767SOL    HW139980   3.227   9.278   3.118  0.6868  0.7772 -0.9057
 9767SOL    HW239981   3.116   9.396   3.139 -1.1179 -1.3542  1.9448
 9768SOL     OW39982   9.757   8.547   4.948  0.2789 -0.2967 -0.2818
 9768SOL    HW139983   9.760   8.640   4.984  2.1276 -0.0155 -1.1364
 9768SOL    HW239984   9.754   8.482   5.025  0.0401  0.4157  0.3202
 9769SOL     OW39985   9.679   6.635   2.228 -0.1413 -0.0597 -0.8047
 9769SOL    HW139986   9.760   6.585   2.199 -0.0321 -0.5187  0.2770
 9769SOL    HW239987   9.603   6.614   2.166 -0.3281 -2.2241  0.1257
 9770SOL     OW39988   7.811   1.038   3.764 -0.4099 -0.4942  0.2206
 9770SOL    HW139989   7.892   1.042   3.707  0.0375 -2.0364  0.7097
 9770SOL    HW239990   7.748   0.969   3.728 -1.7017  0.9700 -0.3913
 9771SOL     OW39991   8.253   0.385   5.080  0.1239  1.5478 -0.5059
 9771SOL    HW139992   8.176   0.399   5.143 -1.0770  0.8310 -1.7780
 9771SOL    HW239993   8.333   0.355   5.130 -1.5151 -1.4581  0.3944
 9772SOL     OW39994   2.610   7.644   4.727 -0.2968 -0.1069  0.2972
 9772SOL    HW139995   2.564   7.568   4.682 -0.7384  0.5328 -0.3386
 9772SOL    HW239996   2.647   7.707   4.658 -0.6296  0.6744  0.8191
 9773SOL     OW39997   0.962   2.637   2.757  1.0627  0.3699 -0.1790
 9773SOL    HW139998   0.973   2.561   2.821  1.4023 -0.4033 -1.1478
 9773SOL    HW239999   0.934   2.718   2.807 -3.9620 -1.5013  0.3293
 9774SOL     OW40000   8.938   9.367   4.686 -0.2305 -0.2331 -0.3988
 9774SOL    HW140001   8.902   9.343   4.775  0.4263  0.7276  0.1415
 9774SOL    HW240002   9.027   9.412   4.697 -0.5357  0.6730 -1.4671
 9775SOL     OW40003   2.577   2.260   1.218 -0.3776 -0.1897  0.4060
 9775SOL    HW140004   2.536   2.350   1.206 -0.8087 -0.2132  1.6104
 9775SOL    HW240005   2.539   2.196   1.151  0.4523  0.6752 -0.9296
 9776SOL     OW40006   4.526   0.463   2.790  0.7984  0.0893  0.2550
 9776SOL    HW140007   4.576   0.433   2.709 -1.6093 -0.1296 -1.2234
 9776SOL    HW240008   4.517   0.386   2.854  1.3208 -0.1947 -0.0120
 9777SOL     OW40009   6.222   0.762   1.969 -0.0483 -0.2050 -0.2810
 9777SOL    HW140010   6.213   0.853   1.929  0.5539  0.2452  0.5863
 9777SOL    HW240011   6.198   0.693   1.901 -1.4530  0.6307 -0.6486
 9778SOL     OW40012   3.361   6.571   1.481 -0.1455  0.2448 -1.2012
 9778SOL    HW140013   3.368   6.605   1.387  1.1573  0.4918 -1.0269
 9778SOL    HW240014   3.265   6.556   1.504 -0.6306  2.1326 -1.8940
 9779SOL     OW40015   0.950   3.542   3.705  0.3834  0.1792  0.6878
 9779SOL    HW140016   0.888   3.618   3.689  0.9619  0.9532  2.0295
 9779SOL    HW240017   1.035   3.576   3.745  1.7868 -0.8295 -1.3414
 9780SOL     OW40018   4.062   2.006   2.229  0.0869  0.3606  0.0871
 9780SOL    HW140019   4.109   2.092   2.249 -0.9350  0.7379  0.8546
 9780SOL    HW240020   4.077   1.942   2.304  1.1545 -0.2875 -0.6454
 9781SOL     OW40021   1.756   4.282   2.889 -0.4813  0.1458 -0.1332
 9781SOL    HW140022   1.698   4.262   2.811 -1.1119 -0.3965  0.4670
 9781SOL    HW240023   1.713   4.247   2.973  1.3619 -1.5059  0.1589
 9782SOL     OW40024   2.027   6.187   2.681 -0.0775  0.5001  0.2753
 9782SOL    HW140025   2.063   6.280   2.682 -1.3469  1.0037  1.3712
 9782SOL    HW240026   1.927   6.190   2.684 -0.1658 -0.8824 -0.7491
 9783SOL     OW40027   8.366   9.582   4.929 -0.1982  0.6119  0.7661
 9783SOL    HW140028   8.357   9.614   4.835  0.0518  2.5643  1.3902
 9783SOL    HW240029   8.450   9.618   4.969  0.2922 -1.1412  1.4000
 9784SOL     OW40030   2.508   9.844   1.967 -0.1115 -0.1661  0.2857
 9784SOL    HW140031   2.471   9.930   1.932  0.3640 -0.2549 -0.4466
 9784SOL    HW240032   2.504   9.775   1.896  1.0472 -0.2964  0.3475
 9785SOL     OW40033   2.846   7.040   3.251  0.0802  0.1034  0.1577
 9785SOL    HW140034   2.926   7.081   3.207 -0.0562 -0.1129 -0.2990
 9785SOL    HW240035   2.790   6.994   3.181 -0.2351 -0.0807  0.5327
 9786SOL     OW40036   2.911   1.023   1.270  0.4954  0.2301  0.2972
 9786SOL    HW140037   2.849   0.945   1.278 -1.0520  1.3238 -0.8063
 9786SOL    HW240038   2.870   1.102   1.315 -0.1257  1.6579 -2.7018
 9787SOL     OW40039   8.749   0.205   2.532 -0.2206 -0.3198  0.5443
 9787SOL    HW140040   8.750   0.132   2.463 -0.7416 -0.6298  0.8596
 9787SOL    HW240041   8.671   0.192   2.593  1.5971 -1.4673  2.7217
 9788SOL     OW40042   2.785   1.209   0.772 -0.3465 -0.0189 -0.5738
 9788SOL    HW140043   2.828   1.168   0.852 -0.8725 -0.1954 -0.3756
 9788SOL    HW240044   2.838   1.187   0.690 -0.5994 -1.0609 -0.4624
 9789SOL     OW40045   9.159   2.694   2.021  0.5854 -0.1608  0.0502
 9789SOL    HW140046   9.098   2.766   2.053  0.1470 -0.2289 -0.6206
 9789SOL    HW240047   9.243   2.734   1.984  0.6207 -0.0303  0.2742
 9790SOL     OW40048   2.665   9.189   2.240  0.0478  0.5483 -0.5004
 9790SOL    HW140049   2.619   9.104   2.262 -1.2615  1.2821 -0.3381
 9790SOL    HW240050   2.648   9.214   2.144  0.9249  0.3286 -0.7225
 9791SOL     OW40051   4.867   6.114   1.266 -0.0688  0.2117  0.4593
 9791SOL    HW140052   4.889   6.112   1.169 -0.4166  1.9224  0.3279
 9791SOL    HW240053   4.920   6.043   1.314  1.0351  0.1778 -0.7808
 9792SOL     OW40054   3.604   6.993   5.179 -0.5106  0.3460 -0.5333
 9792SOL    HW140055   3.678   6.945   5.132 -1.3540 -0.6305 -0.8940
 9792SOL    HW240056   3.640   7.073   5.226  0.9143 -0.5983 -0.0012
 9793SOL     OW40057   2.794   4.788   1.768  0.2894  0.5296 -0.3626
 9793SOL    HW140058   2.842   4.820   1.850  0.2845  1.1677 -0.6057
 9793SOL    HW240059   2.737   4.709   1.791 -1.8088  2.3298  0.8585
 9794SOL     OW40060   2.099   0.408   3.548 -0.3227 -0.2487 -0.3565
 9794SOL    HW140061   2.131   0.477   3.613 -3.4317 -0.9022  1.9825
 9794SOL    HW240062   2.140   0.425   3.459  1.5558  2.6149  0.9702
 9795SOL     OW40063   0.421   9.562   4.176 -0.1848 -0.3375  0.0533
 9795SOL    HW140064   0.486   9.614   4.232 -1.3719  1.1430  0.0667
 9795SOL    HW240065   0.410   9.470   4.216  0.4112  0.0585  1.1701
 9796SOL     OW40066   7.213   9.341   3.558  0.1301 -0.8670 -1.0658
 9796SOL    HW140067   7.222   9.364   3.461 -2.4890  1.6773 -0.7676
 9796SOL    HW240068   7.166   9.254   3.567 -1.4484 -0.1477 -2.0919
 9797SOL     OW40069   5.270   9.220   3.847  0.2746 -0.1013  0.1543
 9797SOL    HW140070   5.320   9.134   3.848  0.2829 -0.1402 -1.7817
 9797SOL    HW240071   5.334   9.296   3.838  0.1097 -0.0579 -0.7289
 9798SOL     OW40072   9.330   6.949   2.491  0.4711  0.1585  0.0223
 9798SOL    HW140073   9.375   7.022   2.440 -0.3271  0.3927 -0.3536
 9798SOL    HW240074   9.371   6.861   2.467 -0.0032  0.2509 -1.1391
 9799SOL     OW40075   1.675   7.003   1.215  0.1937 -0.5176  0.3531
 9799SOL    HW140076   1.716   7.022   1.304  0.5663  1.2524 -0.1569
 9799SOL    HW240077   1.582   6.969   1.227 -0.2213  0.9335  1.4043
 9800SOL     OW40078   4.470   4.728   1.951 -0.2906  0.2501  0.7613
 9800SOL    HW140079   4.506   4.819   1.969  0.9558 -0.5849  2.6870
 9800SOL    HW240080   4.539   4.659   1.975 -0.6743 -1.1789 -2.0202
 9801SOL     OW40081   3.197   6.187   2.429 -0.0333  0.7510 -0.2648
 9801SOL    HW140082   3.176   6.259   2.495  2.8643  0.6897  0.8030
 9801SOL    HW240083   3.205   6.100   2.476 -1.3378  0.0904 -1.2337
 9802SOL     OW40084   3.739   7.397   4.405 -0.2438  0.6152 -0.0631
 9802SOL    HW140085   3.751   7.494   4.425 -0.6292  0.0834  3.1779
 9802SOL    HW240086   3.648   7.368   4.434  0.3551 -0.9856  0.2951
 9803SOL     OW40087   9.493   1.158   0.603  0.1882  0.4074  0.8243
 9803SOL    HW140088   9.398   1.148   0.632  0.1965  1.6172  1.3170
 9803SOL    HW240089   9.547   1.081   0.638 -0.5621 -0.1584  0.7458
 9804SOL     OW40090   7.163   9.696   1.422  0.4653  0.1230 -0.4629
 9804SOL    HW140091   7.090   9.745   1.467  1.9779  0.2867  1.8881
 9804SOL    HW240092   7.219   9.760   1.369 -0.5799  0.1217 -1.5830
 9805SOL     OW40093   1.519   5.255   0.676  0.2043  0.6043  0.2639
 9805SOL    HW140094   1.424   5.223   0.681  0.0793  1.1283  1.4440
 9805SOL    HW240095   1.580   5.181   0.702 -0.0636  1.1463  2.5651
 9806SOL     OW40096   1.710   1.894   0.208  0.1228 -0.3871 -0.3227
 9806SOL    HW140097   1.687   1.798   0.221  2.2562 -1.1901 -2.0391
 9806SOL    HW240098   1.810   1.904   0.209 -0.0759  1.7698 -0.4249
 9807SOL     OW40099   9.641   8.460   1.121 -0.6570 -0.0252 -0.3220
 9807SOL    HW140100   9.662   8.404   1.201 -1.1020  0.2411 -0.0145
 9807SOL    HW240101   9.626   8.555   1.150  1.8081  0.6209 -1.0383
 9808SOL     OW40102   7.771   1.670   3.280  0.0753 -0.7641 -0.0847
 9808SOL    HW140103   7.817   1.595   3.233  1.4244 -0.7998  1.2594
 9808SOL    HW240104   7.676   1.644   3.299  0.4087 -1.9509 -0.0206
 9809SOL     OW40105   3.229   4.551   0.078  0.0822  0.0679 -1.2594
 9809SOL    HW140106   3.231   4.648   0.054  1.6675  0.7229  1.2244
 9809SOL    HW240107   3.140   4.527   0.116 -0.6513  0.2836 -2.8197
 9810SOL     OW40108   2.577   7.383   2.371  0.1058 -0.1210 -0.5688
 9810SOL    HW140109   2.558   7.365   2.274  1.2055 -1.2305 -0.5939
 9810SOL    HW240110   2.651   7.451   2.378  1.3194 -1.4152 -0.5428
 9811SOL     OW40111   1.141   2.356   1.757 -0.2655 -0.1105 -0.1912
 9811SOL    HW140112   1.204   2.282   1.782  1.1446  1.3764  0.7387
 9811SOL    HW240113   1.114   2.406   1.840 -2.0297 -0.2214 -0.6884
 9812SOL     OW40114   9.018   9.961   3.783 -0.2314  0.0024 -0.4834
 9812SOL    HW140115   9.093   9.950   3.718 -0.2196  0.7488 -0.6020
 9812SOL    HW240116   8.933   9.928   3.742 -0.3362  1.0144 -1.1098
 9813SOL     OW40117   3.023   6.680   0.344  0.4643 -0.2419  0.6400
 9813SOL    HW140118   2.984   6.645   0.258  0.9383 -1.2736  0.8305
 9813SOL    HW240119   2.968   6.648   0.421 -0.6878  1.7133  0.6648
 9814SOL     OW40120   1.787   1.943   3.849  0.0531 -0.5214 -0.0582
 9814SOL    HW140121   1.751   1.850   3.841  1.0827 -0.8812 -0.6574
 9814SOL    HW240122   1.874   1.941   3.897  0.0666  0.1432 -0.0505
 9815SOL     OW40123   0.932   7.397   3.538  0.2862  0.7025  0.0336
 9815SOL    HW140124   0.999   7.469   3.519  1.2679 -0.4986 -1.0907
 9815SOL    HW240125   0.851   7.438   3.580  0.3156  2.6516 -1.7147
 9816SOL     OW40126   9.462   2.115   3.572 -0.5180  0.7126 -0.0915
 9816SOL    HW140127   9.426   2.059   3.498  1.9692 -0.6828 -0.2830
 9816SOL    HW240128   9.472   2.210   3.540 -1.7796  0.6327 -0.7411
 9817SOL     OW40129   0.688   1.981   3.710  0.2143  0.6757 -0.1001
 9817SOL    HW140130   0.734   1.897   3.681 -0.5586 -0.3357  1.4947
 9817SOL    HW240131   0.683   2.045   3.633  0.6075 -0.8271 -1.4033
 9818SOL     OW40132   3.640   8.064   0.531  0.6187 -0.2540 -0.0019
 9818SOL    HW140133   3.624   8.029   0.624  1.1825 -0.7160 -0.0828
 9818SOL    HW240134   3.552   8.086   0.489  0.3115 -0.8195  0.3364
 9819SOL     OW40135   2.020   1.163   1.903  0.1253 -0.3640  0.7830
 9819SOL    HW140136   1.931   1.166   1.948 -1.1895 -1.0052 -1.6485
 9819SOL    HW240137   2.063   1.253   1.907 -0.9743  0.1447  1.3114
 9820SOL     OW40138   1.736   3.133   0.005  0.6251 -0.3820  0.3267
 9820SOL    HW140139   1.707   3.088   0.090 -0.9840  2.5514  1.4034
 9820SOL    HW240140   1.803   3.203   0.025  1.7008 -0.9715 -1.1069
 9821SOL     OW40141   0.351   1.958   1.028 -0.7210  0.8893 -0.3764
 9821SOL    HW140142   0.421   1.890   1.045  1.3838  2.3048 -3.0434
 9821SOL    HW240143   0.313   1.946   0.936 -1.4191  2.3187 -0.2992
 9822SOL     OW40144   2.817   9.677   1.629 -0.2567 -0.2441 -0.0153
 9822SOL    HW140145   2.852   9.584   1.639 -1.0665 -0.4682  0.8140
 9822SOL    HW240146   2.720   9.674   1.606 -0.2075  0.3882 -0.3285
 9823SOL     OW40147   5.869   0.135   4.000  0.2484  0.9187  0.0518
 9823SOL    HW140148   5.923   0.175   3.926 -1.1239  1.5786 -0.6229
 9823SOL    HW240149   5.772   0.147   3.980 -0.1865 -1.4019  0.5848
 9824SOL     OW40150   1.225   0.674   0.084  0.6072 -0.4666 -0.1488
 9824SOL    HW140151   1.262   0.765   0.068  1.0049 -0.7257 -0.7438
 9824SOL    HW240152   1.125   0.679   0.090  0.6856  0.1283  0.7095
 9825SOL     OW40153   3.385   6.664   3.487 -0.3086  0.0012 -0.5092
 9825SOL    HW140154   3.440   6.594   3.442 -0.0375  1.4621 -2.5527
 9825SOL    HW240155   3.293   6.666   3.448 -0.4910  0.3986 -0.0713
 9826SOL     OW40156   0.564   1.268   0.891 -0.2607  0.1154 -0.4729
 9826SOL    HW140157   0.567   1.273   0.791 -1.4842  1.5540 -0.4606
 9826SOL    HW240158   0.655   1.287   0.928 -0.4862  2.9662 -1.2177
 9827SOL     OW40159   2.029   2.736   5.265  0.1330  1.3487  0.0149
 9827SOL    HW140160   2.090   2.698   5.335  1.1374  1.2741 -0.8902
 9827SOL    HW240161   1.945   2.681   5.261  0.4385  0.8358  0.5443
 9828SOL     OW40162   2.724   0.043   0.252 -0.5445  0.0212 -0.0151
 9828SOL    HW140163   2.788   0.116   0.227  1.3248 -1.4279  0.4574
 9828SOL    HW240164   2.662   0.026   0.175 -0.1361  1.2103 -0.6128
 9829SOL     OW40165   6.288   0.784   4.335 -0.7054  0.0116  0.5581
 9829SOL    HW140166   6.248   0.876   4.333  1.0300  0.7731 -0.4880
 9829SOL    HW240167   6.361   0.779   4.267 -1.8229 -2.6436 -0.4937
 9830SOL     OW40168   2.804   1.121   4.112 -0.1183 -0.0707 -0.3839
 9830SOL    HW140169   2.854   1.066   4.045 -0.5497 -0.7032 -0.1890
 9830SOL    HW240170   2.707   1.095   4.111 -0.8789  2.5559 -2.2290
 9831SOL     OW40171   4.446   7.167   2.080 -0.3026 -0.0471  0.1963
 9831SOL    HW140172   4.456   7.266   2.088  0.9247 -0.3269  2.4328
 9831SOL    HW240173   4.513   7.132   2.014 -1.2511  0.6678 -1.1764
 9832SOL     OW40174   2.972   9.214   2.791 -0.1056  0.4043 -0.4563
 9832SOL    HW140175   2.894   9.171   2.837 -0.9914  1.8311 -0.6175
 9832SOL    HW240176   2.989   9.304   2.831  1.0396  0.3883 -0.8822
 9833SOL     OW40177   6.730   9.308   3.407  0.1495 -0.3228  0.0404
 9833SOL    HW140178   6.643   9.348   3.378 -0.8775 -0.9498  2.1467
 9833SOL    HW240179   6.738   9.315   3.506  1.3226 -2.5923  0.1415
 9834SOL     OW40180   2.694   4.278   1.754  0.1390  0.2695  0.2062
 9834SOL    HW140181   2.725   4.279   1.659  0.1198 -1.5084  0.1592
 9834SOL    HW240182   2.594   4.275   1.757  0.1779 -1.7858  0.2254
 9835SOL     OW40183   9.613   3.307   1.264  0.5173  0.0186  0.6736
 9835SOL    HW140184   9.658   3.389   1.299  2.3894 -0.2024 -1.0668
 9835SOL    HW240185   9.681   3.250   1.216 -1.0493 -1.8032  0.5456
 9836SOL     OW40186   7.341   2.443   3.435 -0.0893  0.2982  0.3889
 9836SOL    HW140187   7.395   2.480   3.359  1.2677  1.4208  1.8803
 9836SOL    HW240188   7.255   2.407   3.399  0.2780  1.3128 -1.6125
 9837SOL     OW40189   1.850   3.713   4.297 -0.2061 -0.2604 -0.1394
 9837SOL    HW140190   1.840   3.784   4.367  1.1854 -0.6865  0.5109
 9837SOL    HW240191   1.947   3.700   4.277 -0.4507 -1.9187 -0.3005
 9838SOL     OW40192   7.762   1.748   1.912  0.4802 -0.4111  0.1095
 9838SOL    HW140193   7.709   1.754   1.997  1.4613 -2.3087  0.8852
 9838SOL    HW240194   7.732   1.668   1.860  0.6299  0.1342 -0.8249
 9839SOL     OW40195   4.383   2.535   1.151  0.0771 -0.0982 -0.0193
 9839SOL    HW140196   4.332   2.480   1.085 -0.7739  0.7954 -0.1193
 9839SOL    HW240197   4.475   2.554   1.116 -0.6930  1.1658 -1.3820
 9840SOL     OW40198   9.067   2.116   0.757 -0.5663 -0.7100 -0.0518
 9840SOL    HW140199   9.109   2.085   0.842 -0.5889 -3.7784 -1.0937
 9840SOL    HW240200   9.135   2.167   0.704  1.1418 -3.4157 -0.5663
 9841SOL     OW40201   8.453   9.581   3.667 -0.0833 -0.0807  0.2455
 9841SOL    HW140202   8.523   9.565   3.598  0.2428  1.3056  0.2482
 9841SOL    HW240203   8.364   9.550   3.632  0.3863 -1.1441 -0.0412
 9842SOL     OW40204   3.714   8.188   5.577 -0.3533 -0.1516 -0.1707
 9842SOL    HW140205   3.642   8.232   5.631 -0.6054  1.3517 -1.7202
 9842SOL    HW240206   3.674   8.112   5.525 -0.4844 -0.3482  0.2084
 9843SOL     OW40207   9.108   0.294   0.929 -0.0555 -0.1597 -0.3534
 9843SOL    HW140208   9.049   0.265   1.004 -1.7312  0.4966 -1.3900
 9843SOL    HW240209   9.131   0.215   0.872 -1.4039 -0.1313 -0.9516
 9844SOL     OW40210   3.219   7.350   0.437  0.2373  0.8281  0.6917
 9844SOL    HW140211   3.159   7.272   0.422  1.2446  0.0039  0.8409
 9844SOL    HW240212   3.189   7.402   0.517  0.2059 -0.0592  1.2639
 9845SOL     OW40213   7.379   9.792   2.978  0.7031  0.4317 -0.1873
 9845SOL    HW140214   7.311   9.786   3.052  1.4498  0.1257  0.4801
 9845SOL    HW240215   7.470   9.777   3.015  1.0939  0.3336 -1.1715
 9846SOL     OW40216   2.085   0.845   3.280 -0.0660  0.2727  0.1512
 9846SOL    HW140217   2.013   0.781   3.308 -3.8084  4.3633  0.4426
 9846SOL    HW240218   2.076   0.864   3.182  2.4995 -1.3646 -0.4339
 9847SOL     OW40219   2.792   5.764   2.013 -0.2179  0.1277  0.5034
 9847SOL    HW140220   2.848   5.700   1.960  0.1732 -0.0819  1.1568
 9847SOL    HW240221   2.695   5.740   2.003 -0.3127  1.3070 -1.7114
 9848SOL     OW40222   5.395   1.079   1.909 -0.1978  0.0704 -0.1364
 9848SOL    HW140223   5.481   1.070   1.958 -0.2811  1.0349  0.2060
 9848SOL    HW240224   5.386   1.005   1.843  1.6445  0.8389 -1.2997
 9849SOL     OW40225   6.402   9.716   1.948 -0.0901  0.1841 -0.7477
 9849SOL    HW140226   6.485   9.695   2.000  0.2801  0.0232 -1.3995
 9849SOL    HW240227   6.338   9.766   2.006 -0.1944 -1.0920  0.2323
 9850SOL     OW40228   4.583   3.393   2.074  0.3486 -0.0676  0.4623
 9850SOL    HW140229   4.567   3.456   1.998  0.7716  1.1694  1.3788
 9850SOL    HW240230   4.495   3.366   2.114  0.2229  1.4045  1.2271
 9851SOL     OW40231   0.173   9.436   1.190 -0.2267  0.2063  0.2535
 9851SOL    HW140232   0.255   9.398   1.233  0.2159 -0.6319 -1.2955
 9851SOL    HW240233   0.150   9.383   1.109 -1.2780  1.5109 -0.3327
 9852SOL     OW40234   8.633   9.437   4.648 -0.1599  0.9263 -0.5570
 9852SOL    HW140235   8.537   9.414   4.633  0.4321 -2.3816  0.3678
 9852SOL    HW240236   8.691   9.379   4.591  1.4338  0.4221  1.5122
 9853SOL     OW40237   4.398   5.907   1.474 -0.0217  0.1057 -0.3483
 9853SOL    HW140238   4.360   5.876   1.561 -2.0118 -1.2393 -1.6371
 9853SOL    HW240239   4.465   5.841   1.441  1.6158  1.2089  0.7031
 9854SOL     OW40240   2.318   3.097   3.519  0.6706  0.2053  0.1568
 9854SOL    HW140241   2.394   3.136   3.467  1.1554 -0.3647  0.4314
 9854SOL    HW240242   2.231   3.132   3.483  0.9273 -1.0856 -1.8179
 9855SOL     OW40243   1.440   0.621   2.544 -0.4774 -0.2923  0.0318
 9855SOL    HW140244   1.430   0.527   2.511  0.1763 -0.6161  0.7171
 9855SOL    HW240245   1.534   0.635   2.576 -0.2013  0.9992 -1.2899
 9856SOL     OW40246   3.537   1.265   4.836  0.0925 -0.2677 -0.0522
 9856SOL    HW140247   3.618   1.207   4.852  1.6883  2.6116  2.8236
 9856SOL    HW240248   3.556   1.329   4.761 -0.0960 -0.5812 -0.3708
 9857SOL     OW40249   8.232   1.655   4.221  0.2010  0.3309  0.0860
 9857SOL    HW140250   8.277   1.719   4.158 -0.5514  0.9291  0.1422
 9857SOL    HW240251   8.144   1.693   4.248  0.1890 -0.2855  0.9038
 9858SOL     OW40252   9.671   9.107   4.136 -0.6160 -0.0171  0.2999
 9858SOL    HW140253   9.691   9.201   4.110  0.2404 -0.3857 -0.4078
 9858SOL    HW240254   9.632   9.104   4.228  0.6288  0.9027  0.8626
 9859SOL     OW40255   1.426   9.083   1.076 -0.6004 -0.0239  0.3332
 9859SOL    HW140256   1.426   9.177   1.044  0.4735 -0.7397 -1.8962
 9859SOL    HW240257   1.370   9.026   1.015 -0.0761 -1.0799  0.8148
 9860SOL     OW40258   1.532   8.268   4.121 -0.6220  0.3443  0.0943
 9860SOL    HW140259   1.525   8.354   4.070 -1.6530  0.2355  0.0504
 9860SOL    HW240260   1.449   8.215   4.108 -0.9123  0.3312  1.9378
 9861SOL     OW40261   3.629   0.350   5.406  0.0999  0.3924 -0.8166
 9861SOL    HW140262   3.582   0.317   5.487  0.7339 -0.8698 -0.9496
 9861SOL    HW240263   3.723   0.316   5.405  0.0765  0.3087 -2.1237
 9862SOL     OW40264   1.197   3.664   3.179 -0.6004 -0.2072 -0.5002
 9862SOL    HW140265   1.232   3.571   3.164 -0.5781 -0.4228  0.8322
 9862SOL    HW240266   1.150   3.668   3.267  0.4546  1.3496  0.0123
 9863SOL     OW40267   5.572   7.884   1.655  0.2079 -0.2038 -0.5394
 9863SOL    HW140268   5.520   7.969   1.659 -1.7813 -1.4756  1.6051
 9863SOL    HW240269   5.572   7.849   1.561 -4.4886 -1.1845 -0.2503
 9864SOL     OW40270   3.473   7.610   2.075  0.8892  0.1311  0.0793
 9864SOL    HW140271   3.433   7.590   1.986  0.8982 -1.2355  0.3650
 9864SOL    HW240272   3.563   7.567   2.081 -0.5293 -2.7320  1.9869
 9865SOL     OW40273   0.426   7.894   0.258  0.3656 -0.2785 -1.2178
 9865SOL    HW140274   0.499   7.956   0.230 -0.4623  1.6104  0.6959
 9865SOL    HW240275   0.464   7.803   0.273  2.6428  1.0101  1.1719
 9866SOL     OW40276   1.541   3.029   3.096 -0.0065  0.5425 -0.6467
 9866SOL    HW140277   1.463   3.080   3.061  0.8385  1.4003 -1.3392
 9866SOL    HW240278   1.573   3.071   3.181 -0.8683 -0.3755  0.1421
 9867SOL     OW40279   9.387   0.571   1.915  0.3265  0.8034  0.6250
 9867SOL    HW140280   9.404   0.515   1.996 -0.8264  1.3551  1.2535
 9867SOL    HW240281   9.420   0.663   1.931  2.3131  0.3008 -0.4473
 9868SOL     OW40282   8.177   7.121   2.525  0.0947  0.7543 -0.4931
 9868SOL    HW140283   8.136   7.208   2.552 -0.4359  0.0920  0.8887
 9868SOL    HW240284   8.129   7.046   2.571  1.1470 -0.2053 -0.9379
 9869SOL     OW40285   2.442   4.589   0.268 -0.8543  0.1912  0.4249
 9869SOL    HW140286   2.520   4.540   0.230 -0.5222  1.6438 -0.8271
 9869SOL    HW240287   2.399   4.644   0.197 -3.1753 -0.7430  1.0520
 9870SOL     OW40288   3.340   0.865   2.399  0.5878  0.2612 -0.1975
 9870SOL    HW140289   3.342   0.959   2.433 -1.7938 -0.5751  2.4642
 9870SOL    HW240290   3.317   0.864   2.302  1.2642  2.4326 -0.3980
 9871SOL     OW40291   0.241   9.226   1.366  0.4377  0.1887 -0.4592
 9871SOL    HW140292   0.315   9.198   1.426  2.0700  0.8048 -2.1220
 9871SOL    HW240293   0.255   9.187   1.275 -1.2613  0.3390 -0.8019
 9872SOL     OW40294   5.117   1.905   3.170 -0.2205  0.0203  0.3310
 9872SOL    HW140295   5.205   1.889   3.124 -0.3636 -0.2385  0.1440
 9872SOL    HW240296   5.044   1.910   3.102 -0.3085  0.5432  0.4656
 9873SOL     OW40297   3.437   1.375   2.143 -0.2651 -0.1609 -0.2312
 9873SOL    HW140298   3.446   1.430   2.060  1.2164  0.3586  0.2691
 9873SOL    HW240299   3.528   1.349   2.176 -0.8943 -1.5303  0.4544
 9874SOL     OW40300   0.219   5.359   1.374  0.1656  0.0510  0.1351
 9874SOL    HW140301   0.216   5.311   1.462  2.0701 -0.8110 -0.2353
 9874SOL    HW240302   0.240   5.293   1.301 -0.1180  0.9742 -0.7924
 9875SOL     OW40303   5.253   9.270   4.202 -0.2995  0.1962 -0.2532
 9875SOL    HW140304   5.161   9.237   4.184  0.2279 -1.2621 -0.3767
 9875SOL    HW240305   5.316   9.232   4.134  0.4839  0.7083  0.1771
 9876SOL     OW40306   6.835   8.898   4.116 -0.2416  0.4593  0.1290
 9876SOL    HW140307   6.762   8.948   4.070  0.4250 -0.4741 -2.0166
 9876SOL    HW240308   6.835   8.803   4.085 -0.1703 -0.3631  2.5745
 9877SOL     OW40309   5.919   8.867   1.805  0.3903  0.1776  0.5190
 9877SOL    HW140310   5.959   8.781   1.837 -0.1324 -0.6016 -0.8721
 9877SOL    HW240311   5.881   8.854   1.713  0.0219  1.8139  0.4226
 9878SOL     OW40312   3.566   7.695   4.129 -0.0776  0.3291 -0.0487
 9878SOL    HW140313   3.548   7.695   4.031 -0.0881  0.1920 -0.0458
 9878SOL    HW240314   3.647   7.639   4.149 -0.0704  0.3628  0.0199
 9879SOL     OW40315   4.646   8.396   1.470 -0.4715 -0.4132 -0.0526
 9879SOL    HW140316   4.703   8.474   1.444  1.0076 -1.7558 -0.9306
 9879SOL    HW240317   4.654   8.324   1.401  0.6009 -2.5688  2.2498
 9880SOL     OW40318   9.526   6.380   2.777 -0.6203 -0.2166  0.1189
 9880SOL    HW140319   9.602   6.321   2.749 -0.8513 -1.1131  1.3878
 9880SOL    HW240320   9.563   6.463   2.820 -0.3055  0.5284 -1.5408
 9881SOL     OW40321   9.336   0.275   4.623 -0.5602 -0.3285  0.0169
 9881SOL    HW140322   9.305   0.368   4.646  0.9186 -0.2053  1.5858
 9881SOL    HW240323   9.348   0.222   4.707 -0.7019 -1.7233 -0.8321
 9882SOL     OW40324   9.340   7.750   2.520  0.7043  0.2390  0.0110
 9882SOL    HW140325   9.348   7.849   2.530  0.4447  0.3275 -0.6152
 9882SOL    HW240326   9.407   7.718   2.452 -0.4892  0.2463 -1.1953
 9883SOL     OW40327   2.755   9.676   3.926  0.4291 -0.1631  0.3645
 9883SOL    HW140328   2.723   9.767   3.897  0.0738 -0.5545 -0.4791
 9883SOL    HW240329   2.817   9.686   4.003  2.1399  0.9743 -1.1330
 9884SOL     OW40330   0.670   9.795   1.625 -0.8659  0.3931 -0.2511
 9884SOL    HW140331   0.680   9.873   1.563  0.5631 -1.1586 -2.0357
 9884SOL    HW240332   0.590   9.741   1.599 -0.8838  0.3298 -0.0656
 9885SOL     OW40333   9.079   8.328   4.637 -0.1419 -0.2397 -0.0585
 9885SOL    HW140334   9.032   8.282   4.561 -0.5225 -1.2075  0.7490
 9885SOL    HW240335   9.015   8.391   4.682 -0.3974 -0.8687  0.4640
 9886SOL     OW40336   0.940   9.437   5.535 -0.4739 -1.0190 -0.0810
 9886SOL    HW140337   0.994   9.353   5.531  0.2319 -0.5229 -1.1581
 9886SOL    HW240338   0.912   9.462   5.442 -2.8130 -1.4292  0.4566
 9887SOL     OW40339   4.919   0.182   4.510 -0.0842 -0.4258  0.2512
 9887SOL    HW140340   4.933   0.255   4.577 -0.4224 -0.5465  0.4576
 9887SOL    HW240341   4.854   0.212   4.441 -0.3519 -0.5841  0.4287
 9888SOL     OW40342   1.355   8.698   3.888  0.3171 -0.2607 -0.3895
 9888SOL    HW140343   1.259   8.671   3.898  1.3600 -3.7372  0.6441
 9888SOL    HW240344   1.387   8.741   3.972  0.2295 -0.8604 -0.0547
 9889SOL     OW40345   9.163   3.574   3.505  0.5498 -0.1683 -0.2853
 9889SOL    HW140346   9.189   3.493   3.452  0.5048 -0.1970 -0.2631
 9889SOL    HW240347   9.158   3.653   3.444 -3.6679 -0.9772 -1.1716
 9890SOL     OW40348   8.031   0.243   1.787  0.0616 -0.2598 -0.3289
 9890SOL    HW140349   7.946   0.290   1.764  0.2245  0.2739  0.1430
 9890SOL    HW240350   8.049   0.253   1.885  0.6126 -0.4617 -0.4087
 9891SOL     OW40351   8.415   9.913   4.794  0.0123  0.3248 -0.5598
 9891SOL    HW140352   8.331   9.925   4.848 -0.1201  0.7015 -0.8426
 9891SOL    HW240353   8.456   9.824   4.815 -0.4946  0.1104 -0.4646
 9892SOL     OW40354   3.292   8.134   1.837 -0.0149  0.3278 -0.1425
 9892SOL    HW140355   3.298   8.113   1.935  0.6685  0.2624 -0.1941
 9892SOL    HW240356   3.277   8.050   1.786 -1.3518  0.4773 -0.0238
 9893SOL     OW40357   0.140   9.550   5.431  0.7085 -0.2127  0.1455
 9893SOL    HW140358   0.192   9.465   5.417 -0.2797 -0.6055 -1.2820
 9893SOL    HW240359   0.121   9.592   5.342  0.7537  1.2517  0.8194
 9894SOL     OW40360   8.758   9.535   2.172  0.2259 -0.8216 -0.1742
 9894SOL    HW140361   8.843   9.588   2.172 -0.3140  0.0723 -1.5619
 9894SOL    HW240362   8.764   9.463   2.103 -0.7477  0.2665 -1.4204
 9895SOL     OW40363   0.082   3.917   2.929  0.0964  0.1312  0.0070
 9895SOL    HW140364   0.097   3.988   2.998 -0.2793 -0.6277  0.8757
 9895SOL    HW240365   0.150   3.925   2.857  1.5573 -0.1565  1.3468
 9896SOL     OW40366   0.574   3.281   4.329  0.0173  0.2338 -0.3891
 9896SOL    HW140367   0.556   3.346   4.255  0.8820 -0.1701 -0.9736
 9896SOL    HW240368   0.671   3.256   4.328 -0.3161 -1.1324 -0.2364
 9897SOL     OW40369   2.380   3.801   1.542  0.0418  0.0246  0.1901
 9897SOL    HW140370   2.311   3.729   1.554  0.4989 -0.5079 -0.3674
 9897SOL    HW240371   2.337   3.891   1.554 -0.8703 -0.2829 -0.7445
 9898SOL     OW40372   3.976   7.537   2.045 -0.0340 -0.2741 -0.4319
 9898SOL    HW140373   4.018   7.459   2.091  0.4830 -0.5759 -1.4213
 9898SOL    HW240374   4.019   7.622   2.078  0.7665 -0.5298 -0.8130
 9899SOL     OW40375   4.908   3.494   0.025  0.0060 -0.3653 -0.0880
 9899SOL    HW140376   4.843   3.446  -0.033 -1.1259  0.7507  0.2309
 9899SOL    HW240377   4.946   3.572  -0.025 -0.3423  0.1043  0.3716
 9900SOL     OW40378   8.813   6.798   2.949 -0.5182 -0.0922 -0.2870
 9900SOL    HW140379   8.758   6.860   3.004  1.5114  1.2359  0.2944
 9900SOL    HW240380   8.819   6.834   2.855 -0.5050 -0.1520 -0.3093
 9901SOL     OW40381   2.461   4.559   3.758  0.2980  0.0864  0.1838
 9901SOL    HW140382   2.370   4.582   3.792 -1.2398 -2.3871 -2.1207
 9901SOL    HW240383   2.481   4.463   3.778  1.4276 -0.0321 -1.4188
 9902SOL     OW40384   3.020   3.433   4.530  0.0044  0.6258  0.2741
 9902SOL    HW140385   2.944   3.382   4.569 -0.1679  0.9444  0.3561
 9902SOL    HW240386   3.071   3.375   4.466 -0.4980  0.5133 -0.0210
 9903SOL     OW40387   8.672   3.872   2.112  0.3209 -0.3666  0.3068
 9903SOL    HW140388   8.628   3.891   2.024 -0.1128  0.3058  0.6602
 9903SOL    HW240389   8.696   3.959   2.156  0.5395 -0.6998  0.8460
 9904SOL     OW40390   0.735   1.431   5.299  0.2039 -0.1740  0.4284
 9904SOL    HW140391   0.736   1.359   5.368 -4.1182 -0.9903 -0.2027
 9904SOL    HW240392   0.705   1.393   5.211  1.8384  1.6157 -0.9537
 9905SOL     OW40393   2.094   3.154   4.966  0.5413 -0.0423 -0.0186
 9905SOL    HW140394   2.155   3.202   4.903  0.3925 -1.0346 -0.9321
 9905SOL    HW240395   2.146   3.089   5.021  0.5123  0.0766  0.1501
 9906SOL     OW40396   8.886   6.719   1.830 -0.2234 -0.2680  0.0202
 9906SOL    HW140397   8.862   6.799   1.777 -1.2393 -1.6584 -1.6692
 9906SOL    HW240398   8.841   6.723   1.920 -0.8629  0.6822 -0.3438
 9907SOL     OW40399   9.502   3.120   3.398 -0.0677 -0.1682  0.1758
 9907SOL    HW140400   9.532   3.063   3.321  0.0709  0.4895 -0.2531
 9907SOL    HW240401   9.545   3.210   3.392 -0.9390  0.2678  0.4011
 9908SOL     OW40402   9.802   0.880   1.202 -0.1020  0.5789  0.2294
 9908SOL    HW140403   9.793   0.855   1.106 -1.5868  1.4033  0.1449
 9908SOL    HW240404   9.773   0.975   1.216 -0.9192  0.1405  1.6592
 9909SOL     OW40405   9.607   0.280   0.292 -0.5888 -0.5495 -0.1243
 9909SOL    HW140406   9.612   0.236   0.202  2.2414 -0.0942 -0.2221
 9909SOL    HW240407   9.556   0.366   0.284 -3.6575 -2.3139 -0.4901
 9910SOL     OW40408   9.271   7.966   4.287  0.6568  0.0486  0.1436
 9910SOL    HW140409   9.311   8.058   4.284 -0.2145  0.4425  0.7399
 9910SOL    HW240410   9.339   7.902   4.321  1.2259  0.4885 -0.1498
 9911SOL     OW40411   2.432   6.271   3.825  0.3614 -0.7847 -0.7142
 9911SOL    HW140412   2.399   6.177   3.829  0.0290 -0.5715  3.1096
 9911SOL    HW240413   2.354   6.333   3.819  0.3948 -0.6155  0.4997
 9912SOL     OW40414   0.201   6.034   1.060  0.0908 -0.2250 -0.4198
 9912SOL    HW140415   0.165   5.974   1.132 -0.6146 -0.4230 -0.9307
 9912SOL    HW240416   0.262   6.101   1.101  0.3021 -0.8219  0.2648
 9913SOL     OW40417   1.343   6.890   1.398  0.3067 -0.3632  0.3297
 9913SOL    HW140418   1.390   6.810   1.361 -0.4364 -1.4662  1.7307
 9913SOL    HW240419   1.279   6.862   1.469 -0.3323  1.4304  0.5068
 9914SOL     OW40420   9.538   4.554   3.335  0.3306  0.2896  0.1371
 9914SOL    HW140421   9.473   4.479   3.342  1.7595 -0.8913  0.8684
 9914SOL    HW240422   9.592   4.544   3.251 -0.2816  1.1648 -0.3724
 9915SOL     OW40423   0.029   2.329   3.652 -0.3395 -0.4073  0.4261
 9915SOL    HW140424   0.031   2.309   3.750 -0.4962 -1.7334  0.1716
 9915SOL    HW240425  -0.041   2.397   3.633 -0.4033 -0.2492  1.2143
 9916SOL     OW40426   7.087   1.090   4.154  0.5054  0.2722  0.2974
 9916SOL    HW140427   7.075   1.136   4.066  0.1673 -1.6035 -0.6790
 9916SOL    HW240428   7.007   1.106   4.211 -1.4693 -2.3224 -1.5766
 9917SOL     OW40429   9.222   8.743   2.839  0.2586  0.2669  0.5250
 9917SOL    HW140430   9.186   8.691   2.762 -0.0085  1.7437 -0.3732
 9917SOL    HW240431   9.255   8.832   2.807 -0.1554  1.0343  2.1568
 9918SOL     OW40432   4.177   3.926   2.049 -0.1900  0.1494 -0.0103
 9918SOL    HW140433   4.119   4.007   2.057  0.0527  0.4546 -1.2332
 9918SOL    HW240434   4.266   3.951   2.011 -0.6389 -0.8866 -1.8321
 9919SOL     OW40435   3.023   3.004   4.194 -0.1624  0.2997  0.1845
 9919SOL    HW140436   2.979   3.059   4.124 -0.8125  0.5846  0.8067
 9919SOL    HW240437   3.119   3.031   4.202 -0.2100  0.6000 -0.2555
 9920SOL     OW40438   0.965   2.996   3.564 -0.2554 -0.4807 -0.3487
 9920SOL    HW140439   1.004   2.940   3.491  0.1688  0.4929 -0.8731
 9920SOL    HW240440   0.992   2.958   3.653  1.5400 -0.0806 -0.7018
 9921SOL     OW40441   2.733   2.301   3.638  0.2788 -0.2706 -0.2125
 9921SOL    HW140442   2.660   2.267   3.578  1.2718 -0.0454 -1.5770
 9921SOL    HW240443   2.693   2.333   3.724 -1.1159 -1.0993 -0.5241
 9922SOL     OW40444   7.372   8.223   1.288 -0.4253  0.1617 -0.2273
 9922SOL    HW140445   7.287   8.196   1.333 -0.0207  1.1156  1.1490
 9922SOL    HW240446   7.383   8.171   1.204 -1.5754 -1.1295  0.3933
 9923SOL     OW40447   4.416   1.398   4.907  0.0822  0.1447  0.5317
 9923SOL    HW140448   4.317   1.394   4.892  0.0602  0.8373  0.4806
 9923SOL    HW240449   4.463   1.404   4.819  0.3087 -2.5989  0.4139
 9924SOL     OW40450   1.577   9.510   0.349 -0.1873 -0.3492 -0.2282
 9924SOL    HW140451   1.488   9.499   0.304  0.3194 -0.0965 -1.3056
 9924SOL    HW240452   1.615   9.600   0.328  0.1320 -0.2882  0.5807
 9925SOL     OW40453   4.177   1.941   0.253  0.2428 -0.0597 -0.2342
 9925SOL    HW140454   4.188   1.940   0.154  0.9375 -1.1716 -0.1578
 9925SOL    HW240455   4.083   1.966   0.276  0.0857  0.2325 -1.1687
 9926SOL     OW40456   0.976   8.016   0.378  0.1575 -0.1943  0.2868
 9926SOL    HW140457   0.974   8.028   0.279  0.1231 -1.3321  0.1495
 9926SOL    HW240458   0.988   8.105   0.422 -1.1714  0.4701 -0.6788
 9927SOL     OW40459   7.531   0.087   4.759 -0.8885  0.6567  0.6185
 9927SOL    HW140460   7.471   0.122   4.687 -0.9878  0.5723  0.6604
 9927SOL    HW240461   7.552   0.159   4.824  1.0959  1.4054 -0.7742
 9928SOL     OW40462   2.860   6.990   5.404  0.6048  0.3192 -0.1386
 9928SOL    HW140463   2.909   6.983   5.317  0.8775  0.1706  0.0246
 9928SOL    HW240464   2.852   7.085   5.431 -0.1192  0.4183 -0.6855
 9929SOL     OW40465   0.139   0.991   2.100 -0.2156 -0.1524 -0.1392
 9929SOL    HW140466   0.192   1.045   2.165  1.0034  1.0875 -2.0971
 9929SOL    HW240467   0.105   0.909   2.145  1.9820 -0.1633  1.6070
 9930SOL     OW40468   3.916   1.159   1.436 -0.2924 -0.2405 -0.0927
 9930SOL    HW140469   3.905   1.220   1.514 -0.5737  0.3598 -0.6020
 9930SOL    HW240470   3.827   1.124   1.408 -0.4659  1.2691 -1.5204
 9931SOL     OW40471   9.721   3.287   3.132  0.3087  0.2038 -0.3382
 9931SOL    HW140472   9.650   3.297   3.062  1.3905  1.2198 -1.3249
 9931SOL    HW240473   9.681   3.300   3.223 -0.8515  0.2378 -0.8492
 9932SOL     OW40474   1.304   7.402   2.051 -0.3090  0.4474  0.2980
 9932SOL    HW140475   1.375   7.456   2.006 -2.5813  4.2491  1.0027
 9932SOL    HW240476   1.324   7.397   2.149  0.4603 -1.0422  0.0932
 9933SOL     OW40477   6.737   7.452   3.355  0.4834  0.1789  0.1137
 9933SOL    HW140478   6.714   7.413   3.266 -1.7801  0.8106  0.3902
 9933SOL    HW240479   6.697   7.543   3.362  0.3858  0.0061  1.9011
 9934SOL     OW40480   0.714   0.010   1.084  0.1136 -0.0300 -0.2494
 9934SOL    HW140481   0.802   0.001   1.131  0.5416 -0.4800 -1.1243
 9934SOL    HW240482   0.699  -0.070   1.026 -1.1077 -0.1794  0.2699
 9935SOL     OW40483   2.851   9.654   0.442 -0.1118  0.0960  0.5704
 9935SOL    HW140484   2.821   9.711   0.366 -0.6377 -0.5918  0.2476
 9935SOL    HW240485   2.951   9.653   0.446 -0.1034  1.3162  0.8002
 9936SOL     OW40486   1.101   0.909   3.043  0.1139  0.2363  0.8309
 9936SOL    HW140487   1.142   0.838   2.984  0.9958  0.0814  1.6259
 9936SOL    HW240488   1.011   0.933   3.007  0.2537 -0.5237 -0.0642
 9937SOL     OW40489   1.949   8.996   3.409  0.5676 -0.1770  0.1748
 9937SOL    HW140490   2.012   9.069   3.436  0.2334  0.2216 -0.1192
 9937SOL    HW240491   1.861   9.036   3.383  0.0798 -0.7583  0.9063
 9938SOL     OW40492   2.932   1.765   3.207 -0.5085  0.8561  0.0887
 9938SOL    HW140493   2.923   1.666   3.218 -1.1677  0.8287 -0.6772
 9938SOL    HW240494   2.993   1.786   3.131 -1.4916  1.0290 -0.6647
 9939SOL     OW40495   3.818   1.767   2.021  0.4525  0.0009  0.3327
 9939SOL    HW140496   3.865   1.840   1.970 -0.2377  0.8347  0.8635
 9939SOL    HW240497   3.878   1.688   2.029  0.9398  0.2335 -0.9066
 9940SOL     OW40498   4.593   0.776   1.923 -0.1551  0.1147  0.2167
 9940SOL    HW140499   4.664   0.793   1.991  0.3263  0.6461 -0.4180
 9940SOL    HW240500   4.606   0.837   1.844 -2.0060  1.0740  0.6122
 9941SOL     OW40501   3.289   6.826   4.358 -0.0515 -0.4279 -0.0817
 9941SOL    HW140502   3.287   6.921   4.389  0.3675  0.2242 -2.0084
 9941SOL    HW240503   3.341   6.771   4.423 -0.2911  0.6543  1.0432
 9942SOL     OW40504   9.729   3.037   2.112  0.0300 -0.0767  0.1106
 9942SOL    HW140505   9.818   3.046   2.069 -0.2225  1.2639 -0.1736
 9942SOL    HW240506   9.671   3.115   2.086 -2.2744 -2.4428 -2.1528
 9943SOL     OW40507   5.399   1.440   2.567 -0.3005 -0.1116 -0.5595
 9943SOL    HW140508   5.431   1.357   2.612  0.7637  0.2018 -0.7181
 9943SOL    HW240509   5.318   1.420   2.512 -1.5392 -0.5312  1.3630
 9944SOL     OW40510   3.906   3.495   2.876  0.3083  0.1807 -0.0909
 9944SOL    HW140511   3.917   3.407   2.921 -0.4763 -0.4032 -1.0003
 9944SOL    HW240512   3.808   3.517   2.871  0.5408  1.4766  0.8226
 9945SOL     OW40513   9.392   3.634   2.752 -0.4389  0.1879 -0.0625
 9945SOL    HW140514   9.488   3.624   2.779 -0.6782 -1.2767  0.2561
 9945SOL    HW240515   9.373   3.574   2.675 -0.9944  0.8116 -0.4170
 9946SOL     OW40516   3.341   1.368   4.600 -0.0377 -0.5793  1.0954
 9946SOL    HW140517   3.432   1.404   4.582  0.1418 -1.3252  0.5022
 9946SOL    HW240518   3.273   1.436   4.575  0.3274 -0.3886  0.6112
 9947SOL     OW40519   0.456   2.926   4.011 -0.1330 -0.4525 -0.0437
 9947SOL    HW140520   0.521   2.967   4.074 -0.5554 -0.1357  0.1911
 9947SOL    HW240521   0.492   2.839   3.977  0.1024 -0.6114  0.6135
 9948SOL     OW40522   2.673   1.459   1.481  0.3949 -0.2342  0.1198
 9948SOL    HW140523   2.745   1.440   1.548  0.8709  0.3661 -0.2168
 9948SOL    HW240524   2.671   1.557   1.462 -1.3141 -0.0706  1.0344
 9949SOL     OW40525   2.763   1.180   5.469  0.5605  0.4096  0.5458
 9949SOL    HW140526   2.856   1.150   5.488  0.2393 -1.3157 -0.4851
 9949SOL    HW240527   2.714   1.192   5.555  0.9380 -1.3190  1.0217
 9950SOL     OW40528   0.546   9.239   0.157  0.4138  0.0222 -0.1502
 9950SOL    HW140529   0.606   9.175   0.206 -0.2889  0.7144  1.6849
 9950SOL    HW240530   0.535   9.322   0.212 -1.9113  0.0556 -0.6315
 9951SOL     OW40531   7.945   0.148   1.139  0.4759  0.0163  0.2160
 9951SOL    HW140532   8.003   0.194   1.206  0.1542 -3.0835  2.6883
 9951SOL    HW240533   7.873   0.212   1.109  2.1798  2.2775  0.7903
 9952SOL     OW40534   0.474   1.430   5.423  0.5974  0.1948  0.4453
 9952SOL    HW140535   0.529   1.472   5.350  0.1964  0.1583  0.1204
 9952SOL    HW240536   0.403   1.372   5.382  1.5573 -1.3444  0.8828
 9953SOL     OW40537   3.364   2.713   4.396 -0.0324 -0.8565  0.5935
 9953SOL    HW140538   3.462   2.702   4.380  0.1236  0.7747  0.3602
 9953SOL    HW240539   3.313   2.656   4.331  0.7560 -1.6690  0.6798
 9954SOL     OW40540   0.831   0.203   4.674  0.4692  0.2718 -0.1370
 9954SOL    HW140541   0.753   0.166   4.723  0.8489 -0.7687 -0.2889
 9954SOL    HW240542   0.826   0.303   4.672 -1.1198  0.1968 -0.5973
 9955SOL     OW40543   3.189   6.421   0.922  0.9911 -0.0525 -0.6033
 9955SOL    HW140544   3.251   6.343   0.929  0.8029 -0.5346 -3.5499
 9955SOL    HW240545   3.213   6.476   0.841 -0.5724  1.4185 -0.1167
 9956SOL     OW40546   0.461   1.936   0.307 -0.3617  0.0503 -0.2421
 9956SOL    HW140547   0.446   2.001   0.381 -1.0735 -1.4362  0.9290
 9956SOL    HW240548   0.434   1.978   0.220  1.6477  2.2604  0.1257
 9957SOL     OW40549   8.082   9.310   1.505 -0.3298 -0.2364 -0.1727
 9957SOL    HW140550   8.161   9.350   1.551 -0.5294 -0.7489  0.6141
 9957SOL    HW240551   8.020   9.271   1.572 -2.7200  2.7223 -0.5442
 9958SOL     OW40552   0.088   3.091   3.807 -0.3214 -0.4480 -0.2159
 9958SOL    HW140553   0.080   3.077   3.708 -1.8555  0.3802 -0.2344
 9958SOL    HW240554   0.019   3.036   3.854  0.4693 -0.9159  0.4189
 9959SOL     OW40555   8.806   7.056   2.432  0.3362  0.0640 -0.5829
 9959SOL    HW140556   8.906   7.056   2.431  0.4000  0.5358  2.0900
 9959SOL    HW240557   8.773   6.969   2.468 -0.1032  1.1638  1.7538
 9960SOL     OW40558   6.369   9.619   4.244  0.4690 -0.3938 -0.1866
 9960SOL    HW140559   6.339   9.709   4.211 -0.3414 -0.5570  0.1003
 9960SOL    HW240560   6.396   9.627   4.340  2.5084  0.0089 -0.7795
 9961SOL     OW40561   3.283   2.111   0.317 -0.6739  0.0519 -0.3130
 9961SOL    HW140562   3.183   2.110   0.316 -0.6855  0.8343 -0.2091
 9961SOL    HW240563   3.316   2.192   0.365  0.0131  0.1512 -0.9304
 9962SOL     OW40564   1.576   4.820   2.581  0.6436 -0.4390 -0.0623
 9962SOL    HW140565   1.612   4.906   2.618 -0.7739  0.6462 -1.1123
 9962SOL    HW240566   1.649   4.752   2.577  2.2212  1.2416 -0.7753
 9963SOL     OW40567   0.010   6.391   3.100 -0.5544  0.0738  0.3561
 9963SOL    HW140568   0.060   6.385   3.013 -0.2281  2.7541  0.3243
 9963SOL    HW240569  -0.084   6.360   3.086 -0.2007 -0.5493 -0.7023
 9964SOL     OW40570   3.782   2.522   2.177 -0.0191  0.3531  0.8499
 9964SOL    HW140571   3.719   2.592   2.211 -1.1302  0.7146 -1.7829
 9964SOL    HW240572   3.734   2.463   2.112  1.7332 -0.9209  0.6796
 9965SOL     OW40573   4.307   0.588   0.854 -0.0894  0.0668 -0.1713
 9965SOL    HW140574   4.282   0.628   0.766  0.4349  0.8549  0.0381
 9965SOL    HW240575   4.406   0.584   0.862 -0.1385 -0.1185  0.3372
 9966SOL     OW40576   4.567   7.845   1.988 -0.5588  0.0719  0.5391
 9966SOL    HW140577   4.531   7.927   1.944 -0.3091 -0.1270 -0.0351
 9966SOL    HW240578   4.664   7.835   1.966 -1.1184 -1.5962 -1.2253
 9967SOL     OW40579   2.073   6.002   0.352  0.4837 -0.2384 -0.5196
 9967SOL    HW140580   2.031   5.911   0.359 -0.8986  0.4878  0.9928
 9967SOL    HW240581   2.003   6.068   0.324  1.4443  0.3971 -1.4307
 9968SOL     OW40582   1.676   9.901   1.026 -0.6083  0.4063 -0.5687
 9968SOL    HW140583   1.690   9.803   1.040  0.4137  0.6099 -0.0860
 9968SOL    HW240584   1.730   9.931   0.947  1.2164  1.0710  0.8851
 9969SOL     OW40585   1.461   2.040   2.097 -0.5309 -0.1488 -0.2768
 9969SOL    HW140586   1.442   1.980   2.019  0.8968  0.9855 -1.5134
 9969SOL    HW240587   1.557   2.066   2.097 -0.3804 -0.5753  2.1974
 9970SOL     OW40588   2.460   4.260   0.772  0.4467 -0.4199  0.4787
 9970SOL    HW140589   2.478   4.346   0.723 -0.3217 -0.4780  0.0976
 9970SOL    HW240590   2.486   4.183   0.714  0.1666 -0.4721  0.4228
 9971SOL     OW40591   1.552   3.485   3.293  0.4284  0.5471 -0.0196
 9971SOL    HW140592   1.454   3.464   3.288  0.3350  0.3842  2.1451
 9971SOL    HW240593   1.595   3.462   3.205 -0.9310 -2.2797 -0.0156
 9972SOL     OW40594   4.573   5.714   1.402 -0.3113  0.7644 -0.2464
 9972SOL    HW140595   4.635   5.776   1.353  0.3123 -0.9245 -1.6693
 9972SOL    HW240596   4.627   5.643   1.447 -1.0540  0.9250  0.9113
 9973SOL     OW40597   0.653   7.476   1.761 -0.6292 -0.1309  0.3266
 9973SOL    HW140598   0.614   7.385   1.762 -0.8239 -0.0378  1.0861
 9973SOL    HW240599   0.750   7.470   1.737 -0.7869 -0.4724 -0.2496
 9974SOL     OW40600   2.880   6.518   4.028  0.5834 -0.4049 -0.5777
 9974SOL    HW140601   2.972   6.556   4.019  1.2925 -2.2495 -1.2090
 9974SOL    HW240602   2.860   6.501   4.125  1.2584 -0.8434 -0.5140
 9975SOL     OW40603   0.693   8.626   0.208  0.2404  0.0753  0.1841
 9975SOL    HW140604   0.636   8.648   0.129 -0.9021 -2.1318  0.3649
 9975SOL    HW240605   0.649   8.553   0.262  2.4915 -0.5923  1.1622
 9976SOL     OW40606   5.339   0.997   3.297  0.4711 -0.3029 -0.5427
 9976SOL    HW140607   5.289   1.074   3.338 -0.0950 -1.3423  0.7545
 9976SOL    HW240608   5.343   1.010   3.198 -2.7934 -0.4013 -0.7465
 9977SOL     OW40609   5.658   0.861   2.222 -0.4914  0.6699  0.4177
 9977SOL    HW140610   5.577   0.904   2.263 -0.8015  0.5686 -0.0794
 9977SOL    HW240611   5.706   0.808   2.292 -1.2840  0.1000  0.5529
 9978SOL     OW40612   7.392   7.659   2.378 -0.1128  0.2001 -0.6073
 9978SOL    HW140613   7.296   7.647   2.353 -0.4418 -0.7928  1.0671
 9978SOL    HW240614   7.442   7.575   2.355  0.7865  1.4208 -3.3127
 9979SOL     OW40615   4.357   3.741   3.142  0.0816  0.1282 -0.5353
 9979SOL    HW140616   4.296   3.669   3.175 -1.4837  1.4209 -0.5718
 9979SOL    HW240617   4.311   3.830   3.150  1.9767  1.1242 -0.5184
 9980SOL     OW40618   1.696   0.069   2.182  0.4601  0.0145  0.3358
 9980SOL    HW140619   1.751  -0.001   2.228 -0.6199 -0.5997  0.7137
 9980SOL    HW240620   1.747   0.107   2.105  1.6670 -0.0667  1.0921
 9981SOL     OW40621   1.294   9.829   5.581 -0.2900 -0.1682 -0.2159
 9981SOL    HW140622   1.340   9.855   5.496  0.0137 -1.2436 -0.3926
 9981SOL    HW240623   1.240   9.747   5.565  0.0608 -0.5914  0.7212
 9982SOL     OW40624   6.254   8.765   3.115 -0.0756 -0.3532 -0.1019
 9982SOL    HW140625   6.316   8.760   3.194  1.2196 -2.1238 -1.1918
 9982SOL    HW240626   6.249   8.860   3.083  1.1697  0.0046  0.7032
 9983SOL     OW40627   3.587   2.408   5.369 -0.1199  0.2625 -0.4601
 9983SOL    HW140628   3.632   2.326   5.404  0.2755  1.0373  0.8609
 9983SOL    HW240629   3.514   2.381   5.306  1.2284 -1.0418 -1.5077
 9984SOL     OW40630   2.533   1.830   3.308 -0.3829 -0.5227  0.1192
 9984SOL    HW140631   2.535   1.733   3.330  0.0777 -0.4582  0.3769
 9984SOL    HW240632   2.609   1.876   3.354 -0.1429 -0.1746 -0.6226
 9985SOL     OW40633   5.310   9.152   2.127 -0.0430 -0.0669  0.4021
 9985SOL    HW140634   5.349   9.065   2.097 -1.2234 -0.9410  1.3980
 9985SOL    HW240635   5.227   9.136   2.180 -0.8658  1.7058 -0.2835
 9986SOL     OW40636   2.322   3.564   3.418  0.3117 -0.2976 -0.0950
 9986SOL    HW140637   2.256   3.494   3.445  0.1558 -0.3660 -0.6446
 9986SOL    HW240638   2.415   3.529   3.429  0.3071  0.2114  1.8269
 9987SOL     OW40639   4.342   3.510   4.850 -0.1424 -0.2306  0.4094
 9987SOL    HW140640   4.340   3.435   4.916 -1.5164 -0.2828  0.3351
 9987SOL    HW240641   4.324   3.475   4.759 -1.6104  0.2712  0.4846
 9988SOL     OW40642   0.145   0.052   1.253 -0.3296  0.1705  0.1621
 9988SOL    HW140643   0.207   0.130   1.267  0.5997 -0.4640 -0.3325
 9988SOL    HW240644   0.153   0.021   1.158 -2.0593  0.6243 -0.1475
 9989SOL     OW40645   4.210   3.985   1.625  0.3588  0.4472  0.1804
 9989SOL    HW140646   4.150   4.048   1.675 -0.1278 -0.2841  0.5235
 9989SOL    HW240647   4.303   3.993   1.660  0.4138  1.3853 -0.1647
 9990SOL     OW40648   3.572   4.938   2.309  0.5822  0.2990 -0.5431
 9990SOL    HW140649   3.504   4.879   2.266  0.7045 -0.9355  0.9136
 9990SOL    HW240650   3.639   4.967   2.240  0.7301 -1.5822 -1.2256
 9991SOL     OW40651   3.363   9.046   1.316 -0.7807 -0.2888  0.9752
 9991SOL    HW140652   3.369   9.142   1.291 -0.2057 -1.1896 -2.7490
 9991SOL    HW240653   3.284   9.031   1.376 -2.5628  2.0624 -0.7149
 9992SOL     OW40654   0.094   7.561   0.983  0.3477  0.0126 -0.0214
 9992SOL    HW140655   0.184   7.602   0.972 -0.3485  1.2859 -1.3395
 9992SOL    HW240656   0.032   7.599   0.914 -0.7342 -2.1785 -0.3132
 9993SOL     OW40657   2.339   6.238   0.574  0.1658 -0.3185  0.4011
 9993SOL    HW140658   2.398   6.319   0.572  0.3633 -0.4770 -1.0588
 9993SOL    HW240659   2.302   6.222   0.482 -2.3588 -0.0780  1.3202
 9994SOL     OW40660   0.816   1.603   0.494  0.7500 -0.3973  0.1775
 9994SOL    HW140661   0.884   1.664   0.453  0.8750 -0.0700  0.8682
 9994SOL    HW240662   0.848   1.572   0.583 -0.1888  0.0969  0.6969
 9995SOL     OW40663   7.729   2.423   3.312  0.1986 -0.0004 -0.2636
 9995SOL    HW140664   7.730   2.497   3.245  0.9495 -1.0963 -1.4985
 9995SOL    HW240665   7.814   2.370   3.304  0.0201 -0.5036  1.1450
 9996SOL     OW40666   3.217   9.667   5.316  0.0833  0.0147  0.3307
 9996SOL    HW140667   3.203   9.658   5.217 -0.7254 -2.0996  0.6096
 9996SOL    HW240668   3.245   9.579   5.353 -0.7548  0.5038  2.1774
 9997SOL     OW40669   7.733   9.418   4.002  0.3271 -0.0550  0.8907
 9997SOL    HW140670   7.794   9.385   3.930  0.2484  0.8278  0.4071
 9997SOL    HW240671   7.681   9.341   4.039 -1.1657 -0.2432 -1.4543
 9998SOL     OW40672   8.604   7.067   3.113 -0.1242 -0.3245 -0.4891
 9998SOL    HW140673   8.524   7.015   3.085  0.2043 -0.5111 -1.0838
 9998SOL    HW240674   8.652   7.101   3.032  0.3405 -0.1254 -0.1338
 9999SOL     OW40675   6.463   0.146   4.568  0.1195  0.1905  0.0708
 9999SOL    HW140676   6.561   0.165   4.564 -0.0946  0.9593 -1.8532
 9999SOL    HW240677   6.413   0.232   4.584 -0.2923 -0.1065  0.4045
10000SOL     OW40678   8.055   9.139   1.750  0.5371  0.2374 -0.1293
10000SOL    HW140679   8.144   9.112   1.786  0.3479 -1.5596 -0.9548
10000SOL    HW240680   7.999   9.057   1.736 -0.4130  1.1504 -1.7682
10001SOL     OW40681   4.539   8.557   5.585  0.2177 -0.7425 -0.2463
10001SOL    HW140682   4.630   8.514   5.587 -0.0079 -1.3117 -1.5404
10001SOL    HW240683   4.469   8.487   5.594 -0.1200 -0.4523 -0.5901
10002SOL     OW40684   2.863   3.338   3.834  0.0689  0.3418 -0.6605
10002SOL    HW140685   2.916   3.402   3.778 -0.0580  1.2627  0.2619
10002SOL    HW240686   2.898   3.339   3.928 -0.9282  0.2151 -0.2817
10003SOL     OW40687   8.572   7.652   2.438 -0.0451  0.0099 -0.2321
10003SOL    HW140688   8.659   7.623   2.479 -0.7816  0.2168  1.5397
10003SOL    HW240689   8.590   7.708   2.358  1.4734  0.6933  0.5666
10004SOL     OW40690   9.419   2.810   3.567  0.1474  0.3621  0.2857
10004SOL    HW140691   9.445   2.888   3.625 -0.5114 -0.3707  1.6035
10004SOL    HW240692   9.330   2.827   3.526 -0.5819 -0.2050  1.5848
10005SOL     OW40693   7.801   1.055   0.668 -0.8396 -0.4080  0.5254
10005SOL    HW140694   7.706   1.028   0.656 -0.6408 -1.5115  1.3553
10005SOL    HW240695   7.860   0.976   0.653  0.0310  0.5176 -1.0853
10006SOL     OW40696   9.520   5.828   2.250 -0.0554  0.1943  0.1918
10006SOL    HW140697   9.426   5.859   2.260  0.1118  0.8046 -0.1611
10006SOL    HW240698   9.583   5.902   2.274  0.3408  0.0643 -0.4435
10007SOL     OW40699   0.250   1.544   2.097 -0.7789  0.5433  0.0798
10007SOL    HW140700   0.256   1.644   2.094 -1.3833  0.5915  0.3048
10007SOL    HW240701   0.157   1.516   2.074 -0.8165  0.0763  0.7846
10008SOL     OW40702   3.459   1.531   1.926  0.2873 -0.0084  0.4558
10008SOL    HW140703   3.557   1.552   1.930  0.1296  1.2232 -1.2688
10008SOL    HW240704   3.435   1.502   1.834 -0.6534 -2.1329  1.3407
10009SOL     OW40705   8.995   1.784   1.978 -0.1100  0.2739 -0.2434
10009SOL    HW140706   9.069   1.718   1.968  0.5095  0.7754  0.9136
10009SOL    HW240707   9.033   1.876   1.988 -0.9208  0.6605 -0.6469
10010SOL     OW40708   1.550   5.973   0.036  0.5523  0.0392  0.6553
10010SOL    HW140709   1.454   6.002   0.032  0.9963  1.7019  1.5375
10010SOL    HW240710   1.567   5.928   0.123  0.3197 -1.2174  0.0556
10011SOL     OW40711   0.430   4.648   3.053  0.2132 -0.0121 -0.4054
10011SOL    HW140712   0.351   4.591   3.030  0.8614 -1.2895  0.5424
10011SOL    HW240713   0.397   4.735   3.090 -0.7606  0.0139 -1.2807
10012SOL     OW40714   9.861   9.534   5.480  0.0838 -0.8662  0.2197
10012SOL    HW140715   9.958   9.553   5.462 -0.0183 -1.1252 -0.6277
10012SOL    HW240716   9.835   9.450   5.433 -0.7426 -0.4134 -0.1316
10013SOL     OW40717   3.266   0.241   5.440 -0.5091  0.7945  0.4763
10013SOL    HW140718   3.271   0.155   5.491  0.7701  0.5012 -0.1250
10013SOL    HW240719   3.309   0.314   5.493  1.1669  0.4081 -0.3405
10014SOL     OW40720   8.186   5.994   2.631 -0.1171  0.1905  0.1599
10014SOL    HW140721   8.194   5.920   2.698  0.5195 -0.5554 -0.7185
10014SOL    HW240722   8.271   6.001   2.579 -0.2028  1.4981  0.1809
10015SOL     OW40723   2.821   0.050   3.844  0.3311 -0.5995 -0.2817
10015SOL    HW140724   2.786   0.124   3.901  0.7487  0.2176 -1.0800
10015SOL    HW240725   2.750  -0.020   3.834 -0.4005  0.1340 -0.3096
10016SOL     OW40726   1.893   7.638   2.011  0.3790  0.3652  0.9641
10016SOL    HW140727   1.993   7.627   2.019  0.3779 -0.9341 -0.6221
10016SOL    HW240728   1.849   7.584   2.082  0.7552 -0.4728  0.5649
10017SOL     OW40729   0.328   7.720   2.610 -0.0556 -0.0563  0.2982
10017SOL    HW140730   0.243   7.670   2.628  0.3506 -1.1892 -0.8428
10017SOL    HW240731   0.402   7.678   2.662 -0.1300  0.7597  1.0745
10018SOL     OW40732   1.910   2.621   2.111  0.6069 -0.5840 -1.1215
10018SOL    HW140733   1.921   2.567   2.194  1.2995 -0.5869 -1.2105
10018SOL    HW240734   1.824   2.596   2.066 -0.5768  0.5974  0.4422
10019SOL     OW40735   3.431   4.239   1.587  0.7007 -0.8116  0.6107
10019SOL    HW140736   3.444   4.274   1.494  1.1469 -1.1085  0.5634
10019SOL    HW240737   3.368   4.300   1.636  1.1887 -0.1333  0.4148
10020SOL     OW40738   1.012   3.328   5.170  0.2989 -0.4789  0.4252
10020SOL    HW140739   1.058   3.255   5.121 -1.4084 -1.4924  0.3026
10020SOL    HW240740   0.935   3.362   5.116  0.6886  0.9825  0.7539
10021SOL     OW40741   6.444   7.736   1.962 -0.2400 -0.1333 -0.7028
10021SOL    HW140742   6.380   7.811   1.981  1.1628  0.4792  1.9199
10021SOL    HW240743   6.419   7.656   2.017  0.1826 -0.5007 -1.0433
10022SOL     OW40744   5.259   8.195   4.021  0.5470  0.0376  0.4931
10022SOL    HW140745   5.322   8.252   3.968  1.3803 -0.7623  0.6143
10022SOL    HW240746   5.202   8.142   3.959 -0.7521  1.5402  0.3655
10023SOL     OW40747   9.524   0.771   4.338  0.2010 -0.2720  0.0713
10023SOL    HW140748   9.546   0.824   4.255 -1.2884 -1.0329 -0.8249
10023SOL    HW240749   9.604   0.718   4.365  0.5888 -0.3059 -1.1036
10024SOL     OW40750   0.275   0.950   0.276  0.1454  0.3723  0.8159
10024SOL    HW140751   0.328   1.003   0.342  0.9786  0.5640  0.0151
10024SOL    HW240752   0.298   0.981   0.183 -0.4786 -0.3723  0.4058
10025SOL     OW40753   2.161   3.092   4.605  0.1094  0.3284 -0.1876
10025SOL    HW140754   2.127   3.100   4.511  0.1238  0.3414 -0.1920
10025SOL    HW240755   2.165   2.996   4.631 -0.0896  0.3376 -0.1266
10026SOL     OW40756   0.856   0.588   2.044  0.2001  0.6019 -0.0870
10026SOL    HW140757   0.807   0.502   2.035 -0.8523  1.1452  0.3104
10026SOL    HW240758   0.951   0.576   2.014  0.0818 -0.6992  0.0140
10027SOL     OW40759   3.933   2.567   2.562 -0.3115 -0.4785  0.5925
10027SOL    HW140760   3.891   2.479   2.586 -0.4106 -1.0235 -1.4831
10027SOL    HW240761   4.031   2.563   2.581 -0.0530 -1.5816 -0.9349
10028SOL     OW40762   3.150   2.861   0.081 -0.1146  0.2527 -0.2563
10028SOL    HW140763   3.162   2.895  -0.012 -0.7493  1.1907 -0.0127
10028SOL    HW240764   3.152   2.939   0.145  1.4633 -0.4903  0.6292
10029SOL     OW40765   0.148   0.771   0.459 -0.1050 -0.7759  0.0197
10029SOL    HW140766   0.173   0.813   0.372 -0.8553  1.6020  0.8976
10029SOL    HW240767   0.176   0.675   0.460 -0.3073 -0.9037 -2.9160
10030SOL     OW40768   1.527   6.978   0.889 -0.7897 -0.0104 -0.6942
10030SOL    HW140769   1.478   6.994   0.974 -1.3255 -1.4329 -0.7214
10030SOL    HW240770   1.555   6.882   0.884 -0.7601  0.0587 -2.1161
10031SOL     OW40771   1.963   6.416   0.751 -0.3324 -0.4902  0.1263
10031SOL    HW140772   1.982   6.400   0.848 -0.7056 -0.4881  0.2012
10031SOL    HW240773   1.921   6.507   0.740  2.2316  0.6943 -0.3484
10032SOL     OW40774   3.729   5.371   0.897  0.1288  0.1820  0.2976
10032SOL    HW140775   3.636   5.344   0.869 -0.9621  3.1864  0.8052
10032SOL    HW240776   3.739   5.358   0.995 -0.0836  0.7888  0.3980
10033SOL     OW40777   1.200   4.737   2.073 -0.2818  0.2156 -0.6463
10033SOL    HW140778   1.205   4.726   1.974 -1.5694  1.1134 -0.8219
10033SOL    HW240779   1.204   4.835   2.096 -0.1152  0.0204  0.1794
10034SOL     OW40780   1.543   3.286   2.257  0.8319  0.1474 -0.3985
10034SOL    HW140781   1.531   3.239   2.169 -1.9515 -2.1176  1.1255
10034SOL    HW240782   1.488   3.369   2.258  1.8980  0.8848 -1.2492
10035SOL     OW40783   8.766   0.825   5.235 -0.3559 -0.3480  0.2456
10035SOL    HW140784   8.728   0.916   5.218 -1.7698 -1.1883 -1.1783
10035SOL    HW240785   8.702   0.771   5.290 -0.2185 -1.0208 -0.2447
10036SOL     OW40786   4.936   1.492   4.186 -0.1683  0.3035 -0.3838
10036SOL    HW140787   4.937   1.456   4.093  0.6895 -0.4026 -0.1109
10036SOL    HW240788   4.876   1.572   4.191 -2.4674 -1.3273 -0.9071
10037SOL     OW40789   4.322   3.868   0.767  0.7195  0.4905  0.7550
10037SOL    HW140790   4.307   3.941   0.699 -1.1179  2.3244  3.0532
10037SOL    HW240791   4.390   3.898   0.833  1.0829 -0.5339  0.8578
10038SOL     OW40792   2.245   1.588   4.714 -0.3123 -0.4345 -0.4112
10038SOL    HW140793   2.211   1.682   4.710  3.5142  0.9739 -2.2312
10038SOL    HW240794   2.321   1.584   4.779  1.7111 -1.4513 -2.7588
10039SOL     OW40795   9.368   8.599   3.514 -0.2642  0.0946  0.3250
10039SOL    HW140796   9.389   8.534   3.440  0.1705  1.2364 -0.5762
10039SOL    HW240797   9.313   8.554   3.584 -1.3834 -0.7994 -1.0966
10040SOL     OW40798   0.908   8.183   2.597  0.5699  0.2600  0.2817
10040SOL    HW140799   0.851   8.254   2.640  0.0944  0.6843 -1.0336
10040SOL    HW240800   0.888   8.095   2.639  0.0613  0.6614  0.8947
10041SOL     OW40801   3.298   4.055   5.043  0.6246  0.3279 -0.6450
10041SOL    HW140802   3.286   3.960   5.074  1.2747  1.0083  1.7867
10041SOL    HW240803   3.387   4.089   5.074  0.7691  1.4661 -2.2558
10042SOL     OW40804   0.207   1.130   3.927 -0.0241 -0.2418  0.1604
10042SOL    HW140805   0.193   1.197   3.855  1.0396 -0.6824 -0.4644
10042SOL    HW240806   0.241   1.176   4.009  2.7548 -0.2447 -0.9218
10043SOL     OW40807   2.726   7.785   5.583  0.3540  0.1826 -0.5096
10043SOL    HW140808   2.712   7.689   5.610 -1.3706 -0.1030 -2.3090
10043SOL    HW240809   2.819   7.813   5.609  1.0851 -2.1350 -0.4398
10044SOL     OW40810   1.258   1.015   4.038  0.3722 -0.2287  0.4388
10044SOL    HW140811   1.247   1.113   4.057  1.5140  0.6139 -2.9224
10044SOL    HW240812   1.199   0.989   3.962 -1.5089 -2.6990  2.6234
10045SOL     OW40813   1.003   2.096   4.320  0.5961 -0.1632 -0.5504
10045SOL    HW140814   0.953   2.178   4.292  1.9069  0.6153 -0.6387
10045SOL    HW240815   1.020   2.038   4.240  1.1524  0.3021 -0.7695
10046SOL     OW40816   7.370   8.264   1.697 -0.3127 -0.2158 -0.3245
10046SOL    HW140817   7.434   8.273   1.621  0.9132  0.6485  0.7733
10046SOL    HW240818   7.368   8.350   1.749  0.0129 -1.2670  1.4794
10047SOL     OW40819   9.368   2.829   3.097  0.2544  0.3068  0.1767
10047SOL    HW140820   9.408   2.764   3.161  0.2097  1.0887  1.0007
10047SOL    HW240821   9.288   2.873   3.138 -0.2602  0.2271 -0.7122
10048SOL     OW40822   1.478   9.665   1.073  0.1906  0.2579  0.3230
10048SOL    HW140823   1.446   9.720   0.995  1.0717 -0.0066 -0.2242
10048SOL    HW240824   1.477   9.568   1.048  0.4845  0.1719  0.6442
10049SOL     OW40825   2.402   8.003   0.890  0.2503 -0.4879 -0.1454
10049SOL    HW140826   2.316   8.027   0.934  0.7378 -0.2387  0.6654
10049SOL    HW240827   2.384   7.944   0.811 -0.7035  0.0271 -0.3121
10050SOL     OW40828   1.865   0.913   0.501  0.0515 -0.3319 -0.1528
10050SOL    HW140829   1.906   0.954   0.583  1.3557  0.1674 -1.0408
10050SOL    HW240830   1.906   0.824   0.484 -0.8049 -0.7997  0.1889
10051SOL     OW40831   4.139   1.383   4.848 -0.4597  0.0008  0.2175
10051SOL    HW140832   4.111   1.327   4.926  1.8613 -1.4421  0.0924
10051SOL    HW240833   4.119   1.334   4.764  1.1458 -0.4703  0.0900
10052SOL     OW40834   2.276   7.757   1.026  0.2616  0.5978  0.7714
10052SOL    HW140835   2.361   7.710   1.048  0.4087  0.4070 -0.2073
10052SOL    HW240836   2.294   7.855   1.013  0.6426  0.2923 -1.1585
10053SOL     OW40837   9.800   0.045   0.498  0.0429  0.4867  0.5599
10053SOL    HW140838   9.838   0.101   0.572 -1.8863  1.2347  1.0056
10053SOL    HW240839   9.703   0.065   0.488  0.1620 -0.0482 -1.8020
10054SOL     OW40840   8.518   0.438   4.960 -0.2718  0.1957  0.1618
10054SOL    HW140841   8.546   0.432   4.865 -1.6060 -0.0625 -0.2265
10054SOL    HW240842   8.420   0.421   4.967 -0.3079  0.8776  1.5009
10055SOL     OW40843   9.470   9.942   5.156  0.5518  0.1167  0.3775
10055SOL    HW140844   9.374   9.967   5.144  0.6904 -0.2413 -1.4867
10055SOL    HW240845   9.528  10.010   5.110  1.1872  0.1500  1.2176
10056SOL     OW40846   6.841   0.507   4.395 -0.0190 -0.4782  0.3918
10056SOL    HW140847   6.841   0.467   4.486 -0.7956 -2.5545 -0.4820
10056SOL    HW240848   6.926   0.484   4.348  0.1307  0.0913  0.3804
10057SOL     OW40849   9.495   1.366   2.893 -0.0690  0.0674 -0.1383
10057SOL    HW140850   9.554   1.286   2.902 -0.1688 -0.1942 -1.6068
10057SOL    HW240851   9.551   1.449   2.887  0.1241 -0.1056 -0.7567
10058SOL     OW40852   1.676   3.550   2.887 -0.4066 -0.1391 -0.0185
10058SOL    HW140853   1.638   3.642   2.892  2.6445  1.1258  1.7138
10058SOL    HW240854   1.755   3.551   2.825  1.0786 -0.9751  1.7955
10059SOL     OW40855   1.613   8.699   4.477 -0.0305  0.2649 -0.3130
10059SOL    HW140856   1.661   8.637   4.414 -1.0933 -1.2633  0.3600
10059SOL    HW240857   1.629   8.793   4.448  0.0211 -0.3738 -2.5159
10060SOL     OW40858   3.801   3.027   2.415  0.4072  0.2903  0.3474
10060SOL    HW140859   3.857   2.948   2.388 -0.7876 -0.4579  0.0099
10060SOL    HW240860   3.739   3.000   2.488 -1.1883  0.4464 -0.9242
10061SOL     OW40861   9.972   7.807   2.943 -0.1406 -0.1337 -0.2472
10061SOL    HW140862   9.917   7.891   2.939 -0.9699 -0.6305  0.6918
10061SOL    HW240863   9.960   7.763   3.032  2.5744  0.2741  0.3621
10062SOL     OW40864   0.906   6.508   0.201 -0.3089 -0.2380 -0.1949
10062SOL    HW140865   0.877   6.414   0.219  2.2557 -1.2547 -1.2416
10062SOL    HW240866   0.941   6.548   0.285  0.2264 -0.8110 -0.1410
10063SOL     OW40867   2.697   2.643   2.398  0.2128 -0.2493 -0.2002
10063SOL    HW140868   2.745   2.555   2.393  0.6716  0.0449 -1.1141
10063SOL    HW240869   2.610   2.637   2.349 -0.2938 -0.5239  0.7135
10064SOL     OW40870   4.614   8.139   5.606 -0.1758  0.1484 -0.0007
10064SOL    HW140871   4.533   8.109   5.556 -1.0584  0.2109  1.3655
10064SOL    HW240872   4.696   8.115   5.554 -1.0436 -0.4728 -1.1039
10065SOL     OW40873   3.348   0.605   3.204 -0.4496 -0.2048  0.2024
10065SOL    HW140874   3.396   0.693   3.208 -0.4449 -0.2305  0.9127
10065SOL    HW240875   3.390   0.541   3.268  0.2365 -1.0864 -1.1190
10066SOL     OW40876   8.172   5.611   2.555  0.2831 -0.4885  0.0124
10066SOL    HW140877   8.239   5.678   2.523  1.5398 -1.2528  0.9995
10066SOL    HW240878   8.158   5.541   2.485  0.6723 -0.4461 -0.1085
10067SOL     OW40879   9.863   9.720   3.657 -0.1625 -0.2699  0.0642
10067SOL    HW140880   9.802   9.798   3.669 -1.5929 -1.3112 -0.2660
10067SOL    HW240881   9.887   9.710   3.560  0.3455  0.0011  0.1621
10068SOL     OW40882   1.687   7.716   1.237 -0.2443  0.0633  0.0493
10068SOL    HW140883   1.749   7.700   1.160 -0.9815 -0.5982 -0.4089
10068SOL    HW240884   1.712   7.801   1.282  0.8792 -0.0920 -0.2535
10069SOL     OW40885   3.546   0.253   0.553  0.1045  0.3570 -0.0354
10069SOL    HW140886   3.572   0.241   0.458  0.1864  0.4568 -0.0251
10069SOL    HW240887   3.454   0.293   0.557  0.3548  0.9422 -0.0762
10070SOL     OW40888   8.163   1.598   1.884  0.6084 -0.2250 -0.2032
10070SOL    HW140889   8.109   1.644   1.954  0.4054 -0.2615 -0.3368
10070SOL    HW240890   8.219   1.666   1.836  0.3530 -0.1230 -0.3607
10071SOL     OW40891   1.891   7.887   4.723 -0.1358 -0.4465 -0.3008
10071SOL    HW140892   1.920   7.983   4.718  1.2759 -0.9389 -2.1659
10071SOL    HW240893   1.880   7.861   4.818  1.7660  0.9289  0.3402
10072SOL     OW40894   4.187   2.817   2.103 -0.0566 -0.4418  0.1210
10072SOL    HW140895   4.144   2.907   2.097  0.3135 -0.2615  0.0920
10072SOL    HW240896   4.127   2.748   2.063  0.7250  0.1667 -2.1945
10073SOL     OW40897   8.501   7.658   3.239 -0.4420  0.3168 -0.1822
10073SOL    HW140898   8.502   7.737   3.178  1.2556 -0.5730 -1.3555
10073SOL    HW240899   8.489   7.574   3.185  1.1933 -0.4943  0.6562
10074SOL     OW40900   6.413   8.862   2.653  0.2718 -0.1468 -0.1817
10074SOL    HW140901   6.375   8.954   2.642 -1.2404 -0.6529  0.6029
10074SOL    HW240902   6.424   8.842   2.751 -1.5444 -1.6205 -0.2415
10075SOL     OW40903   9.963   2.666   1.367  0.3688  0.2833 -0.3937
10075SOL    HW140904  10.018   2.745   1.394  3.3125 -2.3039  1.5111
10075SOL    HW240905   9.881   2.662   1.425  1.4042  0.6461  1.1338
10076SOL     OW40906   0.537   5.439   1.189  0.1343  0.7102 -0.2414
10076SOL    HW140907   0.492   5.373   1.249 -0.7912  1.0350 -0.5705
10076SOL    HW240908   0.468   5.491   1.139  0.8651  1.7453 -0.1857
10077SOL     OW40909   2.213   8.306   2.025  0.0696  0.0508  0.1585
10077SOL    HW140910   2.178   8.255   1.947  3.2209 -1.5822 -0.2641
10077SOL    HW240911   2.244   8.242   2.095  2.8423  1.3759  0.1992
10078SOL     OW40912   9.889   2.259   0.366 -0.4422 -0.4225 -0.0607
10078SOL    HW140913   9.907   2.260   0.465  0.1321  0.2032 -0.1686
10078SOL    HW240914   9.961   2.309   0.319  0.3716 -2.4064 -0.9855
10079SOL     OW40915   0.940   3.112   0.468 -0.3676 -0.3406  0.4268
10079SOL    HW140916   0.924   3.025   0.423 -0.3687 -0.0336 -0.1704
10079SOL    HW240917   0.999   3.098   0.547 -2.5548 -1.2956  1.9477
10080SOL     OW40918   0.428   3.272   0.974  0.0259  0.1926 -0.3938
10080SOL    HW140919   0.453   3.282   0.878  0.1786  0.5119 -0.3210
10080SOL    HW240920   0.349   3.210   0.982  2.3077 -2.8513 -0.4159
10081SOL     OW40921   4.244   0.170   3.158 -0.3789 -0.0906 -0.0757
10081SOL    HW140922   4.320   0.106   3.145  0.3103  1.2802 -3.1730
10081SOL    HW240923   4.269   0.240   3.224  1.0624  0.3818 -1.1265
10082SOL     OW40924   4.105   3.354   5.184  0.2151  0.0082 -0.1398
10082SOL    HW140925   4.086   3.257   5.194  1.7340 -0.5178 -2.0699
10082SOL    HW240926   4.021   3.402   5.160 -0.4098 -0.9196  0.1648
10083SOL     OW40927   3.858   9.298   3.280 -0.2174 -0.0213 -0.0894
10083SOL    HW140928   3.802   9.289   3.363 -2.1789 -1.3311 -1.5203
10083SOL    HW240929   3.940   9.242   3.289 -0.7323 -0.6653  0.7368
10084SOL     OW40930   8.566   7.488   3.606  0.0116  0.1428  0.4518
10084SOL    HW140931   8.626   7.458   3.532 -2.0114 -0.3968 -1.0021
10084SOL    HW240932   8.621   7.530   3.679  2.4882 -3.2782  0.6648
10085SOL     OW40933   5.705   7.882   3.814  0.6093  0.5653  0.1954
10085SOL    HW140934   5.757   7.811   3.861  1.0648  0.2496 -0.7689
10085SOL    HW240935   5.710   7.867   3.715 -0.8844  0.8307  0.0621
10086SOL     OW40936   7.730   0.014   1.213  0.1246 -0.3269  0.3587
10086SOL    HW140937   7.745  -0.008   1.309 -0.0948  0.9001  0.6727
10086SOL    HW240938   7.817   0.009   1.164  0.8146  2.1496  1.2594
10087SOL     OW40939   5.139   8.863   1.737 -0.2552  0.5344 -0.0449
10087SOL    HW140940   5.223   8.886   1.688  0.9351  1.1776  2.2502
10087SOL    HW240941   5.150   8.884   1.834 -2.7945 -0.1319  0.4149
10088SOL     OW40942   9.095   0.628   4.080  0.2717  0.5200  0.1417
10088SOL    HW140943   9.095   0.691   4.002 -2.3552 -0.0303 -0.3768
10088SOL    HW240944   9.152   0.665   4.153  3.4672  0.6371 -2.3262
10089SOL     OW40945   9.301   1.680   1.295 -0.0824  0.0780 -0.1282
10089SOL    HW140946   9.353   1.675   1.209 -0.2988  1.0591 -0.3313
10089SOL    HW240947   9.227   1.613   1.294 -0.5881  0.6361 -1.0663
10090SOL     OW40948   8.849   6.359   2.595  0.3488 -0.0818  0.2355
10090SOL    HW140949   8.945   6.383   2.577  0.7859 -1.5269  0.6000
10090SOL    HW240950   8.810   6.426   2.658  1.5355 -0.2863  1.2021
10091SOL     OW40951   0.929   9.039   1.394  0.1461  0.8116 -0.4525
10091SOL    HW140952   0.878   8.968   1.442  2.7459 -2.0831 -1.8070
10091SOL    HW240953   0.881   9.062   1.309 -0.5968  0.5463 -0.1139
10092SOL     OW40954   2.218   1.562   0.124  0.4237  0.0563  0.6134
10092SOL    HW140955   2.306   1.516   0.117  0.8420  0.8179  0.8585
10092SOL    HW240956   2.230   1.660   0.112 -0.5240  0.0718 -0.3419
10093SOL     OW40957   3.896   5.943   1.140  0.5594 -0.0742 -0.5052
10093SOL    HW140958   3.928   6.034   1.166  0.3081 -0.1758  0.1848
10093SOL    HW240959   3.969   5.894   1.093  0.9630  0.1951 -0.1639
10094SOL     OW40960   5.829   0.955   3.422 -0.1877  0.0849  0.4142
10094SOL    HW140961   5.783   0.891   3.484 -1.8880  1.0565  0.1758
10094SOL    HW240962   5.863   0.905   3.342 -0.5671 -0.6917  0.7313
10095SOL     OW40963   0.855   8.060   2.068  0.1731 -0.0244 -0.2632
10095SOL    HW140964   0.816   8.001   1.997 -0.0197  0.5704 -0.6550
10095SOL    HW240965   0.796   8.060   2.148  0.1658 -0.3476 -0.2666
10096SOL     OW40966   4.282   9.417   5.350  0.5116  0.2023  0.1337
10096SOL    HW140967   4.272   9.516   5.339 -0.6035  0.1977  1.0739
10096SOL    HW240968   4.363   9.399   5.406  0.3124  0.6136  0.5625
10097SOL     OW40969   0.278   3.927   2.772 -0.3619 -0.3503 -0.0702
10097SOL    HW140970   0.271   4.007   2.713 -0.2883 -0.6446 -0.4815
10097SOL    HW240971   0.374   3.900   2.781 -0.2682  0.3293  1.0436
10098SOL     OW40972   9.570   8.750   3.586  0.3069  0.0091  0.2025
10098SOL    HW140973   9.568   8.843   3.548  4.0206  0.2961  0.5311
10098SOL    HW240974   9.499   8.695   3.542  1.2112  1.6860 -3.5758
10099SOL     OW40975   9.624   0.931   4.144 -1.2492  0.1254  0.2704
10099SOL    HW140976   9.563   0.948   4.067  1.0976  0.1374 -1.6289
10099SOL    HW240977   9.646   1.017   4.189 -0.6240  0.4148 -0.5940
10100SOL     OW40978   4.189   1.598   3.673  0.2019  0.1127 -0.5816
10100SOL    HW140979   4.226   1.619   3.763 -0.0041  2.4069 -0.9873
10100SOL    HW240980   4.090   1.611   3.673  0.0923 -0.6756 -0.9282
10101SOL     OW40981   6.102   9.718   2.472 -0.2532 -0.0124  0.5455
10101SOL    HW140982   6.094   9.710   2.373  0.5676 -0.7412  0.5204
10101SOL    HW240983   6.044   9.791   2.505 -1.7992 -0.8454 -0.2871
10102SOL     OW40984   4.121   2.893   3.718  0.2803  0.3606 -0.1150
10102SOL    HW140985   4.177   2.818   3.755 -0.1262  0.4294  0.6491
10102SOL    HW240986   4.104   2.960   3.790 -0.8026  0.3317 -0.3437
10103SOL     OW40987   5.962   0.928   3.037 -0.2213  0.3477  0.5339
10103SOL    HW140988   5.965   1.027   3.024  0.0306  0.5944  2.2249
10103SOL    HW240989   5.996   0.906   3.129  1.1445 -1.4219 -0.3566
10104SOL     OW40990   5.592   0.388   4.105  0.1729 -0.7963 -0.3945
10104SOL    HW140991   5.523   0.454   4.135 -0.5171 -2.0042  0.7262
10104SOL    HW240992   5.547   0.306   4.069  1.0260 -1.0462 -0.9198
10105SOL     OW40993   2.239   9.470   2.668  0.2791  0.2284 -0.0489
10105SOL    HW140994   2.278   9.561   2.683  1.4436 -0.3471  0.5013
10105SOL    HW240995   2.248   9.445   2.571 -0.7061  0.9859 -0.3474
10106SOL     OW40996   4.445   1.707   0.549  0.5739  0.1669 -0.2373
10106SOL    HW140997   4.509   1.638   0.582 -0.2232 -0.6861 -0.4432
10106SOL    HW240998   4.363   1.707   0.607  0.3747  0.6237 -0.5108
10107SOL     OW40999   3.294   3.608   5.254  0.2563  0.4029 -0.9035
10107SOL    HW141000   3.383   3.617   5.298 -0.1934  2.4789 -0.3317
10107SOL    HW241001   3.266   3.697   5.216 -1.8863 -0.0108 -0.3806
10108SOL     OW41002   3.644   7.796   5.047 -0.3435 -0.3136  0.2018
10108SOL    HW141003   3.555   7.841   5.043  0.4207  1.4010  1.4757
10108SOL    HW241004   3.634   7.699   5.025 -2.0925  0.3787 -2.2708
10109SOL     OW41005   8.776   9.767   4.494 -0.3584  0.3161  0.4801
10109SOL    HW141006   8.800   9.841   4.431  0.8139 -0.3849  0.0814
10109SOL    HW241007   8.692   9.790   4.543 -1.6737  0.5503 -1.8532
10110SOL     OW41008   0.878   2.621   1.253  0.2610  0.1662  0.0402
10110SOL    HW141009   0.886   2.696   1.319  0.5178 -0.4939  0.7529
10110SOL    HW241010   0.962   2.614   1.200  1.0885 -1.0615  1.5036
10111SOL     OW41011   2.192   1.159   2.477 -0.4822 -0.4174 -0.3265
10111SOL    HW141012   2.148   1.082   2.523 -0.9741  1.2038  1.9537
10111SOL    HW241013   2.130   1.237   2.472  0.2252  0.0831 -2.0678
10112SOL     OW41014   1.782   6.860   3.450 -0.2104 -0.1483  0.0926
10112SOL    HW141015   1.827   6.949   3.442 -2.9840  1.2367 -1.0309
10112SOL    HW241016   1.836   6.799   3.508  2.7994  1.5579 -0.8382
10113SOL     OW41017   7.062   7.281   4.068  0.6493 -0.2938 -0.4179
10113SOL    HW141018   6.981   7.224   4.079  0.3313  0.2093 -0.1085
10113SOL    HW241019   7.046   7.348   3.996  1.5425 -1.4999 -1.7522
10114SOL     OW41020   9.550   7.702   2.346  0.4594  0.1733  0.2483
10114SOL    HW141021   9.638   7.671   2.381  1.0258  1.9648  0.4870
10114SOL    HW241022   9.563   7.749   2.258 -0.5255 -1.3351 -0.7280
10115SOL     OW41023   2.766   6.095   3.356  0.2750  0.0698  0.0461
10115SOL    HW141024   2.780   6.162   3.429  0.1198 -0.7330  0.8155
10115SOL    HW241025   2.836   6.109   3.285  0.1058  1.1882  0.0903
10116SOL     OW41026   9.868   1.703   4.683  0.3585 -0.3760  0.0853
10116SOL    HW141027   9.874   1.606   4.659 -0.9228 -0.1030 -1.4486
10116SOL    HW241028   9.932   1.755   4.628  0.0055 -0.1856 -0.1489
10117SOL     OW41029   9.636   6.753   3.155  0.0838  0.0577  0.3951
10117SOL    HW141030   9.729   6.747   3.192  0.6248 -1.0599 -1.0923
10117SOL    HW241031   9.570   6.749   3.231  1.2150 -0.4120  1.3777
10118SOL     OW41032   3.497   8.401   0.413 -0.1996 -0.8179 -0.3091
10118SOL    HW141033   3.507   8.474   0.346  0.0320 -0.6928 -0.1409
10118SOL    HW241034   3.427   8.426   0.480  0.9351 -0.0638  0.6308
10119SOL     OW41035   1.407   6.057   0.854 -0.3769  0.3187  0.4084
10119SOL    HW141036   1.428   6.043   0.950 -0.7667 -0.1157  0.4332
10119SOL    HW241037   1.373   6.150   0.840  0.6824  0.7296  0.5110
10120SOL     OW41038   1.365   1.503   3.955  0.1150  0.4760 -0.2423
10120SOL    HW141039   1.387   1.406   3.955 -1.0886  0.1710 -2.3837
10120SOL    HW241040   1.266   1.514   3.950  0.1392  1.8260  1.7662
10121SOL     OW41041   2.565   1.711   2.193  0.0037 -0.1174  0.1879
10121SOL    HW141042   2.620   1.787   2.157  1.6822 -1.9051 -1.1254
10121SOL    HW241043   2.614   1.666   2.267  0.8206 -2.3090 -1.6054
10122SOL     OW41044   6.978   8.667   1.351  0.5188  0.1715  0.1020
10122SOL    HW141045   7.038   8.695   1.276  0.8046 -0.3187  0.1429
10122SOL    HW241046   7.034   8.632   1.426  0.2997  1.8156  1.0309
10123SOL     OW41047   2.214   9.263   1.405 -0.1444  0.4562 -0.1495
10123SOL    HW141048   2.258   9.352   1.400  0.3328  0.0852 -4.2930
10123SOL    HW241049   2.117   9.274   1.426  0.0949  1.8654  0.2198
10124SOL     OW41050   0.794   1.979   1.213  0.3397  0.8056 -0.1857
10124SOL    HW141051   0.751   1.986   1.303  0.5636  0.6207 -0.0639
10124SOL    HW241052   0.888   2.013   1.219  0.3581  0.7831 -0.3486
10125SOL     OW41053   4.316   3.068   2.229  0.6327 -0.5702 -0.0052
10125SOL    HW141054   4.414   3.055   2.245  0.8968  1.1878 -0.0455
10125SOL    HW241055   4.268   2.981   2.241  2.1545 -1.3883  0.2983
10126SOL     OW41056   8.347   6.062   2.949 -0.0645 -0.2322  0.5836
10126SOL    HW141057   8.260   6.106   2.926  0.7763  0.9228 -0.5122
10126SOL    HW241058   8.418   6.133   2.960  1.0829 -1.2498 -0.1264
10127SOL     OW41059   2.602   8.329   1.991 -0.2120 -0.0451  0.5222
10127SOL    HW141060   2.571   8.391   1.919 -0.6945 -0.1951  0.5937
10127SOL    HW241061   2.523   8.300   2.045  0.0455 -0.5159  0.6455
10128SOL     OW41062   8.821   8.480   2.543 -0.0453 -0.0504  0.6221
10128SOL    HW141063   8.760   8.560   2.551 -1.3619 -1.0293  0.5734
10128SOL    HW241064   8.855   8.455   2.634 -0.6282 -0.1864  0.8075
10129SOL     OW41065   2.626   6.696   0.396  0.2022  0.1612 -0.1617
10129SOL    HW141066   2.701   6.717   0.334  1.1367 -1.7716  0.2805
10129SOL    HW241067   2.619   6.597   0.408 -0.5946  0.4536  2.0430
10130SOL     OW41068   0.106   0.892   3.904 -0.6537  0.6061  0.0970
10130SOL    HW141069   0.146   0.830   3.972 -1.2383 -0.4581 -0.5085
10130SOL    HW241070   0.159   0.977   3.900  0.3821 -0.0095  0.6727
10131SOL     OW41071   0.620   2.401   1.655  0.2864  0.4585 -0.1625
10131SOL    HW141072   0.659   2.440   1.739  0.0055  0.3437  0.0210
10131SOL    HW241073   0.694   2.361   1.600  0.9703  3.6214 -1.6594
10132SOL     OW41074   2.579   5.831   0.136 -0.3174  0.1592 -0.1883
10132SOL    HW141075   2.535   5.918   0.158  0.1711  0.2142  0.5749
10132SOL    HW241076   2.645   5.844   0.062 -1.0501  0.2146 -0.8440
10133SOL     OW41077   1.223   3.864   3.841 -0.3592 -0.6097  0.0414
10133SOL    HW141078   1.314   3.892   3.873  0.3231 -1.5619 -1.0368
10133SOL    HW241079   1.153   3.917   3.890  0.8396  2.0902 -1.0635
10134SOL     OW41080   9.856   8.778   0.632 -0.5216 -0.8942 -0.3912
10134SOL    HW141081   9.943   8.826   0.636 -0.4897 -0.9272 -0.6833
10134SOL    HW241082   9.818   8.784   0.540  1.7662 -5.4437 -1.7511
10135SOL     OW41083   2.201   0.515   0.387 -0.1647 -0.7047  0.0051
10135SOL    HW141084   2.250   0.429   0.374 -0.2742 -1.3571  3.3900
10135SOL    HW241085   2.265   0.591   0.379  0.4521 -1.2703 -0.4448
10136SOL     OW41086   3.048   7.542   3.142 -0.3892  0.1196 -0.2491
10136SOL    HW141087   2.988   7.545   3.222  0.2089 -0.3591  0.2216
10136SOL    HW241088   3.135   7.500   3.167 -0.6180 -1.0833 -1.4232
10137SOL     OW41089   7.547   7.003   3.571 -0.4348  0.1371  0.0180
10137SOL    HW141090   7.550   7.073   3.643 -0.9676 -1.4522  1.6498
10137SOL    HW241091   7.482   7.031   3.500  0.1658  1.7830  0.1091
10138SOL     OW41092   0.907   1.685   2.541  0.2593 -0.2330  0.1961
10138SOL    HW141093   0.849   1.760   2.574  1.2849 -0.2809  2.1982
10138SOL    HW241094   0.984   1.672   2.604  1.1366 -1.7297 -1.1468
10139SOL     OW41095   4.102   9.866   3.974  0.3979 -0.4576  0.3730
10139SOL    HW141096   4.058   9.953   3.951 -0.7772  0.1131  4.5223
10139SOL    HW241097   4.044   9.790   3.941 -1.2412  0.3144  1.4092
10140SOL     OW41098   7.907   3.679   1.813 -0.0112  0.6072 -0.3895
10140SOL    HW141099   7.895   3.693   1.912 -0.9901 -1.4494 -0.1890
10140SOL    HW241100   7.947   3.589   1.797  1.5698  1.5312 -1.8236
10141SOL     OW41101   5.538   0.905   1.659 -0.2036 -0.2194  0.4245
10141SOL    HW141102   5.601   0.833   1.629  1.4119  1.4052 -0.1570
10141SOL    HW241103   5.496   0.948   1.579 -1.2544 -0.5763  0.7761
10142SOL     OW41104   2.906   8.192   4.234 -0.7866  0.1933  0.4919
10142SOL    HW141105   2.996   8.159   4.207 -1.6404 -1.9483  0.1676
10142SOL    HW241106   2.859   8.229   4.154 -0.2256  1.3056  0.6596
10143SOL     OW41107   9.738   9.787   0.655  0.0083  0.3241 -0.4960
10143SOL    HW141108   9.729   9.869   0.599  0.5529  0.9029  0.2584
10143SOL    HW241109   9.803   9.803   0.729 -0.5272 -0.5049  0.1765
10144SOL     OW41110   8.151   1.201   0.600  0.6290  0.4728 -0.2289
10144SOL    HW141111   8.105   1.119   0.633 -0.5398  1.7843  1.4898
10144SOL    HW241112   8.236   1.215   0.651  0.2076  1.0024  0.3283
10145SOL     OW41113   8.448   7.505   1.787  0.0646 -0.3678 -0.5034
10145SOL    HW141114   8.483   7.426   1.736  1.7312  0.7315 -1.1216
10145SOL    HW241115   8.525   7.565   1.811 -0.9764  0.2305  1.4037
10146SOL     OW41116   2.701   0.402   3.083 -0.4095 -0.5380  0.3815
10146SOL    HW141117   2.709   0.444   3.173  0.6937 -1.4106  0.7012
10146SOL    HW241118   2.768   0.442   3.021 -1.2121  0.1090 -0.0873
10147SOL     OW41119   2.585   9.695   3.275 -0.4077 -0.2762  0.1952
10147SOL    HW141120   2.502   9.707   3.220 -0.0595  0.0211 -0.2755
10147SOL    HW241121   2.620   9.785   3.302 -0.4137 -0.4109  0.6550
10148SOL     OW41122   9.356   8.728   5.483  0.3894 -0.6260  0.0589
10148SOL    HW141123   9.396   8.710   5.573 -1.2010 -3.5196  0.2448
10148SOL    HW241124   9.296   8.808   5.488  0.9069 -0.3075  1.3691
10149SOL     OW41125   6.728   0.111   3.483 -0.1172 -0.2278 -0.4394
10149SOL    HW141126   6.701   0.076   3.393 -1.0493  0.0569 -0.2667
10149SOL    HW241127   6.649   0.148   3.530  0.5401  0.4654  0.1296
10150SOL     OW41128   0.503   5.963   3.508 -0.0504 -0.0062  0.6545
10150SOL    HW141129   0.516   6.017   3.592  1.4708 -1.6735  1.5378
10150SOL    HW241130   0.532   6.017   3.429 -0.5876  1.2469  1.2948
10151SOL     OW41131   0.665   6.698   3.799  0.0522 -0.4707  0.0711
10151SOL    HW141132   0.594   6.736   3.859  1.4441  1.2353  0.6679
10151SOL    HW241133   0.713   6.773   3.753  0.5444 -1.6793 -1.4104
10152SOL     OW41134   4.983   3.321   0.209 -0.8194 -0.3031 -0.6911
10152SOL    HW141135   5.079   3.293   0.210 -1.2895 -1.9965  1.2648
10152SOL    HW241136   4.962   3.364   0.121  1.3650 -1.2253 -1.7157
10153SOL     OW41137   5.923   0.692   2.584  0.0529  0.3122 -0.0650
10153SOL    HW141138   5.992   0.758   2.555 -0.0225 -0.2815 -1.6720
10153SOL    HW241139   5.947   0.601   2.548 -0.2035 -0.4130  1.5403
10154SOL     OW41140   3.919   6.444   2.642  0.0791 -0.5302 -0.2300
10154SOL    HW141141   3.863   6.362   2.647  0.3864 -0.7158  0.2562
10154SOL    HW241142   3.957   6.464   2.733 -2.4947  1.9155  0.3886
10155SOL     OW41143   6.056   7.902   2.207  0.0042  0.1694  0.3763
10155SOL    HW141144   6.041   7.812   2.248  2.3004 -0.2374  0.3932
10155SOL    HW241145   6.145   7.937   2.235 -1.1267  2.7637  0.8830
10156SOL     OW41146   9.409   2.142   0.852  0.1620 -0.3535  0.1592
10156SOL    HW141147   9.450   2.221   0.806  0.9262 -0.3303  0.8549
10156SOL    HW241148   9.407   2.064   0.790 -1.6167  0.5116 -0.9024
10157SOL     OW41149   7.325   7.258   2.239 -0.2086  0.3384  0.0608
10157SOL    HW141150   7.276   7.241   2.324  0.7863 -1.5592  0.2916
10157SOL    HW241151   7.260   7.274   2.165 -1.2500 -2.8012  0.2221
10158SOL     OW41152   7.391   8.684   1.555 -0.3585  0.4919  0.9669
10158SOL    HW141153   7.456   8.615   1.587 -1.3440 -0.4111  1.0459
10158SOL    HW241154   7.406   8.769   1.604  0.0505 -0.0330  1.7604
10159SOL     OW41155   1.918   7.665   1.053  0.0722 -0.0331  0.1143
10159SOL    HW141156   1.941   7.630   1.144  0.6901  2.5124  0.9768
10159SOL    HW241157   2.000   7.666   0.996  0.0444 -0.0704  0.0740
10160SOL     OW41158   4.296   0.346   1.138 -0.9467 -0.7316  0.1513
10160SOL    HW141159   4.381   0.323   1.091  0.4890 -0.1914  2.4029
10160SOL    HW241160   4.301   0.314   1.233 -2.3369  1.3043  0.9471
10161SOL     OW41161   8.703   1.565   1.706 -0.0924  0.1435 -0.5445
10161SOL    HW141162   8.752   1.532   1.626  0.6454  1.3874 -0.6259
10161SOL    HW241163   8.635   1.633   1.679 -1.6455 -1.3078 -0.3896
10162SOL     OW41164   2.718   2.655   3.400 -0.1143  0.3171  0.2046
10162SOL    HW141165   2.768   2.578   3.361 -2.7055 -0.5014 -1.5675
10162SOL    HW241166   2.750   2.671   3.494  0.5969 -2.7833  0.5454
10163SOL     OW41167   3.528   7.197   0.932 -0.2975 -0.5395 -0.4268
10163SOL    HW141168   3.606   7.253   0.963 -1.4481  0.5317  0.5577
10163SOL    HW241169   3.458   7.195   1.003 -2.2029  0.4750 -2.2284
10164SOL     OW41170   1.379   3.203   2.957 -0.0502 -0.3115  0.0776
10164SOL    HW141171   1.453   3.271   2.966 -1.8252  1.8591 -1.0800
10164SOL    HW241172   1.404   3.136   2.886  0.8767  0.3316 -0.2142
10165SOL     OW41173   5.270   1.184   0.758  0.6037 -0.7225 -0.1151
10165SOL    HW141174   5.282   1.263   0.819 -2.0782 -0.3167 -0.0472
10165SOL    HW241175   5.311   1.103   0.800  0.7867  0.0337  1.1931
10166SOL     OW41176   0.312   0.251   4.245 -0.0159 -0.4377 -0.0515
10166SOL    HW141177   0.263   0.167   4.269 -1.4775 -0.0100 -1.4110
10166SOL    HW241178   0.360   0.239   4.158 -0.0542  0.0356 -0.1437
10167SOL     OW41179   8.379   1.192   2.137 -0.2210 -0.5245 -0.1701
10167SOL    HW141180   8.419   1.282   2.120 -1.6348  0.1055 -0.2773
10167SOL    HW241181   8.327   1.195   2.223 -0.1349 -1.2870 -0.0884
10168SOL     OW41182   9.787   8.156   4.451  0.2182  0.0270  0.5982
10168SOL    HW141183   9.862   8.193   4.396  0.4711 -0.0325  0.8967
10168SOL    HW241184   9.789   8.199   4.541  0.7770 -1.0163  1.0998
10169SOL     OW41185   7.921   0.792   3.541  0.0387 -0.3737  0.2325
10169SOL    HW141186   7.873   0.799   3.454 -0.3722  2.7479  0.6750
10169SOL    HW241187   7.981   0.871   3.554  0.0252 -0.7328  2.8394
10170SOL     OW41188   4.515   3.220   1.775  1.0874  0.3809 -0.1699
10170SOL    HW141189   4.595   3.232   1.716  0.6659 -0.2652 -0.8959
10170SOL    HW241190   4.492   3.122   1.779 -1.0390  0.7634 -1.8436
10171SOL     OW41191   3.127   5.516   0.943 -0.2580  0.0599  0.2549
10171SOL    HW141192   3.118   5.421   0.973  0.1885 -0.1194 -0.1729
10171SOL    HW241193   3.173   5.570   1.014  2.6913 -0.8124 -0.9057
10172SOL     OW41194   7.552   8.270   1.501 -0.2059  0.0816 -0.3806
10172SOL    HW141195   7.632   8.219   1.532 -0.4952 -0.4394 -0.4657
10172SOL    HW241196   7.532   8.247   1.406 -0.0969  0.6735 -0.5483
10173SOL     OW41197   0.689   8.070   2.326  0.3952 -0.0666  0.0872
10173SOL    HW141198   0.593   8.048   2.343  0.4626 -0.6815 -0.3207
10173SOL    HW241199   0.699   8.169   2.312 -0.0812  0.0835  0.7623
10174SOL     OW41200   9.718   6.838   4.118  0.4039 -0.1967 -0.0111
10174SOL    HW141201   9.734   6.754   4.065  0.1327  0.5107 -1.2496
10174SOL    HW241202   9.645   6.822   4.184  0.8608 -1.1532  0.2729
10175SOL     OW41203   9.682   2.937   0.549 -0.2583 -0.3653 -0.1933
10175SOL    HW141204   9.633   2.856   0.517 -2.0363  0.4006  0.5378
10175SOL    HW241205   9.675   3.009   0.481  0.6754 -0.5650 -0.5063
10176SOL     OW41206   8.481   7.303   1.379  0.1260 -0.0383 -0.2541
10176SOL    HW141207   8.443   7.312   1.287 -1.7091  1.2851  0.6170
10176SOL    HW241208   8.543   7.379   1.397  1.6325 -1.0812 -0.9059
10177SOL     OW41209   9.968   6.276   1.967 -0.0198  0.4657  0.1912
10177SOL    HW141210   9.937   6.250   1.876  1.8678  1.8399 -0.8743
10177SOL    HW241211  10.065   6.252   1.978 -0.2166  0.3409  1.8170
10178SOL     OW41212   3.876   8.179   4.996 -0.2920  0.2853  0.6809
10178SOL    HW141213   3.855   8.098   4.940  0.9738  0.7414 -0.4545
10178SOL    HW241214   3.975   8.189   5.005 -0.4240  2.0705  0.2958
10179SOL     OW41215   3.948   5.120   1.797 -0.5301  0.2128 -1.3627
10179SOL    HW141216   3.976   5.176   1.875  0.8597  0.7530 -2.2323
10179SOL    HW241217   3.939   5.025   1.826 -1.4767  0.6473 -0.2061
10180SOL     OW41218   0.577   7.823   3.803 -0.1711 -0.1288 -0.1786
10180SOL    HW141219   0.599   7.921   3.804  2.5552 -0.7134  1.7763
10180SOL    HW241220   0.514   7.803   3.878  1.2279 -0.2680  0.9775
10181SOL     OW41221   6.254   9.995   2.879 -0.0466 -0.3412 -0.3088
10181SOL    HW141222   6.268   9.896   2.883  1.7274 -0.1933 -2.1141
10181SOL    HW241223   6.275  10.027   2.786 -0.9383  1.6749  0.1822
10182SOL     OW41224   1.812   8.390   1.867  0.1822 -0.3069  0.2890
10182SOL    HW141225   1.804   8.332   1.947 -1.8423  2.5903  2.2853
10182SOL    HW241226   1.726   8.391   1.817  0.6286 -0.1124 -0.4850
10183SOL     OW41227   8.411   0.615   3.624 -0.4715 -0.9070  0.2030
10183SOL    HW141228   8.440   0.530   3.580 -3.1112 -2.0721  0.6221
10183SOL    HW241229   8.403   0.600   3.723  0.9784  0.4147  0.5449
10184SOL     OW41230   1.312   1.174   3.112 -0.0833  0.0036 -0.1645
10184SOL    HW141231   1.281   1.140   3.023  0.6004 -1.4101  0.1119
10184SOL    HW241232   1.234   1.199   3.168 -0.4691  2.4008 -1.7254
10185SOL     OW41233   5.924   1.007   4.196 -0.3551 -0.2309 -0.0138
10185SOL    HW141234   5.837   0.996   4.246 -1.7281  1.8922 -1.8178
10185SOL    HW241235   5.904   1.033   4.102  2.2856  0.5617 -0.3738
10186SOL     OW41236   2.652   7.596   2.944 -0.3767  0.1063 -0.5534
10186SOL    HW141237   2.746   7.621   2.919 -0.4240  1.1349  0.2708
10186SOL    HW241238   2.601   7.678   2.971 -1.0934 -0.6181  0.3586
10187SOL     OW41239   4.913   7.668   4.262  0.3598 -0.2311 -0.5183
10187SOL    HW141240   4.947   7.762   4.268  2.0033 -0.8647  0.4282
10187SOL    HW241241   4.990   7.605   4.253 -0.7515 -1.4626 -1.5588
10188SOL     OW41242   4.067   3.210   1.086  0.5678 -0.3428 -0.3212
10188SOL    HW141243   4.078   3.112   1.073  0.6405 -0.2866 -0.6892
10188SOL    HW241244   4.046   3.253   0.998  3.9677  0.4417 -0.8116
10189SOL     OW41245   2.576   8.696   5.055 -0.2174 -0.5065 -0.4746
10189SOL    HW141246   2.632   8.667   4.977 -0.3516  0.2747 -0.8605
10189SOL    HW241247   2.495   8.638   5.061 -0.5317 -0.1512 -1.2959
10190SOL     OW41248   3.736   0.642   4.994  0.4187  0.0894  0.0919
10190SOL    HW141249   3.822   0.595   4.975  0.9797  0.4696  1.6169
10190SOL    HW241250   3.692   0.667   4.908  1.3028 -1.0606 -0.7129
10191SOL     OW41251   8.028   2.657   2.870  0.0158 -0.5431 -0.3523
10191SOL    HW141252   8.056   2.650   2.966  1.0373 -1.2564 -0.6977
10191SOL    HW241253   7.933   2.625   2.860  0.0097 -0.7497  0.3642
10192SOL     OW41254   3.812   1.614   4.169  0.3370  0.1069  0.5043
10192SOL    HW141255   3.910   1.619   4.151  0.8124  1.1041  3.1860
10192SOL    HW241256   3.783   1.519   4.170  0.8253 -0.1147 -2.4633
10193SOL     OW41257   3.618   4.365   0.228  0.7199 -0.0617 -0.3519
10193SOL    HW141258   3.688   4.295   0.210  0.0952 -0.7102 -0.3038
10193SOL    HW241259   3.537   4.345   0.173 -0.8424 -1.4961  2.3684
10194SOL     OW41260   4.287   1.311   2.736 -0.5701 -0.1577  0.2724
10194SOL    HW141261   4.302   1.261   2.651 -0.2028  1.9706 -0.9700
10194SOL    HW241262   4.371   1.313   2.790 -0.6265 -0.9620  0.3958
10195SOL     OW41263   9.398   2.354   2.709 -0.0592 -0.6305  0.9463
10195SOL    HW141264   9.381   2.275   2.650  1.8988 -0.1516 -0.2950
10195SOL    HW241265   9.331   2.425   2.690 -0.7732 -1.3185  0.8504
10196SOL     OW41266   6.121   8.766   3.851 -0.4718 -0.4078 -0.5339
10196SOL    HW141267   6.074   8.835   3.796 -0.9045 -0.7800 -0.6338
10196SOL    HW241268   6.123   8.680   3.801 -0.7113 -0.7030 -0.0404
10197SOL     OW41269   0.848   3.305   4.259  0.0623  0.3436 -0.3242
10197SOL    HW141270   0.883   3.212   4.241 -1.1540  0.4340 -3.3958
10197SOL    HW241271   0.904   3.371   4.209  0.1279  1.1728  0.8347
10198SOL     OW41272   8.093   2.442   2.556 -0.0467 -0.2338  0.0185
10198SOL    HW141273   8.136   2.453   2.466 -1.0691 -1.8035 -0.6750
10198SOL    HW241274   8.133   2.508   2.620 -0.2534  1.8564 -1.9195
10199SOL     OW41275   4.345   7.624   3.925 -0.9417  0.1862  0.3596
10199SOL    HW141276   4.291   7.546   3.956 -1.2009  0.5723  0.8694
10199SOL    HW241277   4.354   7.690   3.999 -0.0365  0.2675  0.1817
10200SOL     OW41278   3.654   6.348   0.974  0.5877 -0.5947  0.2222
10200SOL    HW141279   3.572   6.294   0.989  0.2317 -0.3360 -0.7219
10200SOL    HW241280   3.709   6.350   1.057  0.7024 -2.5570  0.2203
10201SOL     OW41281   4.225   9.931   0.154 -0.1525 -0.3582 -0.1740
10201SOL    HW141282   4.264   9.993   0.087 -0.4359 -0.3006 -0.2895
10201SOL    HW241283   4.243   9.836   0.128  0.0056 -0.3296 -0.1651
10202SOL     OW41284   7.201   8.428   2.788  0.1581 -0.2002  0.1087
10202SOL    HW141285   7.277   8.490   2.802 -0.1588  0.4243 -0.9113
10202SOL    HW241286   7.195   8.403   2.691 -1.5533  0.5790 -0.0095
10203SOL     OW41287   9.363   2.349   3.462  0.0935 -0.1804 -0.1373
10203SOL    HW141288   9.265   2.359   3.479  0.2608  0.5028  0.4496
10203SOL    HW241289   9.381   2.357   3.364 -0.3133  0.7567 -0.1409
10204SOL     OW41290   8.698   9.457   5.415  0.3328 -0.6121 -0.4615
10204SOL    HW141291   8.775   9.416   5.463 -0.0678 -0.2134  0.5258
10204SOL    HW241292   8.629   9.487   5.481  0.4967  1.4034 -1.1843
10205SOL     OW41293   3.030   5.229   3.375 -0.3578 -1.1090  0.2913
10205SOL    HW141294   2.981   5.267   3.454  1.2758 -3.2762  2.4289
10205SOL    HW241295   3.123   5.266   3.373  0.0030 -2.0003  0.1346
10206SOL     OW41296   2.308   2.682   3.234  0.1785 -0.3391 -0.0410
10206SOL    HW141297   2.223   2.687   3.287 -0.4358 -0.6502 -0.9847
10206SOL    HW241298   2.375   2.627   3.283 -0.0715  0.1244  0.8312
10207SOL     OW41299   8.183   1.668   3.027  0.5344  0.1743 -0.5234
10207SOL    HW141300   8.240   1.586   3.027  3.5272  2.1867 -1.3258
10207SOL    HW241301   8.113   1.659   2.955 -0.2929 -2.3509  0.5357
10208SOL     OW41302   7.826   8.484   1.732 -0.1413 -0.3697  0.0902
10208SOL    HW141303   7.819   8.407   1.669 -0.5165 -0.8326  0.6946
10208SOL    HW241304   7.817   8.451   1.826  2.9392 -0.0309  0.5477
10209SOL     OW41305   8.603   7.961   0.762 -0.1316  0.2224  0.4754
10209SOL    HW141306   8.625   7.899   0.686 -3.8193 -0.9834  0.2620
10209SOL    HW241307   8.633   8.054   0.739  1.0584 -0.5885 -1.3620
10210SOL     OW41308   2.100   6.444   2.596  0.1457  0.2909  0.0759
10210SOL    HW141309   2.049   6.457   2.511 -0.5466 -2.1709  0.0812
10210SOL    HW241310   2.170   6.516   2.605 -1.6616  2.2453 -1.1389
10211SOL     OW41311   8.464   1.783   0.269 -0.3345 -0.1115  0.4349
10211SOL    HW141312   8.536   1.798   0.338 -0.8044  0.2521  0.8505
10211SOL    HW241313   8.403   1.710   0.300  1.8937 -2.9570 -1.5470
10212SOL     OW41314   3.293   6.450   4.141 -0.2628 -0.3342  0.4308
10212SOL    HW141315   3.322   6.534   4.095  0.9166 -1.1297 -0.3003
10212SOL    HW241316   3.345   6.372   4.106 -0.6532 -1.2375  1.7922
10213SOL     OW41317   1.783   1.183   2.289  0.1474  0.2018  0.4078
10213SOL    HW141318   1.729   1.179   2.205 -1.4499 -1.0315  1.4759
10213SOL    HW241319   1.832   1.270   2.292 -3.0475  2.0894  0.1945
10214SOL     OW41320   2.526   1.725   1.772 -0.4996  0.0407 -0.3109
10214SOL    HW141321   2.546   1.692   1.680 -0.5996  1.9518 -1.0519
10214SOL    HW241322   2.480   1.654   1.825 -0.5387 -1.0309 -1.7785
10215SOL     OW41323   1.568   5.494   0.803 -0.0145 -0.4623  0.2489
10215SOL    HW141324   1.572   5.410   0.749  0.5710 -0.8177  0.8342
10215SOL    HW241325   1.533   5.472   0.894  1.2436 -0.2684  0.7872
10216SOL     OW41326   9.097   8.190   3.022 -0.3200  0.2063  0.2271
10216SOL    HW141327   9.043   8.112   3.053 -0.6276 -0.6984 -2.4714
10216SOL    HW241328   9.055   8.274   3.054 -2.3869 -0.5574 -0.3789
10217SOL     OW41329   4.470   0.909   2.876  0.0212  0.4566  0.1205
10217SOL    HW141330   4.568   0.891   2.865 -0.1491 -1.2102  1.1542
10217SOL    HW241331   4.456   0.970   2.954  0.2507  0.9120 -0.1919
10218SOL     OW41332   2.484   2.492   0.911 -0.0834  0.2529  0.4322
10218SOL    HW141333   2.442   2.462   0.826 -0.9103  0.6078  0.6983
10218SOL    HW241334   2.456   2.587   0.930 -0.0161  0.1328  1.1549
10219SOL     OW41335   0.058   3.100   3.503  0.4031 -0.4973 -0.4145
10219SOL    HW141336   0.109   3.096   3.417 -1.5877  0.9414 -1.6894
10219SOL    HW241337  -0.027   3.049   3.494 -0.9979  1.7286 -0.1189
10220SOL     OW41338   2.610   4.129   2.251  0.8420 -0.1149 -0.3447
10220SOL    HW141339   2.546   4.073   2.199  0.8899 -0.1747 -0.3394
10220SOL    HW241340   2.693   4.076   2.269  0.3931 -0.4694  0.7318
10221SOL     OW41341   0.660   9.959   5.062  0.0591  0.2717  0.1128
10221SOL    HW141342   0.645   9.982   5.158 -2.2300 -1.3043  0.1577
10221SOL    HW241343   0.603  10.016   5.005  1.1622  0.9638 -0.3109
10222SOL     OW41344   2.552   3.889   4.098 -0.0917 -0.1803  0.3939
10222SOL    HW141345   2.562   3.923   4.004  0.3796 -0.4361  0.3496
10222SOL    HW241346   2.459   3.906   4.130 -0.2349 -0.0348 -0.0995
10223SOL     OW41347   3.282   5.904   1.241 -0.6032  0.2837  0.1752
10223SOL    HW141348   3.315   5.942   1.327 -0.6361  0.8285 -0.0458
10223SOL    HW241349   3.256   5.809   1.254  0.5063  0.0158  0.4848
10224SOL     OW41350   3.863   4.138   1.056 -0.3372  0.2344 -0.1465
10224SOL    HW141351   3.881   4.195   1.136 -0.5142  0.4804 -0.2822
10224SOL    HW241352   3.843   4.045   1.085 -0.8399  0.4236  0.1189
10225SOL     OW41353   2.919   3.549   1.338 -0.0700  0.1606 -0.6590
10225SOL    HW141354   2.895   3.584   1.247  1.7227 -1.6045 -1.8634
10225SOL    HW241355   2.840   3.505   1.378  0.1674 -2.8524 -3.2558
10226SOL     OW41356   8.905   7.481   2.244 -0.3998  0.5074 -0.0150
10226SOL    HW141357   8.887   7.533   2.327 -1.8608  0.4914 -0.3090
10226SOL    HW241358   8.956   7.398   2.267 -0.5355  0.6518  0.8175
10227SOL     OW41359   1.837   4.728   2.274  0.2317 -1.1748 -0.3753
10227SOL    HW141360   1.751   4.753   2.319  0.8926 -1.3089  0.9895
10227SOL    HW241361   1.821   4.716   2.176 -1.0580 -0.0093 -0.3310
10228SOL     OW41362   1.307   4.043   1.707  1.1642 -0.4413 -1.1398
10228SOL    HW141363   1.265   4.085   1.627 -0.0698  0.7459  0.1074
10228SOL    HW241364   1.242   4.044   1.783  2.9604  0.1160  0.4216
10229SOL     OW41365   3.940   7.022   4.515  0.6103 -0.0071  0.3625
10229SOL    HW141366   3.865   7.062   4.461  1.3858 -1.7105 -2.0830
10229SOL    HW241367   4.024   7.024   4.461  1.8033 -0.2558  2.1856
10230SOL     OW41368   1.988   7.484   4.322 -0.0144  0.4163  0.1375
10230SOL    HW141369   1.906   7.452   4.369  0.3666  0.1942  0.6579
10230SOL    HW241370   1.983   7.461   4.225 -0.3941  0.0616  0.2423
10231SOL     OW41371   4.517   1.787   2.333 -0.7413  0.5166  0.2584
10231SOL    HW141372   4.505   1.688   2.334 -1.4760  0.6073  0.5299
10231SOL    HW241373   4.564   1.816   2.417  0.5729  0.2713 -0.3701
10232SOL     OW41374   2.389   7.399   0.403 -0.4979  0.7342 -0.6135
10232SOL    HW141375   2.350   7.374   0.492 -0.6920 -1.1164 -1.2000
10232SOL    HW241376   2.346   7.344   0.331  0.6785  1.1899 -1.6783
10233SOL     OW41377   1.347   5.413   2.933  0.0140 -0.0844 -0.9094
10233SOL    HW141378   1.279   5.391   3.002 -0.5775 -0.5118 -1.6182
10233SOL    HW241379   1.395   5.497   2.959 -0.2997 -0.1637 -0.0610
10234SOL     OW41380   3.316   5.601   3.447 -0.2445  1.0163  0.0710
10234SOL    HW141381   3.278   5.683   3.491 -0.0821  1.4379 -0.5682
10234SOL    HW241382   3.415   5.611   3.437 -0.2990  0.9677 -0.4951
10235SOL     OW41383   7.824   7.553   3.730 -0.2704  0.1866 -0.2666
10235SOL    HW141384   7.861   7.635   3.687  0.4988  0.1005  0.2267
10235SOL    HW241385   7.731   7.571   3.763 -0.6034  0.4581 -1.3293
10236SOL     OW41386   5.071   2.024   2.842 -0.3444  0.3447 -0.1269
10236SOL    HW141387   5.064   1.927   2.818  2.1667  0.0650  0.1926
10236SOL    HW241388   5.166   2.046   2.863 -1.3596  2.1901  2.7552
10237SOL     OW41389   0.035   2.707   2.620 -0.6026  0.8119 -0.0112
10237SOL    HW141390   0.106   2.675   2.683 -0.3193  0.9824 -0.2375
10237SOL    HW241391   0.035   2.807   2.619 -0.6722  0.8096 -0.2073
10238SOL     OW41392   1.525   8.314   2.891  0.1145 -0.2544  0.3304
10238SOL    HW141393   1.523   8.414   2.887 -4.8564 -0.1893  1.3159
10238SOL    HW241394   1.569   8.285   2.976 -0.0370  1.1334  0.8901
10239SOL     OW41395   2.859   8.064   2.348  0.2116 -0.1314  0.5430
10239SOL    HW141396   2.881   8.094   2.255 -2.4047 -0.7975 -0.3323
10239SOL    HW241397   2.901   8.127   2.414  0.7749  1.2608 -1.1023
10240SOL     OW41398   7.745   0.578   2.538 -0.1667 -0.2165  0.5127
10240SOL    HW141399   7.666   0.527   2.502  0.1054  0.3759 -0.9784
10240SOL    HW241400   7.766   0.547   2.630 -1.3874 -1.2422  0.4569
10241SOL     OW41401   2.631   8.674   2.637  0.1845 -0.7368  0.0318
10241SOL    HW141402   2.666   8.597   2.583  0.4592  0.3012 -1.3051
10241SOL    HW241403   2.567   8.727   2.582 -0.0351 -0.0281  0.9595
10242SOL     OW41404   1.419   8.475   4.962 -0.5110 -0.0788  0.3722
10242SOL    HW141405   1.394   8.416   4.885 -0.0047  0.0814  0.0853
10242SOL    HW241406   1.516   8.463   4.983 -0.5678  0.1369  0.7646
10243SOL     OW41407   0.644   0.637   1.295  0.2429 -0.0672  0.5057
10243SOL    HW141408   0.618   0.649   1.200  1.3914 -0.1661  0.1747
10243SOL    HW241409   0.715   0.704   1.320  2.4756 -2.2648  0.2807
10244SOL     OW41410   4.762   0.304   1.181 -0.1367 -0.1109 -0.1151
10244SOL    HW141411   4.747   0.277   1.276  1.2145  1.4501  0.5739
10244SOL    HW241412   4.792   0.224   1.128 -1.6513 -1.1624  0.5761
10245SOL     OW41413   4.307   0.724   1.904  0.5190 -0.4263  0.2934
10245SOL    HW141414   4.272   0.796   1.844  0.1040  0.2657  1.3500
10245SOL    HW241415   4.403   0.741   1.925  0.8192 -0.9805 -0.6343
10246SOL     OW41416   1.604   8.114   0.539 -0.1970 -0.1372  0.0082
10246SOL    HW141417   1.547   8.051   0.593 -0.8929  0.6050  0.1456
10246SOL    HW241418   1.559   8.203   0.534  1.0187  0.4922  0.2136
10247SOL     OW41419   5.497   0.099   3.438 -0.3747 -0.8551 -0.2050
10247SOL    HW141420   5.513   0.184   3.388  0.1484  0.1211  1.5937
10247SOL    HW241421   5.476   0.119   3.533  0.5567 -2.7697  0.4391
10248SOL     OW41422   0.846   9.740   0.557  0.0511  0.4216  0.6519
10248SOL    HW141423   0.870   9.648   0.588 -1.2727  0.5016  1.9807
10248SOL    HW241424   0.924   9.801   0.570  0.6164 -0.2971  0.6748
10249SOL     OW41425   0.842   6.934   3.734 -0.2969  0.4495 -0.0203
10249SOL    HW141426   0.820   6.977   3.646 -0.8537  0.2384  0.0130
10249SOL    HW241427   0.916   6.984   3.778 -0.4631  0.9530 -0.3116
10250SOL     OW41428   8.571   9.716   3.858  0.2532 -0.7490  0.6305
10250SOL    HW141429   8.498   9.672   3.806  0.2354 -1.8001  1.5460
10250SOL    HW241430   8.620   9.779   3.798 -0.7278 -0.8175 -0.2679
10251SOL     OW41431   1.250   6.726   3.978  0.3284  0.4040 -0.4288
10251SOL    HW141432   1.224   6.673   4.059 -0.6326  1.9939  0.3223
10251SOL    HW241433   1.226   6.674   3.896  0.9314 -1.0423  0.2774
10252SOL     OW41434   5.201   0.621   4.132 -0.0635  0.3618  0.8465
10252SOL    HW141435   5.181   0.534   4.176  1.4752  0.4267  1.7439
10252SOL    HW241436   5.242   0.605   4.043  1.1696  0.1286  1.4429
10253SOL     OW41437   0.816   6.266   0.302  0.2363 -0.5216  0.1722
10253SOL    HW141438   0.761   6.195   0.345  1.6728 -1.8193 -0.0854
10253SOL    HW241439   0.905   6.273   0.349  1.2739 -0.9901 -1.6875
10254SOL     OW41440   5.116   0.123   3.632  0.3232 -0.4716 -0.4941
10254SOL    HW141441   5.129   0.043   3.575  1.0939 -1.3439  0.8761
10254SOL    HW241442   5.197   0.182   3.627 -0.0614  0.0001 -1.1585
10255SOL     OW41443   4.371   8.363   4.230  0.3359  0.3363 -0.3493
10255SOL    HW141444   4.400   8.363   4.134 -0.7485  2.1140 -0.7119
10255SOL    HW241445   4.445   8.397   4.288  0.3292  1.1255 -0.7991
10256SOL     OW41446   2.274   7.906   2.149  0.1254 -0.2518  0.4166
10256SOL    HW141447   2.196   7.864   2.196 -1.0334  2.2797  0.8400
10256SOL    HW241448   2.255   7.911   2.051 -0.5035  0.8486  0.5849
10257SOL     OW41449   6.094   7.018   3.703 -0.2537  0.0692 -0.7153
10257SOL    HW141450   6.089   6.970   3.615 -1.2401 -0.8806 -0.1545
10257SOL    HW241451   6.055   6.960   3.774 -0.8911  1.4758  0.0843
10258SOL     OW41452   3.824   8.229   1.689 -0.6195 -0.3983 -0.6462
10258SOL    HW141453   3.839   8.300   1.758 -0.4544 -1.3983  0.3621
10258SOL    HW241454   3.737   8.246   1.642  0.2276  1.4155 -1.5916
10259SOL     OW41455   9.137   2.762   0.341  0.2273  0.1001  0.1251
10259SOL    HW141456   9.098   2.853   0.330 -0.6024 -0.1055  1.2575
10259SOL    HW241457   9.177   2.753   0.432  0.2257 -0.6925  0.0539
10260SOL     OW41458   8.400   9.813   2.873 -0.4989 -0.4556 -0.1396
10260SOL    HW141459   8.412   9.896   2.927 -1.2043 -0.6790  0.3807
10260SOL    HW241460   8.482   9.795   2.820 -0.0882  0.2016  0.2678
10261SOL     OW41461   9.016   2.543   0.184 -0.0582  0.2886  0.0758
10261SOL    HW141462   9.052   2.546   0.090 -0.7733  0.2241 -0.2050
10261SOL    HW241463   9.052   2.621   0.236  3.2732 -1.7024  0.8461
10262SOL     OW41464   2.449   9.715   4.284  0.7545 -0.3083  0.8050
10262SOL    HW141465   2.431   9.658   4.203  0.5447  1.5104 -0.4659
10262SOL    HW241466   2.547   9.728   4.295  0.7193  1.0539 -0.3381
10263SOL     OW41467   3.851   7.767   5.412 -0.9875  0.0960  0.0447
10263SOL    HW141468   3.840   7.857   5.369 -2.7964 -1.0709 -2.0249
10263SOL    HW241469   3.794   7.762   5.494 -0.3950  1.0494  0.5182
10264SOL     OW41470   2.808   7.863   3.052 -0.0134 -0.1214 -0.9533
10264SOL    HW141471   2.876   7.797   3.020  2.4301  0.8175  2.0266
10264SOL    HW241472   2.734   7.815   3.099  1.4854 -0.8697  0.7411
10265SOL     OW41473   4.193   3.420   0.757  0.1031 -0.4626  0.6110
10265SOL    HW141474   4.133   3.432   0.678  0.6678  0.9967  0.3836
10265SOL    HW241475   4.164   3.481   0.830  1.0711 -0.0032  0.6297
10266SOL     OW41476   7.080   1.614   3.770 -0.1159  0.2126 -0.3491
10266SOL    HW141477   7.139   1.563   3.707  1.6415  1.3011  0.3633
10266SOL    HW241478   7.034   1.550   3.832  1.2392 -0.5971 -0.1560
10267SOL     OW41479   0.160   0.733   2.324 -0.0656 -0.6395 -0.0751
10267SOL    HW141480   0.236   0.742   2.259 -0.0187 -1.0782 -0.0810
10267SOL    HW241481   0.134   0.637   2.332 -1.1290 -0.4045 -0.6433
10268SOL     OW41482   8.084   9.178   4.325 -0.0077 -0.1454  0.9552
10268SOL    HW141483   8.024   9.184   4.245  0.9150 -0.9456  0.1850
10268SOL    HW241484   8.065   9.255   4.386 -1.1325  0.1575  0.2603
10269SOL     OW41485   8.715   6.976   1.152  0.0869  0.1063  0.1459
10269SOL    HW141486   8.693   7.039   1.078  0.0899 -0.0477  0.0136
10269SOL    HW241487   8.761   6.895   1.114  2.0317  0.9996  0.5505
10270SOL     OW41488   0.698   0.937   0.498 -0.0196 -0.7605  0.1107
10270SOL    HW141489   0.759   0.928   0.420 -0.3019  0.7833 -0.3101
10270SOL    HW241490   0.679   1.034   0.515 -2.3457 -1.1841  0.2082
10271SOL     OW41491   9.206   8.036   1.779  0.0497  0.7060 -0.0470
10271SOL    HW141492   9.175   7.945   1.809 -0.6203  0.6561 -0.8639
10271SOL    HW241493   9.184   8.103   1.849 -1.8185  0.6421 -0.5464
10272SOL     OW41494   1.487   3.420   0.180 -0.3356 -0.0971 -0.1825
10272SOL    HW141495   1.574   3.448   0.140 -0.5753  0.1717 -0.5256
10272SOL    HW241496   1.417   3.490   0.161 -0.1081  0.7602  2.0035
10273SOL     OW41497   1.302   1.868   0.434 -0.1504 -0.4763 -0.2960
10273SOL    HW141498   1.394   1.906   0.444  0.8490 -2.4762 -1.6417
10273SOL    HW241499   1.273   1.828   0.521 -0.0286  0.7203  0.3121
10274SOL     OW41500   0.579   0.244   1.019 -0.2917 -0.0803  0.0191
10274SOL    HW141501   0.574   0.309   1.094  0.2151  0.5978 -0.5193
10274SOL    HW241502   0.616   0.157   1.052 -0.7289 -0.0130  0.6882
10275SOL     OW41503   5.248   9.464   4.420 -0.8919  0.4561 -0.0876
10275SOL    HW141504   5.338   9.458   4.463 -1.3409  0.8242  0.9198
10275SOL    HW241505   5.242   9.397   4.346  0.2158  0.4396 -0.1670
10276SOL     OW41506   1.443   5.695   2.039 -0.4693 -0.1673 -0.6700
10276SOL    HW141507   1.344   5.682   2.028 -1.0322  0.5570  2.9031
10276SOL    HW241508   1.465   5.792   2.034  0.2667 -0.4110 -2.6236
10277SOL     OW41509   6.469   9.382   3.345 -0.4865  0.2862  0.3927
10277SOL    HW141510   6.379   9.340   3.342 -0.3360 -0.0770  0.8875
10277SOL    HW241511   6.481   9.442   3.266 -1.6061  1.2523  0.9449
10278SOL     OW41512   2.108   1.196   1.271  0.0281 -0.9340 -0.2701
10278SOL    HW141513   2.206   1.183   1.286  0.0873 -0.6961 -0.4754
10278SOL    HW241514   2.092   1.281   1.221 -0.3522 -0.4289  0.7019
10279SOL     OW41515   2.452   0.281   2.068  0.1412 -0.3028 -0.2043
10279SOL    HW141516   2.518   0.247   2.135 -0.0597 -3.6206 -1.5723
10279SOL    HW241517   2.360   0.269   2.104  0.1500  1.7759  0.5763
10280SOL     OW41518   8.222   0.967   2.743 -0.4132  0.6518  0.2237
10280SOL    HW141519   8.184   0.953   2.651 -0.4077  1.7872  0.0331
10280SOL    HW241520   8.149   0.957   2.811 -0.4780  0.0919  0.0735
10281SOL     OW41521   2.725   4.351   5.131  0.1258  0.1876  0.3449
10281SOL    HW141522   2.626   4.368   5.128  0.3546  1.7996  1.2095
10281SOL    HW241523   2.765   4.406   5.204  1.0130 -3.9010  3.1264
10282SOL     OW41524   6.820   1.905   2.568 -0.0968 -0.6176 -0.5930
10282SOL    HW141525   6.767   1.874   2.489 -1.5081  1.9843 -0.7244
10282SOL    HW241526   6.783   1.864   2.651 -1.0789 -0.3700 -0.8966
10283SOL     OW41527   4.442   3.979   1.754 -0.3045  0.1998 -0.6543
10283SOL    HW141528   4.491   3.894   1.736 -0.0734  0.3288 -0.6411
10283SOL    HW241529   4.462   4.009   1.847 -0.3917  0.2625 -0.6565
10284SOL     OW41530   4.229   7.725   4.249 -0.0097  0.4115 -0.5464
10284SOL    HW141531   4.295   7.650   4.255  0.2884  0.6585 -0.7392
10284SOL    HW241532   4.270   7.809   4.283 -0.4175  0.4437 -0.1297
10285SOL     OW41533   8.952   8.469   3.072 -0.3260 -0.2034 -0.4504
10285SOL    HW141534   8.858   8.501   3.077 -0.4291 -0.1119 -2.4695
10285SOL    HW241535   9.014   8.548   3.071 -0.2342 -0.2547  0.5154
10286SOL     OW41536   3.065   8.197   3.237 -0.5500  0.2629  0.1748
10286SOL    HW141537   3.126   8.127   3.275 -0.7283 -0.4237 -0.7816
10286SOL    HW241538   2.974   8.158   3.223 -0.3019  0.2759 -1.6143
10287SOL     OW41539   1.537   1.773   5.178  0.3147 -0.5076 -0.0713
10287SOL    HW141540   1.506   1.865   5.203 -0.1420 -1.3319  2.4490
10287SOL    HW241541   1.460   1.710   5.179  1.0141 -1.3585  0.3076
10288SOL     OW41542   4.239   2.992   4.390  0.1294 -0.0842  0.1371
10288SOL    HW141543   4.217   2.938   4.471  1.3041 -1.0911 -0.2034
10288SOL    HW241544   4.187   3.078   4.392 -1.1801 -0.8760  1.0611
10289SOL     OW41545   2.617   9.649   0.709  0.2031  0.1257 -0.4467
10289SOL    HW141546   2.605   9.590   0.629  0.9388 -0.8132  0.1362
10289SOL    HW241547   2.674   9.603   0.776 -0.2051  1.0223  0.5211
10290SOL     OW41548   3.554   1.638   2.746  0.4929 -0.3555  0.4216
10290SOL    HW141549   3.570   1.731   2.713  0.5052 -1.2123 -2.0311
10290SOL    HW241550   3.461   1.631   2.782 -0.0097  0.2035 -0.7620
10291SOL     OW41551   7.905   3.096   2.608 -0.0538 -0.7643  0.2644
10291SOL    HW141552   7.956   3.153   2.672  0.5303 -0.8087 -0.1577
10291SOL    HW241553   7.961   3.077   2.528 -1.3366  0.5594 -0.9668
10292SOL     OW41554   9.884   6.571   2.906 -0.2291 -0.3399 -0.1506
10292SOL    HW141555   9.852   6.653   2.860  2.9196 -0.6878 -3.1483
10292SOL    HW241556   9.905   6.592   3.002  1.2117  2.5349 -1.0480
10293SOL     OW41557   2.847   2.585   4.701  0.6670 -0.2824  0.3223
10293SOL    HW141558   2.821   2.585   4.798 -0.6227  0.3985 -0.0201
10293SOL    HW241559   2.808   2.664   4.655  2.0675 -0.0824 -0.5624
10294SOL     OW41560   8.712   8.566   3.106 -0.1195  0.2338 -0.1500
10294SOL    HW141561   8.754   8.638   3.161 -0.1624 -0.4432  0.8019
10294SOL    HW241562   8.658   8.507   3.166 -0.2598 -0.4556 -0.9481
10295SOL     OW41563   8.794   8.445   0.094  0.3285 -0.5779  0.0002
10295SOL    HW141564   8.766   8.375   0.028  1.6719 -1.2745  0.1472
10295SOL    HW241565   8.860   8.507   0.052 -0.2138  0.1004  0.1318
10296SOL     OW41566   1.982   9.632   3.800 -0.1979 -0.1836 -0.6146
10296SOL    HW141567   1.889   9.660   3.779 -0.1398  1.5021  1.1861
10296SOL    HW241568   1.982   9.576   3.883  0.2996 -0.8909 -1.0899
10297SOL     OW41569   1.499   8.737   4.724 -0.0885 -0.2157 -0.0662
10297SOL    HW141570   1.572   8.704   4.784 -1.3153 -2.0884  0.4185
10297SOL    HW241571   1.532   8.738   4.630  0.8610 -0.1314  0.2549
10298SOL     OW41572   4.558   4.276   0.915 -0.3779 -0.4871 -0.1125
10298SOL    HW141573   4.573   4.195   0.972 -1.1514  0.3186  1.2640
10298SOL    HW241574   4.598   4.356   0.959  0.3640 -0.1140 -1.4582
10299SOL     OW41575   2.938   0.709   5.026 -0.2970 -0.4473  0.1544
10299SOL    HW141576   2.865   0.642   5.032 -0.1685 -0.6355 -0.3410
10299SOL    HW241577   3.026   0.663   5.023 -0.2977 -0.3513 -2.0531
10300SOL     OW41578   4.064   8.772   1.613  0.5953  0.0301  0.5759
10300SOL    HW141579   3.985   8.834   1.618  0.6550  0.1088  0.5432
10300SOL    HW241580   4.145   8.819   1.647  0.8455  0.2972 -0.4003
10301SOL     OW41581   8.439   7.159   2.741  0.0338  0.4937  0.0158
10301SOL    HW141582   8.423   7.211   2.657  1.2276  0.7518 -0.0565
10301SOL    HW241583   8.354   7.156   2.794 -0.0927  2.4727 -0.0069
10302SOL     OW41584   9.526   3.305   2.052 -0.1257 -0.1241 -0.3087
10302SOL    HW141585   9.546   3.359   2.134  1.4162 -1.1504  0.0108
10302SOL    HW241586   9.437   3.260   2.062  0.7432 -1.5282  1.5207
10303SOL     OW41587   3.829   2.365   3.724 -0.3354 -0.0167 -0.2436
10303SOL    HW141588   3.824   2.284   3.782 -3.4891 -0.8862 -1.5956
10303SOL    HW241589   3.789   2.443   3.771  0.2951  0.1216  0.0643
10304SOL     OW41590   9.314   4.247   2.734 -0.2803  0.5843 -0.2931
10304SOL    HW141591   9.251   4.180   2.774  1.0590 -0.4350  0.1463
10304SOL    HW241592   9.327   4.323   2.797 -2.3820  1.6418 -1.0993
10305SOL     OW41593   0.459   8.636   4.741  0.7769 -0.4403  0.1618
10305SOL    HW141594   0.504   8.717   4.778  0.7070 -0.0469 -0.6127
10305SOL    HW241595   0.512   8.602   4.663  2.1791 -2.5891  1.9846
10306SOL     OW41596   2.867   5.869   1.161  0.1810 -0.4492 -0.2277
10306SOL    HW141597   2.893   5.943   1.099 -1.2291  0.6577  0.4714
10306SOL    HW241598   2.773   5.840   1.141  0.0897 -0.8086  0.6910
10307SOL     OW41599   7.909   1.127   0.213  0.6658 -0.1215  0.0177
10307SOL    HW141600   7.951   1.199   0.269  0.4206  0.4111 -0.4819
10307SOL    HW241601   7.818   1.107   0.247  0.8081 -0.3387  0.2768
10308SOL     OW41602   3.575   5.209   2.759 -0.4015 -0.1322  0.7356
10308SOL    HW141603   3.634   5.159   2.696 -0.6834  0.5711 -0.1015
10308SOL    HW241604   3.480   5.205   2.726 -0.3262  1.5612  0.2366
10309SOL     OW41605   1.692   7.885   4.545 -0.3034 -0.0164 -0.0150
10309SOL    HW141606   1.667   7.978   4.518  1.9689  0.7580  0.4349
10309SOL    HW241607   1.768   7.888   4.609  0.3455 -2.2275 -0.6214
10310SOL     OW41608   3.792   8.819   0.738 -0.7247  0.0667  0.2870
10310SOL    HW141609   3.708   8.794   0.689 -0.6748 -0.8565  0.6619
10310SOL    HW241610   3.805   8.756   0.816  0.8534 -0.4457 -0.3766
10311SOL     OW41611   7.381   9.677   4.519  0.1007 -0.1352 -0.1139
10311SOL    HW141612   7.349   9.642   4.431 -0.4270  0.5078 -0.1797
10311SOL    HW241613   7.466   9.728   4.506 -0.1337  0.2076 -0.2940
10312SOL     OW41614   9.825   3.254   3.952 -0.1588 -0.1226 -0.1847
10312SOL    HW141615   9.769   3.253   3.869  1.6599  0.0462 -1.4556
10312SOL    HW241616   9.920   3.275   3.927  0.7935 -2.0223  1.7004
10313SOL     OW41617   5.135   0.510   1.878  0.2289  0.0855  0.2868
10313SOL    HW141618   5.213   0.448   1.869 -0.2129 -0.4276 -0.0691
10313SOL    HW241619   5.084   0.511   1.791  1.1158  2.1396 -0.2352
10314SOL     OW41620   4.694   9.716   2.703  0.7742 -0.6668 -0.2895
10314SOL    HW141621   4.746   9.635   2.676  2.2193 -0.1102  0.6984
10314SOL    HW241622   4.607   9.718   2.655  2.1861 -1.0047 -2.9873
10315SOL     OW41623   4.484   8.440   0.968  0.3000 -0.3768  0.3963
10315SOL    HW141624   4.396   8.438   1.015 -0.4232  1.4228 -0.8360
10315SOL    HW241625   4.480   8.384   0.885 -0.2498  1.0575 -0.5714
10316SOL     OW41626   2.645   4.817   3.164  0.2692 -0.3794 -0.3235
10316SOL    HW141627   2.548   4.798   3.152  0.4996 -1.9080  0.1069
10316SOL    HW241628   2.698   4.761   3.100  0.9371 -0.4872  0.3196
10317SOL     OW41629   1.303   1.365   0.003 -0.4330  0.2182 -0.9770
10317SOL    HW141630   1.304   1.454   0.049  0.5219 -0.0039 -0.5671
10317SOL    HW241631   1.359   1.369  -0.079  1.1063 -0.5088  0.0138
10318SOL     OW41632   9.078   7.781   4.549 -0.3681  0.4421  0.4386
10318SOL    HW141633   9.117   7.774   4.458  3.2275 -0.2097  1.9386
10318SOL    HW241634   9.080   7.877   4.579 -1.8818  0.7098 -0.2646
10319SOL     OW41635   1.481   1.266   3.953  0.6099  0.1349  0.6797
10319SOL    HW141636   1.409   1.222   3.899  1.0300 -0.2558  0.4352
10319SOL    HW241637   1.570   1.228   3.928  1.0229  1.4192  0.1654
10320SOL     OW41638   9.167   0.406   4.425 -0.1489 -0.6220  0.0716
10320SOL    HW141639   9.122   0.495   4.419 -0.2404 -0.6282  0.6809
10320SOL    HW241640   9.161   0.371   4.518 -2.3433 -2.4287 -0.6975
10321SOL     OW41641   0.912   1.381   1.468  0.0051 -0.2731 -0.0904
10321SOL    HW141642   0.949   1.473   1.479  0.2971 -0.5696  1.5115
10321SOL    HW241643   0.851   1.379   1.388  0.4717  1.1455 -0.4987
10322SOL     OW41644   3.230   0.800   1.544 -0.1254 -0.0576 -0.2243
10322SOL    HW141645   3.173   0.718   1.539  0.0772 -0.2045 -0.0686
10322SOL    HW241646   3.211   0.849   1.629  0.5591 -0.5216  0.1940
10323SOL     OW41647   1.851   9.359   2.279 -0.4393  0.2117 -0.1646
10323SOL    HW141648   1.801   9.274   2.298  0.8158 -0.0265  2.1835
10323SOL    HW241649   1.785   9.434   2.272 -1.5119 -0.8251 -1.6686
10324SOL     OW41650   3.603   4.647   1.013 -0.6893  0.0918  0.1421
10324SOL    HW141651   3.589   4.551   0.989 -0.1230  0.1229 -0.3396
10324SOL    HW241652   3.517   4.686   1.047 -1.6138  0.0837 -2.0630
10325SOL     OW41653   1.382   8.409   3.134 -0.3927 -0.3675  0.0966
10325SOL    HW141654   1.397   8.453   3.046  0.6740 -0.7279  0.0973
10325SOL    HW241655   1.461   8.425   3.193  0.3886 -2.9487 -0.1765
10326SOL     OW41656   9.967   7.183   0.480 -0.1057 -0.3848 -0.1008
10326SOL    HW141657  10.006   7.094   0.504 -0.0290 -0.5610 -0.8695
10326SOL    HW241658  10.007   7.215   0.394 -1.3648 -0.3738 -0.6934
10327SOL     OW41659   8.040   9.048   5.264 -0.2967  0.3488 -0.1207
10327SOL    HW141660   7.999   9.018   5.350  2.6493 -0.1603  1.1606
10327SOL    HW241661   8.080   9.139   5.276 -0.0009  0.3384 -0.9998
10328SOL     OW41662   2.534   6.729   2.897  0.4182  0.5361  0.0011
10328SOL    HW141663   2.574   6.754   2.808 -0.9046  0.7531 -0.5549
10328SOL    HW241664   2.442   6.769   2.904 -0.8708 -2.2851  0.0370
10329SOL     OW41665   1.985   0.964   1.180 -0.3175  0.1787  0.4090
10329SOL    HW141666   2.032   0.885   1.220  0.7769  1.2871  1.3248
10329SOL    HW241667   2.033   1.048   1.205 -2.0896  1.2319  0.3461
10330SOL     OW41668   8.536   9.255   3.605  0.1965  0.4225 -0.0224
10330SOL    HW141669   8.508   9.173   3.555  1.4256  0.1710 -0.3326
10330SOL    HW241670   8.565   9.325   3.540 -0.9726  1.1590  0.2399
10331SOL     OW41671   4.781   4.905   1.682 -0.1634 -0.0065 -0.1108
10331SOL    HW141672   4.698   4.931   1.633 -0.9029 -1.3169  0.4076
10331SOL    HW241673   4.784   4.953   1.770 -0.6308 -0.3239  0.0819
10332SOL     OW41674   8.887   1.049   3.716 -0.2287  0.1759 -0.2699
10332SOL    HW141675   8.870   1.022   3.810  0.0947  0.4206 -0.1390
10332SOL    HW241676   8.960   1.118   3.713 -0.2410  0.1772 -0.6954
10333SOL     OW41677   4.276   4.611   0.905  1.0070 -0.2880 -0.3974
10333SOL    HW141678   4.325   4.545   0.847 -0.3206 -0.7841 -0.9899
10333SOL    HW241679   4.213   4.664   0.848 -1.6029 -1.9867  0.8441
10334SOL     OW41680   6.633   7.508   3.892  0.5537  0.0403 -0.5164
10334SOL    HW141681   6.645   7.603   3.866  0.1613  0.1565 -0.2805
10334SOL    HW241682   6.625   7.451   3.811 -0.3203  0.3533 -0.6586
10335SOL     OW41683   6.022   9.445   3.708 -0.1035 -0.5822  0.1253
10335SOL    HW141684   5.925   9.422   3.695 -0.6769  2.2447 -0.9322
10335SOL    HW241685   6.029   9.532   3.755  1.9799 -1.7239  1.9834
10336SOL     OW41686   4.489   8.922   5.335 -0.0193  0.1203  0.3957
10336SOL    HW141687   4.520   8.827   5.341 -0.2876 -0.0342 -0.4860
10336SOL    HW241688   4.398   8.930   5.374 -0.7381 -0.3579 -1.1551
10337SOL     OW41689   9.065   9.843   4.266 -0.5187  0.5225  0.1625
10337SOL    HW141690   9.024   9.909   4.203 -0.1122  0.1781 -0.4574
10337SOL    HW241691   9.105   9.891   4.344  1.1692  1.1217 -1.0640
10338SOL     OW41692   9.072   3.850   1.607  0.5953  0.4992  0.0786
10338SOL    HW141693   9.017   3.809   1.680  0.8007 -0.5743 -0.3587
10338SOL    HW241694   9.155   3.891   1.647  0.3298  0.6032  0.5304
10339SOL     OW41695   0.226   2.726   3.756 -0.4299  0.1907  0.0378
10339SOL    HW141696   0.131   2.703   3.780  0.1123 -1.1615  0.8936
10339SOL    HW241697   0.230   2.749   3.659 -1.4831 -0.6328 -0.2141
10340SOL     OW41698   3.389   9.306   1.247 -0.3060  0.0136  0.1511
10340SOL    HW141699   3.418   9.281   1.155 -2.4488 -2.0275 -0.0319
10340SOL    HW241700   3.346   9.397   1.246  0.8425  0.5524 -0.6034
10341SOL     OW41701   3.321   6.667   2.303 -0.1683 -0.2745 -0.0725
10341SOL    HW141702   3.223   6.651   2.290 -0.3193  0.3883  0.2682
10341SOL    HW241703   3.343   6.664   2.400 -0.4630  3.0404  0.1645
10342SOL     OW41704   1.960   0.042   3.766 -0.0723  0.2814 -0.3476
10342SOL    HW141705   1.920   0.131   3.742 -0.2964 -0.1090 -1.4690
10342SOL    HW241706   2.007   0.004   3.687 -1.3306 -1.3145 -0.3758
10343SOL     OW41707   2.450   6.483   4.267  0.0584  0.3549  0.1651
10343SOL    HW141708   2.473   6.466   4.171 -1.1311 -0.9808  0.0931
10343SOL    HW241709   2.352   6.498   4.275  0.1353  0.3332  1.1981
10344SOL     OW41710   9.294   8.192   1.220 -0.4675 -0.1200 -0.5575
10344SOL    HW141711   9.371   8.183   1.157  0.7083  0.2487  0.8007
10344SOL    HW241712   9.298   8.120   1.289 -2.4786 -1.3014 -1.6418
10345SOL     OW41713   1.581   9.373   4.932  0.2063  0.6247 -0.3615
10345SOL    HW141714   1.679   9.365   4.918  0.1215  3.1584 -3.0346
10345SOL    HW241715   1.534   9.359   4.844 -1.7272  0.5728  0.6550
10346SOL     OW41716   6.923   7.858   3.022 -0.5659 -0.1231  0.4786
10346SOL    HW141717   6.829   7.853   3.056 -0.6142  0.5138  0.4433
10346SOL    HW241718   6.934   7.939   2.964  0.0418 -0.1187  0.5918
10347SOL     OW41719   5.566   8.393   3.029  0.0054  0.3522 -0.4338
10347SOL    HW141720   5.646   8.442   3.063 -0.7102  1.3184 -0.1062
10347SOL    HW241721   5.504   8.458   2.985 -0.2312 -0.5117 -1.3833
10348SOL     OW41722   7.324   0.877   3.508  0.0867 -0.1609 -0.0002
10348SOL    HW141723   7.228   0.847   3.499 -0.1295  1.2171 -2.6389
10348SOL    HW241724   7.326   0.974   3.532  0.8221  0.1138 -1.1626
10349SOL     OW41725   5.703   1.195   3.748 -0.1144 -0.2661 -0.1059
10349SOL    HW141726   5.707   1.159   3.655  0.4018 -0.0101 -0.1898
10349SOL    HW241727   5.765   1.274   3.755 -1.2966  0.6657  0.0463
10350SOL     OW41728   0.793   2.565   5.596 -0.5256  0.1078 -0.0580
10350SOL    HW141729   0.808   2.652   5.549 -0.9528 -0.0299 -0.4479
10350SOL    HW241730   0.878   2.511   5.594 -0.7811 -0.2487 -1.3918
10351SOL     OW41731   2.607   4.111   3.573 -0.2739  0.4961  0.6047
10351SOL    HW141732   2.696   4.078   3.543 -0.5194  0.6405 -0.3202
10351SOL    HW241733   2.577   4.185   3.512 -0.3594  1.4585  1.8029
10352SOL     OW41734   0.392   1.941   1.777  0.2753  0.0040  0.3442
10352SOL    HW141735   0.488   1.912   1.772 -0.3410 -2.0620  0.0072
10352SOL    HW241736   0.370   1.966   1.872  1.2163  0.8062  0.3672
10353SOL     OW41737   0.790   2.768   1.026 -0.5214 -0.0606  0.1377
10353SOL    HW141738   0.761   2.861   1.004  0.8967 -0.0552 -1.7591
10353SOL    HW241739   0.721   2.725   1.084 -2.5269  1.2077 -1.2538
10354SOL     OW41740   7.531   0.164   2.720 -0.4277 -0.4648 -0.2628
10354SOL    HW141741   7.523   0.253   2.765 -0.4254  0.5356 -2.1863
10354SOL    HW241742   7.613   0.118   2.753 -0.9842 -0.2165  1.5217
10355SOL     OW41743   4.758   9.244   2.919  1.0300 -0.1660  0.3293
10355SOL    HW141744   4.817   9.186   2.863  1.2892  0.6787 -0.3016
10355SOL    HW241745   4.706   9.306   2.859 -0.2768 -0.6962  0.8952
10356SOL     OW41746   4.650   2.710   3.189  0.0158 -0.1678 -0.5810
10356SOL    HW141747   4.744   2.732   3.214  0.2333 -1.1439 -0.5020
10356SOL    HW241748   4.640   2.610   3.182 -1.5883 -0.2309  1.7503
10357SOL     OW41749   2.222   3.674   2.090 -0.2443 -0.0506  0.2332
10357SOL    HW141750   2.277   3.640   2.166 -0.0530 -0.3854 -0.0535
10357SOL    HW241751   2.126   3.678   2.117 -0.0696  0.5896  0.7528
10358SOL     OW41752   9.885   8.524   0.704 -0.2679  0.3995  0.2172
10358SOL    HW141753   9.811   8.492   0.764 -2.4930  0.1425 -2.5811
10358SOL    HW241754   9.884   8.624   0.701 -0.1113  0.4149  0.6506
10359SOL     OW41755   9.756   0.677   2.143 -0.0408 -0.3124 -0.2363
10359SOL    HW141756   9.734   0.601   2.204  1.2909 -0.2966  0.2793
10359SOL    HW241757   9.841   0.658   2.095 -0.6980  0.0006 -1.5655
10360SOL     OW41758   0.148   3.807   1.655 -0.0616 -0.0777 -0.5116
10360SOL    HW141759   0.214   3.882   1.648  0.3287 -0.3020  0.7353
10360SOL    HW241760   0.121   3.795   1.751 -0.4204 -1.2807 -0.7607
10361SOL     OW41761   3.957   1.863   0.584 -1.1492  0.4366 -0.5200
10361SOL    HW141762   4.038   1.811   0.611 -1.6618 -0.2274 -0.2545
10361SOL    HW241763   3.875   1.809   0.602 -1.6254  0.8889 -1.2933
10362SOL     OW41764   0.408   3.184   3.132 -0.1100  0.8139  0.2165
10362SOL    HW141765   0.484   3.213   3.190  0.2815  0.3784 -0.0756
10362SOL    HW241766   0.435   3.192   3.036  0.7459 -2.3943  0.1128
10363SOL     OW41767   2.603   3.520   3.471 -0.1649  0.3298 -0.1855
10363SOL    HW141768   2.666   3.585   3.428 -0.5791  1.8900  1.5336
10363SOL    HW241769   2.655   3.445   3.513  0.4803  1.0215  0.2520
10364SOL     OW41770   3.192   5.359   0.718 -0.2629  0.1955  0.1541
10364SOL    HW141771   3.165   5.434   0.779 -0.9339  0.0341  0.0568
10364SOL    HW241772   3.122   5.345   0.649 -0.5157 -1.0262  0.6382
10365SOL     OW41773   9.627   7.342   2.371 -0.2016 -0.2122  0.6078
10365SOL    HW141774   9.634   7.423   2.430 -0.5003  0.2295  0.0437
10365SOL    HW241775   9.694   7.274   2.401 -0.9181 -0.3365  1.9770
10366SOL     OW41776   0.653   5.526   2.474 -0.1741  0.2836 -0.4599
10366SOL    HW141777   0.684   5.614   2.437 -1.4937  0.5223 -1.0256
10366SOL    HW241778   0.659   5.457   2.402 -2.2187  0.6276 -0.9986
10367SOL     OW41779   5.382   0.314   2.539 -0.4175  0.3390  0.0022
10367SOL    HW141780   5.382   0.216   2.517 -0.2508  0.5722 -1.0610
10367SOL    HW241781   5.368   0.367   2.455 -0.8134  1.2207  0.6169
10368SOL     OW41782   2.159   4.049   1.865 -0.2555  0.4965  0.1921
10368SOL    HW141783   2.211   4.125   1.905 -1.0047  0.0173  2.1239
10368SOL    HW241784   2.193   3.963   1.902  0.7381 -0.1645 -2.1602
10369SOL     OW41785   2.881   0.594   3.658  0.3510 -0.7481 -0.4336
10369SOL    HW141786   2.884   0.674   3.717 -1.5066 -0.1549 -1.1042
10369SOL    HW241787   2.801   0.538   3.680 -0.2629 -0.6212 -2.2165
10370SOL     OW41788   0.659   8.857   5.404  0.9471  0.1448  0.7030
10370SOL    HW141789   0.602   8.885   5.326 -0.1286  1.2159  1.8408
10370SOL    HW241790   0.660   8.931   5.472  0.8184 -1.2946  2.2857
10371SOL     OW41791   4.196   3.474   2.992 -0.1789  0.1413 -0.6254
10371SOL    HW141792   4.245   3.396   2.954  0.8067 -0.6227  2.1100
10371SOL    HW241793   4.167   3.535   2.917  1.1211 -1.6016 -2.6002
10372SOL     OW41794   8.721   5.287   2.506  0.4394 -0.0868 -0.3657
10372SOL    HW141795   8.786   5.227   2.460  0.8452 -1.7655  2.2700
10372SOL    HW241796   8.634   5.240   2.517  0.4427  0.1530  0.8137
10373SOL     OW41797   3.436   1.815   2.918  0.0383  0.0977  0.2543
10373SOL    HW141798   3.436   1.772   3.009  0.4669  0.8634  0.6237
10373SOL    HW241799   3.530   1.837   2.892  0.1189 -2.0549 -1.3138
10374SOL     OW41800   1.872   0.349   3.120  0.1279 -0.0496 -0.3468
10374SOL    HW141801   1.905   0.425   3.065  0.6986  0.6491  0.9408
10374SOL    HW241802   1.783   0.372   3.159  0.3927  0.0430  0.2066
10375SOL     OW41803   5.104   1.017   4.508 -0.1485 -0.2173  0.2223
10375SOL    HW141804   5.059   1.091   4.458 -0.5342  0.1639  1.1173
10375SOL    HW241805   5.129   0.944   4.444 -1.4143 -0.1291 -0.3936
10376SOL     OW41806   0.162   7.853   0.310  0.9029  0.1450 -0.1971
10376SOL    HW141807   0.109   7.792   0.252 -1.5610 -0.5337  2.6647
10376SOL    HW241808   0.256   7.859   0.275  0.4624 -3.0591 -2.0909
10377SOL     OW41809   0.343   1.152   1.018 -0.1903  0.3521 -0.2428
10377SOL    HW141810   0.415   1.207   0.976 -0.8075  1.3944  0.0442
10377SOL    HW241811   0.381   1.099   1.094  0.6247 -0.4261 -1.1733
10378SOL     OW41812   2.000   7.168   0.289  0.1752  0.0247 -0.5242
10378SOL    HW141813   1.933   7.202   0.222 -2.9779  0.5421  2.7089
10378SOL    HW241814   2.015   7.238   0.358  2.1128 -1.1188  0.2271
10379SOL     OW41815   1.771   2.977   2.922 -0.3833  0.1883  0.5234
10379SOL    HW141816   1.703   3.014   2.986 -0.1154 -1.6355  1.9246
10379SOL    HW241817   1.820   2.902   2.966  1.7902  0.7406 -0.8665
10380SOL     OW41818   0.061   5.795   2.192 -0.4023 -0.5633 -0.2450
10380SOL    HW141819   0.087   5.699   2.203 -1.8645 -0.9139  0.1715
10380SOL    HW241820   0.027   5.810   2.099  1.2440 -0.0999 -0.7948
10381SOL     OW41821   9.885   7.276   0.787 -0.0534  0.5719 -0.2663
10381SOL    HW141822   9.798   7.288   0.836 -0.1524 -1.7390  0.1879
10381SOL    HW241823   9.876   7.314   0.695 -1.3761  0.8936 -0.0200
10382SOL     OW41824   0.913   0.787   1.027 -0.0407 -0.1814  0.3414
10382SOL    HW141825   0.828   0.833   1.001 -0.0803 -0.1058  0.6005
10382SOL    HW241826   0.923   0.702   0.975 -0.9232 -0.8548  1.2738
10383SOL     OW41827   1.463   8.849   4.113 -0.2353  0.1501  0.2382
10383SOL    HW141828   1.407   8.821   4.191 -1.0710  0.3633 -0.2829
10383SOL    HW241829   1.550   8.884   4.146 -0.9442  1.0878  1.1415
10384SOL     OW41830   2.472   8.217   0.059  0.0518  0.7138 -0.0692
10384SOL    HW141831   2.523   8.149   0.006  1.0851  1.4681 -0.0539
10384SOL    HW241832   2.460   8.184   0.152 -2.8035 -1.1540 -1.0293
10385SOL     OW41833   7.563   0.764   4.995  0.2384  0.0950  0.1224
10385SOL    HW141834   7.568   0.731   5.089  0.0090  1.6411  0.6801
10385SOL    HW241835   7.651   0.748   4.949  0.2542 -0.9272  0.4999
10386SOL     OW41836   0.230   5.468   2.630  0.7848  0.4188 -0.2609
10386SOL    HW141837   0.243   5.456   2.532 -0.5748 -2.5914 -0.1204
10386SOL    HW241838   0.263   5.388   2.679 -0.6642  0.8797  1.5511
10387SOL     OW41839   3.266   9.979   1.607 -0.1980  0.3195 -0.2983
10387SOL    HW141840   3.204   9.910   1.568  0.8188 -0.8287  0.1087
10387SOL    HW241841   3.303   9.946   1.693 -0.0903  1.6018  0.1626
10388SOL     OW41842   3.718   5.927   1.907 -0.1427  0.4759 -0.1380
10388SOL    HW141843   3.689   5.973   1.991  3.2254  0.8821  0.8988
10388SOL    HW241844   3.764   5.993   1.848  1.0895 -0.6494 -0.4652
10389SOL     OW41845   1.293   8.138   4.154 -0.0109 -0.5078  0.0864
10389SOL    HW141846   1.260   8.222   4.197  1.5825 -0.3894  1.0964
10389SOL    HW241847   1.218   8.072   4.149 -0.6373  0.0819  1.5360
10390SOL     OW41848   1.234   2.583   1.654 -0.1351 -0.3186  0.0614
10390SOL    HW141849   1.204   2.491   1.677 -2.0632  0.3514  0.3351
10390SOL    HW241850   1.162   2.649   1.679  1.5661  1.3475  0.6957
10391SOL     OW41851   0.490   0.421   2.798  0.2314 -0.6089  0.0833
10391SOL    HW141852   0.472   0.479   2.719  1.4497  0.0725  0.2848
10391SOL    HW241853   0.508   0.478   2.878  1.1402 -1.2494  0.3503
10392SOL     OW41854   3.038   1.819   5.042 -0.3995 -0.3093  0.0379
10392SOL    HW141855   2.970   1.881   5.081  1.3223  1.3204  0.5244
10392SOL    HW241856   3.001   1.727   5.038 -1.8436  0.1404  2.3268
10393SOL     OW41857   3.692   0.791   4.507 -0.0982 -0.4065 -0.5792
10393SOL    HW141858   3.682   0.882   4.465 -1.8833 -0.2116  0.1943
10393SOL    HW241859   3.643   0.724   4.452  0.2097 -0.6973 -0.5007
10394SOL     OW41860   9.992   1.071   5.303 -0.1108 -0.0818 -0.2838
10394SOL    HW141861   9.981   0.978   5.266  0.9380  0.3272 -1.6612
10394SOL    HW241862   9.902   1.108   5.325 -0.8482 -0.1754 -2.9336
10395SOL     OW41863   9.262   9.055   2.057  0.2463  0.0033 -0.1651
10395SOL    HW141864   9.244   8.971   2.007  0.3327 -0.1934  0.1342
10395SOL    HW241865   9.277   9.130   1.992  0.4893 -0.2775 -0.4325
10396SOL     OW41866   1.753   3.231   5.111 -0.2793  0.2091  0.2339
10396SOL    HW141867   1.799   3.142   5.103  1.3085  1.0780 -0.7337
10396SOL    HW241868   1.681   3.237   5.042 -0.3539 -0.3073  0.2598
10397SOL     OW41869   0.832   4.700   2.902 -0.1679  0.2772  0.0536
10397SOL    HW141870   0.848   4.666   2.809 -0.2870 -1.6356  0.7124
10397SOL    HW241871   0.776   4.634   2.952  0.0810  1.1952  1.5544
10398SOL     OW41872   3.496   0.584   4.401 -0.2097  0.1352  0.2400
10398SOL    HW141873   3.550   0.517   4.350 -0.1928  0.5733 -0.3214
10398SOL    HW241874   3.403   0.586   4.365 -0.4981 -0.3263  0.9386
10399SOL     OW41875   2.315   2.195   5.532 -0.0540 -0.4152  0.3578
10399SOL    HW141876   2.358   2.187   5.622  0.3261 -0.8346  0.1393
10399SOL    HW241877   2.353   2.274   5.484 -0.2263 -0.2160  0.5479
10400SOL     OW41878   2.900   5.248   1.206 -0.1975 -0.2680  0.4125
10400SOL    HW141879   2.845   5.308   1.147 -0.2713 -1.0014 -0.2795
10400SOL    HW241880   2.877   5.265   1.302  1.6549  2.6372  0.3881
10401SOL     OW41881   9.781   4.744   1.600 -0.0735 -0.1103 -0.4727
10401SOL    HW141882   9.706   4.788   1.651 -1.3188 -0.7291 -1.7459
10401SOL    HW241883   9.808   4.660   1.648  0.1981  0.3963  0.2825
10402SOL     OW41884   7.213   9.111   2.662  0.1160  0.2175  0.1021
10402SOL    HW141885   7.214   9.119   2.563 -0.0978 -0.1563  0.0670
10402SOL    HW241886   7.155   9.033   2.689  1.0578 -0.3618  0.4769
10403SOL     OW41887   0.743   6.779   1.132  0.0719 -0.9859 -0.2613
10403SOL    HW141888   0.740   6.721   1.050 -1.3632 -0.4425 -0.6042
10403SOL    HW241889   0.652   6.814   1.151  0.0680 -2.4643  2.5908
10404SOL     OW41890   7.583   8.887   4.695 -0.6701 -0.1756  0.4245
10404SOL    HW141891   7.638   8.804   4.706  0.5705  0.4579 -0.8183
10404SOL    HW241892   7.557   8.923   4.784  2.2056  0.3338  1.0767
10405SOL     OW41893   6.370   1.443   3.961 -0.8962 -0.0692 -0.1142
10405SOL    HW141894   6.389   1.357   3.912  1.5078  0.7084 -0.6399
10405SOL    HW241895   6.441   1.509   3.938 -1.0409  1.0785  2.6616
10406SOL     OW41896   5.100   4.031   5.546 -0.1576  0.4793 -0.1391
10406SOL    HW141897   5.036   4.072   5.611 -0.1222  0.8307 -0.3264
10406SOL    HW241898   5.096   4.080   5.459 -0.8182 -0.5270 -0.6793
10407SOL     OW41899   8.568   5.955   2.202 -0.3677  0.1619 -0.1038
10407SOL    HW141900   8.578   5.937   2.300  1.8136  0.5965 -0.2267
10407SOL    HW241901   8.551   6.053   2.188 -3.5735 -0.3142 -0.0109
10408SOL     OW41902   2.760   3.330   1.126 -0.1550 -0.0441  0.1660
10408SOL    HW141903   2.785   3.300   1.219  1.8533  2.8951  0.6412
10408SOL    HW241904   2.762   3.429   1.122  0.0278 -0.1467 -3.1235
10409SOL     OW41905   9.150   7.427   1.155  0.2297 -0.8486  0.8498
10409SOL    HW141906   9.093   7.424   1.073  0.9414  0.6162  0.2784
10409SOL    HW241907   9.094   7.454   1.233 -0.2310 -1.1638  0.6302
10410SOL     OW41908   4.057   7.307   1.822 -0.1734  0.2449  0.8485
10410SOL    HW141909   3.959   7.320   1.810 -0.2157 -0.5430  0.2863
10410SOL    HW241910   4.100   7.288   1.734  0.1686 -1.3811  1.3415
10411SOL     OW41911   1.729   8.432   0.402  0.0778  0.0340  0.3410
10411SOL    HW141912   1.645   8.483   0.383 -0.7557 -1.3268  0.2748
10411SOL    HW241913   1.797   8.492   0.444 -0.5983  1.3767 -0.4688
10412SOL     OW41914   9.982   6.196   0.888 -0.0789 -0.3115  0.3650
10412SOL    HW141915   9.977   6.160   0.794 -1.0758 -2.0180  1.0578
10412SOL    HW241916   9.994   6.121   0.952 -0.0424  0.7911  1.6794
10413SOL     OW41917   5.028   9.073   4.142 -0.2063 -0.0745 -0.0021
10413SOL    HW141918   4.966   9.046   4.216 -0.1161  0.3249  0.2241
10413SOL    HW241919   5.104   9.008   4.137  0.5006  0.6334  1.1481
10414SOL     OW41920   2.141   2.951   4.101 -0.1858  1.0730  0.0164
10414SOL    HW141921   2.217   2.940   4.166  1.1439 -0.4407 -1.7570
10414SOL    HW241922   2.104   3.044   4.109  0.3643  1.1135  2.4761
10415SOL     OW41923   9.052   8.883   4.431  0.6335  0.0876 -0.3274
10415SOL    HW141924   8.982   8.945   4.466 -1.1235 -0.6688 -2.3517
10415SOL    HW241925   9.072   8.812   4.498 -1.1009 -0.1042  0.0123
10416SOL     OW41926   3.750   1.703   3.184 -0.6155  0.1246 -0.5516
10416SOL    HW141927   3.668   1.700   3.241  0.1166  0.4994  0.5408
10416SOL    HW241928   3.732   1.656   3.097 -1.4131 -1.4138  0.4170
10417SOL     OW41929   9.442   3.405   1.045  0.0953  0.5415 -0.3114
10417SOL    HW141930   9.496   3.349   1.108 -1.3860  1.2039  1.5927
10417SOL    HW241931   9.449   3.501   1.072 -1.8796  0.6530 -0.1253
10418SOL     OW41932   8.789   1.579   5.002  0.0988 -0.0092 -0.1840
10418SOL    HW141933   8.709   1.522   5.022 -0.8969  2.3406  2.8909
10418SOL    HW241934   8.784   1.611   4.908 -3.1141  0.8778  0.2480
10419SOL     OW41935   7.109   1.897   2.568  0.2381 -0.3341 -0.4136
10419SOL    HW141936   7.011   1.880   2.563  0.0639  0.1641  1.0062
10419SOL    HW241937   7.127   1.995   2.556  0.4343 -0.2288  0.6770
10420SOL     OW41938   7.603   3.991   1.309 -0.6221 -0.1959 -0.0696
10420SOL    HW141939   7.650   4.003   1.397 -1.5529  0.6545  0.3259
10420SOL    HW241940   7.666   4.014   1.234  0.1964 -0.9867  0.3698
10421SOL     OW41941   3.844   9.039   5.605 -0.5250  0.3678  0.1942
10421SOL    HW141942   3.896   8.954   5.613 -0.7535  0.2911  0.9305
10421SOL    HW241943   3.746   9.018   5.613 -0.6089  0.6436 -0.1130
10422SOL     OW41944   0.887   9.456   1.281  0.0521 -0.1366  0.5805
10422SOL    HW141945   0.865   9.548   1.247 -1.6655 -1.1199 -1.0583
10422SOL    HW241946   0.924   9.464   1.374 -0.3818  2.1906  0.6023
10423SOL     OW41947   5.830   7.703   2.015 -0.1282  0.0794 -0.1959
10423SOL    HW141948   5.919   7.667   1.988  0.9671  2.3877  0.2018
10423SOL    HW241949   5.808   7.783   1.959 -1.7206 -0.1747  0.0395
10424SOL     OW41950   4.273   4.993   0.515  0.0693  0.2679  0.0308
10424SOL    HW141951   4.311   4.925   0.577  0.9706  0.6751 -0.0716
10424SOL    HW241952   4.206   4.949   0.455  0.1217 -0.3815  0.4418
10425SOL     OW41953   1.534   3.151   4.882 -0.3954 -0.3385 -0.2249
10425SOL    HW141954   1.555   3.104   4.796 -2.4347 -3.5654  0.9499
10425SOL    HW241955   1.457   3.214   4.868  0.2687  0.3063 -1.0643
10426SOL     OW41956   0.936   8.976   2.192 -0.5763  0.2133 -0.7986
10426SOL    HW141957   0.895   8.943   2.277 -0.9743 -0.0151 -1.0793
10426SOL    HW241958   0.916   9.073   2.181 -3.5701 -0.5240 -2.3880
10427SOL     OW41959   6.299   0.773   3.635 -0.4073  0.6659  0.0840
10427SOL    HW141960   6.385   0.731   3.605 -1.1245 -1.6432  1.1459
10427SOL    HW241961   6.287   0.758   3.733 -3.0976 -1.0927 -0.4535
10428SOL     OW41962   1.789   7.549   3.137  0.2615 -0.4172  0.2641
10428SOL    HW141963   1.755   7.470   3.086  0.9685 -2.0092  2.1799
10428SOL    HW241964   1.883   7.531   3.166  0.7781  1.5682 -0.1219
10429SOL     OW41965   8.539   1.968   1.321  0.0164  0.2009  0.4242
10429SOL    HW141966   8.470   1.902   1.293  0.7670 -0.0930 -0.7613
10429SOL    HW241967   8.500   2.060   1.320 -0.0110  0.1729 -1.4436
10430SOL     OW41968   4.431   2.063   2.749  0.0502  0.0665  0.6673
10430SOL    HW141969   4.458   1.994   2.817 -0.7589 -0.5516  0.3771
10430SOL    HW241970   4.504   2.074   2.682 -0.8922 -2.6014 -0.9041
10431SOL     OW41971   3.537   3.691   5.368 -0.1332  0.3909  0.3619
10431SOL    HW141972   3.560   3.744   5.449  1.1319  0.2095  0.1273
10431SOL    HW241973   3.613   3.694   5.304 -1.7683  1.9484 -1.5818
10432SOL     OW41974   0.264   5.027   2.794  0.1466 -0.0958 -0.0118
10432SOL    HW141975   0.332   4.953   2.794  0.1393 -0.1038 -0.6529
10432SOL    HW241976   0.311   5.115   2.789  0.2407  0.0416  2.4416
10433SOL     OW41977   7.722   2.543   3.592 -0.0599 -0.2965  0.1625
10433SOL    HW141978   7.628   2.527   3.622 -0.1832 -0.3677 -0.2662
10433SOL    HW241979   7.739   2.495   3.506  0.4319 -0.4543  0.3408
10434SOL     OW41980   3.192   1.071   0.224  0.3592  0.7869 -0.4351
10434SOL    HW141981   3.249   1.018   0.286 -0.3727 -0.3092 -0.6730
10434SOL    HW241982   3.119   1.116   0.275  0.1943  0.4911 -0.4135
10435SOL     OW41983   6.289   1.035   3.646  0.0922 -0.6756 -0.0813
10435SOL    HW141984   6.189   1.046   3.647  0.3403  2.1248 -1.0719
10435SOL    HW241985   6.311   0.938   3.633 -2.4528 -1.8819  3.6348
10436SOL     OW41986   4.159   2.919   0.533  0.2466 -0.4637  0.6348
10436SOL    HW141987   4.138   2.978   0.611  2.3994 -0.2828  1.1093
10436SOL    HW241988   4.184   2.975   0.454 -1.7171 -0.6545 -0.1641
10437SOL     OW41989   2.740   0.027   5.480  0.6179  0.7014 -0.0190
10437SOL    HW141990   2.731  -0.022   5.566 -0.5372  0.5518 -0.2128
10437SOL    HW241991   2.836   0.051   5.464  1.1720 -1.3418  0.1598
10438SOL     OW41992   7.383   9.011   3.397  0.2772 -0.0014  0.7356
10438SOL    HW141993   7.390   8.957   3.313 -0.1643  1.0433  0.0165
10438SOL    HW241994   7.381   9.108   3.374  1.7244  0.3606  2.0668
10439SOL     OW41995   4.719   9.860   2.120 -0.4656  0.6746  0.1296
10439SOL    HW141996   4.658   9.817   2.186 -0.0841  1.5990  1.1006
10439SOL    HW241997   4.679   9.946   2.088 -0.8511  0.0218 -1.1862
10440SOL     OW41998   7.586   2.330   3.049 -0.0509  0.1561 -0.1351
10440SOL    HW141999   7.670   2.278   3.035 -0.1418  0.2683 -1.1270
10440SOL    HW242000   7.539   2.342   2.961 -0.4402  1.2054  0.2041
10441SOL     OW42001   8.894   1.531   0.360  0.2932  0.5314 -0.3041
10441SOL    HW142002   8.812   1.498   0.313 -0.3769  0.7209  0.7224
10441SOL    HW242003   8.904   1.629   0.344  0.5142  0.4402 -0.7204
10442SOL     OW42004   2.495   8.183   2.966 -0.3243  0.3014  0.2478
10442SOL    HW142005   2.402   8.157   2.990 -0.3131 -0.8991 -0.9887
10442SOL    HW242006   2.493   8.264   2.907 -0.5645  0.3509  0.3212
10443SOL     OW42007   2.112   7.696   0.821 -0.3537  0.4454  0.5504
10443SOL    HW142008   2.163   7.629   0.767  0.5792  1.5497  0.0352
10443SOL    HW242009   2.162   7.714   0.906  0.1754  1.5787  0.0151
10444SOL     OW42010   3.348   1.494   5.065  0.2272  0.0988 -0.1383
10444SOL    HW142011   3.347   1.582   5.113  0.5054  0.6963 -1.1844
10444SOL    HW242012   3.429   1.442   5.092  0.2467  0.3219  0.2283
10445SOL     OW42013   4.487   0.025   1.346 -0.6049 -0.3179  0.4509
10445SOL    HW142014   4.487  -0.016   1.437  1.6543 -0.4431  0.4472
10445SOL    HW242015   4.516   0.120   1.352 -2.0647  0.1521  0.0410
10446SOL     OW42016   2.166   0.592   3.738  0.0265 -0.5045  0.1306
10446SOL    HW142017   2.077   0.636   3.755 -0.3393 -1.4502  0.7391
10446SOL    HW242018   2.229   0.615   3.813 -0.0144 -0.6227  0.2021
10447SOL     OW42019   7.817   0.163   5.347 -0.2392 -0.4017 -0.1196
10447SOL    HW142020   7.814   0.120   5.257  0.6744  1.4572 -1.0682
10447SOL    HW242021   7.748   0.122   5.406 -0.6856 -1.8072 -1.5941
10448SOL     OW42022   1.329   4.197   2.256  0.1437  0.4663 -0.0396
10448SOL    HW142023   1.327   4.258   2.336 -1.2143 -0.8969  1.0047
10448SOL    HW242024   1.279   4.240   2.181  0.6865  1.3884  0.1187
10449SOL     OW42025   0.261   9.837   2.892 -0.1683  0.3068  0.6652
10449SOL    HW142026   0.225   9.780   2.818 -1.3054 -0.3732  1.7177
10449SOL    HW242027   0.352   9.804   2.919  0.5105  0.9291 -0.8055
10450SOL     OW42028   7.424   9.318   4.408  0.1316  0.6974  0.7750
10450SOL    HW142029   7.522   9.320   4.428  0.1917 -0.3324  0.5950
10450SOL    HW242030   7.397   9.226   4.380 -0.2045  1.7464 -2.5427
10451SOL     OW42031   0.390   7.430   0.621  0.4241  0.2136 -0.5102
10451SOL    HW142032   0.488   7.424   0.638  0.3012  1.1792  0.5872
10451SOL    HW242033   0.341   7.384   0.695  0.0615 -0.9308 -1.4431
10452SOL     OW42034   8.256   0.440   1.462  0.5380 -0.0502 -0.5422
10452SOL    HW142035   8.285   0.488   1.545 -1.0891  0.8835 -0.4855
10452SOL    HW242036   8.305   0.477   1.383 -0.3143  1.3443 -0.4248
10453SOL     OW42037   2.649   7.994   5.098  0.5936 -0.0518  0.5293
10453SOL    HW142038   2.609   8.020   5.186  0.3715 -0.2134  0.4753
10453SOL    HW242039   2.624   7.899   5.076  1.3444 -0.2939  0.6954
10454SOL     OW42040   6.467   8.818   2.141 -0.2286 -0.3110 -0.9423
10454SOL    HW142041   6.393   8.814   2.208  0.6648  1.9964  0.2403
10454SOL    HW242042   6.434   8.860   2.056  0.1069  2.3535  0.1974
10455SOL     OW42043   5.781   7.803   2.988 -0.9474  0.3187  0.2602
10455SOL    HW142044   5.806   7.727   3.048 -3.1634  0.3245  1.2081
10455SOL    HW242045   5.856   7.870   2.987  0.1195 -0.8318  1.0972
10456SOL     OW42046   0.276   7.366   5.012 -0.5446  0.5418  0.3116
10456SOL    HW142047   0.354   7.368   4.950  0.8865  2.7972  2.0700
10456SOL    HW242048   0.205   7.427   4.978 -0.4651  0.4644  0.0105
10457SOL     OW42049   7.851   8.827   3.278 -0.2475  0.5120  0.0340
10457SOL    HW142050   7.889   8.752   3.333  0.2803  1.3697  0.8576
10457SOL    HW242051   7.781   8.791   3.216  0.2445 -0.7176  0.1743
10458SOL     OW42052   3.758   2.980   0.187  0.5912  0.0670  0.8944
10458SOL    HW142053   3.664   2.961   0.214 -0.0723  0.6792 -0.9532
10458SOL    HW242054   3.796   3.051   0.247 -1.0916  1.9267 -0.1786
10459SOL     OW42055   2.863   1.831   2.233  1.2007 -0.1500 -0.1630
10459SOL    HW142056   2.861   1.924   2.271  0.7793  0.1801 -0.9833
10459SOL    HW242057   2.808   1.770   2.290 -2.8907  1.1973 -2.4823
10460SOL     OW42058   2.439   4.281   5.185  0.1105  0.2264 -1.0561
10460SOL    HW142059   2.351   4.272   5.139 -0.0603 -1.4487 -0.4544
10460SOL    HW242060   2.425   4.286   5.284  0.6937 -0.4698 -0.9288
10461SOL     OW42061   7.945   9.063   2.418  0.3789  0.5103  0.1520
10461SOL    HW142062   7.892   8.995   2.367 -1.1380  2.1855 -0.5638
10461SOL    HW242063   7.926   9.053   2.516  1.6375 -1.3077  0.2379
10462SOL     OW42064   8.921   1.176   0.843 -0.4339 -0.2616 -0.0501
10462SOL    HW142065   8.872   1.259   0.816 -0.5242 -0.3893 -0.2864
10462SOL    HW242066   9.009   1.172   0.796 -0.9150 -0.8550 -0.9080
10463SOL     OW42067   7.816   3.527   0.863 -0.4429 -0.2413 -0.2647
10463SOL    HW142068   7.859   3.444   0.826 -0.7796 -0.2668 -0.5989
10463SOL    HW242069   7.729   3.543   0.816 -1.0003 -0.4145  0.6880
10464SOL     OW42070   2.656   1.901   0.694 -0.7457  0.5612  0.1623
10464SOL    HW142071   2.667   1.957   0.776 -1.4987 -0.3330  0.8831
10464SOL    HW242072   2.686   1.808   0.713 -3.2109 -0.2759  0.1925
10465SOL     OW42073   0.221   5.951   3.493  0.5985 -0.1093 -0.2003
10465SOL    HW142074   0.181   6.042   3.483  0.7201  0.0233  0.5017
10465SOL    HW242075   0.320   5.959   3.508  0.8097 -0.4119 -1.3599
10466SOL     OW42076   7.668   0.043   5.547  0.3823 -0.8254 -0.0539
10466SOL    HW142077   7.583   0.026   5.598  0.5697  0.2073  0.6227
10466SOL    HW242078   7.745   0.037   5.610  0.7664 -1.2539 -0.5670
10467SOL     OW42079   1.954   3.447   4.907 -0.0968 -0.6293 -0.1949
10467SOL    HW142080   1.969   3.349   4.920  0.8474 -0.2592  1.6879
10467SOL    HW242081   2.023   3.483   4.845 -0.7479 -1.2256 -1.2963
10468SOL     OW42082   1.591   2.301   2.692 -0.0286 -0.0147  0.1820
10468SOL    HW142083   1.538   2.235   2.638  0.5681 -0.6286  0.3407
10468SOL    HW242084   1.688   2.292   2.669  0.0296  0.9920  0.0114
10469SOL     OW42085   1.814   9.373   3.240 -0.5346 -0.5109  0.2128
10469SOL    HW142086   1.835   9.383   3.337  0.3282  2.1751 -0.2126
10469SOL    HW242087   1.888   9.324   3.194  1.5344  2.6229  0.0471
10470SOL     OW42088   8.205   9.861   3.781  0.5103 -0.1258 -0.3454
10470SOL    HW142089   8.187   9.763   3.770 -0.5285 -0.2645  2.2943
10470SOL    HW242090   8.266   9.875   3.859  1.0624  1.3065 -1.0278
10471SOL     OW42091   5.215   8.204   2.558  0.4985 -0.0917 -0.0149
10471SOL    HW142092   5.202   8.218   2.656  2.0241  0.0884  0.1870
10471SOL    HW242093   5.220   8.293   2.513 -0.3718 -0.1774 -0.2855
10472SOL     OW42094   9.670   8.238   1.340  0.2002  0.6085  0.1956
10472SOL    HW142095   9.674   8.144   1.306 -1.2759  0.5358  0.1724
10472SOL    HW242096   9.737   8.251   1.413  1.4408 -0.0299 -0.8212
10473SOL     OW42097   0.191   6.400   1.302  0.7581  0.2557  0.0866
10473SOL    HW142098   0.143   6.402   1.215 -1.9138 -0.0730  1.5123
10473SOL    HW242099   0.249   6.319   1.307  0.3748 -0.0926 -1.0890
10474SOL     OW42100   4.246   8.931   2.946  0.1331  0.4177 -0.0356
10474SOL    HW142101   4.194   8.895   2.869  1.0034 -0.0160 -0.4351
10474SOL    HW242102   4.238   9.030   2.949  0.7265  0.5021 -1.1471
10475SOL     OW42103   7.949   9.289   2.896  0.9154 -0.0687  0.0250
10475SOL    HW142104   8.010   9.224   2.850  1.4817  0.7961 -0.4535
10475SOL    HW242105   7.999   9.373   2.917 -0.0671  0.5874 -0.2260
10476SOL     OW42106   4.208   6.843   1.432 -0.2146  0.4065 -0.0748
10476SOL    HW142107   4.281   6.793   1.386  1.0349  0.6249  1.6199
10476SOL    HW242108   4.185   6.924   1.380  0.6261  0.2370 -0.7212
10477SOL     OW42109   4.323   8.515   0.531 -0.1738  0.4327  0.1605
10477SOL    HW142110   4.235   8.553   0.560 -0.9760 -0.1267 -1.4825
10477SOL    HW242111   4.363   8.574   0.461 -0.1366 -0.2976 -0.4394
10478SOL     OW42112   4.633   4.568   0.281  0.3651  0.2638  0.1534
10478SOL    HW142113   4.695   4.526   0.347  0.7318  0.8397  0.1785
10478SOL    HW242114   4.623   4.508   0.201 -0.5226 -0.7032  0.9672
10479SOL     OW42115   2.090   2.599   1.301  0.0460 -0.3977  0.2085
10479SOL    HW142116   2.126   2.622   1.210  1.3455 -0.2773  0.7520
10479SOL    HW242117   2.033   2.675   1.334  0.1538 -0.1375 -0.1941
10480SOL     OW42118   3.415   1.186   1.059  0.0608 -0.3731 -0.3325
10480SOL    HW142119   3.407   1.144   1.149 -0.6743 -1.0488 -0.7174
10480SOL    HW242120   3.325   1.200   1.020  0.3342  0.7291 -0.6056
10481SOL     OW42121   4.568   2.461   1.393  0.2102  0.9153  0.1337
10481SOL    HW142122   4.477   2.462   1.436 -1.3417 -1.4765 -2.8712
10481SOL    HW242123   4.583   2.549   1.347 -0.6787  1.2803  0.5218
10482SOL     OW42124   3.055   4.660   2.648 -0.1723 -0.5862 -0.2379
10482SOL    HW142125   2.969   4.627   2.608 -1.2177  0.9709  0.6627
10482SOL    HW242126   3.092   4.733   2.591 -0.8910  0.6124  0.7864
10483SOL     OW42127   8.786   9.266   0.641 -0.0796 -0.2066  0.3501
10483SOL    HW142128   8.823   9.179   0.674 -0.3205 -0.0169  1.1443
10483SOL    HW242129   8.731   9.307   0.714 -0.0137  0.5791 -0.0479
10484SOL     OW42130   3.812   5.345   1.176  0.2074 -0.0217 -0.4853
10484SOL    HW142131   3.889   5.398   1.139  1.6586 -1.2622  0.6375
10484SOL    HW242132   3.792   5.376   1.268  1.4120 -1.6816  0.3848
10485SOL     OW42133   2.307   3.429   5.489  0.0519 -0.7033 -0.0962
10485SOL    HW142134   2.321   3.343   5.537  1.0293 -0.1220  0.6873
10485SOL    HW242135   2.349   3.503   5.542  0.2346  0.0836 -1.3405
10486SOL     OW42136   5.686   0.070   2.934 -0.1425 -0.2926  0.0555
10486SOL    HW142137   5.725  -0.000   2.875  0.4420 -0.0551  0.1638
10486SOL    HW242138   5.697   0.044   3.030 -1.8510 -1.0954  0.0635
10487SOL     OW42139   9.352   8.066   3.484  0.2776 -0.1904  0.6756
10487SOL    HW142140   9.434   8.030   3.439  0.5448  0.4744  0.6209
10487SOL    HW242141   9.279   7.998   3.481 -0.4621  0.6885 -2.8332
10488SOL     OW42142   7.518   0.037   0.344 -1.0010  0.0719 -0.1486
10488SOL    HW142143   7.476  -0.023   0.412  0.9323 -2.0530 -0.7736
10488SOL    HW242144   7.617   0.029   0.350 -0.6599  3.6941  0.1332
10489SOL     OW42145   1.400   3.514   2.203 -0.1403 -0.3613 -0.0394
10489SOL    HW142146   1.474   3.575   2.232 -0.4330 -0.5607  1.1650
10489SOL    HW242147   1.320   3.568   2.179 -0.8528 -0.2803  2.3272
10490SOL     OW42148   9.293   1.118   2.576  0.2453  0.0623 -0.3491
10490SOL    HW142149   9.336   1.029   2.596 -2.1848 -1.2429 -0.7947
10490SOL    HW242150   9.298   1.136   2.478 -0.8545 -0.4325 -0.4988
10491SOL     OW42151   3.045   6.557   2.862 -0.0995  0.1000 -0.0801
10491SOL    HW142152   3.095   6.508   2.933 -0.3994 -0.4971 -0.2731
10491SOL    HW242153   2.948   6.557   2.883  0.0429  1.7601  0.5864
10492SOL     OW42154   4.427   4.408   1.847 -0.0256 -0.7420 -0.6031
10492SOL    HW142155   4.413   4.503   1.820  0.2009  0.1509  2.2773
10492SOL    HW242156   4.409   4.348   1.769 -4.4630  1.3559 -1.3501
10493SOL     OW42157   0.431   3.363   1.645 -0.3428 -0.0968  0.1719
10493SOL    HW142158   0.353   3.318   1.689 -0.7241 -0.3515 -0.7457
10493SOL    HW242159   0.426   3.461   1.663  0.3209 -0.3758  1.9167
10494SOL     OW42160   4.771   0.874   3.278  0.1699 -0.2995  0.4248
10494SOL    HW142161   4.842   0.882   3.349 -1.6045 -2.7400  2.5874
10494SOL    HW242162   4.697   0.938   3.298  0.9103  0.9614 -0.8119
10495SOL     OW42163   9.973   9.775   2.974  0.5817 -0.5029  0.7036
10495SOL    HW142164   9.959   9.731   2.886  2.9645 -1.2710  0.6636
10495SOL    HW242165  10.036   9.852   2.964  1.5112 -1.0983  1.8547
10496SOL     OW42166   4.215   0.566   1.617 -0.1125  0.1098  0.0931
10496SOL    HW142167   4.149   0.628   1.659  1.0083  0.8156  0.8409
10496SOL    HW242168   4.232   0.489   1.678  1.0128  0.7937  0.6564
10497SOL     OW42169   8.218   8.917   0.975 -0.9076 -0.0673 -0.0916
10497SOL    HW142170   8.130   8.889   0.937 -0.6585 -0.7427 -0.1780
10497SOL    HW242171   8.269   8.970   0.907 -0.6331 -0.9298 -0.5571
10498SOL     OW42172   2.844   3.602   1.096 -0.0753 -0.0773  0.4651
10498SOL    HW142173   2.789   3.686   1.093  1.5994  1.0444 -0.4805
10498SOL    HW242174   2.904   3.600   1.016  2.9125 -0.0681  2.6224
10499SOL     OW42175   0.965   2.322   5.332 -0.6829  0.2052  0.0702
10499SOL    HW142176   1.056   2.361   5.316 -1.7306  3.4575  1.6193
10499SOL    HW242177   0.966   2.267   5.415 -0.4483  1.4523  0.9084
10500SOL     OW42178   9.370   7.876   2.005  0.2248  0.2831 -0.6743
10500SOL    HW142179   9.293   7.861   2.068  1.0299  1.0324  0.5155
10500SOL    HW242180   9.430   7.796   2.007  1.3130  1.1199  1.0607
10501SOL     OW42181   4.491   6.912   1.944  0.8135 -0.3214  0.2299
10501SOL    HW142182   4.442   6.885   2.027  2.4887 -1.3482  0.9180
10501SOL    HW242183   4.455   6.862   1.866  0.6609 -0.9400  0.6961
10502SOL     OW42184   2.429   7.466   0.934 -0.1779  0.3220  0.6565
10502SOL    HW142185   2.498   7.505   0.995  0.5278 -0.4061  0.3345
10502SOL    HW242186   2.379   7.394   0.981 -0.0265  0.1567  0.5660
10503SOL     OW42187   8.606   1.053   3.025 -0.1927  1.1416  0.3161
10503SOL    HW142188   8.583   1.092   3.114  0.0614  1.0172  0.4362
10503SOL    HW242189   8.602   1.126   2.956  0.6760  1.4795  0.6071
10504SOL     OW42190   3.185   0.953   1.297  0.1835  0.5413 -0.3596
10504SOL    HW142191   3.086   0.968   1.292  0.0820  0.4753  1.2592
10504SOL    HW242192   3.206   0.894   1.375  1.5504  1.0036 -0.3683
10505SOL     OW42193   5.848   9.690   1.541 -0.4012 -0.0527  0.4116
10505SOL    HW142194   5.837   9.598   1.578  0.8182  0.5015  2.2706
10505SOL    HW242195   5.941   9.722   1.559 -1.2271  2.0863  1.0923
10506SOL     OW42196   4.544   9.811   5.388  0.1343  0.5379 -0.5424
10506SOL    HW142197   4.564   9.830   5.292  0.5131  0.1374 -0.5454
10506SOL    HW242198   4.578   9.886   5.445  0.6941  0.3681 -0.6450
10507SOL     OW42199   1.648   1.442   0.114 -0.2497  0.3052 -0.4588
10507SOL    HW142200   1.586   1.368   0.139  1.7316 -0.8987  1.0769
10507SOL    HW242201   1.621   1.526   0.162 -0.2984 -0.3802  0.7410
10508SOL     OW42202   4.567   3.030   2.287 -0.1126 -0.2144 -0.6562
10508SOL    HW142203   4.659   3.069   2.283 -0.2330  0.3401  1.4226
10508SOL    HW242204   4.568   2.951   2.348 -1.0756 -0.0676 -0.4478
10509SOL     OW42205   7.575   1.447   1.322  0.0213 -0.2742  0.1585
10509SOL    HW142206   7.514   1.519   1.355 -0.5030 -0.9272  0.6328
10509SOL    HW242207   7.654   1.488   1.277  1.1714  0.6743  2.9153
10510SOL     OW42208   0.923   6.570   2.291  0.3090 -0.0587  0.1075
10510SOL    HW142209   1.008   6.534   2.252  0.1617 -0.5873  0.2627
10510SOL    HW242210   0.917   6.543   2.387  0.7786  1.4303  0.5570
10511SOL     OW42211   0.200   2.679   2.939 -0.3839  0.0960 -0.1046
10511SOL    HW142212   0.110   2.635   2.944 -0.4244  0.1357 -0.4603
10511SOL    HW242213   0.271   2.609   2.947 -0.4441 -0.3117 -2.7155
10512SOL     OW42214   2.489   9.700   0.937  0.2453 -0.5173  0.4816
10512SOL    HW142215   2.563   9.675   0.999  1.4840  0.8485 -0.4123
10512SOL    HW242216   2.515   9.674   0.843 -0.6039 -0.4326  0.2214
10513SOL     OW42217   9.407   7.149   2.304 -0.0866 -0.8650  0.8387
10513SOL    HW142218   9.489   7.193   2.340 -0.4666  2.3233 -1.8997
10513SOL    HW242219   9.432   7.082   2.234  0.2246 -0.2411  0.3483
10514SOL     OW42220   8.348   1.551   4.472  0.2374 -0.2368 -0.2337
10514SOL    HW142221   8.316   1.606   4.395  2.8966  2.5850  0.5586
10514SOL    HW242222   8.434   1.507   4.448  0.6714  0.0100  0.8536
10515SOL     OW42223   0.781   1.417   1.054  0.4383 -0.2424  0.1897
10515SOL    HW142224   0.873   1.379   1.053 -0.4076 -2.3398 -0.5922
10515SOL    HW242225   0.743   1.409   1.147  0.2815 -1.3201  0.0434
10516SOL     OW42226   7.501   0.093   2.281 -0.3179  0.2903 -0.2446
10516SOL    HW142227   7.574   0.119   2.344  0.5739 -1.5326 -0.4963
10516SOL    HW242228   7.444   0.022   2.323  0.2476 -0.8931 -1.4480
10517SOL     OW42229   4.192   0.151   2.297 -0.0154 -0.4336  0.0052
10517SOL    HW142230   4.156   0.237   2.262  0.4953  0.2145  1.0675
10517SOL    HW242231   4.124   0.106   2.354 -0.2193 -0.6671 -0.4129
10518SOL     OW42232   2.226   2.358   2.889  0.8369 -0.0041  0.2009
10518SOL    HW142233   2.211   2.261   2.907  0.8203 -0.2364 -1.0324
10518SOL    HW242234   2.253   2.371   2.793 -0.6290  1.3511 -0.0548
10519SOL     OW42235   8.649   1.964   0.811 -0.0043  0.2107  0.2628
10519SOL    HW142236   8.625   2.061   0.821 -0.0928  0.2642 -0.4479
10519SOL    HW242237   8.747   1.953   0.829  0.1364  0.5358 -0.2740
10520SOL     OW42238   5.435   7.291   2.370  0.0321 -0.1451 -0.0127
10520SOL    HW142239   5.471   7.239   2.448 -0.5950 -0.4904  0.0455
10520SOL    HW242240   5.444   7.389   2.388  1.4786 -0.2230 -0.2383
10521SOL     OW42241   3.517   4.684   0.518  0.1905  0.2661 -0.2584
10521SOL    HW142242   3.465   4.682   0.432  1.4905 -0.1087 -1.0497
10521SOL    HW242243   3.608   4.646   0.503 -0.3266 -1.9088  1.8260
10522SOL     OW42244   3.610   3.740   2.984 -0.2675  0.2402  0.0477
10522SOL    HW142245   3.626   3.675   2.910 -2.2177 -1.3603  0.9903
10522SOL    HW242246   3.512   3.760   2.990  0.0611  1.5808  1.2036
10523SOL     OW42247   2.147   4.315   0.156 -0.5941 -0.3774 -0.5017
10523SOL    HW142248   2.241   4.301   0.187 -0.6842 -1.0208 -0.4969
10523SOL    HW242249   2.093   4.356   0.229 -0.4443 -0.5056 -0.3184
10524SOL     OW42250   8.879   1.661   0.761  0.1450 -0.3796 -0.3300
10524SOL    HW142251   8.885   1.730   0.834  2.6370  0.6492 -1.4515
10524SOL    HW242252   8.817   1.694   0.690  1.9701  1.1680 -1.2671
10525SOL     OW42253   4.223   3.411   4.003 -0.0818  0.2393  0.0137
10525SOL    HW142254   4.267   3.476   4.066 -0.6180 -1.4953  2.2592
10525SOL    HW242255   4.128   3.438   3.989  0.1909  0.9445 -0.5085
10526SOL     OW42256   1.169   7.350   0.265 -0.4301 -0.0074 -0.5573
10526SOL    HW142257   1.268   7.340   0.277 -0.6019 -0.0886  0.8426
10526SOL    HW242258   1.124   7.342   0.353 -1.6794  0.2344 -1.1668
10527SOL     OW42259   4.900   8.129   0.995  0.6028 -0.2419 -0.2796
10527SOL    HW142260   4.908   8.220   1.036 -1.4253  0.6181 -1.7075
10527SOL    HW242261   4.963   8.066   1.041  0.0475  1.2027  2.5716
10528SOL     OW42262   0.490   6.202   1.582 -0.0383  0.5220  0.7262
10528SOL    HW142263   0.555   6.128   1.599  1.0065  0.6906 -2.2545
10528SOL    HW242264   0.536   6.290   1.592 -0.5534  0.7179  1.4155
10529SOL     OW42265   1.737   9.689   4.672  0.2251  0.1751 -0.4689
10529SOL    HW142266   1.804   9.685   4.745  1.1079 -0.3224 -1.2926
10529SOL    HW242267   1.779   9.728   4.590 -0.1333 -1.2548 -1.3514
10530SOL     OW42268   3.489   2.509   5.631 -0.5169 -0.5188  0.3273
10530SOL    HW142269   3.483   2.412   5.606 -0.5468 -0.3893 -0.1620
10530SOL    HW242270   3.585   2.535   5.641 -0.3816  0.0675 -2.1549
10531SOL     OW42271   0.937   0.253   1.909  0.4794  0.2606  0.6094
10531SOL    HW142272   0.979   0.163   1.919 -2.0505 -1.0156  0.0378
10531SOL    HW242273   0.984   0.305   1.838  0.8536 -1.2667 -0.2567
10532SOL     OW42274   2.425   3.440   1.179  0.0554  0.0623  0.5090
10532SOL    HW142275   2.370   3.415   1.100  0.2371  0.5364  0.2360
10532SOL    HW242276   2.484   3.363   1.204 -0.0783 -0.1238  0.2487
10533SOL     OW42277   1.662   1.494   4.023  0.0282 -0.1013 -0.2856
10533SOL    HW142278   1.746   1.466   4.069  0.3309  0.7334 -0.3150
10533SOL    HW242279   1.629   1.420   3.964  1.1472 -0.1620 -0.8326
10534SOL     OW42280   1.279   8.775   4.312 -0.3520  0.6225 -0.0317
10534SOL    HW142281   1.200   8.776   4.251 -1.0898 -0.3293  0.8974
10534SOL    HW242282   1.256   8.819   4.398  0.6185  1.7468 -0.3427
10535SOL     OW42283   4.316   1.797   3.150 -0.2961  0.1255 -0.2820
10535SOL    HW142284   4.365   1.753   3.226 -0.8895 -1.3785 -0.7681
10535SOL    HW242285   4.248   1.861   3.187  0.3110  0.3796  0.4219
10536SOL     OW42286   2.900   7.320   2.211 -0.4934  0.2970  0.4692
10536SOL    HW142287   2.982   7.269   2.186 -0.3558  1.3932 -1.3965
10536SOL    HW242288   2.833   7.258   2.253  1.5589 -0.4588  2.7550
10537SOL     OW42289   1.377   3.253   5.619  0.1368  0.1403  0.3116
10537SOL    HW142290   1.418   3.324   5.676  1.2174  1.0489 -1.5254
10537SOL    HW242291   1.403   3.163   5.653 -1.3797  0.5801  2.7695
10538SOL     OW42292   2.207   9.290   1.908  0.8338  0.1023 -0.1341
10538SOL    HW142293   2.202   9.360   1.838  3.9655 -0.2833 -0.8115
10538SOL    HW242294   2.159   9.208   1.877  1.6261  0.1622 -1.5532
10539SOL     OW42295   8.893   2.874   2.071  0.0338 -0.6049 -0.0862
10539SOL    HW142296   8.923   2.963   2.106  1.2483 -0.1723 -2.1581
10539SOL    HW242297   8.836   2.829   2.139 -1.7107  2.3573  0.4807
10540SOL     OW42298   7.598   9.278   1.250  0.5348  0.3740  0.3446
10540SOL    HW142299   7.615   9.375   1.272  1.0722  0.8555 -2.0316
10540SOL    HW242300   7.672   9.245   1.191 -1.7180 -0.3313 -2.1626
10541SOL     OW42301   7.085   9.036   4.195  0.2837  0.0655 -0.3255
10541SOL    HW142302   6.997   8.994   4.170 -0.0469  1.0003 -0.7361
10541SOL    HW242303   7.098   9.120   4.143  1.1420  0.2560  0.1906
10542SOL     OW42304   3.830   2.816   1.787 -0.0687  0.2385 -0.1461
10542SOL    HW142305   3.839   2.901   1.838  0.7508  0.5561 -0.8102
10542SOL    HW242306   3.752   2.822   1.724 -0.3954  0.2632  0.2623
10543SOL     OW42307   1.569   2.857   1.322 -0.1586  0.5175 -0.1377
10543SOL    HW142308   1.548   2.855   1.420 -0.2576  0.7470 -0.1546
10543SOL    HW242309   1.585   2.951   1.293 -0.3566  0.4755 -0.3905
10544SOL     OW42310   6.613   9.833   1.142  0.3975 -0.4519 -0.4376
10544SOL    HW142311   6.668   9.782   1.208  1.0650  0.0183 -0.6350
10544SOL    HW242312   6.559   9.769   1.088  0.1050 -0.8654  0.3229
10545SOL     OW42313   4.049   9.158   4.958  0.4694  0.3912 -0.6046
10545SOL    HW142314   3.967   9.215   4.964 -0.8461 -1.3315 -1.8730
10545SOL    HW242315   4.082   9.138   5.050 -2.0103 -0.9640  0.0302
10546SOL     OW42316   2.487   3.322   2.999 -0.4582  0.4211  0.0956
10546SOL    HW142317   2.538   3.316   2.913  0.0768  0.4836  0.4072
10546SOL    HW242318   2.539   3.279   3.072 -0.7027  0.7718  0.4818
10547SOL     OW42319   5.804   0.395   2.570 -0.2480  0.4336  0.2198
10547SOL    HW142320   5.885   0.422   2.519  0.4148  1.6567  1.8518
10547SOL    HW242321   5.754   0.325   2.520  0.3290  1.6348 -2.0984
10548SOL     OW42322   2.348   8.888   0.845  0.0685 -0.0710 -0.2467
10548SOL    HW142323   2.258   8.848   0.826  0.0768 -0.0658 -0.2970
10548SOL    HW242324   2.415   8.815   0.855  0.1973 -0.0463 -0.9226
10549SOL     OW42325   8.356   0.277   2.495 -0.1796 -0.3184 -0.0786
10549SOL    HW142326   8.420   0.246   2.566 -0.0863  0.4083  0.1597
10549SOL    HW242327   8.405   0.286   2.408  0.7151  2.7735  0.6503
10550SOL     OW42328   1.048   1.675   5.075 -0.3159 -0.8562  0.5792
10550SOL    HW142329   1.080   1.742   5.008  0.7215  0.0503  1.9703
10550SOL    HW242330   0.969   1.711   5.124  0.3034 -0.6002  1.3996
10551SOL     OW42331   1.939   0.182   1.102 -0.2363  0.2964 -0.2728
10551SOL    HW142332   1.862   0.185   1.165  1.0572  0.5190  1.3253
10551SOL    HW242333   1.990   0.097   1.114  1.7082  1.6007  1.0772
10552SOL     OW42334   2.409   5.290   2.245  0.2616  0.0389  0.6187
10552SOL    HW142335   2.365   5.379   2.261  2.8411  1.3266  0.8751
10552SOL    HW242336   2.434   5.282   2.148 -0.7699 -0.7950  0.4201
10553SOL     OW42337   9.519   2.864   1.817  0.4779  0.4664 -0.5808
10553SOL    HW142338   9.592   2.879   1.885 -1.1841  1.1245  1.1019
10553SOL    HW242339   9.529   2.930   1.743  1.0538  1.1680  0.1075
10554SOL     OW42340   0.022   8.504   1.711  0.8756 -0.2797  0.5546
10554SOL    HW142341   0.085   8.433   1.742  1.9665  0.8173  0.8995
10554SOL    HW242342   0.074   8.583   1.678 -0.3124 -0.1775 -1.1135
10555SOL     OW42343   3.379   7.777   2.609  0.0044 -0.2316 -0.4833
10555SOL    HW142344   3.329   7.842   2.666 -1.3881  0.0374 -1.9684
10555SOL    HW242345   3.352   7.684   2.633 -0.5183 -0.1244 -0.6442
10556SOL     OW42346   1.349   2.496   5.037 -0.9470  0.5467  0.0920
10556SOL    HW142347   1.300   2.417   5.000  0.0912 -0.3378  0.5779
10556SOL    HW242348   1.358   2.566   4.966  2.7990 -1.9308 -2.0399
10557SOL     OW42349   2.837   2.864   2.306  0.1319 -0.0516 -0.4021
10557SOL    HW142350   2.786   2.778   2.316 -0.0508  0.1864  0.8123
10557SOL    HW242351   2.833   2.915   2.392 -0.4185  1.5382 -1.3546
10558SOL     OW42352   2.729   8.171   3.485  0.1773  0.2576 -0.5978
10558SOL    HW142353   2.685   8.084   3.510  0.7322 -0.3195 -1.5974
10558SOL    HW242354   2.752   8.221   3.569 -1.1418 -0.0423 -0.0269
10559SOL     OW42355   3.991   5.174   2.086  0.0688 -0.2530 -0.4979
10559SOL    HW142356   3.913   5.192   2.145  0.8014 -0.9668  0.7271
10559SOL    HW242357   4.025   5.259   2.047 -1.8159 -0.0298 -1.7023
10560SOL     OW42358   0.364   8.931   5.594 -0.1696 -0.3765  0.1542
10560SOL    HW142359   0.368   9.028   5.572  0.7624 -0.3814  0.2673
10560SOL    HW242360   0.349   8.879   5.510  2.1346 -0.3103 -0.3306
10561SOL     OW42361   2.860   7.359   3.706 -0.1286  0.3551  0.8649
10561SOL    HW142362   2.847   7.453   3.675  0.2974  0.8317  2.1037
10561SOL    HW242363   2.956   7.345   3.731  0.3684 -1.1357 -1.6337
10562SOL     OW42364   0.829   6.917   1.373 -0.4727 -0.3597  0.4554
10562SOL    HW142365   0.799   6.882   1.285  0.6244 -1.9527  0.6818
10562SOL    HW242366   0.849   7.014   1.366  0.8705 -0.7337 -1.4000
10563SOL     OW42367   0.340   7.283   3.889 -0.1583  0.1308 -0.2723
10563SOL    HW142368   0.437   7.279   3.867 -0.2523 -2.9210 -0.3744
10563SOL    HW242369   0.293   7.204   3.849 -2.3899  0.7082  1.0948
10564SOL     OW42370   8.761   5.912   3.067  0.3823  0.2872  0.2997
10564SOL    HW142371   8.758   5.978   3.142 -1.9500 -0.0321  0.5195
10564SOL    HW242372   8.794   5.957   2.984  0.6871  1.2350  0.9297
10565SOL     OW42373   9.316   9.830   2.960  0.3189  0.7062  0.0598
10565SOL    HW142374   9.317   9.819   2.861  0.9175  1.2403  0.0073
10565SOL    HW242375   9.407   9.857   2.992  0.0604  0.7998  0.7256
10566SOL     OW42376   2.784   5.655   3.455  0.3036  0.2564  0.0900
10566SOL    HW142377   2.748   5.644   3.548  1.1807 -0.2474  0.3824
10566SOL    HW242378   2.784   5.566   3.410 -0.7004  0.6064 -0.6222
10567SOL     OW42379   3.197   1.825   1.814 -0.3139 -0.1729  0.4314
10567SOL    HW142380   3.249   1.768   1.878 -1.2420 -0.4055  0.9905
10567SOL    HW242381   3.133   1.882   1.865 -1.0450 -0.3432 -0.2896
10568SOL     OW42382   3.090   7.652   0.236  0.1374 -0.3414 -0.1026
10568SOL    HW142383   3.187   7.631   0.251  0.3261 -2.1332 -3.3353
10568SOL    HW242384   3.072   7.748   0.261  2.2335 -0.5747  2.5034
10569SOL     OW42385   6.987   1.218   2.835  0.1270  0.2830  0.3666
10569SOL    HW142386   7.034   1.300   2.804 -1.0960  1.0263  0.4437
10569SOL    HW242387   7.049   1.139   2.828  1.1502  1.1204 -0.1519
10570SOL     OW42388   4.930   0.331   3.645  0.0442 -0.3863  0.5054
10570SOL    HW142389   4.990   0.369   3.715 -0.6648 -0.4417  1.1423
10570SOL    HW242390   4.965   0.242   3.616 -0.9361 -1.4375  2.4740
10571SOL     OW42391   5.460   9.812   1.243  0.0891 -0.6992  0.0804
10571SOL    HW142392   5.550   9.817   1.199 -0.1002  1.7392 -0.1352
10571SOL    HW242393   5.465   9.854   1.334 -0.5955 -1.5544  0.5241
10572SOL     OW42394   3.737   0.628   5.398  0.0102 -0.3024 -0.2279
10572SOL    HW142395   3.699   0.546   5.439 -0.4147  0.8445  1.7273
10572SOL    HW242396   3.824   0.651   5.442 -0.4168  0.8950  0.0181
10573SOL     OW42397   8.880   0.456   2.599  0.6034  0.0022  0.2088
10573SOL    HW142398   8.822   0.379   2.572 -0.2744  0.2613  1.3110
10573SOL    HW242399   8.943   0.427   2.670  0.1074  0.3561  0.7976
10574SOL     OW42400   3.394   3.560   4.374 -0.1792 -0.2903  0.0440
10574SOL    HW142401   3.453   3.505   4.433 -1.6966 -0.2088  1.6967
10574SOL    HW242402   3.379   3.650   4.416 -0.4821  0.1392 -0.9568
10575SOL     OW42403   2.848   7.799   0.498 -0.4494 -0.4557  0.3643
10575SOL    HW142404   2.865   7.748   0.582  0.0451 -1.2472 -0.2108
10575SOL    HW242405   2.756   7.778   0.464  0.5667 -2.7121 -1.0758
10576SOL     OW42406   2.292   5.521   2.299  0.5848 -0.6912 -0.0898
10576SOL    HW142407   2.379   5.564   2.327 -0.4742  1.1396  0.5204
10576SOL    HW242408   2.225   5.534   2.372 -0.9611  0.2718 -1.6515
10577SOL     OW42409   0.320   1.207   3.581 -0.2925 -0.1521  0.1221
10577SOL    HW142410   0.286   1.252   3.664 -0.3401  0.5172 -0.2613
10577SOL    HW242411   0.382   1.269   3.532 -0.5735 -0.3995 -0.5463
10578SOL     OW42412   2.876   6.651   3.190 -0.0360  0.3274  0.7470
10578SOL    HW142413   2.932   6.707   3.130  0.4887  0.5744  1.4587
10578SOL    HW242414   2.780   6.678   3.181 -0.2926 -1.2670 -1.7704
10579SOL     OW42415   5.525   9.123   1.433 -0.1669 -0.3868  0.1882
10579SOL    HW142416   5.612   9.087   1.401 -1.1501 -0.2892 -2.7328
10579SOL    HW242417   5.536   9.162   1.525  2.3018 -2.4656  0.8111
10580SOL     OW42418   8.286   3.998   1.204 -0.3341 -0.1186  0.5336
10580SOL    HW142419   8.385   4.008   1.213 -0.2645 -0.3691  0.0702
10580SOL    HW242420   8.249   3.951   1.284 -0.1307  0.3126  0.8847
10581SOL     OW42421   3.780   7.976   4.853  0.4863 -0.2550  0.7574
10581SOL    HW142422   3.737   7.936   4.934  0.0871  1.3212  1.3552
10581SOL    HW242423   3.750   7.928   4.771 -1.3326 -0.0507  1.2937
10582SOL     OW42424   5.573   0.588   2.120  0.5023  0.1748 -0.0570
10582SOL    HW142425   5.546   0.612   2.027 -1.8015  0.7055  0.7091
10582SOL    HW242426   5.636   0.657   2.156  0.3146  0.7044 -0.7406
10583SOL     OW42427   8.202   5.821   2.969 -0.7731 -0.8257 -0.3452
10583SOL    HW142428   8.237   5.915   2.970 -3.2737  0.1269 -0.4007
10583SOL    HW242429   8.272   5.760   3.007  1.0416  0.9738 -0.6603
10584SOL     OW42430   9.797   1.938   1.977  0.3584 -0.1100 -0.4261
10584SOL    HW142431   9.819   1.848   1.941  0.4156  0.2997 -1.4275
10584SOL    HW242432   9.713   1.972   1.933  1.2368  1.0155 -1.2712
10585SOL     OW42433   0.929   1.509   3.362 -0.3056  0.3298  0.3738
10585SOL    HW142434   0.854   1.531   3.424 -0.9233  1.9579 -0.9314
10585SOL    HW242435   1.016   1.531   3.406 -0.6475 -0.2070  1.3385
10586SOL     OW42436   2.913   8.529   1.067 -0.5559  0.1236  0.5536
10586SOL    HW142437   2.978   8.505   1.139 -0.1567 -2.0296 -0.4810
10586SOL    HW242438   2.837   8.464   1.067 -1.4871  1.1912  0.1995
10587SOL     OW42439   8.009   8.919   2.051 -0.0675 -0.1688 -0.5707
10587SOL    HW142440   8.076   8.952   1.984  1.7996 -0.6295  1.0358
10587SOL    HW242441   8.041   8.833   2.091 -0.0849  1.2019  2.4886
10588SOL     OW42442   9.761   8.243   0.097  0.5022 -0.1074 -0.2473
10588SOL    HW142443   9.827   8.240   0.022  0.5455  0.5609 -0.2412
10588SOL    HW242444   9.806   8.273   0.180  0.3069 -0.1845 -0.1137
10589SOL     OW42445   8.184   8.623   0.793 -0.9259 -0.6921  0.2409
10589SOL    HW142446   8.105   8.656   0.845  0.8726  1.2810  1.8275
10589SOL    HW242447   8.200   8.527   0.814 -0.8963 -0.2150  2.5342
10590SOL     OW42448   1.427   0.580   2.185  0.4474 -0.1214  0.3143
10590SOL    HW142449   1.423   0.658   2.247  0.1207 -0.6675  0.9817
10590SOL    HW242450   1.337   0.539   2.177  0.9953 -1.5882  1.4600
10591SOL     OW42451   2.673   0.100   1.678 -0.7152 -0.2876  0.4370
10591SOL    HW142452   2.720   0.184   1.652 -0.6910 -0.7054 -0.8805
10591SOL    HW242453   2.709   0.023   1.625  0.2446 -1.3854  2.6175
10592SOL     OW42454   2.378   4.351   4.053  0.2153  0.2820  0.2660
10592SOL    HW142455   2.443   4.366   4.128  0.7105 -0.3756 -0.0288
10592SOL    HW242456   2.417   4.385   3.968  0.0393  0.1858  0.1472
10593SOL     OW42457   5.420   9.537   2.628  0.6887 -0.1835 -0.5501
10593SOL    HW142458   5.513   9.516   2.661  1.1590  1.9292 -0.4809
10593SOL    HW242459   5.374   9.594   2.695 -0.7138 -1.2766 -0.5628
10594SOL     OW42460   5.156   8.942   2.007 -0.6107  0.0872  0.2465
10594SOL    HW142461   5.160   8.871   2.077 -1.0811  2.3738  2.7073
10594SOL    HW242462   5.067   8.988   2.011  0.2916  1.9320 -0.1053
10595SOL     OW42463   3.170   6.471   3.810  0.6104 -0.3835  0.4788
10595SOL    HW142464   3.241   6.515   3.754 -1.1582 -0.5623 -1.9993
10595SOL    HW242465   3.111   6.541   3.849  0.7408 -0.3321  0.5836
10596SOL     OW42466   4.580   1.713   1.738  0.2963  0.0873  0.4624
10596SOL    HW142467   4.551   1.808   1.731  0.8437  0.2244 -0.0194
10596SOL    HW242468   4.559   1.678   1.829 -0.1935  0.5739  0.5348
10597SOL     OW42469   1.771   3.909   1.953  0.1010  0.3791  0.0966
10597SOL    HW142470   1.835   3.959   1.894 -0.7790  0.5546 -0.7324
10597SOL    HW242471   1.761   3.957   2.040 -0.6740  1.6218 -0.6608
10598SOL     OW42472   8.145   1.801   0.364  0.1121  0.6448 -0.5997
10598SOL    HW142473   8.202   1.768   0.439  2.6368  0.8565 -2.3768
10598SOL    HW242474   8.123   1.725   0.302  0.8653  1.0986 -1.4379
10599SOL     OW42475   0.825   5.694   3.289  0.1416 -0.0695  0.0799
10599SOL    HW142476   0.751   5.704   3.223  1.2205 -0.9682 -1.2788
10599SOL    HW242477   0.886   5.773   3.284 -1.4243  1.3355  2.1433
10600SOL     OW42478   4.123   2.385   2.124  0.3517 -0.0090  0.4207
10600SOL    HW142479   4.195   2.435   2.172 -0.2826  0.2054  1.1496
10600SOL    HW242480   4.066   2.336   2.190 -1.5366  1.6188  0.0280
10601SOL     OW42481   2.188   2.787   3.874 -0.3319  0.3258  0.1273
10601SOL    HW142482   2.218   2.693   3.890  1.1397  0.4888 -1.4510
10601SOL    HW242483   2.158   2.828   3.960 -0.2607 -1.3255  0.9666
10602SOL     OW42484   9.362   1.378   4.520  0.1828 -0.5569  0.4132
10602SOL    HW142485   9.280   1.434   4.519  0.9043  0.5419  1.6500
10602SOL    HW242486   9.378   1.342   4.612  2.0303  0.6784  0.6146
10603SOL     OW42487   2.511   2.713   0.428  0.4302 -0.3667 -1.2415
10603SOL    HW142488   2.595   2.721   0.481 -1.9638 -0.0957  2.7186
10603SOL    HW242489   2.503   2.791   0.366  2.2804  0.4634 -0.4680
10604SOL     OW42490   6.581   6.794   3.337  0.4078 -0.2882 -0.2341
10604SOL    HW142491   6.526   6.853   3.277  0.7506  2.5536  2.1275
10604SOL    HW242492   6.675   6.792   3.303  0.1794 -0.2692 -0.8870
10605SOL     OW42493   8.131   8.065   2.145  0.4171  0.0448  0.4383
10605SOL    HW142494   8.218   8.115   2.151  1.0269 -1.1948  2.2270
10605SOL    HW242495   8.066   8.118   2.090  1.8921  1.5701  0.1246
10606SOL     OW42496   9.828   2.983   3.047  0.3030 -0.1976 -0.2286
10606SOL    HW142497   9.878   3.066   3.071 -0.2581  0.1403 -0.2437
10606SOL    HW242498   9.879   2.903   3.081 -0.3294  0.2489  1.8201
10607SOL     OW42499   6.171   7.090   4.057  0.1805 -0.2502 -0.4023
10607SOL    HW142500   6.072   7.086   4.072 -0.4365  0.4585 -3.9244
10607SOL    HW242501   6.211   7.000   4.079 -1.4020 -0.9191 -0.1535
10608SOL     OW42502   5.767   7.599   2.458 -0.6442  0.0533 -0.1703
10608SOL    HW142503   5.823   7.529   2.413 -0.4135 -0.5970  1.1099
10608SOL    HW242504   5.825   7.677   2.483 -0.2722 -0.6498  1.2182
10609SOL     OW42505   0.970   8.457   5.071  0.0213 -0.6733 -0.7307
10609SOL    HW142506   1.058   8.498   5.094 -0.8323  0.5485  0.4274
10609SOL    HW242507   0.983   8.388   5.000  1.7870  0.0834 -1.1690
10610SOL     OW42508   7.726   8.706   2.544  0.3825  0.1406  0.1501
10610SOL    HW142509   7.673   8.683   2.462 -0.5116  0.0726  0.7426
10610SOL    HW242510   7.744   8.804   2.545 -1.4042  0.4842  0.9136
10611SOL     OW42511   7.038   1.567   1.883 -0.2575 -0.1074 -0.3336
10611SOL    HW142512   7.091   1.566   1.968 -0.3027 -0.2965 -0.3066
10611SOL    HW242513   7.046   1.478   1.838  1.1722  0.5418 -1.4016
10612SOL     OW42514   7.629   9.046   5.304  0.0286 -0.7240  0.3388
10612SOL    HW142515   7.534   9.050   5.334  0.3525  0.1240  1.2667
10612SOL    HW242516   7.683   8.993   5.370  0.7027  0.9843  1.2021
10613SOL     OW42517   0.082   6.997   1.687  0.2034  0.3909  0.4591
10613SOL    HW142518   0.048   6.906   1.663  0.7952  0.7095 -1.7391
10613SOL    HW242519   0.150   6.990   1.760 -0.6219 -0.7977  1.1283
10614SOL     OW42520   8.635   5.324   2.157 -0.3497 -0.1615 -0.2986
10614SOL    HW142521   8.671   5.234   2.185 -1.4517 -0.0603  1.4733
10614SOL    HW242522   8.697   5.364   2.088 -0.0790 -2.4570 -1.4503
10615SOL     OW42523   6.543   0.407   1.580 -0.5375  0.2988  0.2282
10615SOL    HW142524   6.521   0.396   1.677 -2.1030  2.7977  0.2028
10615SOL    HW242525   6.590   0.325   1.547 -0.9194 -1.0192  2.8286
10616SOL     OW42526   1.493   3.943   3.632  0.1362  0.0472  0.1621
10616SOL    HW142527   1.448   3.862   3.595  0.8880 -0.1641 -0.3046
10616SOL    HW242528   1.466   4.023   3.578 -1.5708  0.3154  1.3840
10617SOL     OW42529   0.474   4.635   1.993  0.3507 -0.0698  0.4016
10617SOL    HW142530   0.495   4.576   2.071  1.1115 -1.4519 -0.8220
10617SOL    HW242531   0.375   4.635   1.978  0.3885 -1.5401  0.0437
10618SOL     OW42532   8.806   3.773   2.880 -0.6994 -0.0409 -0.3424
10618SOL    HW142533   8.814   3.854   2.822 -2.6161 -0.4780 -1.2694
10618SOL    HW242534   8.880   3.709   2.859  0.4595  1.1740 -0.0415
10619SOL     OW42535   3.867   9.653   0.354  0.1152 -0.0748 -0.6704
10619SOL    HW142536   3.821   9.590   0.291  2.2250 -0.6043 -1.7491
10619SOL    HW242537   3.931   9.600   0.412 -1.2269  0.5104  1.3954
10620SOL     OW42538   8.470   4.870   2.752  0.3025 -0.3578 -0.2814
10620SOL    HW142539   8.561   4.913   2.750  0.8509 -1.4686  0.2348
10620SOL    HW242540   8.473   4.784   2.701 -0.4772 -0.3688 -0.3098
10621SOL     OW42541   4.006   8.317   2.944 -0.7132 -0.3737 -0.2713
10621SOL    HW142542   4.010   8.279   3.036  2.6041 -0.0673 -0.2192
10621SOL    HW242543   4.011   8.417   2.948 -0.0369 -0.3795 -0.7961
10622SOL     OW42544   4.448   3.629   3.440 -0.1349 -0.4393  0.2315
10622SOL    HW142545   4.458   3.537   3.405  0.2829 -0.8682  1.4284
10622SOL    HW242546   4.512   3.690   3.393  1.4745 -1.2959  1.2299
10623SOL     OW42547   8.342   2.440   2.806  0.2325 -0.0121 -0.4219
10623SOL    HW142548   8.395   2.473   2.729 -1.0521  1.2805 -0.7734
10623SOL    HW242549   8.360   2.343   2.820  1.3418  0.0137 -1.6138
10624SOL     OW42550   4.107   9.199   3.012 -0.1100  0.2906 -0.0131
10624SOL    HW142551   4.024   9.246   2.983 -0.6817  0.2346  1.4660
10624SOL    HW242552   4.096   9.168   3.106  2.0379  1.3371  0.6220
10625SOL     OW42553   3.070   2.566   1.501 -0.3857  0.3985 -0.4538
10625SOL    HW142554   3.132   2.519   1.437 -0.4148 -2.3402  1.4272
10625SOL    HW242555   3.124   2.608   1.574 -0.6217 -0.2606  0.1000
10626SOL     OW42556   0.211   1.830   0.425 -0.5260 -0.2744  0.0521
10626SOL    HW142557   0.182   1.909   0.370  2.4910  1.8947  1.4622
10626SOL    HW242558   0.309   1.815   0.412 -0.1386 -0.8819  3.3534
10627SOL     OW42559   2.684   1.996   0.066 -0.1504  0.4987  0.2507
10627SOL    HW142560   2.706   2.087   0.101  1.9358  0.0145  0.2636
10627SOL    HW242561   2.704   1.991  -0.032 -0.7444  0.1898  0.1357
10628SOL     OW42562   4.763   0.093   1.835  0.5830 -0.0969  0.2029
10628SOL    HW142563   4.679   0.061   1.879  0.7924  0.4593  1.0278
10628SOL    HW242564   4.800   0.169   1.888  0.9332  0.4683 -0.8571
10629SOL     OW42565   7.948   1.610   4.767  0.9576  0.0434  0.2831
10629SOL    HW142566   7.906   1.524   4.795  0.6259 -0.3154 -1.2824
10629SOL    HW242567   7.878   1.671   4.729  1.7471 -0.3880 -1.9309
10630SOL     OW42568   4.556   1.057   3.390 -0.1105  0.8130  0.2135
10630SOL    HW142569   4.573   1.096   3.481  1.5999  1.0364 -0.1771
10630SOL    HW242570   4.468   1.009   3.390 -0.5289  1.5331  1.7398
10631SOL     OW42571   7.662   2.007   1.879  0.1382 -0.4539 -0.7129
10631SOL    HW142572   7.618   2.018   1.968  1.2762 -0.5006 -0.1400
10631SOL    HW242573   7.706   1.918   1.874  1.2506  0.0889 -0.7924
10632SOL     OW42574   1.011   3.961   0.833 -0.1987 -0.3073 -0.2926
10632SOL    HW142575   1.015   3.981   0.931 -0.7174  1.6304 -0.6535
10632SOL    HW242576   1.093   3.997   0.788 -0.7646  0.3545 -0.8209
10633SOL     OW42577   7.390   9.846   0.509  0.8639  0.0165  0.2802
10633SOL    HW142578   7.335   9.816   0.588  2.3969  1.1163  1.7938
10633SOL    HW242579   7.441   9.768   0.473  1.3884 -0.1721  1.3986
10634SOL     OW42580   2.295   2.048   0.387  0.7144 -0.2544 -0.3009
10634SOL    HW142581   2.361   2.019   0.318  1.1292  0.4785 -0.2132
10634SOL    HW242582   2.212   1.992   0.379  1.3444 -1.1791 -0.3964
10635SOL     OW42583   2.492   4.453   0.597  0.1316 -0.1909  0.3712
10635SOL    HW142584   2.590   4.448   0.579 -0.1237 -0.7491 -0.9290
10635SOL    HW242585   2.448   4.509   0.526 -0.6373 -0.8503  0.3253
10636SOL     OW42586   2.629   3.371   4.497  0.3657  0.5078 -0.0544
10636SOL    HW142587   2.560   3.371   4.425  0.1735  0.7603  0.1246
10636SOL    HW242588   2.719   3.351   4.458  0.4538  1.8129 -0.5596
10637SOL     OW42589   5.407   0.693   3.762 -0.2084  0.3643 -0.0151
10637SOL    HW142590   5.340   0.637   3.712  0.5839 -0.6897  0.0739
10637SOL    HW242591   5.438   0.768   3.704 -0.0472 -0.2603 -0.7512
10638SOL     OW42592   0.189   3.675   2.438  0.1558 -0.3752  0.5280
10638SOL    HW142593   0.190   3.671   2.538 -0.0029 -1.0206  0.5044
10638SOL    HW242594   0.189   3.582   2.401 -0.1817 -0.1370 -0.0697
10639SOL     OW42595   4.591   3.383   3.302  0.6155 -0.3494  0.2796
10639SOL    HW142596   4.663   3.324   3.339  0.7841  0.9025  2.0087
10639SOL    HW242597   4.511   3.328   3.278  1.2026 -1.4215  0.7636
10640SOL     OW42598   2.442   1.968   1.612 -0.6830 -0.1322  0.1242
10640SOL    HW142599   2.425   2.065   1.597 -1.0303 -0.1349  0.5094
10640SOL    HW242600   2.520   1.958   1.674 -0.6428 -0.0991  0.0793
10641SOL     OW42601   0.445   3.091   4.444 -0.3525  0.3104 -0.1613
10641SOL    HW142602   0.458   3.018   4.377 -0.5599  1.9895 -2.0909
10641SOL    HW242603   0.480   3.177   4.406  0.3724  1.1163  2.2740
10642SOL     OW42604   8.467   1.462   1.858  0.2163  0.1711 -0.4296
10642SOL    HW142605   8.518   1.425   1.936 -0.6768 -0.9923 -0.3773
10642SOL    HW242606   8.529   1.516   1.800  0.8948  0.9852  1.0394
10643SOL     OW42607   1.308   1.587   5.080 -0.0372 -0.0591 -0.4940
10643SOL    HW142608   1.326   1.568   4.983 -1.5624  2.1272 -1.2323
10643SOL    HW242609   1.218   1.629   5.090  0.7767  1.2407  1.7014
10644SOL     OW42610   2.909   4.507   5.326  0.2356 -0.5012  0.5268
10644SOL    HW142611   2.978   4.435   5.316 -0.8399 -1.8104  2.2817
10644SOL    HW242612   2.940   4.573   5.395  1.5563  1.1889 -1.5948
10645SOL     OW42613   0.764   3.886   2.649  0.3440  0.3357 -0.4682
10645SOL    HW142614   0.804   3.854   2.563  2.1275  0.5627  0.2718
10645SOL    HW242615   0.818   3.852   2.726 -0.5485  1.1331  0.5266
10646SOL     OW42616   4.171   2.789   4.558  0.4460  0.0448  0.2692
10646SOL    HW142617   4.204   2.794   4.652 -0.3593 -0.2002  0.5654
10646SOL    HW242618   4.108   2.712   4.548  2.2710 -1.2889 -1.0253
10647SOL     OW42619   2.608   6.570   3.121  0.3197 -0.4909  0.1426
10647SOL    HW142620   2.567   6.641   3.064  2.3969  1.1543  0.6586
10647SOL    HW242621   2.548   6.550   3.198  0.3210  1.6919  0.7445
10648SOL     OW42622   1.735   9.414   1.904  0.1685 -0.0091  0.0497
10648SOL    HW142623   1.668   9.484   1.879 -0.3427 -0.8883 -1.0549
10648SOL    HW242624   1.815   9.459   1.945  0.0103  1.2569 -0.9727
10649SOL     OW42625   1.141   5.614   1.090  0.1705  0.1281  0.2730
10649SOL    HW142626   1.114   5.653   1.002 -0.2757 -0.8657 -0.0418
10649SOL    HW242627   1.091   5.659   1.163 -0.9447 -0.3833 -0.1543
10650SOL     OW42628   8.556   0.151   0.673  0.6113 -0.1815  0.4292
10650SOL    HW142629   8.537   0.249   0.674 -0.9903 -0.4692 -0.4118
10650SOL    HW242630   8.485   0.103   0.622  1.7307 -1.7178  0.2614
10651SOL     OW42631   3.208   2.299   3.792  0.2857 -0.2027 -0.2733
10651SOL    HW142632   3.291   2.275   3.743  0.8173  0.2691  0.3979
10651SOL    HW242633   3.128   2.279   3.735  0.7524 -2.8105 -0.0590
10652SOL     OW42634   4.700   8.845   2.485  0.3376 -0.2730  0.3901
10652SOL    HW142635   4.756   8.831   2.567  2.4888  1.4803 -0.7287
10652SOL    HW242636   4.752   8.819   2.404  0.1671  2.8388 -0.7936
10653SOL     OW42637   1.793   3.465   2.012  0.5763 -0.4050 -0.1534
10653SOL    HW142638   1.714   3.415   1.978  0.9063 -0.5235 -0.7565
10653SOL    HW242639   1.830   3.418   2.093 -0.9378  0.5519  1.1034
10654SOL     OW42640   2.634   0.358   5.217 -0.3770  0.2462  0.7310
10654SOL    HW142641   2.584   0.272   5.207 -0.1030  0.2129 -0.3987
10654SOL    HW242642   2.606   0.404   5.301 -1.8147 -0.0950  0.4452
10655SOL     OW42643   9.817   9.328   5.022 -0.4939 -0.3557  0.0519
10655SOL    HW142644   9.904   9.348   5.067  0.0695 -1.2501 -0.6176
10655SOL    HW242645   9.762   9.412   5.017  0.9525  0.5724 -0.8581
10656SOL     OW42646   0.721   6.271   2.430  0.6688 -0.0773 -0.3962
10656SOL    HW142647   0.735   6.357   2.479  0.8412 -1.9286  2.9425
10656SOL    HW242648   0.627   6.240   2.443  0.6570 -0.4989 -1.4286
10657SOL     OW42649   8.338   9.448   0.558 -0.8138  0.5495  0.0650
10657SOL    HW142650   8.260   9.476   0.502 -0.1975 -0.1964 -1.2121
10657SOL    HW242651   8.396   9.386   0.504 -1.1268 -1.6150  2.1229
10658SOL     OW42652   0.733   6.403   3.473  0.0132  0.8186  0.9455
10658SOL    HW142653   0.651   6.429   3.422  0.3229 -0.7550 -0.4047
10658SOL    HW242654   0.707   6.353   3.555 -0.3669 -1.9173 -0.7739
10659SOL     OW42655   7.102   0.553   4.628  0.3852  0.0196 -0.1498
10659SOL    HW142656   7.116   0.544   4.530  1.0099 -1.3031  0.0529
10659SOL    HW242657   7.040   0.481   4.660  0.3558  0.3095  0.4556
10660SOL     OW42658   5.511   1.020   2.401  0.0408  0.3702  0.3643
10660SOL    HW142659   5.519   1.057   2.493  0.1207 -1.2233  1.0211
10660SOL    HW242660   5.541   1.088   2.334  2.5701  0.5784  1.6705
10661SOL     OW42661   0.278   0.070   3.010  0.1295 -0.0261 -0.6024
10661SOL    HW142662   0.199   0.086   3.070  0.8731 -2.6172  1.1796
10661SOL    HW242663   0.271  -0.021   2.969  1.5883  0.2001 -1.3899
10662SOL     OW42664   2.989   3.630   4.940 -0.1383  0.0377 -0.3349
10662SOL    HW142665   3.065   3.612   4.878 -1.7365 -1.9629 -1.7781
10662SOL    HW242666   2.912   3.668   4.890 -0.7233  0.3593  0.7794
10663SOL     OW42667   4.539   0.677   5.140  0.2878 -0.0888  0.3475
10663SOL    HW142668   4.462   0.673   5.204 -0.9517 -0.5255 -1.1559
10663SOL    HW242669   4.568   0.772   5.128 -0.2332  0.1069  0.6480
10664SOL     OW42670   9.032   2.441   1.152  0.1526  0.1879  0.3315
10664SOL    HW142671   8.974   2.481   1.223  0.0547  0.0612  0.3230
10664SOL    HW242672   9.122   2.420   1.190  0.2459  0.5374  0.3017
10665SOL     OW42673   9.105   3.298   2.271 -0.0187 -0.4233 -0.0573
10665SOL    HW142674   9.094   3.395   2.252 -1.1372 -0.8372 -1.6917
10665SOL    HW242675   9.089   3.281   2.368  0.0276  0.9964  0.2119
10666SOL     OW42676   5.897   0.083   4.588 -0.2073 -0.6646 -0.8067
10666SOL    HW142677   5.825   0.024   4.552 -0.1802 -1.7018  0.7897
10666SOL    HW242678   5.972   0.026   4.623  0.3428  0.3458 -0.3297
10667SOL     OW42679   1.723   0.645   5.071 -0.3850 -0.1365  0.0663
10667SOL    HW142680   1.680   0.725   5.031 -0.1012  1.0302  2.0304
10667SOL    HW242681   1.682   0.626   5.160  0.9192 -0.9592  0.5065
10668SOL     OW42682   2.050   6.966   4.030 -0.6779 -0.3663 -0.0782
10668SOL    HW142683   1.986   7.040   4.053 -0.0252 -0.3210  1.6981
10668SOL    HW242684   2.058   6.959   3.931 -0.1196  2.5228 -0.2957
10669SOL     OW42685   4.621   9.396   2.740 -0.5971 -0.4719  0.4617
10669SOL    HW142686   4.560   9.473   2.722  0.9332  0.6177 -0.2112
10669SOL    HW242687   4.570   9.310   2.731 -1.7747  0.3653 -1.2133
10670SOL     OW42688   0.814   3.796   3.631  0.5258  0.6997  0.7463
10670SOL    HW142689   0.809   3.871   3.698 -0.7667  1.5509 -0.2749
10670SOL    HW242690   0.765   3.822   3.548  0.7925 -0.9593  0.0461
10671SOL     OW42691   9.935   2.302   5.613 -0.2094  0.5181  0.1833
10671SOL    HW142692   9.949   2.301   5.712 -1.4218  0.4757  0.3609
10671SOL    HW242693   9.947   2.210   5.577 -0.7202  0.3519  0.4334
10672SOL     OW42694   3.039   6.749   1.666 -0.5216 -0.1557  0.1719
10672SOL    HW142695   3.043   6.673   1.602  1.3022 -0.8953  1.1361
10672SOL    HW242696   3.044   6.713   1.760  0.7980  1.1669  0.6201
10673SOL     OW42697   0.152   0.653   5.431  0.3535 -0.0480 -0.3952
10673SOL    HW142698   0.252   0.641   5.433  0.5396  1.3492 -0.5058
10673SOL    HW242699   0.125   0.718   5.502 -0.3527  0.4417 -1.1083
10674SOL     OW42700   4.671   9.933   4.255 -0.0603  0.0380  0.1691
10674SOL    HW142701   4.578   9.966   4.236  0.2019  0.6171 -0.1096
10674SOL    HW242702   4.695   9.954   4.349  0.3024  1.1224 -0.1567
10675SOL     OW42703   8.133   7.215   3.481 -0.1225 -0.4873  0.6081
10675SOL    HW142704   8.165   7.193   3.389  1.1083 -1.6651  1.3071
10675SOL    HW242705   8.192   7.284   3.522  1.0087 -1.9744  1.5399
10676SOL     OW42706   9.540   1.028   4.649 -0.6392 -0.8207  0.3052
10676SOL    HW142707   9.589   0.944   4.626 -1.7258 -1.1612 -0.8437
10676SOL    HW242708   9.454   1.031   4.599  0.1033  1.7332 -0.9473
10677SOL     OW42709   2.149   0.060   0.270  0.1499 -0.0488  0.2543
10677SOL    HW142710   2.130  -0.021   0.214 -0.0293  1.0520 -1.2804
10677SOL    HW242711   2.132   0.038   0.366 -0.1658 -1.7528 -0.1705
10678SOL     OW42712   1.361   4.152   2.602 -0.5916  0.6108 -0.1442
10678SOL    HW142713   1.263   4.171   2.606 -0.5627  0.3845  2.6832
10678SOL    HW242714   1.377   4.068   2.550 -2.0448 -0.3203  0.8860
10679SOL     OW42715   2.131   3.086   1.922 -0.0365  0.3530 -0.2425
10679SOL    HW142716   2.079   3.168   1.896 -1.5465 -0.2326  0.8297
10679SOL    HW242717   2.070   3.023   1.970  1.7690 -0.2332  1.3032
10680SOL     OW42718   3.077   8.351   2.053  0.0499 -0.2146 -0.6747
10680SOL    HW142719   3.149   8.313   2.110 -2.0603 -0.4880  1.9601
10680SOL    HW242720   3.000   8.287   2.050 -1.3533  1.4377 -0.7265
10681SOL     OW42721   0.615   6.134   2.167  0.3890  0.0492 -0.2792
10681SOL    HW142722   0.599   6.166   2.261 -1.9085  0.1455 -0.6920
10681SOL    HW242723   0.613   6.212   2.104  2.4967  0.0625 -0.3791
10682SOL     OW42724   8.338   1.568   0.033 -0.4177 -0.3972  0.6625
10682SOL    HW142725   8.433   1.588   0.009 -0.3315 -0.4304  0.9809
10682SOL    HW242726   8.325   1.469   0.039 -0.5815 -0.4060  0.1667
10683SOL     OW42727   7.671   6.275   3.618  0.2687 -0.2573  0.1312
10683SOL    HW142728   7.658   6.201   3.552 -1.1255  0.8262 -0.8617
10683SOL    HW242729   7.584   6.297   3.662  1.4223 -1.8255  3.3404
10684SOL     OW42730   4.410   2.554   3.557 -0.1689  0.1935 -0.1607
10684SOL    HW142731   4.349   2.525   3.631  0.6145  0.5577  0.6508
10684SOL    HW242732   4.361   2.554   3.470 -1.6920  1.7563  0.6765
10685SOL     OW42733   4.959   2.114   2.598 -0.2246  0.0809  0.1592
10685SOL    HW142734   4.964   2.053   2.519 -0.6202  1.2640 -0.7934
10685SOL    HW242735   5.019   2.080   2.670 -2.4175 -2.9176  0.6727
10686SOL     OW42736   9.887   2.548   5.230  0.1224  0.0904  0.2814
10686SOL    HW142737   9.828   2.549   5.149 -0.5706 -0.9334  0.7546
10686SOL    HW242738   9.830   2.547   5.313  0.8200  0.8757  0.7851
10687SOL     OW42739   6.448   9.894   4.072 -0.2567 -0.3380 -0.5183
10687SOL    HW142740   6.372   9.904   4.135  0.3761  0.4067  0.1406
10687SOL    HW242741   6.480   9.985   4.043  0.3688 -0.6421 -0.7995
10688SOL     OW42742   0.216   5.826   2.961 -0.3968 -0.7310  0.2404
10688SOL    HW142743   0.125   5.819   2.920 -0.3608  1.4609 -0.2600
10688SOL    HW242744   0.208   5.827   3.061 -0.6490 -3.8641  0.2826
10689SOL     OW42745   7.092   7.786   1.968 -0.0490 -0.0105  0.0250
10689SOL    HW142746   7.016   7.733   1.930  0.2945  0.4789 -1.3412
10689SOL    HW242747   7.150   7.819   1.894 -0.3445  2.4383  0.8378
10690SOL     OW42748   4.416   4.832   0.696 -0.4174 -0.4643  0.3115
10690SOL    HW142749   4.506   4.790   0.682 -0.3548 -0.3809  0.4478
10690SOL    HW242750   4.423   4.900   0.770 -0.6158 -0.5347  0.3959
10691SOL     OW42751   8.544   7.323   2.060 -0.0015  0.6130  0.0554
10691SOL    HW142752   8.451   7.293   2.038 -0.5948  2.2196  0.3124
10691SOL    HW242753   8.545   7.365   2.151  0.9696  0.6576  0.0288
10692SOL     OW42754   0.083   9.641   5.173  0.1787  0.0633 -0.0449
10692SOL    HW142755   0.118   9.688   5.092  1.0444  1.2033  0.9623
10692SOL    HW242756   0.095   9.542   5.162  0.4567  0.2169 -1.2259
10693SOL     OW42757   7.092   0.362   2.058  0.3046 -0.0274  0.2915
10693SOL    HW142758   7.174   0.376   2.003 -0.2711 -0.9338 -0.8212
10693SOL    HW242759   7.041   0.283   2.023 -0.9870  0.4597  1.0255
10694SOL     OW42760   1.172   1.425   1.876 -0.0016 -0.2237 -1.0728
10694SOL    HW142761   1.092   1.410   1.819 -0.5281  0.2065 -0.4644
10694SOL    HW242762   1.149   1.407   1.972  0.0024  2.0045 -0.6208
10695SOL     OW42763   2.939   4.704   5.524 -0.1122  0.1083  0.0321
10695SOL    HW142764   2.907   4.794   5.496  0.3483  1.8003  4.5924
10695SOL    HW242765   3.032   4.711   5.561 -0.1593 -2.1740  0.6725
10696SOL     OW42766   8.762   3.102   3.303  0.2957 -0.1002  0.4262
10696SOL    HW142767   8.693   3.040   3.341 -1.1119  1.5639  0.6566
10696SOL    HW242768   8.849   3.088   3.350 -0.3899 -0.8609  1.4909
10697SOL     OW42769   1.091   7.046   3.381  0.1612 -0.0661 -0.4939
10697SOL    HW142770   1.115   7.045   3.478 -0.2605  1.2148 -0.3715
10697SOL    HW242771   1.149   7.110   3.332  1.6187 -2.0492 -1.4478
10698SOL     OW42772   4.839   9.369   4.440  0.3010  0.0304  0.0690
10698SOL    HW142773   4.916   9.387   4.501 -0.0597  0.0344  0.5244
10698SOL    HW242774   4.824   9.449   4.381 -0.1282  0.5013  0.8169
10699SOL     OW42775   8.698   8.013   2.316 -0.3043  1.1303  0.1054
10699SOL    HW142776   8.668   8.080   2.384 -2.5132  1.6343 -1.3029
10699SOL    HW242777   8.618   7.969   2.275  1.0711 -1.9444  0.5468
10700SOL     OW42778   8.099   7.495   2.712 -0.2938 -0.0301  0.0080
10700SOL    HW142779   8.037   7.574   2.708  0.4171  0.5689  0.7562
10700SOL    HW242780   8.167   7.503   2.639  2.3578  2.2414  2.6088
10701SOL     OW42781   8.961   8.609   5.627  0.0336  0.4883  0.2847
10701SOL    HW142782   8.932   8.696   5.666 -1.0107  0.9086 -1.3922
10701SOL    HW242783   9.000   8.624   5.536 -1.2886 -0.9063 -0.5379
10702SOL     OW42784   4.227   8.161   1.856  0.1582  0.6454 -0.1758
10702SOL    HW142785   4.281   8.244   1.839 -0.3417  0.6794 -1.7329
10702SOL    HW242786   4.225   8.106   1.773 -0.0590 -0.6090  0.6601
10703SOL     OW42787   4.647   7.692   4.280  0.5099 -0.4792 -0.6111
10703SOL    HW142788   4.621   7.708   4.185  0.5907  1.4562 -0.3115
10703SOL    HW242789   4.746   7.696   4.289  0.5903 -1.8483 -0.6332
10704SOL     OW42790   6.878   1.828   3.714 -0.1239  0.0143  0.1301
10704SOL    HW142791   6.945   1.758   3.739  0.7731  1.2936  1.3797
10704SOL    HW242792   6.834   1.803   3.628 -0.2116 -2.3524  0.8449
10705SOL     OW42793   6.542   0.268   2.465  0.0567  0.7053  0.9319
10705SOL    HW142794   6.466   0.327   2.493 -0.4451  0.6454 -0.2663
10705SOL    HW242795   6.619   0.282   2.526 -0.0544  2.5997  0.6659
10706SOL     OW42796   2.126   0.079   2.997 -0.6347  0.3470  0.9441
10706SOL    HW142797   2.171   0.163   3.029 -0.7405  0.4243  0.8930
10706SOL    HW242798   2.059   0.103   2.926  0.6220  0.0384 -0.3712
10707SOL     OW42799   2.325   4.256   1.958 -0.4161 -0.2830 -0.4011
10707SOL    HW142800   2.254   4.316   1.994 -0.5190 -0.9916  0.5939
10707SOL    HW242801   2.413   4.279   2.000 -0.2531 -0.1208 -0.8254
10708SOL     OW42802   3.677   2.241   2.084  0.4408  0.0257 -0.1349
10708SOL    HW142803   3.596   2.186   2.065  0.5085 -0.9714  2.2875
10708SOL    HW242804   3.721   2.209   2.168  2.1588  1.9047 -0.2592
10709SOL     OW42805   2.408   1.578   3.500 -0.2132 -0.1691  0.0447
10709SOL    HW142806   2.480   1.546   3.439 -0.5718  0.8546 -0.9325
10709SOL    HW242807   2.447   1.637   3.571 -0.0878  0.4848 -0.5582
10710SOL     OW42808   8.801   5.968   2.077  0.0664 -0.2534  0.0563
10710SOL    HW142809   8.722   5.972   2.138 -0.3628 -1.9005 -0.3833
10710SOL    HW242810   8.789   5.895   2.010  0.6295  1.3843 -1.8884
10711SOL     OW42811   2.575   6.895   0.608  0.9272 -0.4315  0.1888
10711SOL    HW142812   2.581   6.820   0.543 -0.3214  1.1061 -1.7201
10711SOL    HW242813   2.561   6.981   0.560 -0.9287  0.6427  2.5244
10712SOL     OW42814   9.806   7.990   1.302  0.3001  0.3005 -0.2472
10712SOL    HW142815   9.876   7.933   1.345  1.1555  2.9859  2.0612
10712SOL    HW242816   9.849   8.055   1.240 -0.4295  0.0764 -0.9945
10713SOL     OW42817   4.921   0.812   1.207 -0.7408 -0.5047 -0.7595
10713SOL    HW142818   4.838   0.756   1.209 -2.0688  1.4276  2.7632
10713SOL    HW242819   4.941   0.844   1.299  3.1718  0.2470 -1.7965
10714SOL     OW42820   9.782   2.748   1.562 -0.0711  0.2818 -0.3577
10714SOL    HW142821   9.760   2.684   1.636  2.8261  0.7083  0.9711
10714SOL    HW242822   9.754   2.840   1.589  0.7821  0.4025  0.1509
10715SOL     OW42823   9.439   0.128   1.328 -0.1709 -0.1919 -0.6025
10715SOL    HW142824   9.500   0.161   1.257 -1.5450  0.8056 -1.3326
10715SOL    HW242825   9.383   0.203   1.363 -2.1727 -1.3926 -1.1341
10716SOL     OW42826   9.241   1.330   3.926 -0.0093  0.0546 -0.4855
10716SOL    HW142827   9.314   1.398   3.921  0.4964 -0.5491 -1.5696
10716SOL    HW242828   9.248   1.280   4.012 -2.2218  3.3701  1.7006
10717SOL     OW42829   2.762   1.144   1.877  0.4573 -0.0630 -0.2571
10717SOL    HW142830   2.856   1.128   1.905  0.3658 -1.4017 -0.6462
10717SOL    HW242831   2.700   1.113   1.949  0.3114  0.3648 -0.2009
10718SOL     OW42832   3.338   3.436   1.226  0.3991  0.1111 -0.3670
10718SOL    HW142833   3.300   3.506   1.166  1.5582  0.3316 -0.8674
10718SOL    HW242834   3.282   3.427   1.308 -0.4328  0.7684 -0.8615
10719SOL     OW42835   8.985   8.866   3.537  0.6521 -0.0624  0.1967
10719SOL    HW142836   9.055   8.937   3.527  0.5028 -0.0782 -1.0582
10719SOL    HW242837   8.894   8.908   3.529  0.3579  0.4991  5.0469
10720SOL     OW42838   2.395   9.997   0.457 -0.1938  0.2031  0.3141
10720SOL    HW142839   2.455   9.979   0.535 -0.9087 -0.4836  0.7259
10720SOL    HW242840   2.403  10.093   0.429 -0.1704  0.5387  1.4486
10721SOL     OW42841   4.509   6.596   2.256 -1.0304 -0.7265 -0.8573
10721SOL    HW142842   4.430   6.566   2.309  0.3311 -1.3129  0.9131
10721SOL    HW242843   4.580   6.526   2.261  0.5138  0.8286 -0.3626
10722SOL     OW42844   9.279   2.952   1.908 -0.3521 -0.1820 -0.9153
10722SOL    HW142845   9.264   3.038   1.957 -1.1812 -1.1422  0.5629
10722SOL    HW242846   9.376   2.944   1.885 -0.1860  0.9444 -0.6689
10723SOL     OW42847   4.770   4.506   0.529  0.1157  0.3037 -0.0834
10723SOL    HW142848   4.853   4.472   0.572  0.0789  0.3685  0.0412
10723SOL    HW242849   4.713   4.551   0.598 -1.2740 -2.0986  0.4227
10724SOL     OW42850   8.842   1.544   1.192 -0.3819 -0.4240  0.3975
10724SOL    HW142851   8.838   1.637   1.157  1.2936 -0.9476 -1.2377
10724SOL    HW242852   8.807   1.481   1.123 -2.6585 -0.9508  1.9325
10725SOL     OW42853   3.020   9.204   3.447 -0.3110  0.4333  0.6780
10725SOL    HW142854   3.106   9.254   3.450  0.5357 -0.9064 -0.4745
10725SOL    HW242855   2.994   9.177   3.540  0.8923  0.2331  0.9660
10726SOL     OW42856   2.781   7.919   4.088 -0.0750 -0.1696  0.3446
10726SOL    HW142857   2.765   7.962   4.178 -0.1833 -0.0387  0.2638
10726SOL    HW242858   2.802   7.822   4.101  0.1182 -0.1042  0.5254
10727SOL     OW42859   1.472   0.502   1.175  0.0137  0.4019  1.1898
10727SOL    HW142860   1.493   0.460   1.264 -0.7138 -0.4177  0.9867
10727SOL    HW242861   1.375   0.526   1.172  0.4816  2.3920  1.4092
10728SOL     OW42862   6.317   8.977   3.521  0.0518  0.1241  0.3936
10728SOL    HW142863   6.234   8.923   3.537  0.1456 -0.4184 -0.9038
10728SOL    HW242864   6.395   8.929   3.561  0.0268 -0.3395 -0.1084
10729SOL     OW42865   8.037   1.713   2.762 -0.3871  0.0197 -0.4948
10729SOL    HW142866   8.059   1.805   2.793  0.1102 -0.8918  1.9106
10729SOL    HW242867   8.083   1.696   2.674 -0.1327  1.8756 -0.7477
10730SOL     OW42868   2.521   0.937   2.030 -0.2299  0.3255 -0.3233
10730SOL    HW142869   2.534   1.024   2.078  0.2713 -0.0733  0.2695
10730SOL    HW242870   2.569   0.864   2.079  1.8103  0.2208 -2.4016
10731SOL     OW42871   4.053   6.773   2.387 -0.2641 -0.0105 -0.3163
10731SOL    HW142872   4.043   6.841   2.460 -1.4796 -1.8889  1.3200
10731SOL    HW242873   4.058   6.819   2.299 -0.6356  2.2212  0.7925
10732SOL     OW42874   0.025   3.543   3.271  0.0832 -0.4910  0.2443
10732SOL    HW142875   0.101   3.547   3.206 -0.5302  0.6001 -0.4323
10732SOL    HW242876   0.043   3.473   3.340  1.3332 -0.7814 -0.3659
10733SOL     OW42877   3.174   3.831   5.135  0.2972  0.5596  0.1944
10733SOL    HW142878   3.098   3.784   5.178  0.1787  1.7904  1.3819
10733SOL    HW242879   3.145   3.867   5.046 -0.1315 -0.0315  0.0894
10734SOL     OW42880   4.656   3.503   1.818 -0.1447 -0.2397 -0.4724
10734SOL    HW142881   4.674   3.411   1.783  0.7086 -0.2594  0.0180
10734SOL    HW242882   4.742   3.553   1.828 -0.6003  0.6292 -0.7662
10735SOL     OW42883   6.729   1.800   2.797  0.0538  0.2733 -0.0584
10735SOL    HW142884   6.788   1.773   2.873 -1.1239 -0.1110  0.7134
10735SOL    HW242885   6.649   1.849   2.831 -0.3362  0.3652 -1.0769
10736SOL     OW42886   2.118   4.015   0.204  0.6598 -0.1419 -0.3503
10736SOL    HW142887   2.208   4.034   0.243  0.5140  1.5496 -0.7811
10736SOL    HW242888   2.085   4.097   0.157 -2.1898  0.0569  1.8727
10737SOL     OW42889   6.797   9.539   1.719 -0.1897 -0.7568 -0.0595
10737SOL    HW142890   6.808   9.491   1.806 -1.2660 -1.2305 -0.1727
10737SOL    HW242891   6.816   9.477   1.643  1.0075 -0.2721 -0.1622
10738SOL     OW42892   8.216   1.894   1.407 -0.0956  0.1731 -0.5620
10738SOL    HW142893   8.271   1.815   1.433 -0.6494 -0.6968 -1.9798
10738SOL    HW242894   8.211   1.900   1.308  0.9660  2.7281 -0.4829
10739SOL     OW42895   9.597   8.911   1.604 -0.7040 -0.2636 -0.2516
10739SOL    HW142896   9.595   8.815   1.632  1.1393 -0.5660 -1.1411
10739SOL    HW242897   9.687   8.934   1.567 -1.3769  1.6035 -0.7952
10740SOL     OW42898   8.847   0.597   3.584 -0.4355  0.0475 -0.6449
10740SOL    HW142899   8.933   0.596   3.635  0.7211 -0.6355 -2.5650
10740SOL    HW242900   8.815   0.692   3.576  0.6088  0.4113 -0.6790
10741SOL     OW42901   4.323   2.540   2.910 -0.5995  0.0993 -0.1480
10741SOL    HW142902   4.341   2.632   2.947 -1.1668 -0.0150  0.4111
10741SOL    HW242903   4.361   2.472   2.972 -2.1253 -0.1158  0.5680
10742SOL     OW42904   0.154   6.376   1.035 -0.2564 -0.3449 -0.3924
10742SOL    HW142905   0.251   6.360   1.052 -0.2444  0.2263  0.0947
10742SOL    HW242906   0.120   6.309   0.970  0.1050 -1.5099  0.6074
10743SOL     OW42907   1.437   9.823   1.599  0.0006  0.4861 -0.2475
10743SOL    HW142908   1.466   9.826   1.504 -0.7454 -0.0156 -0.5009
10743SOL    HW242909   1.361   9.758   1.609  0.6119 -0.0822  0.8345
10744SOL     OW42910   2.654   6.292   3.146  0.1702  0.1876  0.1087
10744SOL    HW142911   2.669   6.390   3.142  1.4112  0.0014 -0.0490
10744SOL    HW242912   2.715   6.251   3.214 -0.0242 -0.5336 -0.1396
10745SOL     OW42913   6.936   9.565   2.682  0.3741 -0.8091 -0.5370
10745SOL    HW142914   6.953   9.484   2.738  1.1943 -1.0690 -1.1467
10745SOL    HW242915   6.946   9.647   2.738 -0.8345 -1.1443  0.1724
10746SOL     OW42916   3.102   3.570   0.989  0.2617 -0.6586 -0.0628
10746SOL    HW142917   3.107   3.619   0.902 -1.0332  0.7877  0.6401
10746SOL    HW242918   3.145   3.626   1.061  0.3805 -1.3642  0.4225
10747SOL     OW42919   8.627   1.311   3.811  0.5759 -0.0814 -0.4105
10747SOL    HW142920   8.672   1.400   3.808  1.9166 -0.7735 -1.5941
10747SOL    HW242921   8.655   1.257   3.732 -2.6446 -0.4142 -1.3809
10748SOL     OW42922   2.233   1.934   5.490  0.3477 -0.3877  0.2749
10748SOL    HW142923   2.260   2.023   5.526  1.5522 -0.7640  0.3373
10748SOL    HW242924   2.229   1.867   5.564  2.8504 -1.1676 -0.2295
10749SOL     OW42925   2.714   9.841   5.281  0.0675 -0.5863  0.1083
10749SOL    HW142926   2.658   9.766   5.317 -0.4425 -1.1905 -1.8583
10749SOL    HW242927   2.734   9.906   5.354 -0.0776 -2.2781  1.6903
10750SOL     OW42928   8.427   4.511   1.735 -0.3725  0.2825  0.1255
10750SOL    HW142929   8.351   4.494   1.797 -0.1077 -0.5570  0.2262
10750SOL    HW242930   8.409   4.466   1.647  1.0021 -1.7906  0.8819
10751SOL     OW42931   0.912   4.048   3.713  0.6486 -0.4111 -0.3022
10751SOL    HW142932   0.870   4.138   3.710 -0.0952 -0.7648 -0.4675
10751SOL    HW242933   0.998   4.050   3.661  0.8235  0.2926  0.0044
10752SOL     OW42934   1.843   9.965   5.368 -0.2858  0.4378  0.6506
10752SOL    HW142935   1.828  10.060   5.397  0.1062  0.3436  1.1699
10752SOL    HW242936   1.930   9.959   5.319  0.3703  0.0816  1.8536
10753SOL     OW42937   6.450   9.642   2.298 -0.2455  0.0827  0.6056
10753SOL    HW142938   6.396   9.561   2.276  0.4174 -0.3022  0.3878
10753SOL    HW242939   6.511   9.664   2.222  1.0662 -0.4400  1.4986
10754SOL     OW42940   9.749   0.808   4.611  0.3372  0.0400 -0.1170
10754SOL    HW142941   9.781   0.727   4.563 -0.5612  0.0961 -0.8121
10754SOL    HW242942   9.721   0.783   4.704 -0.5440 -0.5735 -0.5395
10755SOL     OW42943   8.371   9.086   1.591 -0.0046  0.3453  0.8444
10755SOL    HW142944   8.326   9.046   1.511  2.9151 -0.3233 -0.5390
10755SOL    HW242945   8.373   9.185   1.582 -2.2970  0.4818  1.5586
10756SOL     OW42946   7.733   0.302   4.694  0.2425 -0.0674 -0.1350
10756SOL    HW142947   7.768   0.210   4.675 -1.1717 -0.6570  0.0413
10756SOL    HW242948   7.802   0.354   4.744  2.1752 -0.0781 -2.6750
10757SOL     OW42949   8.456   1.422   2.751  0.1205 -0.0087  0.0894
10757SOL    HW142950   8.383   1.417   2.818 -0.0399 -0.7509 -0.1384
10757SOL    HW242951   8.447   1.507   2.698 -1.3046 -0.6906 -0.7780
10758SOL     OW42952   4.513   9.814   4.870  0.4165 -0.1569  0.9807
10758SOL    HW142953   4.548   9.773   4.786  0.4511 -0.1252  0.9801
10758SOL    HW242954   4.476   9.742   4.930  1.5452 -0.3277  1.4922
10759SOL     OW42955   2.487   2.088   2.890  0.0539 -0.0371 -0.4081
10759SOL    HW142956   2.405   2.064   2.839  1.1818 -1.3629 -1.6797
10759SOL    HW242957   2.532   2.167   2.846 -0.4397  0.5893  0.1959
10760SOL     OW42958   6.583   8.984   3.368 -0.1742  0.6853 -0.7575
10760SOL    HW142959   6.511   9.033   3.417 -0.8727 -0.2931 -0.8053
10760SOL    HW242960   6.610   9.038   3.287 -1.0087  0.9455 -0.8709
10761SOL     OW42961   3.021   7.115   0.413  0.3239 -0.2280 -0.2087
10761SOL    HW142962   2.945   7.135   0.475  1.5386  0.0965  1.1916
10761SOL    HW242963   2.988   7.060   0.337 -1.2536 -0.3625  0.5571
10762SOL     OW42964   9.568   9.604   0.870  0.1348  0.4891  0.5986
10762SOL    HW142965   9.524   9.568   0.952 -0.4414 -0.0845  0.0453
10762SOL    HW242966   9.644   9.544   0.844 -0.1506  0.2621  0.2885
10763SOL     OW42967   2.815   9.913   1.872 -0.0122  0.6554 -0.4499
10763SOL    HW142968   2.778   9.998   1.834  0.2601  0.5384 -0.9791
10763SOL    HW242969   2.838   9.850   1.798  2.2781  1.1361 -0.1627
10764SOL     OW42970   7.640   0.685   1.246  0.2130 -0.0581 -0.6071
10764SOL    HW142971   7.731   0.713   1.217  0.8627 -1.0184  0.4591
10764SOL    HW242972   7.616   0.733   1.331 -0.2812  0.2006 -0.8900
10765SOL     OW42973   0.892   8.933   4.498  0.1268  0.0593 -0.7672
10765SOL    HW142974   0.849   8.950   4.587 -0.3096  3.0691 -1.4945
10765SOL    HW242975   0.826   8.890   4.437 -0.4222  0.4686 -0.4687
10766SOL     OW42976   1.768   6.523   3.867  0.4465  0.1059 -0.1140
10766SOL    HW142977   1.823   6.591   3.916  0.0303 -0.4137  1.0743
10766SOL    HW242978   1.781   6.433   3.907  0.2903 -0.3722 -1.1154
10767SOL     OW42979   0.183   8.732   1.579  0.1607 -0.4466  0.1031
10767SOL    HW142980   0.218   8.749   1.671  0.5586 -1.1991  0.0973
10767SOL    HW242981   0.150   8.818   1.539  0.1450 -0.0906  0.8797
10768SOL     OW42982   3.434   0.918   2.717  0.1269  0.1058  0.1296
10768SOL    HW142983   3.338   0.945   2.725 -0.0175 -0.3118 -0.1664
10768SOL    HW242984   3.453   0.842   2.780  0.0989 -0.2380 -0.2732
10769SOL     OW42985   2.241   7.135   5.545  0.4869 -0.9600 -0.1778
10769SOL    HW142986   2.209   7.175   5.459  0.9381  0.0869  0.1333
10769SOL    HW242987   2.275   7.043   5.528 -0.0978 -1.0332 -0.9946
10770SOL     OW42988   1.683   6.284   1.852  0.3632 -0.0063  0.2943
10770SOL    HW142989   1.767   6.231   1.837 -0.1668 -0.2907 -1.8308
10770SOL    HW242990   1.677   6.357   1.784 -0.7109  0.5485  0.9651
10771SOL     OW42991   5.950   0.051   2.071 -0.0203  0.5011  0.3877
10771SOL    HW142992   5.851   0.061   2.067  0.1333  2.7886  1.4649
10771SOL    HW242993   5.979  -0.019   2.005 -2.1709  0.8796 -1.0218
10772SOL     OW42994   3.942   0.589   3.090  0.4142  0.3167  0.4274
10772SOL    HW142995   3.973   0.677   3.052  0.5651  0.0032 -0.1870
10772SOL    HW242996   3.843   0.591   3.101 -0.0910 -0.8281 -3.3255
10773SOL     OW42997   4.503   7.346   3.214 -0.0890  0.0910  0.1948
10773SOL    HW142998   4.492   7.361   3.116  0.1339  2.3359  0.4794
10773SOL    HW242999   4.444   7.410   3.264 -0.1000 -0.9432  1.5296
10774SOL     OW43000   0.956   2.834   0.667  0.1256  0.4103 -0.6393
10774SOL    HW143001   0.913   2.796   0.585 -1.9742 -2.4262  1.7109
10774SOL    HW243002   0.887   2.877   0.725  1.2167  0.2212  0.8372
10775SOL     OW43003   2.226   8.216   1.255  0.0900 -0.0307  0.2235
10775SOL    HW143004   2.267   8.149   1.318  1.6108 -1.4572 -2.2007
10775SOL    HW243005   2.294   8.286   1.232  0.7873 -1.5908 -2.6829
10776SOL     OW43006   1.155   2.933   3.367 -0.7748  0.5764 -0.1047
10776SOL    HW143007   1.088   2.953   3.295 -2.0271 -0.0059  0.8552
10776SOL    HW243008   1.198   3.017   3.398 -3.0979  1.3763  1.1545
10777SOL     OW43009   1.171   7.845   5.087 -0.2319 -0.2952 -0.0985
10777SOL    HW143010   1.073   7.861   5.080 -0.3767 -0.5297  1.3862
10777SOL    HW243011   1.214   7.920   5.137  0.3876 -0.0894 -0.9212
10778SOL     OW43012   4.065   4.337   1.625 -0.0246 -0.1144  0.0502
10778SOL    HW143013   3.973   4.331   1.588 -0.3464  0.1979  0.7908
10778SOL    HW243014   4.078   4.427   1.668  0.5208 -0.2697  0.2153
10779SOL     OW43015   9.316   0.360   5.383  0.2566 -0.2558  0.7011
10779SOL    HW143016   9.267   0.416   5.450 -0.4953  0.7782 -0.6755
10779SOL    HW243017   9.413   0.384   5.385 -0.1560  1.6424 -0.3456
10780SOL     OW43018   4.386   0.012   2.199 -0.1457  0.3083  0.0496
10780SOL    HW143019   4.305   0.056   2.237  0.4628  0.2549  1.4676
10780SOL    HW243020   4.364  -0.082   2.173 -0.3195 -0.0238  1.3378
10781SOL     OW43021   7.643   1.018   3.444  0.2187  0.3746 -0.6223
10781SOL    HW143022   7.677   0.989   3.354  0.9895 -0.2521 -0.1335
10781SOL    HW243023   7.664   0.948   3.512  0.5110  1.2734  0.2277
10782SOL     OW43024   3.506   9.898   5.286  0.4511 -0.1618  0.1324
10782SOL    HW143025   3.426   9.909   5.345  1.2429  0.0375  1.2035
10782SOL    HW243026   3.547   9.988   5.269  1.2036 -0.3808  0.7009
10783SOL     OW43027   1.079   3.975   0.456  0.6554 -0.2842 -0.1283
10783SOL    HW143028   1.031   3.901   0.503 -0.9263  1.7082  1.4955
10783SOL    HW243029   1.148   4.015   0.517  1.2198 -0.1398 -0.8477
10784SOL     OW43030   2.611   3.922   3.222  0.3571  0.1223 -0.1158
10784SOL    HW143031   2.634   3.867   3.142  1.8624  0.1398  0.2821
10784SOL    HW243032   2.512   3.931   3.230  0.1802 -0.6009 -1.4826
10785SOL     OW43033   2.564   5.396   2.639 -0.5666  0.0494 -0.1991
10785SOL    HW143034   2.657   5.417   2.669 -0.9507  1.5730 -0.0203
10785SOL    HW243035   2.508   5.374   2.719 -1.0609  1.9985  0.0167
10786SOL     OW43036   3.686   1.714   4.933  0.0935  0.3956  0.4695
10786SOL    HW143037   3.730   1.735   5.021 -1.9039  1.6578  1.1854
10786SOL    HW243038   3.657   1.799   4.890 -0.7505 -0.3741 -0.4776
10787SOL     OW43039   9.059   8.502   4.079 -0.6247  0.0865 -0.0852
10787SOL    HW143040   8.987   8.476   4.015 -0.5141 -1.1585  0.2847
10787SOL    HW243041   9.030   8.581   4.132 -1.1493  0.4583 -0.9319
10788SOL     OW43042   2.014   9.072   1.789  0.4682  0.7405 -0.0694
10788SOL    HW143043   1.933   9.017   1.771 -0.3260  1.1206  2.1718
10788SOL    HW243044   2.001   9.163   1.750  0.8429  0.0622 -1.8119
10789SOL     OW43045   3.631   9.528   4.726 -0.7071  0.0701  0.1080
10789SOL    HW143046   3.619   9.613   4.675  0.5866 -0.9918 -2.0345
10789SOL    HW243047   3.606   9.450   4.669 -2.7163 -0.9847  2.3305
10790SOL     OW43048   2.021   5.961   2.945 -0.3188  0.3857 -0.6076
10790SOL    HW143049   2.117   5.943   2.968  0.3540  0.9076 -2.8810
10790SOL    HW243050   2.013   6.051   2.902 -1.6826 -0.0180 -1.2341
10791SOL     OW43051   2.288   3.985   2.391  0.1041  0.3780  0.2433
10791SOL    HW143052   2.193   3.955   2.388  0.2813 -0.1009 -0.9219
10791SOL    HW243053   2.308   4.025   2.481 -0.9382 -0.3455  0.8082
10792SOL     OW43054   4.359   1.111   4.984 -0.2146 -0.1562 -0.0312
10792SOL    HW143055   4.411   1.193   4.961  0.3742 -0.2402  0.9865
10792SOL    HW243056   4.267   1.137   5.015 -0.6216  0.0164 -1.3389
10793SOL     OW43057   2.931   2.303   1.254  0.1751 -0.3590 -0.1230
10793SOL    HW143058   2.868   2.282   1.330  1.3438 -1.1319  0.6513
10793SOL    HW243059   2.882   2.356   1.184 -1.1711 -0.4224  0.7413
10794SOL     OW43060   9.736   7.964   3.575 -0.4175  0.2936 -0.1329
10794SOL    HW143061   9.803   7.910   3.627  0.7942  1.0576 -0.8567
10794SOL    HW243062   9.759   7.959   3.478 -1.8880 -0.0515 -0.4706
10795SOL     OW43063   2.766   7.307   4.326 -0.2236  0.0454 -0.0443
10795SOL    HW143064   2.721   7.250   4.395 -0.7410  0.6206  0.1001
10795SOL    HW243065   2.820   7.250   4.265 -0.2612 -0.5342  0.4667
10796SOL     OW43066   0.345   8.694   5.384  0.1374  0.7379  0.3943
10796SOL    HW143067   0.408   8.733   5.317  0.3435 -0.8728 -0.3812
10796SOL    HW243068   0.251   8.701   5.350  0.2710 -0.3636 -0.2241
10797SOL     OW43069   8.311   2.282   1.943 -0.2506  0.2667 -0.5621
10797SOL    HW143070   8.296   2.381   1.937 -2.4872 -0.0544 -0.7061
10797SOL    HW243071   8.351   2.249   1.857  0.2560  0.9895 -0.6129
10798SOL     OW43072   0.555   3.897   2.812  0.1913  0.4269  0.3336
10798SOL    HW143073   0.610   3.925   2.733  1.3458 -0.1383  0.9262
10798SOL    HW243074   0.559   3.797   2.821  0.9333  0.5878  1.7458
10799SOL     OW43075   2.117   4.743   2.203 -0.4043 -0.2578 -0.1747
10799SOL    HW143076   2.022   4.749   2.235 -0.2624  0.6723  0.0955
10799SOL    HW243077   2.130   4.803   2.124 -0.1179 -0.6135 -0.3981
10800SOL     OW43078   3.515   2.786   5.619  0.2865  0.6186 -0.0140
10800SOL    HW143079   3.522   2.794   5.519  1.1630  0.7827  0.0577
10800SOL    HW243080   3.474   2.698   5.642 -0.3322  0.7618 -0.5280
10801SOL     OW43081   7.813   7.996   4.335  0.2525  0.0580  0.1364
10801SOL    HW143082   7.760   8.047   4.268 -0.6003  0.9895  1.4945
10801SOL    HW243083   7.911   8.012   4.319  0.1076 -0.6137 -1.5460
10802SOL     OW43084   4.277   0.576   4.145 -0.0077  0.5550 -0.2353
10802SOL    HW143085   4.265   0.563   4.243  0.0445 -0.4438 -0.3566
10802SOL    HW243086   4.372   0.556   4.120 -0.3412 -0.4753 -0.6911
10803SOL     OW43087   3.620   3.383   0.167  1.0659 -0.0766 -0.2014
10803SOL    HW143088   3.587   3.308   0.225 -0.3331  0.1328 -0.6981
10803SOL    HW243089   3.563   3.388   0.085  2.3234  0.3534 -1.0489
10804SOL     OW43090   8.491   9.794   0.024  0.0476 -0.1298  0.1667
10804SOL    HW143091   8.567   9.859   0.023 -0.3176  0.3069 -1.0927
10804SOL    HW243092   8.423   9.822  -0.044  0.1486 -2.1291 -0.8129
10805SOL     OW43093   8.851   2.811   1.810 -0.4268 -0.5291 -0.1715
10805SOL    HW143094   8.860   2.719   1.848 -0.4624  0.2086  1.7242
10805SOL    HW243095   8.874   2.878   1.881 -0.8214  0.9286 -1.3956
10806SOL     OW43096   2.723   9.407   1.420 -0.0117  0.8649 -0.1197
10806SOL    HW143097   2.812   9.423   1.378  0.2712  3.5687  1.4695
10806SOL    HW243098   2.651   9.444   1.361  0.1647  1.9428  0.3509
10807SOL     OW43099   4.078   3.407   2.082 -0.0489  0.3379  0.7106
10807SOL    HW143100   4.004   3.392   2.017 -0.0302  0.0341  0.7604
10807SOL    HW243101   4.040   3.413   2.175 -0.1282  1.2071  0.6339
10808SOL     OW43102   2.275   3.796   1.851 -0.0011 -0.3217 -1.2613
10808SOL    HW143103   2.256   3.761   1.943  1.1399  0.9048 -0.5238
10808SOL    HW243104   2.232   3.737   1.783 -2.1682 -0.4042  0.1121
10809SOL     OW43105   9.230   2.554   2.645  0.0946  0.0136 -0.4414
10809SOL    HW143106   9.166   2.586   2.575  0.8468  0.9499 -0.7138
10809SOL    HW243107   9.200   2.587   2.735  0.0720  0.2881 -0.5466
10810SOL     OW43108   5.824   4.519   0.031  0.4232  1.1225  0.4035
10810SOL    HW143109   5.773   4.461  -0.033  1.1182  1.4472 -0.4465
10810SOL    HW243110   5.791   4.502   0.124  1.9111 -2.0116  0.4047
10811SOL     OW43111   4.221   1.334   4.230  0.2805 -0.3458  0.5921
10811SOL    HW143112   4.185   1.280   4.306  0.6403 -1.8893 -0.3176
10811SOL    HW243113   4.267   1.274   4.166 -0.0290  0.9438 -0.8582
10812SOL     OW43114   9.729   9.058   1.377 -0.0106 -0.7245 -0.6065
10812SOL    HW143115   9.741   9.127   1.448 -2.2708 -0.3927 -0.5076
10812SOL    HW243116   9.807   9.061   1.314  0.4198  1.1811 -0.0130
10813SOL     OW43117   1.750   3.809   3.103  0.5681 -0.0296 -0.1770
10813SOL    HW143118   1.754   3.785   3.200 -1.6707  1.3762  0.3214
10813SOL    HW243119   1.656   3.800   3.071  1.1377  0.3568 -1.9907
10814SOL     OW43120   2.828   2.163   3.935  0.2643  0.3712  0.0482
10814SOL    HW143121   2.779   2.250   3.943 -0.5223 -0.1232  0.7082
10814SOL    HW243122   2.866   2.137   4.023  2.4202  1.1337 -0.6281
10815SOL     OW43123   0.959   1.152   0.503  0.1609  0.3061  0.0907
10815SOL    HW143124   0.990   1.221   0.438 -1.1827  1.6637  0.8560
10815SOL    HW243125   1.020   1.073   0.500 -0.5945 -0.1904 -3.7168
10816SOL     OW43126   3.980   9.183   4.453  0.5204 -0.8681  0.2044
10816SOL    HW143127   4.068   9.173   4.406 -0.3567 -2.3635 -1.1549
10816SOL    HW243128   3.997   9.199   4.551  2.2989 -0.5172 -0.1367
10817SOL     OW43129   1.829   6.469   3.436 -0.3832  0.8700  0.4413
10817SOL    HW143130   1.754   6.510   3.488 -0.1413 -0.8417  2.2376
10817SOL    HW243131   1.800   6.452   3.342 -1.8862  1.1846  0.8411
10818SOL     OW43132   3.773   3.733   5.193  0.2796 -0.0380  0.1855
10818SOL    HW143133   3.824   3.648   5.179 -0.4936 -0.6316  0.9070
10818SOL    HW243134   3.823   3.791   5.257  0.5908 -0.1372  0.0362
10819SOL     OW43135   3.901   8.306   2.048  0.2668 -0.3946  0.2665
10819SOL    HW143136   3.968   8.375   2.075  0.1768 -0.1581 -0.1145
10819SOL    HW243137   3.947   8.219   2.034  0.7774  0.1748 -1.7168
10820SOL     OW43138   3.061   0.156   2.716 -0.1816 -0.1839  0.0013
10820SOL    HW143139   3.104   0.240   2.751  2.2035 -1.1130 -0.6009
10820SOL    HW243140   3.130   0.085   2.707 -2.4418 -2.6744  1.7992
10821SOL     OW43141   3.334   6.773   1.684 -0.1125 -0.0538 -0.7239
10821SOL    HW143142   3.236   6.760   1.667 -0.1479 -0.3985 -0.2772
10821SOL    HW243143   3.387   6.725   1.615 -0.2587  1.2502 -1.7686
10822SOL     OW43144   1.838   9.938   1.894  0.3848  0.8357 -0.6327
10822SOL    HW143145   1.767   9.867   1.885  2.0733 -0.6019 -3.5519
10822SOL    HW243146   1.803  10.024   1.856 -0.1502  0.3872 -1.1821
10823SOL     OW43147   2.647   2.566   3.058 -0.4119  0.0905 -0.6819
10823SOL    HW143148   2.701   2.571   3.143 -0.8921  1.8885 -0.4699
10823SOL    HW243149   2.576   2.497   3.069 -0.2272  0.0318  0.2486
10824SOL     OW43150   4.515   8.102   4.238  0.1205  0.0331 -0.2420
10824SOL    HW143151   4.510   8.156   4.323  0.4096 -1.0500  0.4766
10824SOL    HW243152   4.471   8.153   4.164  0.5401  1.3294  0.3811
10825SOL     OW43153   5.267   8.460   2.396 -0.4943 -0.1732  0.5410
10825SOL    HW143154   5.290   8.416   2.310  0.9954 -1.2520  1.4650
10825SOL    HW243155   5.350   8.474   2.450 -1.3596  0.7811  1.6576
10826SOL     OW43156   3.349   9.707   4.996 -0.4515 -0.1745 -0.2782
10826SOL    HW143157   3.444   9.690   4.972 -0.0926  0.1285  0.8942
10826SOL    HW243158   3.303   9.619   5.014 -0.7456 -0.4032 -2.1155
10827SOL     OW43159   0.493   1.039   3.794  0.5390  0.3770  0.3836
10827SOL    HW143160   0.421   1.049   3.863  0.6509  1.6138  0.3254
10827SOL    HW243161   0.450   1.033   3.703  0.4244 -0.6574  0.4982
10828SOL     OW43162   6.696   8.857   2.539 -0.7048 -0.1369 -0.3233
10828SOL    HW143163   6.601   8.867   2.570 -0.5791 -2.1089  0.7407
10828SOL    HW243164   6.697   8.832   2.442 -1.2545  0.2746 -0.4406
10829SOL     OW43165   0.716   3.911   3.411 -0.0645 -0.3068  0.1456
10829SOL    HW143166   0.788   3.978   3.425  0.2648 -0.6971  0.3460
10829SOL    HW243167   0.632   3.942   3.455 -0.7307  1.3348 -2.2236
10830SOL     OW43168   3.024   6.942   4.893 -0.1561  0.1809  0.4017
10830SOL    HW143169   3.002   6.974   4.801  0.5770  0.3237  0.2764
10830SOL    HW243170   3.101   6.994   4.930 -1.8425  1.6668  1.9755
10831SOL     OW43171   3.980   5.598   2.055 -0.1096  0.1362 -0.0069
10831SOL    HW143172   4.029   5.668   2.108  2.6074 -2.4559  1.0573
10831SOL    HW243173   3.915   5.643   1.993  3.2956  3.7674 -1.1968
10832SOL     OW43174   2.275   6.878   0.465  0.0346  0.9359 -0.3969
10832SOL    HW143175   2.364   6.910   0.433  0.2931  1.2283  0.5894
10832SOL    HW243176   2.283   6.784   0.499 -0.2293  0.6428 -1.1238
10833SOL     OW43177   3.126   2.188   3.276  0.5045 -0.5708 -0.1905
10833SOL    HW143178   3.056   2.223   3.213  0.5437 -1.3689 -0.6924
10833SOL    HW243179   3.165   2.104   3.238  0.9158 -0.7594  0.6474
10834SOL     OW43180   0.062   0.839   5.601  0.1274 -0.6254 -0.1437
10834SOL    HW143181   0.057   0.936   5.578  0.1307 -0.4474  0.5895
10834SOL    HW243182   0.013   0.822   5.687 -0.0507 -1.3062 -0.3796
10835SOL     OW43183   2.249   7.704   2.644  0.3488  0.0671 -0.4250
10835SOL    HW143184   2.229   7.767   2.569  1.6924 -0.0019 -0.8604
10835SOL    HW243185   2.346   7.679   2.642  0.4958  0.3716  1.5735
10836SOL     OW43186   8.598   3.299   3.337 -0.7765  0.3999  0.1269
10836SOL    HW143187   8.661   3.222   3.337  0.4726  1.3859 -0.6564
10836SOL    HW243188   8.519   3.278   3.279 -1.5700 -1.1486  1.7588
10837SOL     OW43189   4.218   3.893   5.026  0.5451 -0.3681  0.4083
10837SOL    HW143190   4.180   3.801   5.018  0.9533 -0.8382  3.3600
10837SOL    HW243191   4.165   3.956   4.969  0.1241 -2.3550 -1.4690
10838SOL     OW43192   9.214   9.929   3.597 -0.1149 -1.0043  0.2314
10838SOL    HW143193   9.280   9.854   3.587  0.5819 -0.5037  1.0382
10838SOL    HW243194   9.132   9.908   3.544  0.4475 -1.9132 -0.2923
10839SOL     OW43195   8.471   3.966   2.446 -0.4117  0.0193 -0.3561
10839SOL    HW143196   8.438   3.893   2.386 -0.7789  0.3369 -0.5513
10839SOL    HW243197   8.441   3.949   2.539 -0.0014 -0.3778 -0.2987
10840SOL     OW43198   5.782   8.985   1.325  0.3214  0.3999 -0.6516
10840SOL    HW143199   5.718   8.916   1.358 -0.8266  2.5693  1.8051
10840SOL    HW243200   5.872   8.943   1.311 -0.4837 -1.6823  0.2359
10841SOL     OW43201   1.283   6.909   3.046 -0.0508 -0.2826  0.0425
10841SOL    HW143202   1.194   6.866   3.029 -0.6808  1.3048 -0.8636
10841SOL    HW243203   1.284   7.000   3.004  1.7667 -0.0072  0.6367
10842SOL     OW43204   0.199   7.953   0.797 -0.5058  0.1207  0.2490
10842SOL    HW143205   0.158   7.900   0.723  0.0242  0.0458  0.0113
10842SOL    HW243206   0.288   7.914   0.822 -1.6474 -1.1898  2.4354
10843SOL     OW43207   4.690   2.229   1.249  0.1596 -0.4698 -0.7725
10843SOL    HW143208   4.664   2.298   1.316  2.8914  0.0114 -0.1539
10843SOL    HW243209   4.683   2.268   1.157  2.7013  1.0386 -0.3728
10844SOL     OW43210   4.769   9.375   4.707  0.5762 -0.1676  0.0737
10844SOL    HW143211   4.731   9.396   4.617 -0.2902 -1.5716  0.0922
10844SOL    HW243212   4.818   9.454   4.742 -1.5667  1.3820 -0.3550
10845SOL     OW43213   9.233   1.427   0.732  0.3104  0.0097 -0.0931
10845SOL    HW143214   9.139   1.410   0.702 -0.2061  1.2868  0.7758
10845SOL    HW243215   9.232   1.458   0.827  1.6125  0.1385 -0.1199
10846SOL     OW43216   5.604   9.009   2.360 -0.0365  1.2219  0.7527
10846SOL    HW143217   5.559   8.980   2.275  0.4460  0.4170  0.7704
10846SOL    HW243218   5.703   9.001   2.350 -0.0321 -0.2814  1.8959
10847SOL     OW43219   8.428   0.924   2.090 -0.3852  0.6234  0.4819
10847SOL    HW143220   8.431   1.024   2.094 -0.0136  0.6758 -0.7100
10847SOL    HW243221   8.340   0.891   2.124 -1.0487  1.4420 -0.4258
10848SOL     OW43222   9.813   8.641   4.664 -0.0909  0.0062 -1.0369
10848SOL    HW143223   9.873   8.574   4.621 -0.0108  0.2124 -1.2450
10848SOL    HW243224   9.772   8.601   4.746 -0.0697 -0.3069 -1.1812
10849SOL     OW43225   0.850   0.252   1.346  0.3569  0.6034  0.0774
10849SOL    HW143226   0.907   0.182   1.304  0.9379  0.1698  1.5508
10849SOL    HW243227   0.904   0.304   1.412 -0.7607  0.6879  0.9465
10850SOL     OW43228   9.750   1.709   0.505  0.4158 -0.1141  0.3868
10850SOL    HW143229   9.703   1.627   0.470  0.8477 -0.4481  0.5974
10850SOL    HW243230   9.685   1.785   0.506  0.1207 -0.3470 -0.2020
10851SOL     OW43231   0.335   5.452   2.353  0.1107 -0.2062  0.1417
10851SOL    HW143232   0.433   5.469   2.353 -0.2833  2.4105  2.3499
10851SOL    HW243233   0.293   5.492   2.272  0.7720 -0.8385 -0.5170
10852SOL     OW43234   8.475   3.921   1.823  0.0758  0.8134 -0.1793
10852SOL    HW143235   8.388   3.957   1.857  0.0556  0.5003  0.1020
10852SOL    HW243236   8.464   3.825   1.798  0.6473  0.4300  1.0232
10853SOL     OW43237   9.503   8.102   1.922 -0.2003  0.2493  0.0628
10853SOL    HW143238   9.459   8.148   1.845  0.7498 -0.0684 -0.6846
10853SOL    HW243239   9.451   8.020   1.946 -2.2586  1.9952  1.8123
10854SOL     OW43240   0.968   6.976   2.438  0.1949 -0.2487 -0.3883
10854SOL    HW143241   1.008   6.909   2.500 -0.3889  0.0907  0.3630
10854SOL    HW243242   0.952   7.062   2.487 -1.1635 -0.2809 -0.7517
10855SOL     OW43243   2.463   8.099   3.964  0.0480 -0.1325 -0.2550
10855SOL    HW143244   2.423   8.189   3.985  1.4558  0.6572 -0.8579
10855SOL    HW243245   2.433   8.032   4.032 -1.7154  0.5914 -0.2898
10856SOL     OW43246   6.708   2.127   2.767  0.6291 -0.0631 -0.2438
10856SOL    HW143247   6.676   2.043   2.722 -0.7604 -0.4159  1.3451
10856SOL    HW243248   6.740   2.105   2.859 -1.7236  1.4165  0.9943
10857SOL     OW43249   8.808   2.296   3.467  0.8470 -0.0557 -0.4582
10857SOL    HW143250   8.815   2.248   3.380  0.4753 -0.0120 -0.5112
10857SOL    HW243251   8.791   2.393   3.450 -0.9164 -0.3383 -0.3049
10858SOL     OW43252   9.727   2.388   4.508  0.1724  0.1711  0.0938
10858SOL    HW143253   9.772   2.477   4.496 -0.6258  0.6252  0.4454
10858SOL    HW243254   9.793   2.323   4.545  0.5645  0.8189  0.5549
10859SOL     OW43255   9.845   9.344   3.686 -0.1396 -0.0928  0.6284
10859SOL    HW143256   9.882   9.264   3.734 -0.4792  0.0465  1.1131
10859SOL    HW243257   9.904   9.365   3.607  0.6723 -0.0301  1.2474
10860SOL     OW43258   2.046   7.562   5.343 -0.2459  0.7072 -0.1346
10860SOL    HW143259   1.966   7.595   5.294 -0.8882 -0.2611  0.2441
10860SOL    HW243260   2.037   7.582   5.441  0.1559  0.9603 -0.1501
10861SOL     OW43261   1.925   6.687   0.639 -0.6858 -0.1013  0.3120
10861SOL    HW143262   1.879   6.683   0.551 -0.1235 -0.7465  0.0445
10861SOL    HW243263   1.901   6.773   0.685 -1.6915 -0.1646 -0.0709
10862SOL     OW43264   0.460   6.201   2.412  0.0497  0.0166  0.2720
10862SOL    HW143265   0.422   6.140   2.481 -2.9469  1.8996  0.3612
10862SOL    HW243266   0.402   6.282   2.403  1.9848  1.1847 -2.3833
10863SOL     OW43267   1.635   6.292   1.236  0.0233  0.1270 -0.0462
10863SOL    HW143268   1.572   6.231   1.285 -0.3624  0.6666  0.1281
10863SOL    HW243269   1.673   6.243   1.158 -0.4659 -0.2653 -0.0449
10864SOL     OW43270   0.953   7.727   3.794 -0.5066  0.4233  0.5664
10864SOL    HW143271   0.980   7.805   3.738 -0.3474  0.6312  0.9386
10864SOL    HW243272   0.868   7.688   3.758 -1.8171  2.1502  1.7302
10865SOL     OW43273   3.559   1.423   1.040 -0.2919 -0.0159 -0.3168
10865SOL    HW143274   3.549   1.324   1.053  0.6286 -0.2154 -1.0816
10865SOL    HW243275   3.523   1.470   1.120 -1.1339 -0.9520 -0.1254
10866SOL     OW43276   0.037   9.629   0.850 -0.5209 -0.0300 -0.5927
10866SOL    HW143277   0.033   9.691   0.771  1.0574  0.3843 -0.3702
10866SOL    HW243278  -0.049   9.579   0.858 -0.8856  0.2981 -2.2798
10867SOL     OW43279   0.007   0.627   4.340 -0.1843 -0.1640  0.4850
10867SOL    HW143280   0.023   0.534   4.307  3.2869  0.2732  0.7468
10867SOL    HW243281   0.029   0.631   4.438  2.4518  1.5057 -0.1154
10868SOL     OW43282   1.234   2.862   0.563  0.4849  0.0194  0.0640
10868SOL    HW143283   1.318   2.817   0.531  1.3891  0.9286  1.1092
10868SOL    HW243284   1.157   2.834   0.506  0.9679 -3.0713  0.8259
10869SOL     OW43285   4.821   8.870   1.426 -0.6363  0.2411 -0.7548
10869SOL    HW143286   4.772   8.955   1.441  0.4445  0.8923 -0.8126
10869SOL    HW243287   4.919   8.889   1.420 -0.2584 -1.1722  0.6116
10870SOL     OW43288   3.346   3.628   2.454  0.0349  0.5116  0.0034
10870SOL    HW143289   3.392   3.584   2.377  0.5310  0.4084  0.3509
10870SOL    HW243290   3.276   3.691   2.420  0.3743  0.6028 -0.5383
10871SOL     OW43291   3.611   1.144   3.293 -0.4985 -0.3836  0.2439
10871SOL    HW143292   3.636   1.092   3.374  4.1437 -0.0361 -0.7814
10871SOL    HW243293   3.651   1.100   3.212 -0.1372  2.3661 -1.1328
10872SOL     OW43294   2.184   2.010   4.948 -0.4498 -0.3912  0.1691
10872SOL    HW143295   2.111   2.046   5.005  2.0080  4.1649  0.7522
10872SOL    HW243296   2.272   2.043   4.982  1.4964 -1.8141 -3.1983
10873SOL     OW43297   9.866   3.512   3.556  0.0935 -0.1999  0.5916
10873SOL    HW143298   9.939   3.453   3.523 -0.7631 -1.7146  1.3670
10873SOL    HW243299   9.870   3.599   3.507  1.7586 -0.6420 -0.1198
10874SOL     OW43300   2.605   3.242   2.729 -0.0613 -0.1443 -0.0338
10874SOL    HW143301   2.561   3.233   2.640  2.0200  1.3266 -1.2746
10874SOL    HW243302   2.703   3.260   2.715  0.8358 -2.7571  2.5955
10875SOL     OW43303   1.440   9.162   4.147 -0.1884  0.1308  0.1094
10875SOL    HW143304   1.487   9.247   4.127  1.0912 -0.4080  0.7860
10875SOL    HW243305   1.376   9.141   4.072 -0.5023  1.6607 -0.0574
10876SOL     OW43306   4.096   9.995   5.500  0.0557  0.0449 -0.4136
10876SOL    HW143307   4.172  10.055   5.523 -0.3817  0.7651 -0.8395
10876SOL    HW243308   4.124   9.931   5.429 -0.0135  0.9309 -1.2515
10877SOL     OW43309   4.348   5.381   1.821 -0.6585 -0.0459  0.3525
10877SOL    HW143310   4.447   5.365   1.821 -0.7647 -0.6963  1.5084
10877SOL    HW243311   4.305   5.322   1.753 -0.1084  1.2089 -1.1199
10878SOL     OW43312   0.070   1.337   0.926 -0.4305 -0.0804  0.3638
10878SOL    HW143313   0.160   1.295   0.937 -0.1517  0.7927  1.5992
10878SOL    HW243314   0.028   1.305   0.841  0.4777 -1.5190  0.4409
10879SOL     OW43315   7.776   5.611   2.823 -0.3679 -0.1198  0.4665
10879SOL    HW143316   7.868   5.651   2.823 -1.3767  2.2792  0.6898
10879SOL    HW243317   7.709   5.683   2.841 -2.4760 -1.3943 -2.0099
10880SOL     OW43318   4.250   3.758   2.456 -0.0573  0.0571 -0.2265
10880SOL    HW143319   4.309   3.834   2.431  1.3033 -1.5559 -2.0861
10880SOL    HW243320   4.177   3.749   2.388 -1.4117  0.9130  1.0793
10881SOL     OW43321   0.467   6.023   3.046  0.4530  0.5669 -0.0967
10881SOL    HW143322   0.547   5.964   3.055 -0.1507 -0.3082 -0.4806
10881SOL    HW243323   0.388   5.969   3.018 -0.9697  0.8941  3.0788
10882SOL     OW43324   1.722   2.463   3.068 -0.2222  0.0046 -0.5021
10882SOL    HW143325   1.769   2.491   3.152  0.7779  0.7142 -1.2848
10882SOL    HW243326   1.788   2.422   3.005 -0.9404 -0.3806 -1.0067
10883SOL     OW43327   5.032   9.633   4.240 -0.2721  0.4549  0.3340
10883SOL    HW143328   5.127   9.601   4.245 -0.8105 -1.1511  0.5349
10883SOL    HW243329   4.997   9.619   4.148 -0.4396  0.7127  0.3578
10884SOL     OW43330   0.292   4.391   3.134 -0.4685 -0.0554  0.1355
10884SOL    HW143331   0.200   4.413   3.168 -0.4199 -0.1221  0.3092
10884SOL    HW243332   0.285   4.327   3.058 -0.5410 -0.4353  0.4578
10885SOL     OW43333   4.219   7.065   1.958 -0.3881 -0.0865  0.2438
10885SOL    HW143334   4.315   7.074   1.983 -0.5424  0.2326  0.7279
10885SOL    HW243335   4.189   7.148   1.911  0.5517 -1.6506 -3.2122
10886SOL     OW43336   5.821   9.269   1.299  0.4074  0.0804 -0.8095
10886SOL    HW143337   5.902   9.300   1.249  1.5205  0.4138  1.1360
10886SOL    HW243338   5.823   9.170   1.308 -0.3123 -0.0781 -2.2631
10887SOL     OW43339   7.696   6.576   3.556  0.2341  0.3380  0.0553
10887SOL    HW143340   7.665   6.482   3.567 -1.1945  0.6887 -0.9091
10887SOL    HW243341   7.635   6.638   3.606  1.3831  0.7261  1.0010
10888SOL     OW43342   2.119   4.931   2.019  0.1143  0.4660  0.7083
10888SOL    HW143343   2.099   4.993   2.095 -0.2178 -0.4210  1.3558
10888SOL    HW243344   2.192   4.970   1.963  2.1271 -0.0090  2.9014
10889SOL     OW43345   7.263   1.388   1.575 -0.1013 -0.0894  0.5317
10889SOL    HW143346   7.200   1.418   1.647 -0.0996 -0.3412  0.6398
10889SOL    HW243347   7.211   1.345   1.501  0.0269 -1.1265  1.0453
10890SOL     OW43348   4.326   5.581   1.419 -0.0074 -0.2489 -0.3043
10890SOL    HW143349   4.277   5.598   1.505 -2.2312  0.7342 -1.7058
10890SOL    HW243350   4.414   5.626   1.421  0.6429 -1.5522  2.0680
10891SOL     OW43351   3.866   8.944   1.326  0.0833 -0.5062  0.6374
10891SOL    HW143352   3.929   9.012   1.362 -1.8120  1.7955 -0.2626
10891SOL    HW243353   3.779   8.950   1.374 -0.5245 -1.4093 -0.3180
10892SOL     OW43354   1.322   0.585   2.787  0.2799 -0.4348  0.3058
10892SOL    HW143355   1.296   0.488   2.787 -0.6002 -0.2409 -2.5120
10892SOL    HW243356   1.362   0.609   2.698  2.4857  1.3056  1.7090
10893SOL     OW43357   1.262   2.847   5.000 -0.0956  0.0317  0.7736
10893SOL    HW143358   1.244   2.791   4.919  2.1180 -0.9462  0.9134
10893SOL    HW243359   1.181   2.850   5.058 -1.3711 -0.1110 -0.9688
10894SOL     OW43360   8.634   0.520   2.512  0.4917  0.0396  0.5700
10894SOL    HW143361   8.727   0.515   2.548 -0.4693 -0.9070  3.0579
10894SOL    HW243362   8.626   0.463   2.430  1.9844 -0.1988  0.5798
10895SOL     OW43363   0.090   1.827   3.429 -0.2368  0.1715  0.6186
10895SOL    HW143364   0.091   1.927   3.425 -0.3833  0.2764  2.7429
10895SOL    HW243365   0.003   1.797   3.469 -0.4180 -0.8373 -0.5104
10896SOL     OW43366   9.964   5.062   1.539  0.5053  0.5343 -0.1213
10896SOL    HW143367   9.961   5.053   1.439  2.5506  0.5668 -0.2164
10896SOL    HW243368   9.872   5.077   1.574 -0.0883  1.8294 -2.1446
10897SOL     OW43369   1.995   3.962   2.325  0.4114 -0.4144  0.1014
10897SOL    HW143370   2.011   4.035   2.259 -2.0930  2.4826  2.5463
10897SOL    HW243371   1.904   3.923   2.309  0.5625 -0.9806  0.6312
10898SOL     OW43372   9.072   2.341   4.669  0.0947 -0.1779 -0.0920
10898SOL    HW143373   9.050   2.436   4.647 -0.2059 -0.5042 -1.2565
10898SOL    HW243374   9.061   2.325   4.767 -0.8943  0.7152 -0.0576
10899SOL     OW43375   4.130   4.441   0.494  0.4005  0.4633 -0.8796
10899SOL    HW143376   4.168   4.426   0.585  0.3891 -0.8768 -1.0937
10899SOL    HW243377   4.197   4.490   0.437  1.1442 -0.3870 -0.7360
10900SOL     OW43378   4.235   0.316   1.430  0.6165 -0.0815  0.5959
10900SOL    HW143379   4.256   0.410   1.455  0.6806  0.1266 -0.2227
10900SOL    HW243380   4.136   0.301   1.437  0.6695 -0.1329  1.3057
10901SOL     OW43381   0.247   8.394   0.122  0.6025  0.1507  0.5089
10901SOL    HW143382   0.337   8.364   0.092 -0.3628 -1.0404 -1.2757
10901SOL    HW243383   0.236   8.491   0.101  0.9307 -0.0486 -0.6306
10902SOL     OW43384   4.574   1.117   4.305  0.3126  0.2456 -0.2904
10902SOL    HW143385   4.603   1.210   4.285  0.3367  0.1085 -0.9049
10902SOL    HW243386   4.494   1.119   4.364  1.5717  0.6299  1.4602
10903SOL     OW43387   2.207   1.324   3.501  0.4693  0.2170  0.3298
10903SOL    HW143388   2.257   1.256   3.554  1.9573  1.0172 -0.0342
10903SOL    HW243389   2.258   1.410   3.499  0.4166  0.2287 -2.3308
10904SOL     OW43390   6.832   9.619   4.632  0.4969 -0.0622 -0.4968
10904SOL    HW143391   6.885   9.582   4.555  1.8874 -2.0398  1.3452
10904SOL    HW243392   6.894   9.648   4.705 -0.8325  0.9296  0.2645
10905SOL     OW43393   9.467   3.523   2.488 -0.0768  0.6553  0.1139
10905SOL    HW143394   9.401   3.589   2.453 -0.7712 -1.0665 -1.9710
10905SOL    HW243395   9.419   3.450   2.536  0.4702  0.4272  0.3203
10906SOL     OW43396   3.645   7.656   2.884  0.2136 -0.0907  0.3248
10906SOL    HW143397   3.661   7.565   2.920 -0.3880  0.0597  0.9816
10906SOL    HW243398   3.549   7.664   2.854  0.7316 -0.2551 -1.4233
10907SOL     OW43399   4.679   0.120   3.382  0.0528  0.0994  0.0376
10907SOL    HW143400   4.717   0.193   3.324 -0.1284 -0.0032 -0.2100
10907SOL    HW243401   4.618   0.160   3.450 -1.2591  0.0313 -1.0803
10908SOL     OW43402   8.619   0.460   4.701 -0.3058 -0.4046 -0.3000
10908SOL    HW143403   8.646   0.366   4.679  0.3089  0.0605 -1.6228
10908SOL    HW243404   8.697   0.507   4.743 -0.6269 -0.5031  0.4005
10909SOL     OW43405   1.870   0.981   4.362 -0.5623 -0.3124 -0.4356
10909SOL    HW143406   1.902   0.923   4.436  0.4709  0.6915 -0.0672
10909SOL    HW243407   1.799   1.043   4.396  2.1099  2.3525  0.6080
10910SOL     OW43408   3.632   4.494   1.297 -0.1093  0.2874  0.1074
10910SOL    HW143409   3.618   4.584   1.256 -0.9384 -0.0844 -0.4583
10910SOL    HW243410   3.549   4.439   1.284  0.5264 -0.6838  0.1185
10911SOL     OW43411   8.482   1.434   1.243 -0.4784 -0.0418  0.4001
10911SOL    HW143412   8.558   1.413   1.182 -1.2876  0.4585 -0.7972
10911SOL    HW243413   8.496   1.389   1.331  0.8925 -0.4498 -0.0228
10912SOL     OW43414   1.079   7.178   2.244  0.5088 -0.3579  0.0802
10912SOL    HW143415   1.049   7.105   2.305  0.7821  0.4984  1.2686
10912SOL    HW243416   1.165   7.217   2.278  0.3344  0.5574 -0.4889
10913SOL     OW43417   4.460   2.271   1.841 -0.4290 -0.1996  0.3722
10913SOL    HW143418   4.474   2.334   1.917  0.7064 -0.3739  0.3163
10913SOL    HW243419   4.546   2.260   1.790 -1.3672  0.5825 -1.4405
10914SOL     OW43420   8.918   0.219   5.190  0.2919 -0.6357  0.2693
10914SOL    HW143421   8.852   0.199   5.118  0.1986  0.2813  0.0944
10914SOL    HW243422   9.002   0.255   5.149  0.3232 -0.3283  0.6005
10915SOL     OW43423   3.741   3.010   3.265  0.1869  0.0451 -0.0286
10915SOL    HW143424   3.741   3.079   3.338 -2.0586  1.0375 -0.9086
10915SOL    HW243425   3.823   3.021   3.209 -0.1737  2.0863 -0.2049
10916SOL     OW43426   1.053   2.657   5.264  0.0606  0.0152 -0.0578
10916SOL    HW143427   1.152   2.659   5.272  0.3226 -1.1108 -2.7502
10916SOL    HW243428   1.022   2.562   5.261 -1.2426  0.3329  1.9764
10917SOL     OW43429   8.017   1.870   1.799 -0.2882 -0.0955 -0.4067
10917SOL    HW143430   8.006   1.789   1.741  1.3908  0.0743 -0.9868
10917SOL    HW243431   7.940   1.932   1.784 -0.3231 -0.4587 -1.8191
10918SOL     OW43432   9.057   6.258   1.852  0.1719 -0.0368 -0.0447
10918SOL    HW143433   9.119   6.229   1.779  0.7479  1.7358 -0.2744
10918SOL    HW243434   8.964   6.265   1.816  0.3844  0.4264 -0.4908
10919SOL     OW43435   1.016   6.828   2.202 -0.0824 -0.1113  0.3342
10919SOL    HW143436   0.997   6.890   2.279 -1.6746  1.0102 -0.9226
10919SOL    HW243437   0.993   6.734   2.229  0.4580  0.1049  1.5999
10920SOL     OW43438   2.093   8.341   4.467 -0.5241 -0.7500 -0.2803
10920SOL    HW143439   2.074   8.418   4.528 -1.8964 -0.5374 -0.9534
10920SOL    HW243440   2.082   8.255   4.518 -0.7708 -0.5499  0.0046
10921SOL     OW43441   8.972   8.043   1.171  0.0763  0.0137 -0.2112
10921SOL    HW143442   9.056   8.021   1.122 -0.4188  0.7651 -1.4238
10921SOL    HW243443   8.981   8.132   1.216 -0.1385  0.1958 -0.5239
10922SOL     OW43444   4.678   7.828   2.253  0.4215 -0.0103 -0.3067
10922SOL    HW143445   4.628   7.888   2.316  1.9053  1.2843 -0.3135
10922SOL    HW243446   4.627   7.820   2.168 -1.2542 -1.2069  0.7759
10923SOL     OW43447   0.415   0.952   4.463 -0.5216  0.3180 -0.2618
10923SOL    HW143448   0.330   0.959   4.411  1.3961 -2.0722 -3.9685
10923SOL    HW243449   0.418   0.864   4.509  0.0911  0.2285 -0.4685
10924SOL     OW43450   9.726   0.784   3.936  0.1764 -0.1871 -0.0742
10924SOL    HW143451   9.798   0.838   3.892 -1.8648  1.1976 -1.8135
10924SOL    HW243452   9.705   0.822   4.026  1.3398 -0.3919  0.2989
10925SOL     OW43453   4.351   5.865   1.018 -0.0257  0.1038 -0.3531
10925SOL    HW143454   4.442   5.898   1.042 -0.1831  0.1193  0.2150
10925SOL    HW243455   4.358   5.772   0.980  0.2325  0.1338 -0.3782
10926SOL     OW43456   0.386   4.279   1.859  0.5785  0.0689 -0.0127
10926SOL    HW143457   0.330   4.291   1.941  2.3789  0.7848  1.1611
10926SOL    HW243458   0.419   4.185   1.854  1.1809  0.2429  0.5773
10927SOL     OW43459   0.469   2.899   1.980  0.0693  1.2947  0.1472
10927SOL    HW143460   0.453   2.878   1.883 -1.7832  0.9380  0.5107
10927SOL    HW243461   0.469   2.998   1.993 -0.2049  1.3304 -0.1312
10928SOL     OW43462   4.895   8.673   5.591 -0.2496  0.2356 -0.2096
10928SOL    HW143463   4.916   8.680   5.689 -0.9454  3.1541 -0.2131
10928SOL    HW243464   4.969   8.625   5.545  1.1679  0.7735  1.4427
10929SOL     OW43465   1.486   2.403   2.913 -0.0283  0.3017  0.9534
10929SOL    HW143466   1.554   2.427   2.983  1.5761  1.6778 -1.0037
10929SOL    HW243467   1.532   2.361   2.836 -1.9029 -2.0352  1.0726
10930SOL     OW43468   8.953   7.722   3.025  0.1530 -0.1935  0.4542
10930SOL    HW143469   8.892   7.671   3.086 -0.0639  1.2933  1.5458
10930SOL    HW243470   9.045   7.686   3.033 -0.3756 -1.7629 -0.3868
10931SOL     OW43471   3.177   1.446   0.125  0.0544 -0.4979  0.2103
10931SOL    HW143472   3.270   1.409   0.129 -0.1122 -0.9040  0.3774
10931SOL    HW243473   3.118   1.383   0.073 -0.5723 -1.1978  1.7400
10932SOL     OW43474   3.874   1.917   3.777  0.4500  0.1772  0.0514
10932SOL    HW143475   3.970   1.940   3.761  0.1243  1.1892 -0.5019
10932SOL    HW243476   3.832   1.886   3.692  0.0605  0.5821  0.0927
10933SOL     OW43477   1.034   6.972   4.530  0.1362  1.0824  0.8543
10933SOL    HW143478   1.046   7.059   4.578  1.9491  0.1871  2.0679
10933SOL    HW243479   0.955   6.924   4.568 -1.5157  2.5972 -0.5051
10934SOL     OW43480   2.659   0.503   1.414  0.6419  0.2610 -0.2035
10934SOL    HW143481   2.678   0.513   1.317  0.4417 -1.0997 -0.3954
10934SOL    HW243482   2.566   0.466   1.427 -0.5859  3.5058  0.6102
10935SOL     OW43483   1.146   8.523   3.259 -0.0642 -0.3228  0.6070
10935SOL    HW143484   1.111   8.458   3.326 -0.6581 -2.2407 -1.4799
10935SOL    HW243485   1.206   8.475   3.194  0.2871  1.4184 -0.3882
10936SOL     OW43486   2.726   3.063   0.283  0.3122  0.0494 -0.0894
10936SOL    HW143487   2.792   3.096   0.351  1.4262 -0.8198 -0.7473
10936SOL    HW243488   2.753   3.094   0.192  0.8475 -1.8376 -0.5988
10937SOL     OW43489   7.919   1.280   4.751  0.1300  0.2411  0.6159
10937SOL    HW143490   7.986   1.319   4.687 -0.1908  0.6333  0.5193
10937SOL    HW243491   7.964   1.262   4.839  0.4919  0.0040  0.3849
10938SOL     OW43492   0.348   7.645   1.706 -0.3898 -0.2725 -0.1307
10938SOL    HW143493   0.336   7.545   1.710  2.2119 -0.5757  1.3088
10938SOL    HW243494   0.304   7.687   1.785  0.5744 -0.5433  0.5638
10939SOL     OW43495   5.740   7.753   3.531  0.5953 -0.1700  0.6726
10939SOL    HW143496   5.821   7.694   3.538 -0.0534 -1.1986 -0.1889
10939SOL    HW243497   5.727   7.780   3.436 -1.3840 -1.9273  0.4178
10940SOL     OW43498   1.679   1.452   1.069  0.1022  0.2731 -0.1961
10940SOL    HW143499   1.642   1.468   0.978  1.4106 -0.3106 -0.8353
10940SOL    HW243500   1.660   1.532   1.127 -0.6510  0.6767 -0.9944
10941SOL     OW43501   4.232   1.765   1.667 -0.1972 -0.1368  0.1727
10941SOL    HW143502   4.145   1.744   1.621  0.1243  0.6893 -0.8274
10941SOL    HW243503   4.243   1.864   1.675  0.3220 -0.2525  0.9515
10942SOL     OW43504   2.785   9.668   4.301  0.0420 -0.5509 -1.2035
10942SOL    HW143505   2.778   9.636   4.396 -2.8713  2.0906 -0.4428
10942SOL    HW243506   2.881   9.684   4.279  0.7262 -0.6838  1.4864
10943SOL     OW43507   3.794   1.770   1.367 -0.0381 -0.0352 -0.1407
10943SOL    HW143508   3.796   1.849   1.305  0.0631  0.5144  0.5629
10943SOL    HW243509   3.732   1.788   1.443  0.9044 -0.1394  0.6742
10944SOL     OW43510   0.074   8.465   4.045 -0.1010  0.2615 -0.1635
10944SOL    HW143511   0.033   8.421   4.125 -0.1213 -2.4783 -1.6365
10944SOL    HW243512   0.003   8.517   3.997 -0.8259 -0.7259 -0.1826
10945SOL     OW43513   2.311   5.016   1.321  0.0357  0.4665  0.3473
10945SOL    HW143514   2.313   5.065   1.408  0.2308  0.9611  0.0668
10945SOL    HW243515   2.366   4.933   1.328 -0.0867  0.4167  0.7465
10946SOL     OW43516   7.027   0.048   5.256 -0.2216  0.2690  0.1960
10946SOL    HW143517   6.952   0.112   5.275 -1.5547 -1.4677  0.9827
10946SOL    HW243518   7.040   0.042   5.157 -1.3296  0.3945  0.0248
10947SOL     OW43519   0.515   0.621   3.622 -0.0967 -0.0679  0.0556
10947SOL    HW143520   0.515   0.523   3.606  1.7513 -0.3709  1.7667
10947SOL    HW243521   0.421   0.652   3.638 -0.6242 -1.6503  0.0486
10948SOL     OW43522   7.042   9.666   4.797 -0.1601 -0.5348  0.1413
10948SOL    HW143523   7.098   9.720   4.734 -0.3096 -1.0919 -0.4708
10948SOL    HW243524   7.098   9.591   4.834 -0.2249 -0.5151  0.2809
10949SOL     OW43525   3.161   3.950   2.738  0.0583  0.2974  0.6725
10949SOL    HW143526   3.198   4.008   2.810  0.6164 -0.2568  0.8369
10949SOL    HW243527   3.226   3.946   2.662 -0.5203  0.8715  0.1357
10950SOL     OW43528   1.432   2.517   0.316 -0.5062 -0.0951  0.5005
10950SOL    HW143529   1.349   2.486   0.362  0.1505  0.4521  2.0490
10950SOL    HW243530   1.407   2.573   0.237 -1.6548 -2.1813 -0.6722
10951SOL     OW43531   9.742   5.680   1.840  0.2033 -0.5361  0.1071
10951SOL    HW143532   9.652   5.639   1.857  0.6493 -1.8730 -0.6967
10951SOL    HW243533   9.799   5.670   1.921 -0.9704  1.9936  1.3063
10952SOL     OW43534   8.510   8.297   2.912  0.3409  0.4917  0.4081
10952SOL    HW143535   8.532   8.390   2.883 -0.4201  1.2793  2.2279
10952SOL    HW243536   8.458   8.250   2.840  1.0177  1.3593 -0.6473
10953SOL     OW43537   0.880   7.806   1.441  0.2473 -0.1893  0.0397
10953SOL    HW143538   0.828   7.875   1.391 -0.8114  0.4915  2.0303
10953SOL    HW243539   0.816   7.744   1.488  1.2320 -0.3716  1.1446
10954SOL     OW43540   7.780   9.927   3.298  0.0283  0.2299  0.2445
10954SOL    HW143541   7.843   9.850   3.309  0.3674  0.2461 -1.3549
10954SOL    HW243542   7.830  10.013   3.310  0.3549  0.2446 -1.0677
10955SOL     OW43543   4.080   7.894   4.806 -0.0440  0.3470  0.0559
10955SOL    HW143544   4.132   7.978   4.824  1.0979 -0.4040  0.2898
10955SOL    HW243545   3.985   7.918   4.787  0.5342  1.8011 -1.1065
10956SOL     OW43546   8.575   8.694   5.016  0.8975  0.2042  0.1660
10956SOL    HW143547   8.559   8.683   5.115 -1.2229  1.8436  0.0304
10956SOL    HW243548   8.651   8.634   4.988  0.1801 -1.8260  2.3894
10957SOL     OW43549   2.516   8.942   4.962 -0.1199 -0.0877 -0.0303
10957SOL    HW143550   2.580   8.997   5.015 -0.9289  0.5309  0.3071
10957SOL    HW243551   2.520   8.846   4.992  0.0522  0.1021  0.5384
10958SOL     OW43552   0.094   2.229   3.100  0.6106 -0.4047 -0.2504
10958SOL    HW143553   0.182   2.245   3.054 -0.9862  0.7550 -3.0330
10958SOL    HW243554   0.042   2.161   3.048 -1.4637  1.3179 -0.4572
10959SOL     OW43555   4.407   9.482   1.719 -0.0808  0.6108 -0.8535
10959SOL    HW143556   4.478   9.479   1.790 -2.5386  2.5932  1.7496
10959SOL    HW243557   4.445   9.524   1.637  2.1713  0.3610  0.0093
10960SOL     OW43558   2.058   9.711   0.926  0.6117  0.1105  0.3634
10960SOL    HW143559   2.019   9.722   1.018 -2.3769  2.7450 -1.0819
10960SOL    HW243560   2.034   9.621   0.890 -0.4297  0.0267  1.2246
10961SOL     OW43561   9.458   9.701   5.271 -0.5133  0.4849  0.0921
10961SOL    HW143562   9.431   9.732   5.362  0.8864  1.7001  0.1085
10961SOL    HW243563   9.468   9.780   5.211  0.6647 -0.1457 -0.5458
10962SOL     OW43564   4.668   4.303   1.966  0.0458  0.3933  0.7435
10962SOL    HW143565   4.587   4.353   1.935  1.1154  1.6651 -0.0586
10962SOL    HW243566   4.718   4.270   1.886 -0.4485 -1.6644  1.2653
10963SOL     OW43567   3.464   8.438   4.308 -0.5012 -0.3317  0.9796
10963SOL    HW143568   3.432   8.367   4.245 -0.8856  0.2130  0.5592
10963SOL    HW243569   3.494   8.395   4.394  2.8234 -1.3494 -0.6286
10964SOL     OW43570   2.184   6.480   4.565 -0.2574 -0.1081  0.5327
10964SOL    HW143571   2.115   6.445   4.501  0.1856 -0.3464  0.1852
10964SOL    HW243572   2.256   6.412   4.576  0.8728  0.8880 -0.5261
10965SOL     OW43573   4.378   9.614   4.989  0.0180  0.5372 -0.3809
10965SOL    HW143574   4.423   9.546   4.932  0.3554  2.6453 -2.7354
10965SOL    HW243575   4.336   9.570   5.068  1.6710 -2.1382 -0.9498
10966SOL     OW43576   4.233   0.542   5.514  0.0492  0.4218 -0.4425
10966SOL    HW143577   4.261   0.580   5.426 -1.3659  1.4054 -0.4714
10966SOL    HW243578   4.139   0.568   5.534  0.7077  1.1066  1.8858
10967SOL     OW43579   1.108   1.712   1.754  0.3844 -0.1204 -0.0340
10967SOL    HW143580   1.044   1.636   1.739 -1.3399  0.9526  1.6363
10967SOL    HW243581   1.140   1.709   1.849 -0.1763  1.5757  0.2190
10968SOL     OW43582   1.403   9.827   5.128  0.2025 -0.2680  0.1043
10968SOL    HW143583   1.388   9.749   5.067  0.3075 -0.9500  0.9356
10968SOL    HW243584   1.371   9.804   5.219 -2.0829  1.5627 -0.1883
10969SOL     OW43585   9.316   0.165   4.879 -0.3798  0.1826  0.1403
10969SOL    HW143586   9.287   0.104   4.953 -1.7818  1.2468  0.4807
10969SOL    HW243587   9.264   0.250   4.884  2.1170  1.7615  0.1738
10970SOL     OW43588   4.097   1.706   5.074  0.7100 -0.4121  0.2016
10970SOL    HW143589   4.119   1.681   5.169 -2.1559 -1.3183  0.6845
10970SOL    HW243590   4.051   1.795   5.073 -0.9542 -1.2610 -0.1186
10971SOL     OW43591   1.711   6.879   4.902 -0.1635  0.6775  0.8066
10971SOL    HW143592   1.802   6.871   4.943  1.0016  0.3786 -1.7824
10971SOL    HW243593   1.713   6.948   4.830 -2.3647  1.6670  1.6319
10972SOL     OW43594   3.003   8.592   1.921  0.0368 -0.3424 -0.4508
10972SOL    HW143595   2.936   8.615   1.992  0.7210  1.9442 -0.4938
10972SOL    HW243596   3.039   8.500   1.938 -1.8167 -0.9035  0.5791
10973SOL     OW43597   1.195   8.383   5.301 -0.0303  0.5784 -0.4472
10973SOL    HW143598   1.187   8.475   5.263  1.0040  1.2931  1.0236
10973SOL    HW243599   1.106   8.354   5.336 -0.1200  1.4492  0.0548
10974SOL     OW43600   3.289   5.419   2.887  0.1392 -0.6140  0.8470
10974SOL    HW143601   3.224   5.347   2.866 -0.5727  0.0802  0.6328
10974SOL    HW243602   3.247   5.508   2.870  2.2631 -0.1981 -2.6648
10975SOL     OW43603   0.311   6.478   2.840  0.7353  0.1457 -0.4521
10975SOL    HW143604   0.333   6.402   2.901 -0.4870  0.6793  0.6764
10975SOL    HW243605   0.367   6.472   2.758  1.3734 -1.4009  0.0796
10976SOL     OW43606   6.502   8.593   4.122 -0.2787  0.3487 -0.7392
10976SOL    HW143607   6.484   8.660   4.050 -1.3577  1.2102  0.3105
10976SOL    HW243608   6.446   8.614   4.202  0.2380 -1.1281  0.0333
10977SOL     OW43609   7.705   0.636   3.607 -0.1648 -0.4608  0.2125
10977SOL    HW143610   7.786   0.681   3.570 -0.9926 -0.6440 -1.8959
10977SOL    HW243611   7.731   0.547   3.646  0.9940  0.5121  1.7128
10978SOL     OW43612   4.004   8.060   1.993 -0.2832 -0.2400 -0.3312
10978SOL    HW143613   3.944   7.992   1.951  0.6531 -1.0831 -0.2933
10978SOL    HW243614   4.075   8.088   1.929 -1.7838  2.1345 -1.0310
10979SOL     OW43615   1.496   8.358   0.621 -0.1274 -0.2209  0.3514
10979SOL    HW143616   1.428   8.304   0.671 -0.5063 -1.9363 -1.9162
10979SOL    HW243617   1.453   8.441   0.586 -0.7146 -0.6429  0.0652
10980SOL     OW43618   7.888   3.256   0.811 -0.0119 -0.6617 -0.0468
10980SOL    HW143619   7.807   3.254   0.753 -1.0885  1.3119  1.3474
10980SOL    HW243620   7.876   3.195   0.889 -0.0257 -0.5962  0.0022
10981SOL     OW43621   3.529   6.455   4.443  0.0314 -0.3200 -0.5041
10981SOL    HW143622   3.469   6.386   4.404  0.0253 -1.3971  1.3225
10981SOL    HW243623   3.474   6.533   4.474 -0.4910 -1.3664  1.3012
10982SOL     OW43624   5.320   7.345   1.831 -0.1139  0.0140 -0.2354
10982SOL    HW143625   5.234   7.338   1.881  0.0752 -1.3257 -0.0788
10982SOL    HW243626   5.315   7.420   1.766 -1.1329  0.4114  0.2923
10983SOL     OW43627   7.873   2.500   1.097  0.1317 -0.8024 -0.1232
10983SOL    HW143628   7.806   2.464   1.162 -0.8224  1.9248  0.4828
10983SOL    HW243629   7.907   2.588   1.130  0.8024 -0.1139 -2.5623
10984SOL     OW43630   1.726   4.831   0.590  0.3561  0.2431 -0.2478
10984SOL    HW143631   1.813   4.830   0.541  0.8980 -0.2448  0.7059
10984SOL    HW243632   1.677   4.746   0.572 -0.6884  1.2325 -2.1238
10985SOL     OW43633   4.980   8.540   2.406  0.5969  0.2228 -0.4989
10985SOL    HW143634   4.930   8.498   2.481 -1.0407 -0.2231 -1.8223
10985SOL    HW243635   5.072   8.501   2.402  1.2027  1.2576  2.1303
10986SOL     OW43636   8.980   9.462   1.583 -0.6900  0.1754 -0.0126
10986SOL    HW143637   8.961   9.431   1.490 -0.1055 -0.8953  0.2192
10986SOL    HW243638   8.925   9.543   1.603  1.0197  1.9816 -2.1770
10987SOL     OW43639   0.512   4.164   2.190  0.3295  0.3230  0.3108
10987SOL    HW143640   0.540   4.145   2.096  0.6103  0.1953  0.4189
10987SOL    HW243641   0.588   4.145   2.252 -0.9000 -2.9864  0.9147
10988SOL     OW43642   3.282   7.978   4.434 -0.0392  0.0338 -0.3712
10988SOL    HW143643   3.214   7.959   4.505  1.1489 -1.1224  0.4999
10988SOL    HW243644   3.329   7.893   4.410  3.4044  1.3066  1.5177
10989SOL     OW43645   2.965   0.966   1.586  0.1076  0.1356  0.3967
10989SOL    HW143646   2.940   0.869   1.590 -1.2572  0.3289 -2.1315
10989SOL    HW243647   3.028   0.988   1.661 -0.8835 -2.3004  2.0142
10990SOL     OW43648   1.525   3.473   5.139 -0.1406  0.5948  0.0604
10990SOL    HW143649   1.539   3.393   5.197 -0.4518 -0.2065 -0.9621
10990SOL    HW243650   1.430   3.476   5.108  0.9179 -1.2597 -3.7042
10991SOL     OW43651   9.957   5.833   2.830  0.5169  0.0772  0.3310
10991SOL    HW143652   9.901   5.880   2.899 -0.2079  0.4188 -0.4786
10991SOL    HW243653   9.936   5.870   2.739  3.2852  1.3924  0.1755
10992SOL     OW43654   2.431   8.351   3.469  0.3001 -0.2746  0.0829
10992SOL    HW143655   2.446   8.286   3.543 -1.5385  0.3008  1.0163
10992SOL    HW243656   2.466   8.441   3.495  1.2520 -0.4806 -0.4797
10993SOL     OW43657   8.095   6.180   2.921 -0.5554  0.4178 -0.5176
10993SOL    HW143658   8.117   6.256   2.982  0.9155  0.1396 -0.6812
10993SOL    HW243659   8.065   6.216   2.832  1.0057  0.8139 -0.8959
10994SOL     OW43660   0.541   7.610   2.760 -0.5430 -0.1330 -0.1913
10994SOL    HW143661   0.485   7.621   2.842 -0.5510  2.2082 -0.4697
10994SOL    HW243662   0.632   7.648   2.776 -0.6703  0.7088 -1.3660
10995SOL     OW43663   8.448   2.757   3.505 -0.5498  0.0507 -0.1373
10995SOL    HW143664   8.517   2.697   3.545  1.7174  3.4640  1.2613
10995SOL    HW243665   8.392   2.796   3.578  0.0470  2.0538 -0.7133
10996SOL     OW43666   1.231   3.465   5.187  0.2243  0.5888 -0.2661
10996SOL    HW143667   1.150   3.406   5.180 -0.1209  1.1349 -0.9003
10996SOL    HW243668   1.268   3.460   5.280 -0.6393  0.4732  0.0736
10997SOL     OW43669   2.421   3.377   4.339 -0.6517  0.1533 -0.0937
10997SOL    HW143670   2.357   3.440   4.382 -1.1621 -0.2840 -0.1973
10997SOL    HW243671   2.447   3.412   4.249 -2.4192 -0.6994 -0.9634
10998SOL     OW43672   2.725   8.320   1.647 -0.2487 -0.6402  0.0240
10998SOL    HW143673   2.731   8.270   1.560  0.3116  2.1526 -1.6000
10998SOL    HW243674   2.813   8.317   1.694 -0.7806 -2.8503  0.9283
10999SOL     OW43675   2.154   7.124   3.273  0.5376 -0.0489 -0.4382
10999SOL    HW143676   2.117   7.080   3.192  0.2407 -2.1881  0.8236
10999SOL    HW243677   2.250   7.100   3.283 -0.1545 -2.1609  1.3980
11000SOL     OW43678   3.345   8.018   0.644 -0.1575 -0.5493 -0.3516
11000SOL    HW143679   3.346   8.039   0.547 -0.0978 -0.2375 -0.2860
11000SOL    HW243680   3.303   7.929   0.659  0.1909 -0.7761 -0.6972
11001SOL     OW43681   2.657   0.623   0.490  0.0087 -0.4789 -0.2965
11001SOL    HW143682   2.742   0.589   0.450  0.2851 -0.8839  0.6401
11001SOL    HW243683   2.595   0.546   0.507 -0.6352 -0.1677 -1.1627
11002SOL     OW43684   2.783   6.705   5.133  0.0528  0.3127  0.2902
11002SOL    HW143685   2.736   6.734   5.217  0.6744  0.1609  0.7006
11002SOL    HW243686   2.882   6.700   5.151  0.0125 -1.6672  0.1268
11003SOL     OW43687   2.114   5.620   1.270  0.2816  0.9060 -0.1244
11003SOL    HW143688   2.044   5.649   1.206  0.5814 -0.6441 -1.1903
11003SOL    HW243689   2.114   5.520   1.277  1.1071  0.9825  1.3206
11004SOL     OW43690   2.499   0.966   1.441 -0.2361  0.5624  0.0464
11004SOL    HW143691   2.565   0.964   1.516  0.4025  0.3442 -0.5154
11004SOL    HW243692   2.501   0.878   1.392 -0.1297  0.9577 -0.6710
11005SOL     OW43693   1.315   2.707   5.301  0.0556  0.3628  0.5916
11005SOL    HW143694   1.413   2.724   5.289 -0.0559  0.1708 -0.6690
11005SOL    HW243695   1.302   2.637   5.372  0.9011 -0.5756 -0.1574
11006SOL     OW43696   2.125   9.241   5.179 -0.5400 -0.1208  0.1829
11006SOL    HW143697   2.206   9.232   5.121  0.1880  1.2679  0.9530
11006SOL    HW243698   2.044   9.253   5.122  0.1892  1.3778 -0.5606
11007SOL     OW43699   1.035   6.371   0.446  0.0900 -0.1811  0.0524
11007SOL    HW143700   1.132   6.392   0.430  0.1914  1.0509  2.0853
11007SOL    HW243701   1.028   6.299   0.514 -0.4284  1.6452  1.9792
11008SOL     OW43702   1.182   2.643   3.732  0.2253 -0.4145 -0.0054
11008SOL    HW143703   1.137   2.720   3.779 -0.0058 -0.8969  0.5663
11008SOL    HW243704   1.119   2.604   3.664  1.0821  1.2335 -1.8015
11009SOL     OW43705   3.443   8.247   5.622  0.1600  0.1431  0.7875
11009SOL    HW143706   3.444   8.303   5.539 -0.6364  1.6431  1.7813
11009SOL    HW243707   3.363   8.187   5.620  0.6357 -0.4727  0.0493
11010SOL     OW43708   4.004   4.040   1.384 -0.0034  0.7706  0.5700
11010SOL    HW143709   3.907   4.022   1.404 -0.4240  1.6562 -0.6633
11010SOL    HW243710   4.055   4.047   1.470 -0.8180 -0.8729  1.1992
11011SOL     OW43711   1.008   0.674   0.776  0.8900  0.4845  0.0689
11011SOL    HW143712   1.098   0.680   0.733  0.8951  0.9106  0.1372
11011SOL    HW243713   0.959   0.594   0.740  1.1500  0.4642 -0.2393
11012SOL     OW43714   9.787   1.324   3.421 -0.4441  0.2434 -0.0158
11012SOL    HW143715   9.786   1.346   3.324 -0.1038 -1.1888 -0.3598
11012SOL    HW243716   9.727   1.246   3.438 -1.0975  0.9564  1.0503
11013SOL     OW43717   0.796   5.600   1.633  0.1279 -0.4165 -0.3385
11013SOL    HW143718   0.700   5.570   1.634 -0.1837  0.5615 -0.4999
11013SOL    HW243719   0.849   5.539   1.574 -0.5689 -0.4559 -0.9403
11014SOL     OW43720   3.677   7.064   3.544  0.0326 -0.6765  0.7481
11014SOL    HW143721   3.752   7.124   3.571 -0.6332 -0.1353  1.4370
11014SOL    HW243722   3.590   7.107   3.569 -0.4563 -1.8201  1.0335
11015SOL     OW43723   0.264   8.511   4.889 -0.3678 -0.0297  0.6439
11015SOL    HW143724   0.267   8.427   4.834 -0.3717 -0.6816  1.6203
11015SOL    HW243725   0.330   8.577   4.852 -0.7057 -0.2788 -0.4187
11016SOL     OW43726   0.693   2.906   3.755 -0.4055  0.0140  0.4953
11016SOL    HW143727   0.706   2.881   3.659 -0.5076  0.5432  0.3413
11016SOL    HW243728   0.743   2.841   3.813 -0.1213 -0.1496  0.0757
11017SOL     OW43729   9.812   7.503   4.933 -0.2939 -0.0151 -0.1030
11017SOL    HW143730   9.718   7.502   4.968 -0.7723  2.5187 -1.1713
11017SOL    HW243731   9.876   7.507   5.009 -0.9850 -2.5985  0.6663
11018SOL     OW43732   7.778   9.949   1.475  0.0104 -0.6991 -0.0992
11018SOL    HW143733   7.870   9.946   1.512  0.5253 -0.8251 -1.3760
11018SOL    HW243734   7.722  10.011   1.531  0.7682 -0.8599  0.8602
11019SOL     OW43735   2.911   4.672   3.590  0.3168 -0.4771 -0.0574
11019SOL    HW143736   2.827   4.689   3.537  0.0057 -1.6242  0.0518
11019SOL    HW243737   2.989   4.711   3.542 -0.1839 -0.0509 -0.5351
11020SOL     OW43738   5.029   0.548   1.634 -0.1269 -0.2805 -0.1186
11020SOL    HW143739   5.057   0.469   1.579 -0.2336  0.0946 -0.7147
11020SOL    HW243740   5.060   0.632   1.590 -0.1032  0.0183  0.4650
11021SOL     OW43741   4.003   8.865   1.093 -0.3140  0.5732  0.5917
11021SOL    HW143742   3.949   8.891   1.173 -0.3222  0.1201  0.7305
11021SOL    HW243743   4.095   8.838   1.122 -0.2968  0.4662  0.4378
11022SOL     OW43744   1.612   3.276   4.452 -0.0674 -0.1728 -0.3230
11022SOL    HW143745   1.582   3.355   4.507  0.0961  0.1475 -0.6905
11022SOL    HW243746   1.554   3.267   4.372  0.3689  0.0127 -0.6597
11023SOL     OW43747   3.331   5.096   2.708 -0.1547  0.4452  0.2220
11023SOL    HW143748   3.340   5.000   2.734 -1.7617 -0.0052 -0.8324
11023SOL    HW243749   3.257   5.138   2.760  0.1018  0.9293  0.1953
11024SOL     OW43750   8.754   2.217   3.745  0.2380 -0.0096  0.0890
11024SOL    HW143751   8.829   2.155   3.767 -1.6571 -2.0794  0.9655
11024SOL    HW243752   8.768   2.256   3.654  1.7895 -1.2670 -0.2312
11025SOL     OW43753   9.928   8.831   1.015  0.4557  0.0596 -1.0120
11025SOL    HW143754  10.006   8.894   1.018  0.9238 -0.6079  1.5434
11025SOL    HW243755   9.960   8.738   1.034 -0.6662 -0.5378 -2.0134
11026SOL     OW43756   4.384   7.534   3.471 -0.7625 -0.1982 -0.4280
11026SOL    HW143757   4.334   7.537   3.558 -0.0908 -1.1473  0.0030
11026SOL    HW243758   4.363   7.616   3.418 -0.6340  0.7387  0.9372
11027SOL     OW43759   2.948   3.589   3.724 -0.0878  0.3505 -0.0347
11027SOL    HW143760   3.003   3.640   3.791  0.3975 -1.0375  0.6330
11027SOL    HW243761   2.872   3.647   3.694  1.0938  1.8909 -0.1483
11028SOL     OW43762   3.949   1.509   0.428 -0.2312 -0.0176  0.1128
11028SOL    HW143763   3.880   1.574   0.460 -1.8595 -1.1703 -0.9740
11028SOL    HW243764   4.000   1.472   0.506 -0.2198  1.5081  0.8473
11029SOL     OW43765   7.439   2.543   1.142 -0.1752 -0.1103  0.6914
11029SOL    HW143766   7.448   2.445   1.128  1.7507 -0.1532  1.9951
11029SOL    HW243767   7.362   2.561   1.204 -2.5350 -0.5384 -2.0299
11030SOL     OW43768   2.109   9.322   0.562  0.0288  0.5666 -0.0845
11030SOL    HW143769   2.162   9.385   0.505  1.8891 -0.1855  0.7746
11030SOL    HW243770   2.143   9.229   0.548 -2.9091 -0.3330 -1.6027
11031SOL     OW43771   4.642   8.741   4.673 -0.1924 -0.0919  0.2862
11031SOL    HW143772   4.616   8.788   4.589  0.8570  2.3377  1.2746
11031SOL    HW243773   4.626   8.800   4.752  0.6485 -1.5902  1.6337
11032SOL     OW43774   4.278   4.507   1.149 -0.0887 -0.0604  0.3852
11032SOL    HW143775   4.278   4.537   1.054 -0.4221 -0.7543  0.1651
11032SOL    HW243776   4.329   4.573   1.205  0.1854  0.2997 -0.2878
11033SOL     OW43777   9.432   0.423   1.645 -0.6217 -0.2054  0.0031
11033SOL    HW143778   9.389   0.468   1.723 -0.2011  1.2012 -0.5655
11033SOL    HW243779   9.500   0.357   1.677 -0.9077 -0.0974  0.8319
11034SOL     OW43780   7.159   1.566   2.140 -0.0546  0.2909  0.1298
11034SOL    HW143781   7.096   1.600   2.209 -0.5144  0.3198 -0.3058
11034SOL    HW243782   7.233   1.632   2.127  0.9914 -0.5076  1.8623
11035SOL     OW43783   5.761   1.088   1.672  0.7393  0.2169  0.0359
11035SOL    HW143784   5.740   1.136   1.587  1.2240  1.3983  0.5704
11035SOL    HW243785   5.691   1.018   1.690  0.3050  0.3835 -1.0070
11036SOL     OW43786   8.652   7.033   3.543  0.5938 -0.6311  0.3751
11036SOL    HW143787   8.739   7.018   3.495  1.4216 -1.1473  2.0290
11036SOL    HW243788   8.578   6.991   3.490  1.4884 -1.1093 -0.5233
11037SOL     OW43789   3.575   1.972   1.792  0.1493 -0.4612 -0.3348
11037SOL    HW143790   3.501   2.024   1.836 -0.6388 -1.3292 -0.6248
11037SOL    HW243791   3.663   2.014   1.815 -0.2539 -0.7566  1.9150
11038SOL     OW43792   7.865   9.535   0.749 -0.0483  0.5451  0.1189
11038SOL    HW143793   7.917   9.558   0.831 -0.6624 -0.1265  0.7095
11038SOL    HW243794   7.880   9.438   0.727  0.6421  0.8911 -0.9519
11039SOL     OW43795   8.925   1.861   0.963 -0.2648 -0.7366  0.1080
11039SOL    HW143796   8.862   1.873   1.040  0.5162  2.4397  0.2860
11039SOL    HW243797   9.018   1.851   0.998 -0.0459 -0.4596 -0.3998
11040SOL     OW43798   2.094   2.535   2.593  0.4102  0.0646 -0.3683
11040SOL    HW143799   2.104   2.633   2.612 -2.2562  0.0972  1.1911
11040SOL    HW243800   2.183   2.491   2.598  1.4102  2.1142  0.6925
11041SOL     OW43801   9.295   2.109   4.397 -0.0481 -0.4246  0.1932
11041SOL    HW143802   9.370   2.175   4.408 -0.1864  0.0141 -1.3199
11041SOL    HW243803   9.331   2.017   4.408  0.7662 -0.2235 -0.7073
11042SOL     OW43804   8.726   8.826   1.336 -0.2154  0.6266  0.5347
11042SOL    HW143805   8.687   8.892   1.271 -1.5598 -0.3284  0.3324
11042SOL    HW243806   8.814   8.793   1.301  0.1770  1.8579  0.3458
11043SOL     OW43807   7.142   9.745   1.997  0.1749 -0.0716  0.3737
11043SOL    HW143808   7.155   9.785   1.906 -0.3609  1.2657  0.8772
11043SOL    HW243809   7.071   9.795   2.046 -1.2689 -2.3287  0.6296
11044SOL     OW43810   1.322   7.167   3.261  0.3244 -0.1869  0.6368
11044SOL    HW143811   1.311   7.181   3.162  0.8762 -1.6013  0.3743
11044SOL    HW243812   1.415   7.134   3.280 -0.5226 -2.2002  1.3781
11045SOL     OW43813   8.294   2.105   0.038  0.0532 -0.1961 -0.4314
11045SOL    HW143814   8.254   2.014   0.026 -0.9664  0.4400 -1.9361
11045SOL    HW243815   8.292   2.154  -0.049 -1.1942  1.9990  0.7943
11046SOL     OW43816   2.817   1.827   4.801  0.1418  0.0433 -0.3215
11046SOL    HW143817   2.717   1.821   4.807  0.0912  0.5569 -0.6481
11046SOL    HW243818   2.850   1.763   4.732  0.0609 -0.2804 -0.0644
11047SOL     OW43819   9.028   5.676   2.637  0.0009 -0.4552  0.1976
11047SOL    HW143820   8.946   5.644   2.684  0.4097 -2.8099 -0.6420
11047SOL    HW243821   9.105   5.675   2.701  0.1572 -1.8834  0.0152
11048SOL     OW43822   2.690   1.014   1.645  0.2927 -0.5267  0.2458
11048SOL    HW143823   2.780   1.007   1.602  0.2272 -0.2377  0.0621
11048SOL    HW243824   2.698   1.064   1.731  0.0776  0.7447 -0.4600
11049SOL     OW43825   7.822   9.717   5.521  0.2654  0.5958  0.3937
11049SOL    HW143826   7.917   9.741   5.498  0.4415  0.3084  0.8272
11049SOL    HW243827   7.816   9.620   5.540 -0.2056  0.5305 -0.0684
11050SOL     OW43828   2.566   2.601   4.475 -0.2287  0.0773  0.8745
11050SOL    HW143829   2.482   2.647   4.503  0.8766  3.3329 -0.8794
11050SOL    HW243830   2.642   2.633   4.530  0.8191  1.5295 -1.3763
11051SOL     OW43831   2.123   9.177   3.513 -0.5847 -0.0673  0.0659
11051SOL    HW143832   2.129   9.245   3.586 -0.3950  0.4175 -0.3988
11051SOL    HW243833   2.209   9.125   3.509 -0.4097  0.2359 -0.1337
11052SOL     OW43834   7.914   2.168   2.303 -0.2745 -0.1982 -0.6050
11052SOL    HW143835   7.840   2.146   2.240 -0.2248  0.2705 -0.8357
11052SOL    HW243836   7.997   2.188   2.251 -0.8671  2.6484 -0.5547
11053SOL     OW43837   2.558   4.342   2.440  0.3482  0.3685 -0.5177
11053SOL    HW143838   2.551   4.252   2.396  1.5591 -0.5415  1.0804
11053SOL    HW243839   2.634   4.393   2.400  0.1454  0.3758 -0.8959
11054SOL     OW43840   9.414   6.810   2.782  0.1420 -0.8081 -0.1207
11054SOL    HW143841   9.485   6.788   2.715 -0.7865 -0.2249 -1.3245
11054SOL    HW243842   9.324   6.798   2.739 -0.4455  0.3755  0.7671
11055SOL     OW43843   8.625   1.544   0.025  0.1045 -0.4260 -0.8310
11055SOL    HW143844   8.680   1.622   0.055 -1.2942  0.7914 -1.3930
11055SOL    HW243845   8.647   1.464   0.081 -0.1353  0.9826  1.3055
11056SOL     OW43846   2.812   0.978   4.989 -0.1736  0.1037  0.0180
11056SOL    HW143847   2.874   1.037   5.040 -2.3437  2.0053  0.5798
11056SOL    HW243848   2.840   0.883   4.998  2.0431  0.8248  1.0503
11057SOL     OW43849   1.946   6.478   0.195  0.1467  0.0166 -0.6078
11057SOL    HW143850   2.038   6.495   0.230  0.4960 -0.7732 -1.1175
11057SOL    HW243851   1.881   6.538   0.240  1.0606  1.2839 -0.9588
11058SOL     OW43852   5.077   1.764   2.755 -0.0950 -0.2400  0.1016
11058SOL    HW143853   5.020   1.740   2.676 -0.6040  2.0753 -0.2651
11058SOL    HW243854   5.054   1.704   2.832  0.2504 -2.3678 -1.4146
11059SOL     OW43855   4.722   1.013   4.900 -0.5208  0.3328 -0.5984
11059SOL    HW143856   4.659   0.975   4.968 -0.6992 -0.3236 -1.1208
11059SOL    HW243857   4.744   1.108   4.924  1.0243 -0.5102  1.4766
11060SOL     OW43858   4.831   4.681   5.557 -0.2621  0.5582  0.2988
11060SOL    HW143859   4.852   4.745   5.631 -1.0967  0.6458  0.4608
11060SOL    HW243860   4.732   4.666   5.552 -0.1426 -0.0744 -0.2766
11061SOL     OW43861   9.524   9.226   3.468  0.6102  0.0608 -1.2268
11061SOL    HW143862   9.430   9.260   3.474  0.5581  0.0258 -1.7944
11061SOL    HW243863   9.536   9.151   3.533  0.6920  1.0586 -0.0729
11062SOL     OW43864   7.767   0.448   5.044 -0.5696 -0.2693 -0.3588
11062SOL    HW143865   7.830   0.482   4.974 -1.0147 -1.0273 -1.1329
11062SOL    HW243866   7.776   0.349   5.052  0.2160 -0.0637  1.3985
11063SOL     OW43867   4.808   0.947   0.632  0.0519 -0.3989  1.2176
11063SOL    HW143868   4.897   0.990   0.642  0.8780 -1.7382 -0.2495
11063SOL    HW243869   4.757   0.992   0.558  0.9989 -2.0657 -0.4566
11064SOL     OW43870   6.904   0.806   2.115 -0.1869 -0.4156  0.1772
11064SOL    HW143871   6.984   0.833   2.169  1.2157  1.2379 -2.6757
11064SOL    HW243872   6.926   0.723   2.063 -0.0282  0.5341 -1.2741
11065SOL     OW43873   2.842   9.899   5.047  0.2724 -0.8438  0.7099
11065SOL    HW143874   2.786   9.871   5.125 -3.1605 -1.0936 -1.7227
11065SOL    HW243875   2.854   9.999   5.048 -2.9116 -0.4011 -0.3716
11066SOL     OW43876   1.706   0.165   1.726 -0.2349 -0.1404  0.3114
11066SOL    HW143877   1.750   0.131   1.643  1.4016  0.2813  0.9876
11066SOL    HW243878   1.623   0.111   1.744 -0.9836  0.1711 -1.9286
11067SOL     OW43879   3.392   8.900   4.413  0.9026 -0.0583 -0.0514
11067SOL    HW143880   3.367   8.854   4.328  0.4605  2.3547 -1.2824
11067SOL    HW243881   3.475   8.954   4.399 -0.5244  2.3333  0.2889
11068SOL     OW43882   6.095   1.265   3.355  0.7119 -0.7280  0.6372
11068SOL    HW143883   5.999   1.263   3.329  0.9032 -0.6488 -0.0873
11068SOL    HW243884   6.135   1.174   3.343  1.1645 -0.3551 -0.7553
11069SOL     OW43885   8.255   3.438   2.775 -0.3918  0.5324  0.1350
11069SOL    HW143886   8.223   3.518   2.827 -1.5019 -1.0002  1.8673
11069SOL    HW243887   8.352   3.424   2.792 -0.0267  1.9183 -0.7327
11070SOL     OW43888   1.586   0.845   2.183 -0.0321 -0.1665  0.0327
11070SOL    HW143889   1.586   0.864   2.085  0.0843  2.4053  0.4920
11070SOL    HW243890   1.673   0.874   2.222  0.0973 -1.5996  0.8390
11071SOL     OW43891   9.753   2.499   1.822  0.2863  0.0763 -0.2629
11071SOL    HW143892   9.693   2.430   1.863  1.5241 -0.3360  0.9240
11071SOL    HW243893   9.757   2.579   1.882 -0.9438  1.0971 -1.5140
11072SOL     OW43894   9.202   5.164   1.965  0.3995 -0.5110  0.0562
11072SOL    HW143895   9.279   5.135   2.023  1.4764  1.2846 -0.4605
11072SOL    HW243896   9.147   5.231   2.015  1.6758  1.5012 -1.2068
11073SOL     OW43897   1.377   1.096   0.867  0.3488  0.1848 -0.6388
11073SOL    HW143898   1.344   1.117   0.960  0.9357  1.3780 -0.6822
11073SOL    HW243899   1.477   1.089   0.868  0.3646  0.3122 -1.1993
11074SOL     OW43900   8.512   0.773   1.184 -0.0156 -0.2091 -0.1082
11074SOL    HW143901   8.514   0.865   1.225 -2.9106 -1.0287  2.1226
11074SOL    HW243902   8.451   0.773   1.105 -2.8223 -0.8438  1.9356
11075SOL     OW43903   7.693   2.986   1.691 -0.1822 -0.2685  0.1082
11075SOL    HW143904   7.666   2.895   1.661  1.1308 -0.8269  0.5995
11075SOL    HW243905   7.617   3.050   1.675 -0.3446 -0.9877 -2.2862
11076SOL     OW43906   0.959   6.654   1.924  0.0484  0.8065  0.0929
11076SOL    HW143907   1.040   6.629   1.976  0.7116 -0.3343 -1.4484
11076SOL    HW243908   0.954   6.753   1.916 -0.0466  0.9951  2.2712
11077SOL     OW43909   8.626   2.357   2.566  0.3815 -0.0619 -0.0536
11077SOL    HW143910   8.594   2.351   2.661 -0.4021  1.3939 -0.1973
11077SOL    HW243911   8.708   2.415   2.562 -2.0596  3.5511 -0.7435
11078SOL     OW43912   9.845   2.293   1.659 -0.5065 -0.1399 -0.1812
11078SOL    HW143913   9.814   2.371   1.712 -0.7756  0.5831 -1.3805
11078SOL    HW243914   9.841   2.315   1.561  1.8398 -0.7419 -0.4566
11079SOL     OW43915   1.701   9.016   1.127 -0.2613 -0.0802 -0.0765
11079SOL    HW143916   1.607   9.048   1.119 -0.8084 -1.3502  1.2358
11079SOL    HW243917   1.739   9.001   1.035 -1.7262 -0.7421 -0.5807
11080SOL     OW43918   1.788   1.823   2.611 -0.3760 -0.5606 -0.3777
11080SOL    HW143919   1.734   1.793   2.532 -1.3877  1.0518 -0.3077
11080SOL    HW243920   1.727   1.854   2.683  0.5902 -0.9185  0.6110
11081SOL     OW43921   2.569   4.729   2.354  0.0155  0.0540  0.0301
11081SOL    HW143922   2.508   4.807   2.343  0.0069  0.0051 -0.2618
11081SOL    HW243923   2.515   4.645   2.362 -0.0170  0.1859  1.3299
11082SOL     OW43924   7.548   8.332   2.253 -0.0439 -1.0545 -0.0768
11082SOL    HW143925   7.462   8.307   2.208  0.3283 -0.5436 -1.0943
11082SOL    HW243926   7.573   8.261   2.319 -2.0406 -0.4577  1.3812
11083SOL     OW43927   1.689   1.136   5.611  0.2306  0.1593  0.6386
11083SOL    HW143928   1.775   1.185   5.593  0.5020 -0.5248  0.0515
11083SOL    HW243929   1.692   1.046   5.568 -1.7742  1.0861 -1.5989
11084SOL     OW43930   1.407   0.846   3.460 -0.0298  0.4283 -0.2568
11084SOL    HW143931   1.444   0.753   3.462 -1.9124 -0.3787 -1.2601
11084SOL    HW243932   1.353   0.858   3.376  0.0979  2.3853 -0.0742
11085SOL     OW43933   3.097   1.353   2.572 -0.2273  0.5541 -0.0178
11085SOL    HW143934   3.181   1.369   2.520 -0.5128 -0.6462 -0.8691
11085SOL    HW243935   3.116   1.292   2.649 -0.3058  0.3375 -0.1702
11086SOL     OW43936   0.883   0.640   3.052 -0.2292 -0.4048  0.7174
11086SOL    HW143937   0.934   0.674   2.974  1.9238 -1.5120  1.6070
11086SOL    HW243938   0.929   0.561   3.091 -0.8476  0.5592  3.5648
11087SOL     OW43939   9.396   4.990   1.586  0.1605  0.0545 -0.3640
11087SOL    HW143940   9.314   5.040   1.613 -0.1318 -0.1825 -0.8083
11087SOL    HW243941   9.453   5.047   1.526  1.1329  0.8214  1.2673
11088SOL     OW43942   9.136   9.927   4.552 -0.2932  0.6690  0.4649
11088SOL    HW143943   9.227   9.962   4.573  0.3974  0.3627 -1.8390
11088SOL    HW243944   9.127   9.834   4.589  1.1881 -0.1948 -1.2542
11089SOL     OW43945   1.666   7.285   4.279 -0.3062 -0.1190 -0.7693
11089SOL    HW143946   1.689   7.327   4.367 -2.7340 -1.4806  0.5847
11089SOL    HW243947   1.590   7.334   4.237 -1.6767 -1.7185 -0.2424
11090SOL     OW43948   8.130   9.670   1.803 -0.4556  0.4945  0.2077
11090SOL    HW143949   8.040   9.707   1.778 -0.5788  0.5836  0.7520
11090SOL    HW243950   8.118   9.578   1.840 -0.3540  0.5971  0.4980
11091SOL     OW43951   1.300   7.168   2.956  0.1958 -0.2669 -0.1790
11091SOL    HW143952   1.395   7.181   2.928  0.6958  2.5228  2.5839
11091SOL    HW243953   1.244   7.243   2.919 -0.6118 -0.9225 -0.3018
11092SOL     OW43954   8.298   8.835   3.877  0.0655 -0.1202  0.0727
11092SOL    HW143955   8.292   8.748   3.927  0.9758  0.0921  0.5627
11092SOL    HW243956   8.348   8.820   3.791  1.6061  0.2210  0.8884
11093SOL     OW43957   3.409   7.225   3.210  0.0345  0.0006 -0.4813
11093SOL    HW143958   3.494   7.177   3.233  0.0265 -0.3909 -1.2879
11093SOL    HW243959   3.394   7.221   3.112 -1.6582 -1.1493 -0.1951
11094SOL     OW43960   1.474   3.039   2.769  0.1120  0.3029 -0.2795
11094SOL    HW143961   1.517   2.949   2.761  0.3623  0.3376  0.6458
11094SOL    HW243962   1.513   3.101   2.700  0.9320  0.0906 -0.0088
11095SOL     OW43963   0.652   8.363   3.231 -0.3921 -0.3653  0.2484
11095SOL    HW143964   0.743   8.322   3.224 -0.0860 -0.1429  2.5918
11095SOL    HW243965   0.660   8.455   3.270 -1.6654 -0.5031  0.8551
11096SOL     OW43966   8.470   3.140   2.155 -0.6726  0.3477 -0.1097
11096SOL    HW143967   8.373   3.152   2.134 -0.4141  1.4160 -0.7270
11096SOL    HW243968   8.501   3.051   2.121 -1.3509  0.1554 -0.2276
11097SOL     OW43969   9.179   1.682   4.303 -0.2901  0.6435  0.6579
11097SOL    HW143970   9.278   1.682   4.293 -0.3957 -1.9530 -0.9756
11097SOL    HW243971   9.137   1.741   4.235  0.0475 -0.0596 -0.1667
11098SOL     OW43972   4.986   1.919   2.393 -0.0559  0.0331 -0.5481
11098SOL    HW143973   4.947   1.868   2.469  0.0889 -0.5954 -0.8900
11098SOL    HW243974   5.064   1.869   2.356  1.3240  1.4735  0.3841
11099SOL     OW43975   1.873   7.322   3.593 -0.1480 -0.5538  0.0812
11099SOL    HW143976   1.825   7.265   3.659  0.6094 -1.1661  0.1162
11099SOL    HW243977   1.971   7.320   3.612  0.3428 -2.4505 -2.3144
11100SOL     OW43978   4.079   1.199   4.672  0.6357 -0.8460 -0.1758
11100SOL    HW143979   4.014   1.142   4.722 -0.5071  0.1318 -0.5100
11100SOL    HW243980   4.087   1.165   4.578  0.1108 -0.5912 -0.3169
11101SOL     OW43981   0.500   0.845   2.690 -0.3202 -0.2286  0.4742
11101SOL    HW143982   0.436   0.769   2.682  0.8746 -1.0982 -1.1274
11101SOL    HW243983   0.586   0.812   2.729  0.6303  0.0051 -1.3501
11102SOL     OW43984   3.345   6.964   1.906 -0.4186 -0.4253 -0.1894
11102SOL    HW143985   3.245   6.966   1.907 -0.4558 -2.1441  0.8617
11102SOL    HW243986   3.377   6.894   1.843  0.1002 -0.8732  0.5615
11103SOL     OW43987   7.642   9.705   1.054  0.4007  0.1459 -0.2270
11103SOL    HW143988   7.579   9.628   1.055  0.8767 -0.2473  0.2862
11103SOL    HW243989   7.594   9.787   1.025 -0.4419 -0.0673  0.5435
11104SOL     OW43990   0.372   8.914   3.303  0.2674  0.2893  0.2916
11104SOL    HW143991   0.433   8.964   3.364  0.1775  0.8201 -0.0486
11104SOL    HW243992   0.310   8.978   3.258  0.0593 -0.1429 -0.0430
11105SOL     OW43993   7.818   0.684   5.166  0.2144 -0.4567  0.0025
11105SOL    HW143994   7.810   0.587   5.146 -1.3366 -0.4979  0.7837
11105SOL    HW243995   7.843   0.698   5.262 -0.5729 -0.0734  0.1594
11106SOL     OW43996   1.848   1.308   0.906 -0.0665 -0.4096  0.1319
11106SOL    HW143997   1.781   1.367   0.951 -1.2138 -0.7995 -1.0312
11106SOL    HW243998   1.909   1.364   0.849 -0.4789 -0.2322 -0.1364
11107SOL     OW43999   8.046   9.012   3.262 -0.1588 -0.2090  0.0796
11107SOL    HW144000   7.966   8.955   3.279  0.2945 -0.8555  0.0768
11107SOL    HW244001   8.090   9.035   3.349 -0.7094  0.6725  0.1242
11108SOL     OW44002   2.111   9.847   4.187 -0.0368 -0.3129  0.2304
11108SOL    HW144003   2.137   9.751   4.182 -0.1123 -0.3290  0.1565
11108SOL    HW244004   2.137   9.893   4.102 -0.3418 -0.3517  0.1152
11109SOL     OW44005   4.394   8.362   1.936 -0.0409  0.5129 -0.3267
11109SOL    HW144006   4.453   8.398   1.864  1.5506 -0.0320  0.6826
11109SOL    HW244007   4.375   8.434   2.002  1.2318  0.1318  0.4609
11110SOL     OW44008   0.057   0.561   0.871 -0.1145  0.7377 -0.0121
11110SOL    HW144009   0.142   0.606   0.899  0.6322 -1.2038  0.8761
11110SOL    HW244010  -0.009   0.565   0.946 -0.6155  1.6896 -0.4848
11111SOL     OW44011   8.431   8.692   1.062  0.2561  0.4157  0.8135
11111SOL    HW144012   8.405   8.717   0.969  3.3586 -0.4121 -0.3407
11111SOL    HW244013   8.483   8.767   1.103  0.0471  0.2462  1.3878
11112SOL     OW44014   8.289   1.842   1.826  0.2791  0.8278  0.1698
11112SOL    HW144015   8.290   1.871   1.921 -1.3861 -0.4209  0.5909
11112SOL    HW244016   8.197   1.854   1.788  0.4770 -0.4002 -0.7318
11113SOL     OW44017   4.658   3.230   2.982  0.0952 -0.2653 -0.1963
11113SOL    HW144018   4.689   3.195   3.070 -0.3629  1.2213  0.5689
11113SOL    HW244019   4.695   3.173   2.908  0.4122 -1.5678  0.9500
11114SOL     OW44020   4.740   8.570   4.301  0.5269  0.1806  0.2068
11114SOL    HW144021   4.771   8.656   4.261 -1.3535  1.0859  0.6295
11114SOL    HW244022   4.763   8.494   4.240 -0.4038  1.3149 -1.5878
11115SOL     OW44023   0.822   6.681   0.708  0.4211 -0.3719  0.3715
11115SOL    HW144024   0.809   6.606   0.643  1.2719 -0.8936  0.8070
11115SOL    HW244025   0.823   6.768   0.658 -1.0070 -0.5932 -0.0886
11116SOL     OW44026   4.279   9.390   3.157  0.4549  0.8008  0.0310
11116SOL    HW144027   4.372   9.420   3.135  0.4823  0.6109 -0.1139
11116SOL    HW244028   4.244   9.334   3.082  0.4524  0.3595  0.3613
11117SOL     OW44029   1.037   9.982   1.946  0.4018  0.3966  0.2295
11117SOL    HW144030   0.955   9.960   1.893  0.2302  0.5650  0.4258
11117SOL    HW244031   1.024   9.953   2.041  0.4898  0.6151  0.3083
11118SOL     OW44032   0.238   0.803   5.164  0.2569  0.6421 -0.2443
11118SOL    HW144033   0.288   0.746   5.229 -1.1472 -3.1395 -2.3361
11118SOL    HW244034   0.290   0.809   5.078 -1.0793 -0.1476 -1.1251
11119SOL     OW44035   1.555   3.073   4.621  0.3009  0.2699  0.1797
11119SOL    HW144036   1.572   3.164   4.584 -1.0838 -0.0051 -1.1859
11119SOL    HW244037   1.517   3.014   4.549 -3.1725 -0.0975  2.2025
11120SOL     OW44038   0.436   9.648   1.778  0.1630 -0.7110 -0.1016
11120SOL    HW144039   0.429   9.747   1.788  2.6806 -0.5417  0.5550
11120SOL    HW244040   0.515   9.615   1.831 -0.7292 -3.0822 -0.1840
11121SOL     OW44041   1.182   6.062   1.132  0.1993  0.0167 -0.3168
11121SOL    HW144042   1.163   6.157   1.155 -1.8534 -1.1016  2.9558
11121SOL    HW244043   1.279   6.043   1.146  0.4046  1.3294  0.1161
11122SOL     OW44044   4.521   3.926   0.937  0.6739 -0.0705 -0.2503
11122SOL    HW144045   4.598   3.980   0.972  0.7830  0.0027 -0.6009
11122SOL    HW244046   4.492   3.861   1.007  1.0036 -0.0430 -0.0836
11123SOL     OW44047   1.611   8.023   2.396  0.1087  0.6196  0.1086
11123SOL    HW144048   1.678   7.950   2.385  0.9821  1.4619 -0.2892
11123SOL    HW244049   1.579   8.026   2.490 -0.0339 -0.3541  0.0941
11124SOL     OW44050   4.616   7.935   2.685  0.3708 -0.3555  0.4666
11124SOL    HW144051   4.558   7.954   2.763  2.7650  0.1745  2.1748
11124SOL    HW244052   4.560   7.928   2.602 -1.6925  3.9703  1.3718
11125SOL     OW44053   7.855   8.135   3.994 -0.0701  0.1405 -0.0401
11125SOL    HW144054   7.874   8.042   3.962  4.2210 -0.1966  3.0416
11125SOL    HW244055   7.893   8.201   3.929 -1.6543 -0.2351 -1.3863
11126SOL     OW44056   1.664   2.100   1.203  0.2172  0.2183 -1.0102
11126SOL    HW144057   1.757   2.137   1.199  1.5040 -2.7338  0.4255
11126SOL    HW244058   1.637   2.068   1.113  1.4524 -0.9130 -0.9868
11127SOL     OW44059   7.845   3.659   1.401 -0.7048 -0.3147 -0.2229
11127SOL    HW144060   7.745   3.656   1.399 -0.7411 -0.0181  1.1632
11127SOL    HW244061   7.877   3.734   1.343 -1.2792 -0.3413 -0.5820
11128SOL     OW44062   0.956   9.734   0.288 -0.5690 -0.8211 -0.3187
11128SOL    HW144063   0.885   9.736   0.358 -0.2857 -0.6814 -0.0304
11128SOL    HW244064   0.916   9.756   0.199 -0.7475  0.0581 -0.0336
11129SOL     OW44065   2.585   8.711   0.860  0.2187 -0.7236  0.3858
11129SOL    HW144066   2.657   8.713   0.791  1.0170  3.1400  1.2009
11129SOL    HW244067   2.625   8.693   0.950 -0.2750 -1.6436  0.4308
11130SOL     OW44068   9.596   2.412   5.322 -0.3800  0.2095 -0.1934
11130SOL    HW144069   9.550   2.339   5.373 -1.4466  0.6384 -0.5316
11130SOL    HW244070   9.630   2.481   5.387  0.9361 -0.7592  0.1475
11131SOL     OW44071   3.293   3.770   4.522 -0.2162  0.6049  0.2817
11131SOL    HW144072   3.194   3.777   4.515 -0.2234  1.1558  0.8688
11131SOL    HW244073   3.325   3.825   4.599  0.7089  1.6941 -0.8606
11132SOL     OW44074   3.134   1.401   0.696  0.2138  0.1688 -0.1066
11132SOL    HW144075   3.149   1.478   0.758  0.2325  0.3384 -0.3208
11132SOL    HW244076   3.126   1.316   0.749  3.4121 -0.1673 -0.0438
11133SOL     OW44077   7.936   9.141   4.097  0.5449  0.4503  0.4621
11133SOL    HW144078   7.961   9.054   4.055  0.6424  0.6647  0.0812
11133SOL    HW244079   7.839   9.138   4.124  0.4591  0.3528  0.1386
11134SOL     OW44080   1.736   0.521   0.406  0.1753  0.0764 -0.4400
11134SOL    HW144081   1.775   0.598   0.456 -0.6646  1.1068 -1.3538
11134SOL    HW244082   1.798   0.495   0.332 -0.0220  0.5249 -0.7602
11135SOL     OW44083   3.118   5.752   3.201 -0.5331 -0.5141  0.0916
11135SOL    HW144084   3.075   5.777   3.288 -1.8087 -1.6106 -0.2122
11135SOL    HW244085   3.073   5.671   3.163  2.3035 -2.2276  0.1694
11136SOL     OW44086   6.367   7.071   2.898 -0.2442  0.8894  0.4547
11136SOL    HW144087   6.404   6.994   2.950 -0.1149  0.7940  0.2224
11136SOL    HW244088   6.270   7.055   2.880  0.0271  0.2763 -0.5058
11137SOL     OW44089   2.162   9.509   4.862 -0.1023 -0.4347 -0.4257
11137SOL    HW144090   2.220   9.432   4.833 -0.5175 -0.9483  0.0896
11137SOL    HW244091   2.208   9.595   4.839  0.7645 -0.8352 -0.2472
11138SOL     OW44092   8.417   1.139   3.570  0.1874  0.4051  0.4738
11138SOL    HW144093   8.390   1.045   3.550  1.2160 -0.1468  1.5776
11138SOL    HW244094   8.361   1.175   3.644 -0.0722  0.5927  0.1861
11139SOL     OW44095   3.402   9.454   2.426  0.2592 -0.2620  0.0510
11139SOL    HW144096   3.353   9.368   2.441  1.5709 -0.9736  0.3448
11139SOL    HW244097   3.389   9.514   2.504  0.4139 -0.7236  0.4352
11140SOL     OW44098   6.842   8.281   2.222 -0.2601 -0.5365 -0.5457
11140SOL    HW144099   6.914   8.234   2.172 -0.8314 -1.2618 -0.7039
11140SOL    HW244100   6.866   8.378   2.234  0.0238 -0.4271 -1.9449
11141SOL     OW44101   0.230   2.561   0.625 -0.0855  0.1967 -0.0306
11141SOL    HW144102   0.268   2.554   0.533 -1.8357  1.6396 -0.9201
11141SOL    HW244103   0.293   2.522   0.692  1.8243  0.3907 -1.6977
11142SOL     OW44104   2.369   4.780   3.134  0.0791 -0.3430 -0.6618
11142SOL    HW144105   2.362   4.680   3.133 -2.0655 -0.2476  1.1309
11142SOL    HW244106   2.320   4.817   3.055 -1.1627 -0.6269 -0.0374
11143SOL     OW44107   7.078   6.435   2.707 -0.1649 -0.1228  0.3883
11143SOL    HW144108   7.044   6.345   2.680  0.5838 -0.2903 -0.0222
11143SOL    HW244109   7.169   6.450   2.666  0.0618  0.4909  1.1070
11144SOL     OW44110   9.094   7.060   2.400 -0.0401 -0.8949 -0.5634
11144SOL    HW144111   9.103   7.041   2.302 -0.4277  0.9117 -0.9628
11144SOL    HW244112   9.181   7.043   2.446  0.1592 -1.6780 -1.2317
11145SOL     OW44113   2.849   7.326   2.790  0.3371 -0.3137 -0.5036
11145SOL    HW144114   2.854   7.337   2.691  1.9405  0.4157 -0.3564
11145SOL    HW244115   2.841   7.415   2.834  1.7380 -0.4877  0.1222
11146SOL     OW44116   2.470   2.248   2.177  0.9287 -0.3168 -0.0322
11146SOL    HW144117   2.432   2.333   2.141  1.8126  1.3654  2.8778
11146SOL    HW244118   2.407   2.172   2.159 -0.5595  1.1914 -1.2966
11147SOL     OW44119   7.277   0.672   4.241 -0.4009  0.4209 -0.5410
11147SOL    HW144120   7.376   0.657   4.249 -1.0737 -2.4159  3.9679
11147SOL    HW244121   7.249   0.742   4.307 -1.4591  1.3537 -1.9486
11148SOL     OW44122   0.499   2.960   2.453 -0.1252 -0.3727  0.8437
11148SOL    HW144123   0.558   2.919   2.383 -0.3238 -1.1490  1.1242
11148SOL    HW244124   0.469   3.050   2.422  1.7864  0.3491  1.0175
11149SOL     OW44125   7.343   9.553   4.047  0.6937  0.5122 -0.2822
11149SOL    HW144126   7.350   9.467   3.996 -2.4652  0.4650 -0.7111
11149SOL    HW244127   7.288   9.619   3.996 -0.1145  1.4613  1.7254
11150SOL     OW44128   0.604   3.420   4.058 -0.0756 -0.2286  0.2246
11150SOL    HW144129   0.528   3.471   4.018 -0.7693 -1.1106  0.3922
11150SOL    HW244130   0.630   3.345   3.997 -1.1357 -1.5756  1.4044
11151SOL     OW44131   6.866   7.667   2.823  0.1113  0.0440 -0.5295
11151SOL    HW144132   6.947   7.669   2.764 -0.4600  3.7100 -1.2986
11151SOL    HW244133   6.869   7.745   2.885 -1.8572 -0.9456  0.8523
11152SOL     OW44134   5.114   0.618   1.302  0.3763 -0.0096  0.4912
11152SOL    HW144135   5.182   0.687   1.326  0.2883 -0.0567  0.8709
11152SOL    HW244136   5.038   0.663   1.254 -0.5301  0.4580  2.3049
11153SOL     OW44137   8.358   1.646   0.756 -0.1206  0.1553  0.0922
11153SOL    HW144138   8.346   1.735   0.801 -0.8556  1.0791 -1.8665
11153SOL    HW244139   8.271   1.598   0.752  0.1806 -0.4499  0.7087
11154SOL     OW44140   6.873   1.102   2.068 -0.3548 -0.5338 -0.0665
11154SOL    HW144141   6.817   1.154   2.132  0.8137  0.2566  0.3355
11154SOL    HW244142   6.862   1.004   2.085 -2.3192 -0.4204 -0.6136
11155SOL     OW44143   0.506   0.561   3.037  0.3903  0.2951  0.4652
11155SOL    HW144144   0.518   0.474   3.085  1.9270  0.2233 -0.0493
11155SOL    HW244145   0.542   0.635   3.093 -0.4659  0.5592  0.6818
11156SOL     OW44146   0.402   4.021   3.275 -0.0829  0.3750 -0.0372
11156SOL    HW144147   0.411   3.926   3.304 -4.8236 -0.0221  0.6210
11156SOL    HW244148   0.407   4.027   3.176 -1.2693 -0.8212 -0.1865
11157SOL     OW44149   2.365   5.419   0.457 -0.1154  0.1640 -0.6734
11157SOL    HW144150   2.391   5.481   0.383 -0.8507 -1.9811 -2.8156
11157SOL    HW244151   2.266   5.409   0.458 -0.1149  0.2774  0.7110
11158SOL     OW44152   4.940   3.736   3.210  0.0110 -0.7569  0.3788
11158SOL    HW144153   4.872   3.668   3.184  0.8636 -1.6598  0.4399
11158SOL    HW244154   4.998   3.757   3.131 -2.1864  2.2628 -0.5095
11159SOL     OW44155   3.966   0.598   3.547  0.2685  1.1137  0.7196
11159SOL    HW144156   4.003   0.505   3.556  0.0702  0.9967  0.3545
11159SOL    HW244157   3.869   0.592   3.523  0.6339  1.4110 -0.9162
11160SOL     OW44158   2.028   2.516   4.265  0.2150 -0.2617 -0.2530
11160SOL    HW144159   2.040   2.431   4.316  0.4291 -0.9089 -1.3457
11160SOL    HW244160   1.969   2.499   4.186  1.7075  0.1626 -1.5028
11161SOL     OW44161   2.340   9.392   4.190  0.6359  0.1455  0.6328
11161SOL    HW144162   2.294   9.397   4.279 -2.2858  1.2134 -0.8414
11161SOL    HW244163   2.417   9.455   4.188 -0.4745  1.5798  1.8008
11162SOL     OW44164   0.064   8.688   4.949 -0.2314  0.0561 -0.1445
11162SOL    HW144165   0.145   8.630   4.956  0.4639  0.6397 -2.9116
11162SOL    HW244166  -0.013   8.634   4.915 -0.0697  0.3463 -0.9598
11163SOL     OW44167   9.142   1.450   0.231 -0.5576 -0.0458 -0.5375
11163SOL    HW144168   9.159   1.516   0.157 -1.9919 -2.0038 -2.6612
11163SOL    HW244169   9.060   1.477   0.281  0.4734  1.3408  0.4588
11164SOL     OW44170   5.150   8.626   3.399  0.8484 -0.1919  0.0376
11164SOL    HW144171   5.050   8.627   3.399  0.8499  0.6139  0.4323
11164SOL    HW244172   5.184   8.678   3.320  0.9547  0.1146  0.2847
11165SOL     OW44173   1.850   4.907   3.403  0.1699 -0.2506  0.2881
11165SOL    HW144174   1.829   4.817   3.442  0.7565 -0.3530  0.3765
11165SOL    HW244175   1.771   4.941   3.352 -0.0006 -0.8828  0.1271
11166SOL     OW44176   8.176   9.580   3.739  0.3236  0.3003  0.5056
11166SOL    HW144177   8.236   9.512   3.782 -1.0199 -0.8676  0.5419
11166SOL    HW244178   8.081   9.551   3.748 -0.3104  2.4904  1.0597
11167SOL     OW44179   9.687   2.642   1.069 -0.3208  0.0317  0.4537
11167SOL    HW144180   9.627   2.722   1.066  1.0300  1.0930  1.0409
11167SOL    HW244181   9.781   2.671   1.049  0.6231 -0.9619  3.2125
11168SOL     OW44182   1.231   2.399   5.280 -0.0371  0.4435 -0.0081
11168SOL    HW144183   1.300   2.365   5.344 -0.7043  0.8929  0.9547
11168SOL    HW244184   1.276   2.453   5.209  0.6579  0.3217  0.3296
11169SOL     OW44185   4.281   9.192   1.570 -0.2580  0.3700 -0.1896
11169SOL    HW144186   4.330   9.245   1.501 -0.8219  0.7203 -0.3321
11169SOL    HW244187   4.293   9.235   1.659  0.2433  0.0729 -0.1119
11170SOL     OW44188   1.164   6.756   2.617  0.0598  0.4294 -0.0995
11170SOL    HW144189   1.073   6.733   2.652  0.3383 -1.6204 -0.6886
11170SOL    HW244190   1.195   6.685   2.554  2.0752  1.1231  0.0702
11171SOL     OW44191   3.883   8.748   5.020 -0.2278 -0.4293  0.2264
11171SOL    HW144192   3.884   8.705   4.929  1.3469 -1.2981  0.6197
11171SOL    HW244193   3.963   8.716   5.072  1.1203  3.1917  0.4675
11172SOL     OW44194   4.440   0.261   3.451 -0.2467 -0.1957  0.4303
11172SOL    HW144195   4.414   0.356   3.464  0.9422  0.2142 -0.1331
11172SOL    HW244196   4.361   0.202   3.471 -2.3831  1.1228 -3.5922
11173SOL     OW44197   6.600   9.695   1.581  0.4752 -0.2092 -0.5666
11173SOL    HW144198   6.648   9.782   1.581 -0.4809  0.3436  1.1910
11173SOL    HW244199   6.626   9.642   1.662 -1.9287  0.1519  0.4725
11174SOL     OW44200   1.778   4.335   2.471 -0.3447 -0.5619  0.1541
11174SOL    HW144201   1.727   4.327   2.385  0.5985 -0.3782 -0.4254
11174SOL    HW244202   1.845   4.261   2.478  0.1423 -0.1110  0.3514
11175SOL     OW44203   3.528   8.220   3.095  0.1887 -0.3467  0.1125
11175SOL    HW144204   3.575   8.273   3.024  1.7370 -1.1083  0.5570
11175SOL    HW244205   3.565   8.243   3.184 -1.9605  0.8183  0.7353
11176SOL     OW44206   3.708   0.904   2.580 -0.2668  0.0782  0.2733
11176SOL    HW144207   3.729   0.999   2.557 -0.3447 -0.2107 -1.0269
11176SOL    HW244208   3.636   0.902   2.650  0.0722  0.9790  0.6594
11177SOL     OW44209   6.989   2.248   2.769 -0.2514  0.1190 -0.3516
11177SOL    HW144210   7.033   2.167   2.808 -2.0336 -1.0120 -0.6230
11177SOL    HW244211   6.890   2.232   2.762 -0.1006  0.5850 -4.5805
11178SOL     OW44212   3.221   5.153   1.835 -0.7810  0.2388 -0.2416
11178SOL    HW144213   3.307   5.135   1.787 -2.1921  2.0280 -3.5697
11178SOL    HW244214   3.144   5.130   1.776 -2.6880 -1.5786  2.7904
11179SOL     OW44215   7.762   2.884   1.160 -0.2895  0.1312  0.3063
11179SOL    HW144216   7.671   2.844   1.146  0.1317 -0.4942 -0.6632
11179SOL    HW244217   7.757   2.950   1.234 -1.3836 -0.4336  0.7590
11180SOL     OW44218   3.393   2.209   5.549  0.0511  0.8415  0.1976
11180SOL    HW144219   3.370   2.213   5.452 -0.2416 -0.3948  0.2132
11180SOL    HW244220   3.340   2.137   5.594 -1.2760  2.6787  1.6978
11181SOL     OW44221   1.435   3.779   3.285 -0.6937 -0.1311  0.5293
11181SOL    HW144222   1.504   3.741   3.346  0.1720 -0.2443 -0.5004
11181SOL    HW244223   1.353   3.723   3.287 -1.1706  0.5930  2.5712
11182SOL     OW44224   3.086   2.778   3.414  0.5069  0.5643 -0.4243
11182SOL    HW144225   3.167   2.837   3.417  0.9286  0.0379 -1.1555
11182SOL    HW244226   3.004   2.834   3.421  0.8518  1.4433 -2.8561
11183SOL     OW44227   8.750   3.429   3.089  0.0826  0.2091 -0.4468
11183SOL    HW144228   8.720   3.510   3.040 -0.5787  0.5761  0.5555
11183SOL    HW244229   8.714   3.431   3.183  3.3148  0.7594  0.8676
11184SOL     OW44230   1.481   2.707   2.260  0.3673  1.0144 -0.3449
11184SOL    HW144231   1.450   2.765   2.336  0.1793  0.8067 -0.2650
11184SOL    HW244232   1.504   2.616   2.294  2.1397  1.4942 -0.2060
11185SOL     OW44233   6.799   8.786   3.477 -0.0503 -0.3245 -0.5366
11185SOL    HW144234   6.890   8.810   3.444  0.2050  0.5453  0.7648
11185SOL    HW244235   6.734   8.857   3.449  0.2005  0.5129  0.9292
11186SOL     OW44236   1.217   6.551   2.433  0.3792 -0.1353 -0.0074
11186SOL    HW144237   1.287   6.594   2.376  0.3129 -0.7474 -0.5585
11186SOL    HW244238   1.182   6.470   2.386 -0.9785  0.3908  0.0880
11187SOL     OW44239   6.657   6.914   3.039  0.0231  0.1872  0.3633
11187SOL    HW144240   6.567   6.870   3.051 -0.0810  0.6268  1.2388
11187SOL    HW244241   6.713   6.897   3.120  0.5154  0.4151  0.0679
11188SOL     OW44242   1.463   8.904   5.440  0.1470 -0.5808 -0.6037
11188SOL    HW144243   1.555   8.866   5.448 -0.9401 -2.7582  2.2332
11188SOL    HW244244   1.463   8.998   5.477  0.8661 -1.2340  1.1339
11189SOL     OW44245   7.862   9.735   3.885 -0.0961  0.2275 -0.0235
11189SOL    HW144246   7.931   9.710   3.952 -2.1656 -0.1579  2.0134
11189SOL    HW244247   7.771   9.725   3.925 -1.4739 -1.4468 -3.3465
11190SOL     OW44248   3.312   2.075   1.014 -0.0897 -0.1812 -0.2067
11190SOL    HW144249   3.300   2.143   0.941  1.5904 -0.0837 -0.4156
11190SOL    HW244250   3.392   2.019   0.994 -0.0972 -0.6892  1.1580
11191SOL     OW44251   3.810   0.244   4.154  0.6915 -0.2197  0.5655
11191SOL    HW144252   3.895   0.271   4.109  0.4708  0.1531  0.3736
11191SOL    HW244253   3.789   0.149   4.131  0.3933  0.0738 -0.3993
11192SOL     OW44254   9.898   6.642   2.419  0.4040 -0.6829 -0.5396
11192SOL    HW144255   9.810   6.663   2.376  0.6833  0.7777 -0.4116
11192SOL    HW244256   9.927   6.550   2.391  0.9591  0.5106 -4.1759
11193SOL     OW44257   0.890   1.515   4.143  0.7439 -0.3663 -0.3877
11193SOL    HW144258   0.929   1.423   4.153  3.0201  0.9045  3.2339
11193SOL    HW244259   0.961   1.579   4.116 -0.3005  0.8212 -0.3731
11194SOL     OW44260   2.656   8.133   4.862 -0.0480 -0.0226 -0.0523
11194SOL    HW144261   2.666   8.085   4.950  0.9535  1.3530  0.5850
11194SOL    HW244262   2.676   8.230   4.874 -0.6338  0.3074 -1.6576
11195SOL     OW44263   2.942   4.442   3.771  0.6726  0.1829 -0.2315
11195SOL    HW144264   2.939   4.532   3.726 -0.5330  0.1397 -0.2610
11195SOL    HW244265   2.852   4.422   3.810  0.3703 -1.8498 -1.8734
11196SOL     OW44266   4.045   2.000   2.863  0.1995 -0.1002 -0.3854
11196SOL    HW144267   4.107   2.067   2.904  0.2936 -0.0807 -0.5582
11196SOL    HW244268   3.969   1.981   2.926  0.0713  0.3105 -0.4129
11197SOL     OW44269   0.616   0.183   3.519 -0.4456 -0.2162 -0.0860
11197SOL    HW144270   0.694   0.205   3.460  0.9683 -0.3147  1.7196
11197SOL    HW244271   0.538   0.241   3.494  0.3801  0.2977 -1.5094
11198SOL     OW44272   9.311   0.943   4.493  0.3615 -0.1244  0.7703
11198SOL    HW144273   9.383   0.901   4.437  2.2163  1.8434  1.5934
11198SOL    HW244274   9.237   0.974   4.433  1.6811  0.7048 -0.4756
11199SOL     OW44275   1.705   7.102   0.485  0.3451  0.0662  0.3489
11199SOL    HW144276   1.764   7.035   0.530 -1.8637 -0.7506  2.1090
11199SOL    HW244277   1.665   7.163   0.553 -2.7001 -0.9182 -0.4583
11200SOL     OW44278   1.397   0.377   2.461 -0.2192 -0.2640  0.5092
11200SOL    HW144279   1.463   0.336   2.398 -0.1102 -1.0496  1.1365
11200SOL    HW244280   1.334   0.307   2.494  0.6425 -0.1580  2.4385
11201SOL     OW44281   1.567   2.383   0.638  0.0215 -0.6544  0.3745
11201SOL    HW144282   1.472   2.361   0.658 -0.7915  2.2283 -0.0286
11201SOL    HW244283   1.603   2.444   0.708  1.3752 -1.2115  0.1833
11202SOL     OW44284   2.281   1.822   1.844 -0.0584 -0.4284  0.2216
11202SOL    HW144285   2.215   1.780   1.781 -0.1711 -0.6993  0.5163
11202SOL    HW244286   2.373   1.789   1.824 -0.1547 -0.8654  0.4908
11203SOL     OW44287   7.135   0.167   4.283  0.4458 -0.4779  0.2159
11203SOL    HW144288   7.071   0.156   4.207 -0.8013  0.0732  1.1551
11203SOL    HW244289   7.213   0.107   4.271 -0.5918 -1.6730 -0.6065
11204SOL     OW44290   1.715   8.809   2.476  0.4712  0.4560  0.0697
11204SOL    HW144291   1.755   8.899   2.493  0.3985  0.0692  2.5664
11204SOL    HW244292   1.774   8.738   2.515 -1.0397 -0.3426  0.9630
11205SOL     OW44293   9.683   0.755   0.159 -0.1173  0.3762  0.3240
11205SOL    HW144294   9.655   0.821   0.090 -2.8270  1.1073  2.0487
11205SOL    HW244295   9.777   0.774   0.188 -0.5644  2.9395  0.1705
11206SOL     OW44296   0.760   8.716   2.890  0.0646 -0.2063  0.4698
11206SOL    HW144297   0.832   8.668   2.941  0.3029  0.3360  0.6432
11206SOL    HW244298   0.679   8.725   2.948  0.8938  1.8675  1.3530
11207SOL     OW44299   1.942   9.734   4.449  0.0370  0.1260 -0.0115
11207SOL    HW144300   2.006   9.781   4.509 -1.4085  1.0198  0.8525
11207SOL    HW244301   1.915   9.795   4.374  0.4565 -0.3632 -0.5658
11208SOL     OW44302   0.982   4.820   3.282  0.4246  0.4057 -0.2074
11208SOL    HW144303   1.062   4.778   3.326  0.0081 -1.3648 -1.0857
11208SOL    HW244304   0.905   4.820   3.345  0.8139  1.1868  0.2865
11209SOL     OW44305   2.024   7.012   1.344 -0.1532  0.1823  0.6064
11209SOL    HW144306   1.951   7.029   1.410 -0.2193 -1.4025  0.9444
11209SOL    HW244307   2.083   6.939   1.377  1.3800  1.1899  0.1468
11210SOL     OW44308   4.560   3.614   2.420  0.1668 -0.1799 -0.1410
11210SOL    HW144309   4.482   3.560   2.452  0.2333 -0.4611 -0.4433
11210SOL    HW244310   4.586   3.681   2.490 -0.3278 -0.1040 -0.0276
11211SOL     OW44311   3.514   0.989   0.854 -0.0484  0.1570  0.6671
11211SOL    HW144312   3.509   1.066   0.917  2.7028  0.3116  0.7555
11211SOL    HW244313   3.571   1.013   0.776 -0.8542 -1.1013 -0.3468
11212SOL     OW44314   3.255   4.109   2.942  0.2260 -0.0860  0.5343
11212SOL    HW144315   3.259   4.155   3.031  0.6124  1.3242 -0.1803
11212SOL    HW244316   3.306   4.164   2.875  0.7128 -1.6031 -0.3503
11213SOL     OW44317   3.788   6.847   1.508  0.5853 -0.5914  0.3852
11213SOL    HW144318   3.768   6.779   1.579  0.4635 -0.4580  0.4779
11213SOL    HW244319   3.851   6.915   1.545  0.8828 -0.7741  0.2250
11214SOL     OW44320   8.053   0.058   1.593  0.2586  0.1170 -0.1314
11214SOL    HW144321   8.089   0.121   1.525  0.5769 -1.1066 -1.1115
11214SOL    HW244322   8.049   0.104   1.682 -0.0329  1.6785 -0.9357
11215SOL     OW44323   8.451   2.305   2.326 -0.9353 -0.2512  0.1262
11215SOL    HW144324   8.534   2.312   2.381 -0.9261  1.7784 -0.0948
11215SOL    HW244325   8.474   2.318   2.230 -1.6148  1.5259  0.1661
11216SOL     OW44326   3.096   2.353   2.382 -0.2793 -0.3743  0.3356
11216SOL    HW144327   3.191   2.379   2.399 -0.1899  0.2595 -0.9887
11216SOL    HW244328   3.093   2.273   2.322 -0.5566  0.3185 -0.6081
11217SOL     OW44329   3.747   1.669   0.555 -0.3342 -0.6635 -0.4095
11217SOL    HW144330   3.679   1.603   0.584 -1.7974  1.0076  0.0270
11217SOL    HW244331   3.702   1.755   0.529  1.6078  0.6128  0.3089
11218SOL     OW44332   9.768   0.321   3.790 -0.2257  0.0332  0.0758
11218SOL    HW144333   9.781   0.379   3.710  0.7926 -0.2347  0.0470
11218SOL    HW244334   9.732   0.376   3.866  3.1025  1.2852  0.8423
11219SOL     OW44335   0.331   1.329   3.308 -0.1573  0.2634  0.3318
11219SOL    HW144336   0.277   1.411   3.327  1.6056  1.3089  0.8812
11219SOL    HW244337   0.345   1.321   3.209  1.2413  1.6576  0.4050
11220SOL     OW44338   2.443   8.560   5.438 -0.6232  0.2622 -0.5478
11220SOL    HW144339   2.461   8.645   5.389 -1.3658  0.8737  0.2195
11220SOL    HW244340   2.345   8.553   5.459 -0.2882  0.1548  1.0647
11221SOL     OW44341   3.967   0.953   4.151  0.1455  0.4431  0.2379
11221SOL    HW144342   4.015   0.979   4.067 -0.3788  1.7650  0.3399
11221SOL    HW244343   3.935   0.859   4.143  0.9927  0.2175 -0.6335
11222SOL     OW44344   0.014   0.543   0.283 -0.2785  0.0780 -0.2552
11222SOL    HW144345  -0.077   0.512   0.310 -0.6021  0.8644 -0.4319
11222SOL    HW244346   0.081   0.511   0.350 -0.6270 -0.8780 -0.3644
11223SOL     OW44347   5.331   7.371   4.025 -0.3801 -0.1288  0.0393
11223SOL    HW144348   5.318   7.279   3.990 -1.4468  0.0214  0.0359
11223SOL    HW244349   5.349   7.434   3.949  1.5750 -0.5198  0.1338
11224SOL     OW44350   3.362   9.093   4.017  0.0459  0.1196 -0.1179
11224SOL    HW144351   3.450   9.060   4.051  2.0261  4.7125 -0.3320
11224SOL    HW244352   3.302   9.113   4.095  1.0274  1.5717  0.2815
11225SOL     OW44353   4.044   4.747   5.319 -0.5206  0.1029  0.0987
11225SOL    HW144354   3.949   4.750   5.347 -0.2348 -0.5290  1.1458
11225SOL    HW244355   4.103   4.765   5.398  0.2261  0.5421 -0.5487
11226SOL     OW44356   0.246   0.662   3.694  0.2341  0.7004 -0.0013
11226SOL    HW144357   0.188   0.647   3.614  1.5403 -0.4251 -0.7574
11226SOL    HW244358   0.198   0.720   3.760 -2.2811 -1.2295 -0.0330
11227SOL     OW44359   2.749   1.215   5.198  0.2287  0.4498  0.2638
11227SOL    HW144360   2.702   1.150   5.139  0.7448  0.8364 -0.5804
11227SOL    HW244361   2.734   1.190   5.294 -0.0086 -0.5997 -0.0421
11228SOL     OW44362   1.295   7.323   2.590  0.7579  0.0397  0.2959
11228SOL    HW144363   1.296   7.423   2.587  0.2893  0.0183 -0.8736
11228SOL    HW244364   1.210   7.292   2.633  1.5737  0.1601  2.0211
11229SOL     OW44365   3.654   5.846   2.639 -0.1342  0.1172  0.4782
11229SOL    HW144366   3.645   5.751   2.611 -1.1833  0.6394 -1.0159
11229SOL    HW244367   3.746   5.862   2.676 -1.5685 -2.7145  5.7084
11230SOL     OW44368   0.901   9.342   2.885  0.1453  0.2167 -0.2218
11230SOL    HW144369   0.829   9.296   2.938 -0.0917  3.4064  2.3861
11230SOL    HW244370   0.870   9.354   2.791 -2.6755  1.2258  0.7753
11231SOL     OW44371   0.644   4.967   1.037 -0.4305  0.1700 -0.3453
11231SOL    HW144372   0.660   4.980   0.940 -2.7909  0.1166 -0.7721
11231SOL    HW244373   0.546   4.961   1.055 -0.0548  0.4533  2.0763
11232SOL     OW44374   1.141   0.658   4.565  0.9910 -0.2941 -0.4690
11232SOL    HW144375   1.234   0.659   4.601  0.6230  0.8431  0.4914
11232SOL    HW244376   1.141   0.618   4.473  2.3567 -0.6759 -0.3134
11233SOL     OW44377   6.879   9.765   0.679 -0.0673 -0.2460 -0.3050
11233SOL    HW144378   6.913   9.849   0.635 -0.6438  0.4004  0.4777
11233SOL    HW244379   6.822   9.789   0.757  1.9207 -1.4065  1.5519
11234SOL     OW44380   0.791   6.893   0.544  0.4102  0.1274  0.0880
11234SOL    HW144381   0.729   6.876   0.467 -1.0218  0.3136  1.1863
11234SOL    HW244382   0.779   6.986   0.577  1.1145  0.0857  0.4679
11235SOL     OW44383   0.521   5.029   3.431  0.2935  0.1117 -0.4150
11235SOL    HW144384   0.609   5.077   3.438 -0.2587  0.8344  2.1385
11235SOL    HW244385   0.460   5.080   3.370  0.8420  0.9079 -0.3060
11236SOL     OW44386   3.483   5.048   0.905  0.8196 -0.0775 -0.1566
11236SOL    HW144387   3.507   5.059   1.002  1.1974 -0.7456 -0.1736
11236SOL    HW244388   3.552   4.992   0.860  1.8707  2.0780 -1.3277
11237SOL     OW44389   0.931   0.953   2.001 -0.6194  0.0880 -0.2623
11237SOL    HW144390   1.017   0.902   1.989 -1.2045 -1.1546  0.7337
11237SOL    HW244391   0.951   1.043   2.038  0.5405  1.0673 -3.1559
11238SOL     OW44392   6.043   1.167   2.672 -0.3899 -0.3730  0.2102
11238SOL    HW144393   5.978   1.122   2.612  2.0777 -0.5734 -2.4318
11238SOL    HW244394   6.077   1.250   2.627 -0.1742  0.6974  2.3117
11239SOL     OW44395   9.814   1.489   0.205 -0.4543  0.4643 -0.5797
11239SOL    HW144396   9.859   1.568   0.163 -0.0157  1.3302  1.4754
11239SOL    HW244397   9.882   1.434   0.253 -1.1217  0.1157 -0.0242
11240SOL     OW44398   9.350   4.353   2.170  0.1784 -0.5321  0.5576
11240SOL    HW144399   9.330   4.397   2.257  0.8810 -1.7768  1.3631
11240SOL    HW244400   9.422   4.404   2.122 -2.6394  2.1925 -0.9534
11241SOL     OW44401   4.231   7.238   1.609  0.1575 -0.6188  0.4175
11241SOL    HW144402   4.261   7.199   1.522  0.8538  2.4400 -0.7852
11241SOL    HW244403   4.311   7.265   1.663 -0.2803 -2.1905  1.8855
11242SOL     OW44404   9.606   0.371   5.430 -0.2017  0.0192 -0.0848
11242SOL    HW144405   9.613   0.298   5.497  0.4653  0.7662  0.6778
11242SOL    HW244406   9.691   0.376   5.377 -0.0325  0.5739  0.2282
11243SOL     OW44407   2.472   6.370   1.874 -0.3041  0.1543 -0.0057
11243SOL    HW144408   2.408   6.441   1.902 -0.7572  0.1648 -1.0704
11243SOL    HW244409   2.463   6.353   1.776  0.4868 -0.6799  0.0600
11244SOL     OW44410   1.414   5.033   0.874  0.4976  0.0409 -0.1568
11244SOL    HW144411   1.395   5.129   0.895  1.2410 -0.1132  1.2711
11244SOL    HW244412   1.506   5.025   0.836  1.2213 -0.3509  1.6519
11245SOL     OW44413   2.346   4.422   2.638  0.2586 -0.7692 -0.0720
11245SOL    HW144414   2.399   4.379   2.565 -1.0193 -1.2204 -0.7406
11245SOL    HW244415   2.252   4.437   2.608 -0.6327 -2.1118  1.8623
11246SOL     OW44416   4.684   4.361   1.632 -0.2521  0.1108 -0.6567
11246SOL    HW144417   4.744   4.297   1.680 -2.2680  0.1640  2.0784
11246SOL    HW244418   4.673   4.444   1.687 -1.0582  1.0372 -2.1835
11247SOL     OW44419   2.129   4.371   3.542  0.3176  0.0239  0.1414
11247SOL    HW144420   2.154   4.467   3.527 -0.4762 -0.2289 -3.0480
11247SOL    HW244421   2.029   4.363   3.549  0.1642 -0.9236 -2.6895
11248SOL     OW44422   8.235   7.338   1.866  0.2169 -0.2818 -0.0319
11248SOL    HW144423   8.189   7.296   1.788 -0.6180  0.3405  0.1203
11248SOL    HW244424   8.317   7.385   1.836 -1.9859  3.0454 -1.1174
11249SOL     OW44425   2.522   1.997   3.619 -0.2103  0.4455  0.0094
11249SOL    HW144426   2.505   2.076   3.560  2.2377  1.1272  0.1776
11249SOL    HW244427   2.610   2.008   3.665 -0.4386 -1.7800  1.0368
11250SOL     OW44428   8.377   9.271   5.606  0.3123  0.7520  0.4314
11250SOL    HW144429   8.442   9.337   5.643  2.2520 -1.1149  0.4616
11250SOL    HW244430   8.361   9.291   5.509 -0.4468  2.2677  0.8501
11251SOL     OW44431   4.436   3.711   2.178  0.6317  0.3340 -0.4684
11251SOL    HW144432   4.391   3.783   2.231 -1.6409 -1.5004  0.1602
11251SOL    HW244433   4.486   3.651   2.239  0.1634 -0.2695 -0.6734
11252SOL     OW44434   4.252   9.670   5.238  0.7335 -0.0169 -0.5870
11252SOL    HW144435   4.167   9.699   5.282  0.7539  0.0649 -0.6017
11252SOL    HW244436   4.296   9.748   5.194  0.3742 -0.2159 -1.3209
11253SOL     OW44437   1.754   7.454   4.478 -0.6601 -0.3140  0.0031
11253SOL    HW144438   1.740   7.436   4.576  0.0788  1.8299  0.5513
11253SOL    HW244439   1.698   7.532   4.450 -1.0366 -1.0583 -1.3490
11254SOL     OW44440   9.531   2.104   2.337 -0.0403  1.0078 -0.5283
11254SOL    HW144441   9.625   2.094   2.305  0.0036 -1.0842  0.1950
11254SOL    HW244442   9.468   2.067   2.269 -0.1100 -0.8608  0.5205
11255SOL     OW44443   7.136   8.134   1.368 -0.5706  0.2108  0.7467
11255SOL    HW144444   7.041   8.163   1.366 -0.8529 -0.7570 -2.5219
11255SOL    HW244445   7.141   8.034   1.359  0.7374  0.2952  0.3434
11256SOL     OW44446   3.954   7.823   2.409 -0.1856 -0.4443  0.0096
11256SOL    HW144447   3.940   7.821   2.310  1.5719  2.4559 -0.3669
11256SOL    HW244448   4.027   7.759   2.433  2.2293  1.7889 -1.1587
11257SOL     OW44449   5.514   9.442   3.201 -0.7718  0.0678 -0.0355
11257SOL    HW144450   5.448   9.369   3.184  0.2164 -0.8276 -0.0667
11257SOL    HW244451   5.465   9.525   3.226 -1.9053 -0.6554  0.2086
11258SOL     OW44452   9.035   1.479   3.634 -0.0719 -0.5469  0.6844
11258SOL    HW144453   8.938   1.480   3.656 -0.1139 -1.0864  0.5240
11258SOL    HW244454   9.070   1.573   3.634 -0.6218 -0.3402  0.6024
11259SOL     OW44455   3.083   8.972   3.136 -0.6865 -0.1480 -0.6599
11259SOL    HW144456   3.018   9.048   3.131 -0.8161 -0.2525 -0.5315
11259SOL    HW244457   3.040   8.888   3.104 -0.6564 -0.2420 -0.4613
11260SOL     OW44458   1.867   2.242   3.661 -0.2741 -0.7184 -0.0711
11260SOL    HW144459   1.966   2.257   3.659 -0.3066 -0.3853  0.4356
11260SOL    HW244460   1.845   2.156   3.616  0.2184 -0.6478 -0.4525
11261SOL     OW44461   3.607   2.933   2.576  0.3431 -0.7525 -0.5027
11261SOL    HW144462   3.525   2.887   2.542  0.7865 -1.5829 -0.4686
11261SOL    HW244463   3.581   3.010   2.633 -0.4180 -0.9837 -0.5340
11262SOL     OW44464   4.401   2.157   1.343  0.4914 -0.0352 -0.0576
11262SOL    HW144465   4.448   2.222   1.284  0.6141  0.6317  0.7724
11262SOL    HW244466   4.334   2.205   1.399  0.4191 -0.6602  0.3963
11263SOL     OW44467   9.568   8.282   4.319 -0.0614  0.6945  0.4236
11263SOL    HW144468   9.637   8.249   4.384  0.4731 -1.4595 -1.1844
11263SOL    HW244469   9.613   8.309   4.234 -0.9426  1.7127  0.2850
11264SOL     OW44470   3.329   2.683   0.671 -0.0418 -0.3591  0.0178
11264SOL    HW144471   3.303   2.660   0.578  0.2257  2.4239 -0.8050
11264SOL    HW244472   3.426   2.708   0.673 -0.6207  1.9458  0.5493
11265SOL     OW44473   3.335   4.364   3.734  0.5052 -0.4924 -0.0026
11265SOL    HW144474   3.318   4.340   3.830  0.8507 -1.8241 -0.2653
11265SOL    HW244475   3.423   4.412   3.727 -1.2958  3.0956  0.8523
11266SOL     OW44476   9.743   1.268   2.516  0.1375  0.6500 -0.5228
11266SOL    HW144477   9.682   1.326   2.463 -1.4015  1.2263  1.7865
11266SOL    HW244478   9.688   1.202   2.569  1.5763  0.4152  0.7023
11267SOL     OW44479   4.619   1.845   4.224  0.2698  0.4943  0.3278
11267SOL    HW144480   4.580   1.846   4.316  0.4410 -1.4374  0.4421
11267SOL    HW244481   4.597   1.931   4.177 -0.3683  1.2256  1.9285
11268SOL     OW44482   0.516   0.755   0.379  0.0230  0.4804 -0.2431
11268SOL    HW144483   0.579   0.814   0.430 -0.6734  0.1125  1.0780
11268SOL    HW244484   0.500   0.671   0.431 -1.9168  0.7725 -0.3433
11269SOL     OW44485   5.978   8.553   3.743  0.3154 -0.0282 -0.0957
11269SOL    HW144486   6.028   8.475   3.704 -0.3635 -0.9739  0.8961
11269SOL    HW244487   5.879   8.536   3.737  0.1637  0.6892  0.2634
11270SOL     OW44488   2.462   1.011   2.377  0.2933  0.4654  0.1962
11270SOL    HW144489   2.407   1.056   2.307 -0.7239 -0.6382  0.2777
11270SOL    HW244490   2.402   0.958   2.438  1.0465  2.1196  2.4536
11271SOL     OW44491   0.108   7.474   1.268  0.2422 -0.3126 -0.7488
11271SOL    HW144492   0.105   7.504   1.173  3.0098 -0.5791 -0.9560
11271SOL    HW244493   0.159   7.540   1.323  0.5042 -1.2382  0.1423
11272SOL     OW44494   0.721   9.573   0.079  0.0134  0.6255  0.3945
11272SOL    HW144495   0.792   9.641   0.059 -0.7834  1.3254 -0.0745
11272SOL    HW244496   0.745   9.486   0.035  0.9115  0.6716  0.7886
11273SOL     OW44497   3.368   7.724   0.663  0.6365  0.2453 -0.2389
11273SOL    HW144498   3.356   7.746   0.760  1.7966  1.6792 -0.4057
11273SOL    HW244499   3.353   7.627   0.649 -0.6450  0.2152  1.2017
11274SOL     OW44500   9.422   1.652   1.060 -1.0046  0.3208  0.1777
11274SOL    HW144501   9.509   1.650   1.010  0.6454 -1.4432  3.0334
11274SOL    HW244502   9.348   1.627   0.997  1.3107 -4.4065 -0.9235
11275SOL     OW44503   9.546   9.603   1.567  0.1860  0.4841 -0.0045
11275SOL    HW144504   9.624   9.558   1.610  0.0450  0.1471 -0.0952
11275SOL    HW244505   9.477   9.534   1.543 -0.1996  0.7962  0.2024
11276SOL     OW44506   2.428   6.912   4.966  0.4827 -0.4136 -0.0398
11276SOL    HW144507   2.487   6.993   4.961  1.3261 -0.9007  1.7375
11276SOL    HW244508   2.484   6.830   4.973 -0.3566 -1.2757 -2.8642
11277SOL     OW44509   4.697   4.240   0.392 -0.3254  0.2882  0.6832
11277SOL    HW144510   4.721   4.273   0.301  2.9706 -1.7622  0.7111
11277SOL    HW244511   4.728   4.305   0.461 -0.9456  0.8401  0.4491
11278SOL     OW44512   5.612   1.059   0.977 -0.3257  0.5940  0.1636
11278SOL    HW144513   5.640   0.973   1.020  1.2966  1.3525  0.6644
11278SOL    HW244514   5.684   1.090   0.915 -0.9528  1.5275 -0.1088
11279SOL     OW44515   9.934   5.040   1.908  0.3100 -0.0570 -0.3081
11279SOL    HW144516   9.850   4.985   1.906  1.2983 -1.5718 -1.3852
11279SOL    HW244517  10.005   4.990   1.958  0.5652  1.2652  0.6890
11280SOL     OW44518   2.265   4.225   3.356 -0.0383 -0.0928 -0.1224
11280SOL    HW144519   2.224   4.213   3.266  0.0361  2.0325 -0.4694
11280SOL    HW244520   2.199   4.270   3.417 -0.4486 -2.3734  1.2106
11281SOL     OW44521   3.222   0.336   4.627 -0.0186  0.3744 -0.4145
11281SOL    HW144522   3.245   0.262   4.690 -0.2147  0.9011  0.2772
11281SOL    HW244523   3.241   0.307   4.533 -1.1853 -0.9869 -0.2476
11282SOL     OW44524   9.558   2.092   0.141  0.2706  0.2161  0.6131
11282SOL    HW144525   9.625   2.123   0.074 -0.5704  0.1155 -0.2851
11282SOL    HW244526   9.597   2.017   0.195  0.8513  0.0965  0.0387
11283SOL     OW44527   2.211   1.829   3.928  0.0650 -0.1933  0.7352
11283SOL    HW144528   2.159   1.832   4.014 -0.8247 -1.3985  0.2617
11283SOL    HW244529   2.208   1.736   3.891  0.6673  0.2596 -0.4663
11284SOL     OW44530   2.632   7.402   4.888  0.1260  0.5246 -0.1382
11284SOL    HW144531   2.566   7.416   4.814  0.3166  0.3411 -0.3496
11284SOL    HW244532   2.723   7.431   4.856  0.1928  0.5246  0.0542
11285SOL     OW44533   2.339   7.190   1.322  0.3239 -0.2381  0.1645
11285SOL    HW144534   2.396   7.107   1.326  1.7257  0.6162 -1.7033
11285SOL    HW244535   2.248   7.169   1.360  0.8389 -2.4787  0.2595
11286SOL     OW44536   0.583   8.808   1.190 -0.6239  0.3519 -0.0068
11286SOL    HW144537   0.558   8.859   1.108 -0.9160  2.1748  1.1869
11286SOL    HW244538   0.676   8.773   1.180 -0.9302 -0.0680 -1.4167
11287SOL     OW44539   1.947   2.823   1.009 -0.2396  0.1264  0.0869
11287SOL    HW144540   1.912   2.796   1.099  1.1692  1.7518  1.1453
11287SOL    HW244541   1.905   2.910   0.982 -1.1025 -0.6556 -1.1039
11288SOL     OW44542   8.050   0.749   0.808 -0.2064 -0.1045  0.3662
11288SOL    HW144543   7.972   0.788   0.858  0.1006 -0.3410  1.0408
11288SOL    HW244544   8.088   0.673   0.861  0.3650 -0.1116 -0.0545
11289SOL     OW44545   2.498   0.424   0.552 -0.2223 -0.1009 -0.2032
11289SOL    HW144546   2.456   0.349   0.501  0.2457 -0.7285  0.3251
11289SOL    HW244547   2.486   0.408   0.650 -0.0852  0.4968 -0.0887
11290SOL     OW44548   7.223   9.297   5.561  0.2253  0.9040 -0.1069
11290SOL    HW144549   7.314   9.336   5.551 -0.4247  2.1426 -1.4274
11290SOL    HW244550   7.154   9.366   5.535 -0.9597 -0.9742 -2.0970
11291SOL     OW44551   3.500   3.695   4.147 -0.2535 -0.3295  0.0654
11291SOL    HW144552   3.471   3.603   4.172 -1.1187  0.2813  1.3816
11291SOL    HW244553   3.554   3.735   4.221 -0.7545  0.5863 -0.0474
11292SOL     OW44554   9.402   9.348   1.529  0.4387 -0.2290  0.6027
11292SOL    HW144555   9.359   9.408   1.461 -0.4135 -0.3265  1.0436
11292SOL    HW244556   9.443   9.269   1.483  1.2801  0.5173  0.0488
11293SOL     OW44557   5.063   0.869   2.792  0.1609  0.2574  0.4124
11293SOL    HW144558   5.082   0.782   2.747 -0.5496  0.1760  0.2646
11293SOL    HW244559   5.114   0.942   2.747 -1.0856  0.2931 -0.9702
11294SOL     OW44560   0.356   9.510   3.415 -0.0469  0.3899  0.2527
11294SOL    HW144561   0.314   9.598   3.392 -0.0345  0.7261  1.4482
11294SOL    HW244562   0.334   9.487   3.510  0.6819 -0.4730  0.2160
11295SOL     OW44563   1.592   6.708   0.851 -0.1593 -0.3278 -0.5169
11295SOL    HW144564   1.604   6.611   0.876  2.0931  0.1687  0.5505
11295SOL    HW244565   1.599   6.718   0.752 -0.8362 -1.3177 -0.6713
11296SOL     OW44566   7.751   8.417   2.107 -0.5096  0.1876 -0.2315
11296SOL    HW144567   7.684   8.358   2.152  0.1023  0.7222  1.4398
11296SOL    HW244568   7.705   8.498   2.070 -0.8122  0.5393  0.8804
11297SOL     OW44569   2.023   0.452   5.233  0.0985  0.4830  0.2126
11297SOL    HW144570   1.968   0.508   5.295  1.8620  2.9894 -0.3864
11297SOL    HW244571   1.963   0.399   5.173 -1.6303  1.1501  1.3213
11298SOL     OW44572   4.275   5.226   0.665  0.2334  0.0708  0.0605
11298SOL    HW144573   4.305   5.152   0.605  0.0076 -0.1403  0.2057
11298SOL    HW244574   4.177   5.216   0.683  0.3650 -0.0617  0.7361
11299SOL     OW44575   3.749   3.082   0.737 -0.2718 -0.2539  0.6487
11299SOL    HW144576   3.761   3.169   0.785 -2.7121 -1.0681  2.8771
11299SOL    HW244577   3.806   3.013   0.781  1.2431  0.0896 -0.7684
11300SOL     OW44578   8.775   7.288   1.474 -0.1222 -0.3354  0.3725
11300SOL    HW144579   8.752   7.379   1.438  0.2779 -1.1049 -1.9471
11300SOL    HW244580   8.871   7.285   1.499 -0.0727 -0.1761  0.2056
11301SOL     OW44581   2.350   8.259   3.231 -0.0927  0.1679 -0.7215
11301SOL    HW144582   2.288   8.327   3.193  0.5941  0.4075 -1.4227
11301SOL    HW244583   2.393   8.296   3.314  0.9465  0.9429 -1.5901
11302SOL     OW44584   2.853   6.872   3.776 -0.6734 -0.1724 -0.8283
11302SOL    HW144585   2.902   6.921   3.704  0.3081 -0.3186 -0.2789
11302SOL    HW244586   2.777   6.928   3.809  0.0729  0.7324 -0.6222
11303SOL     OW44587   0.428   8.726   3.952  0.2469 -0.1030  0.4350
11303SOL    HW144588   0.465   8.659   4.016  0.1272 -2.5976 -1.9689
11303SOL    HW244589   0.500   8.791   3.926  0.8186 -0.2819  1.5502
11304SOL     OW44590   1.918   1.421   4.119  0.3431 -0.2518 -0.1061
11304SOL    HW144591   2.001   1.455   4.163  0.5645  0.5891 -1.1581
11304SOL    HW244592   1.918   1.321   4.122  0.3953 -0.2201  1.7114
11305SOL     OW44593   7.126   7.071   2.064  0.7813  0.9632 -0.2992
11305SOL    HW144594   7.159   7.062   2.158 -1.5192  0.6828  0.4937
11305SOL    HW244595   7.085   7.162   2.051 -1.4883 -0.0166 -0.1822
11306SOL     OW44596   0.006   3.028   2.045 -0.1644  0.2913  0.0167
11306SOL    HW144597   0.026   3.026   2.143 -0.4257  0.8428  0.0849
11306SOL    HW244598   0.071   2.970   1.996 -1.1967 -1.4682  0.7168
11307SOL     OW44599   8.358   1.628   3.468  0.6826  0.0591  0.8124
11307SOL    HW144600   8.419   1.625   3.547  1.8955  0.2001 -0.1036
11307SOL    HW244601   8.364   1.541   3.418  1.6887  0.8195 -0.4258
11308SOL     OW44602   3.433   0.069   4.150  0.3108 -0.3549 -0.1970
11308SOL    HW144603   3.485  -0.002   4.197  0.7641  0.2441  0.2095
11308SOL    HW244604   3.359   0.100   4.208  1.0674  0.6155  0.2670
11309SOL     OW44605   9.798   0.469   5.232 -0.6124  0.1185 -0.1860
11309SOL    HW144606   9.735   0.545   5.219  1.3270  1.7535 -0.1664
11309SOL    HW244607   9.805   0.416   5.147 -1.0774  0.6401 -0.5514
11310SOL     OW44608   7.716   9.964   2.772 -0.4124 -0.9095  0.4968
11310SOL    HW144609   7.766  10.005   2.848 -1.0930 -0.4846  0.7237
11310SOL    HW244610   7.720   9.864   2.780  1.4458 -0.9117 -0.1879
11311SOL     OW44611   3.254   1.651   1.347  0.2776 -0.3851  0.5781
11311SOL    HW144612   3.243   1.708   1.267 -0.2646 -0.1005  0.8582
11311SOL    HW244613   3.171   1.598   1.363  0.4237 -0.5258  0.8865
11312SOL     OW44614   9.485   2.076   4.699  0.5195  0.2344  0.1875
11312SOL    HW144615   9.400   2.044   4.656 -0.3320  2.7272 -0.0606
11312SOL    HW244616   9.563   2.034   4.653 -0.5115 -0.9256 -0.5646
11313SOL     OW44617   9.959   9.011   4.964 -0.3213 -0.0119  0.1734
11313SOL    HW144618   9.890   9.062   4.915 -0.4169 -0.2830  0.0230
11313SOL    HW244619   9.918   8.928   5.002  0.0849 -0.5556 -0.5545
11314SOL     OW44620   3.312   3.280   0.502 -0.1695  0.3425  0.3927
11314SOL    HW144621   3.373   3.234   0.437 -1.1600  1.5351 -1.4284
11314SOL    HW244622   3.364   3.309   0.582  0.9665 -1.6779  0.4183
11315SOL     OW44623   9.512   4.434   1.715 -0.1439  0.0312 -0.5387
11315SOL    HW144624   9.442   4.378   1.671 -1.5425  0.6007  0.9218
11315SOL    HW244625   9.603   4.395   1.696 -0.8732 -0.9920 -2.0277
11316SOL     OW44626   4.210   6.330   1.173  0.4010 -0.0058 -0.1799
11316SOL    HW144627   4.209   6.428   1.190 -1.5319 -0.1781  0.8676
11316SOL    HW244628   4.223   6.313   1.076 -1.2860  1.3412 -0.6614
11317SOL     OW44629   2.659   3.799   4.580  0.7193 -0.3064 -0.6509
11317SOL    HW144630   2.708   3.775   4.664 -1.0204 -0.5740  0.3280
11317SOL    HW244631   2.724   3.809   4.505  2.6006  2.4221  1.2464
11318SOL     OW44632   0.928   6.892   5.198  0.0520  0.4138 -0.0870
11318SOL    HW144633   0.988   6.816   5.224  1.4383  1.0178 -1.4362
11318SOL    HW244634   0.839   6.881   5.242  0.6452 -1.3290  0.7174
11319SOL     OW44635   6.187   9.726   0.924  0.4629  0.0833  0.0660
11319SOL    HW144636   6.145   9.638   0.901  1.1562 -0.8455  2.1341
11319SOL    HW244637   6.248   9.755   0.851  0.7236 -1.5052 -0.3570
11320SOL     OW44638   4.406   0.528   0.470 -0.2792  0.0475 -0.1176
11320SOL    HW144639   4.318   0.567   0.497  0.8258  1.9489  0.8046
11320SOL    HW244640   4.479   0.571   0.522  1.3659 -0.3473 -2.0504
11321SOL     OW44641   9.693   2.576   3.793  0.2050 -0.1936  0.9946
11321SOL    HW144642   9.619   2.553   3.730  0.6781  1.2940 -0.1271
11321SOL    HW244643   9.671   2.540   3.884 -0.5529 -2.2249  0.0343
11322SOL     OW44644   9.450   5.448   3.298 -0.5747  0.8406 -0.3550
11322SOL    HW144645   9.432   5.379   3.227  2.8865  0.3578 -0.8380
11322SOL    HW244646   9.440   5.405   3.388  0.2491  0.0461 -0.6332
11323SOL     OW44647   1.537   0.010   4.677  0.6469 -0.2990  0.1133
11323SOL    HW144648   1.618   0.050   4.634  0.6784 -0.9784 -0.4668
11323SOL    HW244649   1.522   0.054   4.765  1.1016  0.4884 -0.1911
11324SOL     OW44650   3.637   6.686   3.648 -0.6531  0.2943 -0.6996
11324SOL    HW144651   3.547   6.693   3.606 -0.6928  0.4490 -0.5889
11324SOL    HW244652   3.675   6.594   3.631 -0.0843  0.8003 -2.2301
11325SOL     OW44653   3.963   4.520   5.163 -0.0584 -0.5273  0.2214
11325SOL    HW144654   4.000   4.601   5.208 -1.3779  0.3218 -0.1768
11325SOL    HW244655   4.025   4.492   5.089  0.2191  0.3594  0.1059
11326SOL     OW44656   2.521   0.351   0.886 -0.0495  0.0449 -0.2744
11326SOL    HW144657   2.507   0.449   0.876  1.3073  0.1172 -1.4918
11326SOL    HW244658   2.618   0.330   0.887 -0.2624 -1.0516  2.5461
11327SOL     OW44659   2.338   1.148   0.435 -0.1013 -0.1162  0.0627
11327SOL    HW144660   2.374   1.116   0.523 -2.7908 -2.1631  0.4888
11327SOL    HW244661   2.272   1.222   0.452 -1.3110 -1.1373 -0.1321
11328SOL     OW44662   8.400   0.612   4.250  0.6412  0.0335 -0.1334
11328SOL    HW144663   8.332   0.683   4.235 -0.4677 -0.9167  0.3177
11328SOL    HW244664   8.407   0.592   4.347  0.0582 -1.3284 -0.3660
11329SOL     OW44665   7.078   1.292   1.794 -0.0201 -0.8424  0.5684
11329SOL    HW144666   7.078   1.193   1.782 -1.5357 -1.0858  2.4069
11329SOL    HW244667   7.124   1.315   1.880 -2.1097 -0.1695  1.5437
11330SOL     OW44668   0.013   7.596   3.473  0.3359  0.2741 -0.8307
11330SOL    HW144669  -0.057   7.543   3.521  0.6814  1.7306  1.3294
11330SOL    HW244670  -0.030   7.654   3.404 -0.4242  0.0515 -0.5420
11331SOL     OW44671   0.454   0.266   3.142 -0.7611  0.0960  0.2127
11331SOL    HW144672   0.409   0.178   3.126 -2.7538  1.4644 -1.9787
11331SOL    HW244673   0.542   0.267   3.095 -0.0045 -1.2765  1.5588
11332SOL     OW44674   8.924   4.424   2.530  0.0873  0.4486  0.1366
11332SOL    HW144675   8.885   4.497   2.474 -0.6709 -0.2317 -0.2337
11332SOL    HW244676   8.955   4.462   2.617 -0.0946  1.2511 -0.1461
11333SOL     OW44677   3.514   3.711   4.759 -0.1734 -0.2085 -0.1548
11333SOL    HW144678   3.559   3.680   4.843 -0.0574 -1.2684 -0.6112
11333SOL    HW244679   3.450   3.785   4.782  1.2778  0.8487  0.5960
11334SOL     OW44680   8.144   0.330   3.323 -0.2854  0.0075 -0.4455
11334SOL    HW144681   8.218   0.336   3.390 -1.1900  0.4196  0.5284
11334SOL    HW244682   8.181   0.300   3.235  0.6609 -2.0767  0.6267
11335SOL     OW44683   9.984   6.374   2.353  0.1579 -0.3372 -0.2409
11335SOL    HW144684   9.976   6.313   2.431 -0.4543 -0.8528 -0.7024
11335SOL    HW244685   9.927   6.341   2.278  1.0832 -0.0938 -1.0673
11336SOL     OW44686   8.946   0.044   2.003  0.0944 -0.2985  0.4778
11336SOL    HW144687   8.940  -0.023   2.077  0.5018  0.2088  0.9681
11336SOL    HW244688   8.853   0.067   1.972 -0.1106  0.0310  1.3166
11337SOL     OW44689   9.688   5.351   1.910  0.0050  0.9134 -0.0154
11337SOL    HW144690   9.617   5.420   1.916  0.9752  1.9901 -0.7238
11337SOL    HW244691   9.749   5.359   1.989 -2.1748 -1.7534  2.0126
11338SOL     OW44692   1.400   2.823   2.512  0.0419 -0.5830  0.1759
11338SOL    HW144693   1.465   2.865   2.576  1.0662 -0.5105 -0.9083
11338SOL    HW244694   1.332   2.772   2.564 -0.2963  1.0894  1.4402
11339SOL     OW44695   1.626   7.534   1.705  0.8148  0.4916  0.1249
11339SOL    HW144696   1.663   7.443   1.688 -1.1693 -0.3463  0.0904
11339SOL    HW244697   1.603   7.578   1.618 -0.5734 -0.0086  0.2247
11340SOL     OW44698   7.589   7.448   1.865 -0.1495 -0.2400  0.4143
11340SOL    HW144699   7.536   7.448   1.781  0.3554  1.2751  0.0766
11340SOL    HW244700   7.644   7.365   1.871 -1.9701 -1.4756  0.4072
11341SOL     OW44701   2.675   9.359   3.625 -0.4110  0.1894  0.7950
11341SOL    HW144702   2.753   9.345   3.686  1.0477 -0.6768 -1.2069
11341SOL    HW244703   2.688   9.443   3.572 -2.0096  1.3173  2.1324
11342SOL     OW44704   0.810   7.490   2.420 -0.7546 -0.7134 -0.2612
11342SOL    HW144705   0.713   7.486   2.446 -0.6084  1.5269  0.7169
11342SOL    HW244706   0.820   7.459   2.325 -2.3044 -1.8109 -0.0862
11343SOL     OW44707   8.782   9.016   4.200  0.1693  0.1137 -0.7336
11343SOL    HW144708   8.789   9.094   4.139 -2.0185  1.8477  1.1491
11343SOL    HW244709   8.698   8.966   4.183  0.9689 -1.1417 -1.1016
11344SOL     OW44710   9.834   1.619   1.460  0.3274 -0.2549 -0.0670
11344SOL    HW144711   9.739   1.611   1.428 -0.5928 -0.6776  2.6244
11344SOL    HW244712   9.879   1.531   1.452  0.8812  0.1993 -2.3899
11345SOL     OW44713   2.561   1.150   4.479 -0.0637 -0.0711  0.6950
11345SOL    HW144714   2.486   1.119   4.539 -0.2548 -0.5088  0.2344
11345SOL    HW244715   2.621   1.073   4.459 -1.5930 -0.6265 -2.0076
11346SOL     OW44716   4.180   7.937   2.902 -0.4009 -0.3327  0.0205
11346SOL    HW144717   4.277   7.962   2.902 -0.2954 -0.6082  2.3841
11346SOL    HW244718   4.171   7.838   2.896 -0.5280 -0.3201  0.0046
11347SOL     OW44719   1.443   4.078   3.869  0.0806 -0.4138  0.8515
11347SOL    HW144720   1.430   4.018   3.790 -1.4980 -0.2720  0.9938
11347SOL    HW244721   1.466   4.170   3.838  1.1577 -0.7547  0.6078
11348SOL     OW44722   3.417   0.001   2.881 -0.6545 -0.1434 -0.1009
11348SOL    HW144723   3.366  -0.004   2.967  0.1557 -1.2021  0.3225
11348SOL    HW244724   3.472   0.085   2.880 -0.3746 -0.3152  0.5782
11349SOL     OW44725   6.604   9.531   4.132  0.4481 -0.4186  0.4134
11349SOL    HW144726   6.518   9.550   4.179  0.2359  0.7963 -0.4579
11349SOL    HW244727   6.609   9.433   4.111  0.4609 -0.9556  2.7692
11350SOL     OW44728   0.414   9.249   0.861 -0.0141  0.0754  0.6388
11350SOL    HW144729   0.364   9.335   0.867  1.0434  0.6283  1.8259
11350SOL    HW244730   0.471   9.249   0.779 -0.5164  0.2216  0.2875
11351SOL     OW44731   9.465   0.317   2.627  0.0921  0.0206 -0.3531
11351SOL    HW144732   9.518   0.274   2.554  1.7327  0.3552  0.6279
11351SOL    HW244733   9.429   0.246   2.688 -1.3531 -0.2677 -1.4920
11352SOL     OW44734   4.650   1.115   3.140 -0.3136 -0.1490  0.1408
11352SOL    HW144735   4.674   1.024   3.107  1.1425  0.0155  0.6944
11352SOL    HW244736   4.628   1.110   3.238 -2.7552 -0.3227 -0.3978
11353SOL     OW44737   3.126   3.071   4.777 -0.4344 -0.4201  0.2073
11353SOL    HW144738   3.055   3.014   4.818 -0.1654 -1.3451 -0.5879
11353SOL    HW244739   3.176   3.018   4.708  0.3338  0.5418  0.0076
11354SOL     OW44740   6.479   7.723   2.984  0.2754  0.0101 -0.0001
11354SOL    HW144741   6.552   7.782   3.018 -0.4105  0.5442  0.5350
11354SOL    HW244742   6.420   7.774   2.921  1.1864 -0.8081 -1.5655
11355SOL     OW44743   9.732   3.302   0.838 -0.1346  0.6976  0.4815
11355SOL    HW144744   9.731   3.376   0.905  0.6589  1.6987 -0.5934
11355SOL    HW244745   9.640   3.263   0.830 -0.7414  2.0894  0.4890
11356SOL     OW44746   0.368   3.312   3.423  0.2738 -0.6636  0.7099
11356SOL    HW144747   0.436   3.240   3.419 -1.2796 -2.2127  1.5383
11356SOL    HW244748   0.380   3.374   3.345  2.0124 -1.4228  0.3415
11357SOL     OW44749   8.507   0.114   0.236 -0.6190 -0.0049  0.3615
11357SOL    HW144750   8.482   0.064   0.319 -2.0313 -0.8770 -0.5791
11357SOL    HW244751   8.430   0.116   0.173  0.9104 -0.7143 -1.6075
11358SOL     OW44752   9.349   7.740   3.163 -0.7159  0.7198 -0.0197
11358SOL    HW144753   9.381   7.782   3.078  0.8537  0.4312  0.4151
11358SOL    HW244754   9.296   7.658   3.141 -0.6090  0.8333 -0.7316
11359SOL     OW44755   0.095   4.918   2.083  0.5746  0.4703  0.0100
11359SOL    HW144756   0.067   4.827   2.114  1.9315  0.1938  0.4605
11359SOL    HW244757   0.184   4.940   2.123  0.8338  1.4699 -1.1164
11360SOL     OW44758   0.591   8.205   4.224 -0.2221 -0.3572  0.0386
11360SOL    HW144759   0.548   8.124   4.265 -1.6683  0.5429  0.3761
11360SOL    HW244760   0.531   8.241   4.153  1.3912 -0.7882 -1.5662
11361SOL     OW44761   1.875   1.221   4.957 -0.0772 -0.3963 -0.0115
11361SOL    HW144762   1.798   1.260   5.008  1.0656 -0.6602  1.9707
11361SOL    HW244763   1.936   1.294   4.927 -1.3485 -0.1449 -2.0215
11362SOL     OW44764   9.660   0.520   1.095  0.0008 -0.0205 -0.2084
11362SOL    HW144765   9.638   0.492   1.189 -0.5779  0.1519 -0.2890
11362SOL    HW244766   9.621   0.611   1.078 -1.0796 -0.6347 -1.0600
11363SOL     OW44767   3.504   6.309   1.452  0.0368 -0.1636 -0.2093
11363SOL    HW144768   3.437   6.381   1.463  2.1580  2.0143 -1.0354
11363SOL    HW244769   3.552   6.293   1.538 -1.2643 -1.4903  0.2947
11364SOL     OW44770   3.175   2.460   1.291  0.0197 -0.6435  0.4415
11364SOL    HW144771   3.255   2.427   1.241 -1.6304 -1.3160 -1.8596
11364SOL    HW244772   3.100   2.395   1.281 -0.1044 -1.3195  4.7470
11365SOL     OW44773   1.690   7.254   1.674 -0.2082  0.3679  0.0298
11365SOL    HW144774   1.785   7.282   1.688 -0.6848  1.0470  2.1447
11365SOL    HW244775   1.666   7.182   1.739 -1.5139  1.1204  0.4016
11366SOL     OW44776   2.849   6.101   0.696  0.2145 -0.2828 -0.6863
11366SOL    HW144777   2.893   6.012   0.689  0.3112 -0.2115 -0.9796
11366SOL    HW244778   2.813   6.113   0.789  3.0576  0.7319  0.3303
11367SOL     OW44779   4.004   2.391   1.077 -0.1761 -0.2453  0.2409
11367SOL    HW144780   4.025   2.304   1.121  0.6302 -1.0057 -1.6188
11367SOL    HW244781   3.923   2.431   1.120 -1.9283 -2.9939 -0.4064
11368SOL     OW44782   6.127   7.854   3.504 -0.6292  0.2696  0.4527
11368SOL    HW144783   6.121   7.764   3.460 -0.7042  0.4806  0.0301
11368SOL    HW244784   6.061   7.859   3.579 -0.4182 -0.1347  0.6651
11369SOL     OW44785   6.008   1.351   2.021 -0.3315 -0.2515 -0.6684
11369SOL    HW144786   5.933   1.319   1.963 -1.4368  0.8772  0.1208
11369SOL    HW244787   5.992   1.446   2.048 -0.0662 -0.8668  1.8283
11370SOL     OW44788   2.144   4.489   0.635 -0.6335  0.3178  0.8607
11370SOL    HW144789   2.185   4.444   0.714 -0.2634  1.8468  1.5542
11370SOL    HW244790   2.209   4.555   0.597 -0.6159 -0.7370 -1.0358
11371SOL     OW44791   4.101   4.325   5.329 -0.0281 -0.0038  0.0217
11371SOL    HW144792   4.032   4.380   5.282 -0.4284 -1.4890 -1.1794
11371SOL    HW244793   4.170   4.295   5.263  2.0876  1.9171  1.3176
11372SOL     OW44794   2.116   1.305   2.900 -0.2243 -0.1571 -0.1911
11372SOL    HW144795   2.147   1.226   2.954 -1.3079 -1.3741 -1.3008
11372SOL    HW244796   2.073   1.372   2.960 -1.2595 -1.4215  0.5127
11373SOL     OW44797   1.264   3.088   1.544 -0.3749 -0.0531  0.2651
11373SOL    HW144798   1.329   3.077   1.620 -0.4356  0.0423  0.3306
11373SOL    HW244799   1.268   3.008   1.485  2.1452  1.2881 -1.5209
11374SOL     OW44800   9.245   1.454   0.988 -0.1703 -0.0224  0.2048
11374SOL    HW144801   9.324   1.393   0.984  0.2456  0.4882  0.6389
11374SOL    HW244802   9.202   1.447   1.078  0.6593  1.3037  0.7139
11375SOL     OW44803   4.110   1.059   0.473 -0.6342 -0.2071  0.1823
11375SOL    HW144804   4.156   1.066   0.385 -0.9982 -2.2609 -0.1885
11375SOL    HW244805   4.136   0.973   0.518 -3.1195 -0.8188  0.5303
11376SOL     OW44806   3.320   5.555   2.291  0.1534 -0.0315  0.1032
11376SOL    HW144807   3.391   5.487   2.308  0.0450 -0.2743 -0.4050
11376SOL    HW244808   3.350   5.618   2.219 -0.1242 -0.1024 -0.0752
11377SOL     OW44809   7.743   1.034   1.448 -0.5345  0.6413 -0.2596
11377SOL    HW144810   7.675   0.964   1.470 -1.3691  1.0639 -1.5006
11377SOL    HW244811   7.819   1.026   1.512 -1.4998 -0.1687  0.8149
11378SOL     OW44812   1.439   4.268   1.915  0.4897 -0.4716 -0.3966
11378SOL    HW144813   1.346   4.291   1.947  1.3659 -0.6347  2.3841
11378SOL    HW244814   1.462   4.175   1.943  0.8154 -1.1329 -2.7513
11379SOL     OW44815   9.068   0.290   2.073 -0.1208  0.2641  0.7227
11379SOL    HW144816   9.068   0.347   1.990 -0.1350  1.4942  1.5538
11379SOL    HW244817   9.034   0.199   2.050  0.0443  0.5331 -0.6672
11380SOL     OW44818   8.384   6.947   2.982 -0.1817 -0.2581  0.1340
11380SOL    HW144819   8.347   7.032   2.945  0.7850  0.1728  0.1328
11380SOL    HW244820   8.310   6.890   3.017 -0.9858 -0.0649 -1.2160
11381SOL     OW44821   4.497   1.657   4.646  0.0315 -0.3938  0.0423
11381SOL    HW144822   4.583   1.653   4.697  0.9586 -2.5550 -1.6013
11381SOL    HW244823   4.421   1.668   4.709  1.5738  2.9950  1.4468
11382SOL     OW44824   8.279   6.895   2.021 -0.0512 -0.3239 -0.2609
11382SOL    HW144825   8.313   6.947   2.099  0.7083  0.7771 -1.3143
11382SOL    HW244826   8.299   6.798   2.034  0.9222 -0.0288  0.4788
11383SOL     OW44827   6.472   8.270   1.663  0.0073 -0.1199 -0.1337
11383SOL    HW144828   6.544   8.281   1.594 -0.0518 -0.0355 -0.1825
11383SOL    HW244829   6.469   8.350   1.722  1.0395 -0.8235  0.8991
11384SOL     OW44830   0.263   9.007   3.771 -0.1159  0.1860 -0.5505
11384SOL    HW144831   0.207   8.928   3.748  1.9586 -1.0372 -1.5019
11384SOL    HW244832   0.286   9.005   3.869 -0.1347 -0.3451 -0.5591
11385SOL     OW44833   7.736   8.992   4.473 -0.2354 -0.5142  1.0616
11385SOL    HW144834   7.771   8.919   4.415  0.1649  0.2036  0.3906
11385SOL    HW244835   7.674   8.953   4.541 -1.3457 -1.2590 -0.3599
11386SOL     OW44836   4.697   8.572   1.091  0.1261 -0.1727  0.6016
11386SOL    HW144837   4.618   8.527   1.052 -0.9607  1.2796  1.0718
11386SOL    HW244838   4.707   8.664   1.051  0.8364  0.1327  1.4508
11387SOL     OW44839   0.473   6.717   2.167  0.3015 -0.4930  0.2571
11387SOL    HW144840   0.555   6.662   2.152 -0.1701 -0.5867 -2.2893
11387SOL    HW244841   0.488   6.809   2.133  0.1212  0.1567  1.9147
11388SOL     OW44842   5.613   7.124   2.267 -0.0108  0.1721 -0.4440
11388SOL    HW144843   5.698   7.125   2.319 -0.0603 -0.2153 -0.3472
11388SOL    HW244844   5.558   7.204   2.290  0.2454  0.3274 -0.3702
11389SOL     OW44845   8.597   9.102   2.345 -0.5036  0.2589  0.3212
11389SOL    HW144846   8.615   9.195   2.376  1.7630  0.0690 -0.3602
11389SOL    HW244847   8.605   9.039   2.422 -2.1012  0.5995  0.7969
11390SOL     OW44848   4.147   8.210   4.239 -0.0536  0.4165 -0.0791
11390SOL    HW144849   4.079   8.283   4.236 -0.7527 -0.1894  0.9414
11390SOL    HW244850   4.238   8.251   4.252 -0.3625  1.1540 -0.2201
11391SOL     OW44851   9.702   1.945   3.984  0.0500  0.7662 -0.1907
11391SOL    HW144852   9.699   1.933   3.884 -0.9694  1.9663 -0.3199
11391SOL    HW244853   9.725   1.858   4.027  0.8256  0.3093 -1.4915
11392SOL     OW44854   6.845   9.572   4.231  0.7245  0.7921 -0.6397
11392SOL    HW144855   6.882   9.480   4.245  1.6355  0.9716 -1.8628
11392SOL    HW244856   6.747   9.566   4.216  0.4457  0.1926  1.1883
11393SOL     OW44857   1.392   9.295   3.841  0.4445  0.0572 -0.1798
11393SOL    HW144858   1.322   9.316   3.772  1.5232  1.2469 -0.9268
11393SOL    HW244859   1.389   9.197   3.862 -2.3476  0.3082  0.8204
11394SOL     OW44860   5.621   8.064   3.569  0.2626  0.5672  0.3776
11394SOL    HW144861   5.607   8.140   3.632  2.3139  0.9543  0.4077
11394SOL    HW244862   5.533   8.025   3.543 -0.7480  2.2621  1.2063
11395SOL     OW44863   9.570   1.360   0.227  0.2375  0.2857 -0.1119
11395SOL    HW144864   9.574   1.311   0.140  0.0718 -0.6170  0.3863
11395SOL    HW244865   9.655   1.411   0.240  1.3067 -1.5855  0.3643
11396SOL     OW44866   2.481   4.331   3.481 -0.0549  0.1627  0.0356
11396SOL    HW144867   2.403   4.283   3.443  0.6653 -1.0957  0.1122
11396SOL    HW244868   2.480   4.427   3.451  0.2224 -0.6580 -2.7536
11397SOL     OW44869   1.079   6.684   5.267 -0.4919  0.0497  0.7383
11397SOL    HW144870   1.020   6.639   5.335 -0.4424  1.9989  2.1040
11397SOL    HW244871   1.171   6.646   5.272 -0.9669 -1.1715  0.4116
11398SOL     OW44872   9.150   1.028   4.264 -0.2665  0.2373 -0.2435
11398SOL    HW144873   9.215   1.104   4.258 -0.3587  0.3285 -0.0902
11398SOL    HW244874   9.063   1.055   4.224 -0.4220  0.3485  0.1674
11399SOL     OW44875   4.978   7.579   1.912 -0.3284 -0.0243  0.1837
11399SOL    HW144876   4.985   7.659   1.852 -0.6465 -0.0193  0.1552
11399SOL    HW244877   4.972   7.610   2.007  0.0021 -0.0269  0.2067
11400SOL     OW44878   0.720   8.107   1.051 -0.7266  0.2788  0.1560
11400SOL    HW144879   0.673   8.140   1.133 -1.1805 -1.5168  0.6392
11400SOL    HW244880   0.660   8.120   0.971 -1.4244 -0.5586  0.5367
11401SOL     OW44881   1.187   2.950   2.381  0.0885  0.6722 -0.2054
11401SOL    HW144882   1.167   3.002   2.464 -1.7041 -0.1787 -0.0969
11401SOL    HW244883   1.273   2.899   2.393  0.2207  1.1460  0.8413
11402SOL     OW44884   6.170   8.883   4.135 -0.2002 -0.6327  0.2868
11402SOL    HW144885   6.227   8.871   4.217  1.6050  0.1539 -0.8317
11402SOL    HW244886   6.152   8.793   4.094  0.1324 -0.8989  0.7234
11403SOL     OW44887   5.247   1.324   2.825 -0.0135 -0.3085  0.6616
11403SOL    HW144888   5.253   1.325   2.925 -0.0650  0.2703  0.6583
11403SOL    HW244889   5.151   1.323   2.798 -0.0264  1.1630  0.6055
11404SOL     OW44890   0.116   4.992   3.178  0.0890 -0.0160 -0.0069
11404SOL    HW144891   0.018   4.969   3.177  0.0749 -0.0334  1.4418
11404SOL    HW244892   0.128   5.088   3.155 -0.2869  0.0542  0.0873
11405SOL     OW44893   7.238   9.907   3.299  0.2956  0.4969 -0.4960
11405SOL    HW144894   7.219  10.003   3.276 -2.4067  0.1840  0.2492
11405SOL    HW244895   7.280   9.903   3.390 -0.8286  0.9258  0.0589
11406SOL     OW44896   0.109   0.709   4.840  0.5982 -0.2217 -0.4899
11406SOL    HW144897   0.030   0.730   4.898  1.5021 -0.6417  0.9085
11406SOL    HW244898   0.191   0.748   4.880  1.3618 -1.1816 -1.0933
11407SOL     OW44899   2.570   2.942   2.918 -0.1318 -0.1659  0.2461
11407SOL    HW144900   2.653   2.891   2.895 -0.5029 -0.0606 -1.3649
11407SOL    HW244901   2.572   3.031   2.873 -1.8797 -0.8197 -1.1797
11408SOL     OW44902   8.893   9.030   0.799 -0.0699  0.0699  0.7039
11408SOL    HW144903   8.919   8.990   0.886  0.9863 -0.0012  0.3527
11408SOL    HW244904   8.859   8.959   0.738 -3.3300  0.4659  1.9556
11409SOL     OW44905   0.602   4.499   1.142  0.4644  0.3679  0.6317
11409SOL    HW144906   0.578   4.404   1.163 -0.8388  1.2597  3.3723
11409SOL    HW244907   0.690   4.501   1.094  0.9798 -2.1553  1.4006
11410SOL     OW44908   6.328   7.236   3.438  0.1468 -0.3295  0.2427
11410SOL    HW144909   6.308   7.227   3.535  1.2518  0.8075  0.5999
11410SOL    HW244910   6.427   7.226   3.423  0.0709  0.1792 -0.6643
11411SOL     OW44911   4.018   8.972   5.227 -0.2395 -0.1571  0.1813
11411SOL    HW144912   4.054   8.910   5.297 -1.1336 -0.0794  0.7131
11411SOL    HW244913   3.919   8.982   5.239 -0.4763 -0.5144 -1.3755
11412SOL     OW44914   9.430   0.240   3.889  0.2422  0.1966 -0.0436
11412SOL    HW144915   9.391   0.199   3.806 -0.1161  1.3912 -0.4837
11412SOL    HW244916   9.455   0.168   3.953  0.3981 -0.7437 -1.1351
11413SOL     OW44917   2.049   3.227   0.698 -0.1219 -0.0061 -0.0603
11413SOL    HW144918   2.062   3.176   0.612 -0.9531 -1.5130  0.6832
11413SOL    HW244919   2.098   3.181   0.772 -0.5640  0.4939  0.5491
11414SOL     OW44920   5.567   7.509   3.552  0.3499 -0.0193  0.0134
11414SOL    HW144921   5.619   7.585   3.592 -2.8549  2.1818  0.1655
11414SOL    HW244922   5.571   7.514   3.452  1.5176 -0.6787  0.0132
11415SOL     OW44923   3.338   1.649   0.640 -0.0916  0.2320 -0.5979
11415SOL    HW144924   3.399   1.571   0.626 -0.5058 -0.6083  1.9047
11415SOL    HW244925   3.372   1.703   0.718  0.0548  2.4391 -2.1383
11416SOL     OW44926   1.689   4.586   2.591 -0.6307 -0.1945  1.0060
11416SOL    HW144927   1.603   4.566   2.638 -1.1569 -1.2039 -0.3337
11416SOL    HW244928   1.721   4.503   2.545 -1.0226  1.1644 -1.8124
11417SOL     OW44929   8.036   1.676   3.456 -0.1941 -0.6350 -0.3277
11417SOL    HW144930   8.135   1.670   3.447  0.2641  2.8246  1.2404
11417SOL    HW244931   7.995   1.698   3.368  0.9893  2.5314 -0.1682
11418SOL     OW44932   1.151   9.306   0.219  0.1116 -0.2192  0.2411
11418SOL    HW144933   1.180   9.228   0.274 -0.3668 -0.3504  0.3069
11418SOL    HW244934   1.133   9.384   0.278 -1.0883 -0.5655  0.3420
11419SOL     OW44935   6.025   9.623   1.818  0.4004  0.2012  0.0883
11419SOL    HW144936   5.925   9.617   1.824  0.3276  1.0577 -0.0947
11419SOL    HW244937   6.066   9.539   1.853 -0.4084 -0.4693 -0.5394
11420SOL     OW44938   9.633   7.618   1.098  1.0342  0.4404 -0.4420
11420SOL    HW144939   9.580   7.591   1.178  1.7214  0.5399  0.0512
11420SOL    HW244940   9.580   7.681   1.042  0.8756  1.0354  0.3779
11421SOL     OW44941   8.862   0.439   3.364  0.1817  0.3699  0.2001
11421SOL    HW144942   8.851   0.505   3.438  0.1984  1.2741 -0.5901
11421SOL    HW244943   8.938   0.467   3.305  2.6543 -2.3389  1.9249
11422SOL     OW44944   1.034   2.552   3.018 -0.0209  0.2110  0.0443
11422SOL    HW144945   1.009   2.456   3.027  1.0075 -0.0026  0.7172
11422SOL    HW244946   1.018   2.599   3.105 -3.7129  1.4329 -1.2177
11423SOL     OW44947   2.300   3.886   2.800  0.7629 -0.6589 -0.2884
11423SOL    HW144948   2.260   3.807   2.753  0.6907 -0.7739 -0.0393
11423SOL    HW244949   2.266   3.889   2.894 -0.4670  0.5681 -0.7458
11424SOL     OW44950   4.072   7.018   1.198  0.5535  0.0292  0.3449
11424SOL    HW144951   4.109   7.095   1.251 -1.6460 -0.1041  2.1744
11424SOL    HW244952   3.984   7.045   1.158  0.1142 -1.3031  0.4025
11425SOL     OW44953   3.944   2.319   1.425 -0.3225  0.5108 -0.0906
11425SOL    HW144954   3.846   2.311   1.442 -0.0719 -0.6625  0.8934
11425SOL    HW244955   3.981   2.396   1.478 -0.7311  1.0260 -0.5547
11426SOL     OW44956   2.235   1.240   5.154  0.0616  0.0279  0.2005
11426SOL    HW144957   2.169   1.265   5.083 -0.4858  0.5464  0.8822
11426SOL    HW244958   2.269   1.322   5.199 -0.7761 -0.3632  1.5848
11427SOL     OW44959   3.874   5.667   1.593  0.3009  0.2975 -0.2188
11427SOL    HW144960   3.964   5.650   1.633 -0.4100  0.7906  1.6273
11427SOL    HW244961   3.878   5.747   1.533  1.0350  0.4483  0.0302
11428SOL     OW44962   2.748   8.094   0.629  0.6835 -0.3662  0.5751
11428SOL    HW144963   2.847   8.081   0.627  0.7640  0.3833 -1.3548
11428SOL    HW244964   2.702   8.008   0.608  0.9415 -0.5242  0.6545
11429SOL     OW44965   1.881   9.843   5.622  0.9070  0.2262 -1.0363
11429SOL    HW144966   1.873   9.888   5.533  0.5114 -1.1011 -1.6808
11429SOL    HW244967   1.843   9.751   5.616  0.6725  0.2136  0.5738
11430SOL     OW44968   3.068   3.772   3.886 -0.2406 -0.0898  0.0015
11430SOL    HW144969   3.147   3.827   3.860  0.5176 -0.3032  1.7705
11430SOL    HW244970   3.084   3.733   3.977 -0.5312 -3.6043 -1.3890
11431SOL     OW44971   6.351   8.940   1.906  0.2445  0.3350 -0.1878
11431SOL    HW144972   6.363   8.864   1.842  0.7775  1.8234 -1.8887
11431SOL    HW244973   6.255   8.969   1.905  0.3143  0.5651 -0.5748
11432SOL     OW44974   0.038   8.844   3.241  0.1678  0.5383  0.3527
11432SOL    HW144975   0.064   8.934   3.276 -1.5025  1.6416 -1.1139
11432SOL    HW244976  -0.051   8.818   3.278  0.6212 -0.4901  0.7268
11433SOL     OW44977   4.036   2.578   4.074  0.0232  0.2804  0.3719
11433SOL    HW144978   4.033   2.634   4.157  4.5049 -0.8609  1.4462
11433SOL    HW244979   4.046   2.638   3.994 -1.3134  1.2695  0.9402
11434SOL     OW44980   9.337   5.458   2.692 -0.3069  0.7327  0.0341
11434SOL    HW144981   9.355   5.368   2.732 -3.7660 -0.4076 -0.8448
11434SOL    HW244982   9.297   5.518   2.761  0.9680  1.2977  0.3128
11435SOL     OW44983   2.679   8.403   0.658  0.0764  0.7379 -0.5763
11435SOL    HW144984   2.581   8.423   0.664 -0.2991 -1.1613 -0.1684
11435SOL    HW244985   2.692   8.305   0.641  1.9213  0.8741 -0.0426
11436SOL     OW44986   9.790   9.914   2.148 -0.0980 -0.4800 -0.6015
11436SOL    HW144987   9.729   9.962   2.211 -0.4780  1.0485 -2.1072
11436SOL    HW244988   9.878   9.896   2.193 -0.4183  0.4594  0.4060
11437SOL     OW44989   0.853   1.302   3.208 -0.1059 -0.1160  0.2572
11437SOL    HW144990   0.757   1.300   3.235 -0.2057 -2.4059 -0.2111
11437SOL    HW244991   0.898   1.381   3.250 -1.5062 -0.6566  2.8064
11438SOL     OW44992   3.290   2.364   2.020 -0.3111  0.0356 -0.1731
11438SOL    HW144993   3.349   2.432   2.062  0.1576  0.0566 -0.8629
11438SOL    HW244994   3.236   2.406   1.948 -3.6452  0.7962  2.6048
11439SOL     OW44995   1.057   1.333   1.106  0.0522 -0.4934 -0.4548
11439SOL    HW144996   1.156   1.337   1.097  0.1461 -0.7750  0.4517
11439SOL    HW244997   1.032   1.269   1.178 -0.7667  0.0289 -0.2611
11440SOL     OW44998   2.811   9.092   1.844 -0.3854 -0.1932 -0.0026
11440SOL    HW144999   2.803   9.107   1.746 -1.8688 -0.6784  0.0384
11440SOL    HW245000   2.745   9.148   1.893  1.0162  0.7992  0.8015
11441SOL     OW45001   9.542   0.938   5.616 -0.6048  0.2052 -0.0241
11441SOL    HW145002   9.448   0.960   5.644 -1.4805 -0.2035 -2.4804
11441SOL    HW245003   9.539   0.891   5.528  1.7252 -2.6379  1.3553
11442SOL     OW45004   0.079   9.482   1.563  0.2393 -0.3378  0.2403
11442SOL    HW145005   0.091   9.423   1.483 -3.2663  1.3912 -1.6484
11442SOL    HW245006   0.092   9.578   1.536 -0.6883  0.2400  1.7919
11443SOL     OW45007   3.015   8.737   0.932  0.0226  0.1081 -0.1826
11443SOL    HW145008   2.974   8.648   0.948  1.6979 -0.8203 -0.9759
11443SOL    HW245009   2.993   8.798   1.009 -0.9362 -1.0419  0.4723
11444SOL     OW45010   3.854   7.550   5.258  0.1228 -0.2473 -0.2885
11444SOL    HW145011   3.921   7.562   5.184  0.6459 -3.1621 -0.3622
11444SOL    HW245012   3.877   7.611   5.333  1.8536  0.0771 -1.0431
11445SOL     OW45013   2.100   8.149   1.805 -0.5724  0.3100  0.1822
11445SOL    HW145014   2.012   8.191   1.781 -0.9930 -1.0556 -0.7355
11445SOL    HW245015   2.120   8.075   1.741  0.0338 -1.0564  1.9100
11446SOL     OW45016   0.365   4.962   2.187 -0.0773 -0.0356 -0.0319
11446SOL    HW145017   0.323   5.032   2.244  0.5881 -0.8021  1.4417
11446SOL    HW245018   0.398   4.887   2.245  0.1037 -1.1068 -1.4820
11447SOL     OW45019   4.499   7.921   2.443 -0.2066 -0.3999  0.1448
11447SOL    HW145020   4.481   7.826   2.415 -2.5347 -0.5493  2.0115
11447SOL    HW245021   4.414   7.973   2.440  1.2870  2.0124 -2.0765
11448SOL     OW45022   3.072   9.856   0.145  0.1971 -0.2924 -0.4537
11448SOL    HW145023   3.007   9.931   0.132  0.1383  0.0145  1.5386
11448SOL    HW245024   3.057   9.787   0.074 -0.5022  1.0316 -1.6249
11449SOL     OW45025   6.913   1.065   3.716  0.3374 -0.8383 -0.0437
11449SOL    HW145026   6.823   1.021   3.717  0.1463 -0.4501  0.5329
11449SOL    HW245027   6.945   1.077   3.810  0.4940  0.0333 -0.2040
11450SOL     OW45028   8.548   0.147   1.612  0.3665 -0.1728  0.4719
11450SOL    HW145029   8.545   0.053   1.647 -2.6078 -0.3336 -0.0478
11450SOL    HW245030   8.463   0.194   1.637  0.8857  1.7032 -1.1634
11451SOL     OW45031   3.919   7.048   2.402  0.4676 -0.1060  0.2268
11451SOL    HW145032   3.866   7.122   2.361 -0.5065 -0.4854  0.7742
11451SOL    HW245033   4.009   7.042   2.358  0.7642  1.7415  0.5541
11452SOL     OW45034   1.291   0.484   0.770  0.9301  0.2069  0.0465
11452SOL    HW145035   1.338   0.448   0.689  2.1667  0.1852  0.7659
11452SOL    HW245036   1.344   0.559   0.809 -0.9040  1.8789 -0.5910
11453SOL     OW45037   2.549   3.715   1.810 -0.3109 -0.0770  0.3917
11453SOL    HW145038   2.451   3.726   1.795 -0.0256  0.7426 -0.9988
11453SOL    HW245039   2.573   3.744   1.902 -1.1747  1.0535  0.2663
11454SOL     OW45040   9.450   8.961   2.237  0.2439  0.9557 -0.0769
11454SOL    HW145041   9.420   8.865   2.230  1.5367  0.4643  0.8723
11454SOL    HW245042   9.382   9.020   2.195 -1.7530 -0.1796  1.4842
11455SOL     OW45043   8.277   0.722   2.373  0.2258 -0.0953  0.7074
11455SOL    HW145044   8.355   0.766   2.418  0.3098 -0.2784  0.7390
11455SOL    HW245045   8.307   0.679   2.288 -0.2618  1.8182 -0.4719
11456SOL     OW45046   3.788   3.050   5.484  0.1528 -0.0663  0.0474
11456SOL    HW145047   3.751   3.046   5.577  0.3947  3.0817  0.3354
11456SOL    HW245048   3.723   3.010   5.420  0.4874 -3.3738  1.6726
11457SOL     OW45049   8.926   0.368   0.456 -0.3574 -0.6072 -0.2133
11457SOL    HW145050   8.956   0.280   0.418  0.9257  0.0163 -0.6825
11457SOL    HW245051   8.911   0.433   0.381  1.4911  0.4190  0.2812
11458SOL     OW45052   2.534   9.411   0.561 -0.2900  0.0272  0.0084
11458SOL    HW145053   2.574   9.387   0.473  1.4306  1.4770  0.3621
11458SOL    HW245054   2.532   9.331   0.620 -1.6261 -0.9947 -1.3843
11459SOL     OW45055   2.036   0.550   2.053  0.1993  0.2138  0.5331
11459SOL    HW145056   2.039   0.506   1.963  2.0911  0.0773  0.6482
11459SOL    HW245057   2.109   0.618   2.060  0.1903  0.0859  2.0327
11460SOL     OW45058   2.222   8.482   3.066  0.1614  0.8652  0.6356
11460SOL    HW145059   2.151   8.496   3.136 -1.3542  0.0925 -0.7191
11460SOL    HW245060   2.188   8.513   2.978  0.6377 -1.5892 -0.4655
11461SOL     OW45061   1.038   2.765   1.762 -0.4301 -0.2349 -0.0302
11461SOL    HW145062   1.031   2.852   1.811 -0.8203  0.0847 -0.6449
11461SOL    HW245063   0.953   2.748   1.712 -0.4127 -1.0475  0.2096
11462SOL     OW45064   3.735   6.715   4.561 -0.1516  0.2624  0.2158
11462SOL    HW145065   3.715   6.617   4.552  1.0597 -0.1705  1.9653
11462SOL    HW245066   3.736   6.758   4.471 -2.9690 -0.8691 -0.4069
11463SOL     OW45067   3.715   8.199   4.314 -0.2919  0.2326 -0.4864
11463SOL    HW145068   3.749   8.252   4.392  2.0399 -0.3052 -1.0816
11463SOL    HW245069   3.618   8.180   4.326 -0.0617  0.4955  2.1039
11464SOL     OW45070   8.458   1.730   1.184 -0.6221 -0.3618 -0.2790
11464SOL    HW145071   8.475   1.637   1.152 -2.6784 -0.2916 -1.6909
11464SOL    HW245072   8.382   1.769   1.132 -0.8490  1.5244  1.4286
11465SOL     OW45073   3.095   4.366   1.974 -0.4269  0.4426 -0.4124
11465SOL    HW145074   3.135   4.285   2.017  0.2422  1.0206  0.0695
11465SOL    HW245075   3.083   4.349   1.876 -2.6701 -1.1620  0.0938
11466SOL     OW45076   3.200   2.662   2.290 -0.1635 -0.1196 -0.3850
11466SOL    HW145077   3.118   2.644   2.235  0.8314 -0.7167 -1.6935
11466SOL    HW245078   3.237   2.576   2.325 -0.5447  0.2179  0.8997
11467SOL     OW45079   6.422   0.747   2.148  0.1147 -0.4767  0.4941
11467SOL    HW145080   6.382   0.693   2.223  0.4719 -0.4054  0.7388
11467SOL    HW245081   6.352   0.766   2.079 -0.3978  0.0664  1.1558
11468SOL     OW45082   0.330   2.154   4.612 -0.5464 -0.1351 -0.1614
11468SOL    HW145083   0.308   2.185   4.520 -0.7437 -1.2610 -0.4957
11468SOL    HW245084   0.429   2.148   4.623 -0.4638  1.7726  0.2976
11469SOL     OW45085   3.266   9.956   2.635  0.0230 -0.2241 -0.3375
11469SOL    HW145086   3.318   9.943   2.720  0.6703  0.6562 -0.5978
11469SOL    HW245087   3.256   9.867   2.589 -0.1153 -0.6669  0.5272
11470SOL     OW45088   9.344   6.161   1.710 -0.1218  0.0338  0.3765
11470SOL    HW145089   9.330   6.220   1.630 -2.2134  0.4787  1.0574
11470SOL    HW245090   9.384   6.074   1.680 -1.0190  0.1388 -1.1766
11471SOL     OW45091   3.803   2.194   1.836  0.2106  0.3696 -0.1193
11471SOL    HW145092   3.742   2.212   1.913  0.2171  1.9607 -0.4593
11471SOL    HW245093   3.878   2.259   1.838  0.8229 -0.3125 -0.8342
11472SOL     OW45094   2.454   2.920   5.611  0.0857  0.3623  0.2434
11472SOL    HW145095   2.518   2.902   5.537  0.2170  0.0206  0.4383
11472SOL    HW245096   2.385   2.986   5.580 -0.9991 -1.2278 -0.8169
11473SOL     OW45097   1.207   2.462   2.010 -0.2039 -0.2147  0.0807
11473SOL    HW145098   1.293   2.485   1.965 -1.2228  1.8487 -0.8883
11473SOL    HW245099   1.215   2.372   2.054  1.6783 -1.0723 -1.9265
11474SOL     OW45100   2.919   2.714   1.221 -0.0771  0.0759 -0.4702
11474SOL    HW145101   2.921   2.686   1.317 -1.3093  0.8720 -0.2017
11474SOL    HW245102   2.828   2.747   1.198 -0.4429 -2.2742 -2.5555
11475SOL     OW45103   6.383   9.394   2.176  0.0441  0.1337 -0.5102
11475SOL    HW145104   6.408   9.324   2.109 -0.1531 -0.9061  0.4859
11475SOL    HW245105   6.408   9.363   2.267 -0.7529  1.0376  0.0282
11476SOL     OW45106   2.398   6.154   2.069 -0.0221 -0.0731  0.6600
11476SOL    HW145107   2.468   6.092   2.105 -1.6212 -0.6502  2.8944
11476SOL    HW245108   2.439   6.215   2.002  2.1889 -1.7117  0.4627
11477SOL     OW45109   2.631   3.298   3.222  0.1054 -0.2366 -0.2545
11477SOL    HW145110   2.629   3.369   3.293 -2.9414  0.8102 -1.2918
11477SOL    HW245111   2.591   3.214   3.259  0.0640 -0.2026 -0.2215
11478SOL     OW45112   8.721   7.159   0.925 -0.0500 -0.3040  0.0329
11478SOL    HW145113   8.692   7.235   0.985  0.7802 -0.9889  1.3255
11478SOL    HW245114   8.809   7.181   0.884 -0.9944  0.5129 -1.5962
11479SOL     OW45115   4.651   0.264   0.422  0.1155 -0.1871 -0.0194
11479SOL    HW145116   4.610   0.268   0.513  0.8683 -0.3373  0.3345
11479SOL    HW245117   4.591   0.309   0.356  0.7950  2.3492  1.0216
11480SOL     OW45118   8.874   3.254   1.350 -0.5496 -0.7319  0.0857
11480SOL    HW145119   8.885   3.347   1.385 -1.4069 -0.9395  0.9249
11480SOL    HW245120   8.816   3.201   1.412 -1.6012 -1.2834 -1.3177
11481SOL     OW45121   9.978   9.672   1.914  0.5990  0.3602  0.2120
11481SOL    HW145122   9.906   9.718   1.861  1.2887 -0.5845 -1.6059
11481SOL    HW245123   9.950   9.579   1.936  0.9740  0.2060  0.0603
11482SOL     OW45124   1.744   8.924   4.076 -0.0703 -0.5715  0.1918
11482SOL    HW145125   1.835   8.906   4.112  0.1439 -0.1046 -0.1102
11482SOL    HW245126   1.720   8.854   4.009 -0.0584 -0.8683  0.4958
11483SOL     OW45127   1.170   9.007   1.750 -0.1078 -0.1251 -0.2447
11483SOL    HW145128   1.214   9.030   1.837 -0.4756 -0.6674  0.0861
11483SOL    HW245129   1.135   9.090   1.707  2.2605  0.4839 -1.0690
11484SOL     OW45130   9.152   2.981   3.131  0.2813  0.2470  0.1489
11484SOL    HW145131   9.169   3.070   3.089  2.1084  0.1744  0.7192
11484SOL    HW245132   9.055   2.957   3.119  0.1568  1.4992 -1.5477
11485SOL     OW45133   2.411   3.574   3.091  0.1536  0.1650 -0.0020
11485SOL    HW145134   2.411   3.486   3.044 -0.6027  0.5091 -0.6672
11485SOL    HW245135   2.473   3.571   3.169 -0.5188 -1.2247  0.4953
11486SOL     OW45136   9.856   0.918   2.313 -0.1418 -0.4590  0.2069
11486SOL    HW145137   9.858   0.826   2.273 -1.3427  0.0221 -1.0115
11486SOL    HW245138   9.764   0.938   2.344 -0.8721  1.8038 -3.1385
11487SOL     OW45139   5.771   7.291   1.634  0.3007 -0.0168 -0.2646
11487SOL    HW145140   5.714   7.341   1.700  0.2700  0.0331 -0.3288
11487SOL    HW245141   5.836   7.354   1.592 -0.3738  0.1641 -1.0483
11488SOL     OW45142   2.383   1.172   1.260  0.7646  0.2613 -0.3472
11488SOL    HW145143   2.424   1.122   1.336 -1.3058  0.2214  0.8117
11488SOL    HW245144   2.411   1.132   1.173 -0.0874 -2.3273  0.5228
11489SOL     OW45145   8.492   0.768   1.834  0.9315  0.6966  0.3084
11489SOL    HW145146   8.497   0.834   1.908  1.5464 -0.5904  1.4360
11489SOL    HW245147   8.551   0.689   1.855 -0.9415 -0.9045 -0.3043
11490SOL     OW45148   3.319   9.882   2.300  0.0641  0.5492 -0.6683
11490SOL    HW145149   3.378   9.854   2.224 -0.5246 -0.7301 -0.6692
11490SOL    HW245150   3.284   9.801   2.346  0.8562  1.3245  1.3177
11491SOL     OW45151   1.950   8.969   0.711  0.5954 -0.2654 -0.0432
11491SOL    HW145152   2.025   8.909   0.738  0.8611 -0.2464 -0.7324
11491SOL    HW245153   1.969   9.010   0.622  0.6448  1.2348  0.6261
11492SOL     OW45154   1.065   8.893   3.899 -0.3811 -0.1365 -0.2682
11492SOL    HW145155   1.021   8.917   3.814  0.1336  0.1873 -0.4482
11492SOL    HW245156   1.092   8.796   3.897 -1.8564 -0.5629  0.1934
11493SOL     OW45157   4.426   2.491   4.252  0.4746 -0.1699  0.7505
11493SOL    HW145158   4.374   2.565   4.296  0.1289 -0.2555  0.4847
11493SOL    HW245159   4.364   2.432   4.201  0.8418 -0.2331  0.3711
11494SOL     OW45160   9.857   8.653   4.000  0.2048  0.1439  0.1080
11494SOL    HW145161   9.846   8.633   3.903  0.2152 -1.5449  0.4286
11494SOL    HW245162   9.863   8.751   4.014  2.4239  0.3248 -1.8277
11495SOL     OW45163   5.113   0.786   4.342 -0.2684  0.3774 -0.2188
11495SOL    HW145164   5.143   0.724   4.270  2.8686  0.5923  0.8155
11495SOL    HW245165   5.085   0.733   4.422  1.8753  0.2240  0.4648
11496SOL     OW45166   8.176   9.290   0.140  0.2255  0.0637  0.1092
11496SOL    HW145167   8.085   9.298   0.100  1.2247  2.0504 -1.8725
11496SOL    HW245168   8.244   9.286   0.068  1.8488  0.2333  1.5957
11497SOL     OW45169   0.441   7.921   0.969 -0.4546  0.4180 -0.4191
11497SOL    HW145170   0.403   7.999   1.018 -0.7847  0.3784 -0.6101
11497SOL    HW245171   0.513   7.952   0.907  0.2416  0.4144  0.3923
11498SOL     OW45172   0.376   0.340   3.499 -0.3798 -0.1793 -0.1428
11498SOL    HW145173   0.293   0.340   3.555  0.1405 -0.3014  0.6450
11498SOL    HW245174   0.360   0.392   3.415 -1.8908 -1.9211 -0.9632
11499SOL     OW45175   1.700   4.004   0.780  0.8366  0.0778 -0.2822
11499SOL    HW145176   1.678   3.912   0.812 -0.2318  0.6224  0.5966
11499SOL    HW245177   1.631   4.035   0.716  1.2177  0.2552 -0.6117
11500SOL     OW45178   1.502   6.229   0.364 -0.8098 -0.1113 -0.1780
11500SOL    HW145179   1.478   6.141   0.406 -0.1595  0.0517  0.5499
11500SOL    HW245180   1.452   6.240   0.278  1.2439 -2.4849 -1.7516
11501SOL     OW45181   2.855   7.881   1.538  0.6201 -0.0844 -0.5339
11501SOL    HW145182   2.897   7.967   1.564  0.8979 -0.8254  1.5451
11501SOL    HW245183   2.926   7.815   1.512  0.5226 -0.1994 -0.5102
11502SOL     OW45184   5.446   1.057   4.564 -0.1345 -0.1948  0.1398
11502SOL    HW145185   5.428   1.046   4.466 -0.5548 -1.5789  0.3625
11502SOL    HW245186   5.364   1.093   4.609 -0.7876 -1.9520  0.3807
11503SOL     OW45187   9.067   9.590   4.185 -0.1915  0.1053  0.2843
11503SOL    HW145188   9.034   9.610   4.093 -2.6500  0.0629  1.1082
11503SOL    HW245189   9.082   9.675   4.234 -1.6595  0.1047  0.7593
11504SOL     OW45190   2.566   0.769   4.774  0.1905  0.5428  0.1835
11504SOL    HW145191   2.615   0.856   4.781 -2.7356  2.4650 -2.2536
11504SOL    HW245192   2.540   0.752   4.679 -1.2360 -1.8905  0.9517
11505SOL     OW45193   3.483   4.098   1.991 -0.1972  0.6061  0.3727
11505SOL    HW145194   3.405   4.148   2.028 -1.0068 -2.2087  2.6764
11505SOL    HW245195   3.449   4.023   1.933  0.8328  0.2322  0.2528
11506SOL     OW45196   1.927   9.490   2.938  0.1656  0.2431 -0.1405
11506SOL    HW145197   1.908   9.545   3.020 -3.4391  0.2364 -0.9099
11506SOL    HW245198   1.910   9.394   2.958 -0.6539  0.2358 -0.8436
11507SOL     OW45199   2.750   8.031   1.182 -0.2808  0.3075  0.3860
11507SOL    HW145200   2.682   8.058   1.114 -0.8203  0.3103  0.9236
11507SOL    HW245201   2.832   7.997   1.135 -1.5334 -1.8954 -0.2792
11508SOL     OW45202   2.925   0.648   4.168  0.1141  0.0508 -0.4234
11508SOL    HW145203   2.873   0.584   4.224 -0.6128 -0.0913 -1.2424
11508SOL    HW245204   2.921   0.739   4.209  0.2465 -0.2085  0.1700
11509SOL     OW45205   1.898   8.967   3.026  0.2221 -0.2053 -0.1096
11509SOL    HW145206   1.959   8.898   3.065  0.5222 -0.7968 -1.5829
11509SOL    HW245207   1.948   9.054   3.019  0.2145 -0.1341  0.6572
11510SOL     OW45208   0.121   8.857   4.704 -0.0253  1.1778 -0.1570
11510SOL    HW145209   0.058   8.931   4.679 -1.1874  0.2956  0.1158
11510SOL    HW245210   0.085   8.808   4.784  1.2161  0.9167  0.2553
11511SOL     OW45211   3.965   8.627   5.398  0.0632 -0.8181  0.5028
11511SOL    HW145212   3.964   8.702   5.464  2.0571  0.3601 -0.7468
11511SOL    HW245213   3.971   8.540   5.447 -0.6996 -0.0771  1.9285
11512SOL     OW45214   5.561   7.911   4.157  0.3922 -0.0668  0.8836
11512SOL    HW145215   5.486   7.877   4.213 -0.2338  1.8852  1.2577
11512SOL    HW245216   5.525   7.953   4.074  1.1463 -0.2706  0.4432
11513SOL     OW45217   9.685   1.750   2.228  0.1178 -0.5683 -0.2095
11513SOL    HW145218   9.613   1.818   2.212  0.4533  0.2928  1.8603
11513SOL    HW245219   9.691   1.689   2.149 -1.1716  0.9133 -1.4822
11514SOL     OW45220   0.396   7.773   4.265  0.3009 -0.3292 -0.1861
11514SOL    HW145221   0.386   7.795   4.362  2.9114  2.9592 -0.5576
11514SOL    HW245222   0.460   7.698   4.253 -0.0196 -0.7319  0.6147
11515SOL     OW45223   9.304   8.450   2.081  0.0373 -0.2552  0.0389
11515SOL    HW145224   9.253   8.444   1.995 -1.9556  0.8293  1.1237
11515SOL    HW245225   9.298   8.363   2.129 -1.5100  0.1122  0.5420
11516SOL     OW45226   1.128   6.332   2.300 -0.3369 -0.6738 -0.6134
11516SOL    HW145227   1.071   6.253   2.322  0.2519 -1.1780 -0.8850
11516SOL    HW245228   1.179   6.315   2.216  1.6005 -0.9886  0.5851
11517SOL     OW45229   3.039   9.693   5.085  0.7189 -0.2409 -0.5451
11517SOL    HW145230   2.993   9.777   5.056  1.7375  0.9120  1.0932
11517SOL    HW245231   3.131   9.691   5.044  0.2838 -1.1392 -1.5053
11518SOL     OW45232   4.089   3.593   0.510  0.0922 -0.5052 -0.6262
11518SOL    HW145233   4.181   3.612   0.476  0.6205 -2.6599 -0.4713
11518SOL    HW245234   4.048   3.677   0.546  1.7714  0.5805 -1.2254
11519SOL     OW45235   7.496   2.772   2.774 -0.0814  0.2164  0.1362
11519SOL    HW145236   7.501   2.852   2.714  1.2615  1.0093  1.2764
11519SOL    HW245237   7.486   2.803   2.869 -0.2893 -0.9936  0.5096
11520SOL     OW45238   1.655   9.451   4.051  0.1977 -0.0338 -0.9253
11520SOL    HW145239   1.658   9.465   4.150 -0.4859  1.8941 -1.1486
11520SOL    HW245240   1.711   9.372   4.027  0.1272 -0.7200  1.0238
11521SOL     OW45241   3.629   9.570   5.023 -0.2173  0.0964 -0.1615
11521SOL    HW145242   3.622   9.562   4.924 -0.0048  3.4796 -0.5104
11521SOL    HW245243   3.708   9.628   5.046 -2.4292  2.4412  1.8000
11522SOL     OW45244   7.700   2.243   2.723  0.1696 -0.1678 -0.0344
11522SOL    HW145245   7.719   2.192   2.807  1.3154  1.8389  0.9674
11522SOL    HW245246   7.786   2.275   2.683 -0.2954 -1.7805 -2.4529
11523SOL     OW45247   1.986   1.445   2.583 -1.0336 -0.7184 -0.3867
11523SOL    HW145248   1.942   1.516   2.638 -1.4399 -0.5709 -0.8929
11523SOL    HW245249   2.085   1.451   2.593 -1.1121 -0.8873  0.5620
11524SOL     OW45250   3.331   9.524   3.824 -0.4523 -0.0955  0.8090
11524SOL    HW145251   3.336   9.545   3.726  0.5137 -0.6840  0.7289
11524SOL    HW245252   3.235   9.511   3.850 -0.5819 -2.0868 -0.5283
11525SOL     OW45253   4.070   2.299   3.644  0.1809  0.8677 -0.2553
11525SOL    HW145254   4.115   2.353   3.716 -1.7383  1.5025  0.4850
11525SOL    HW245255   3.972   2.315   3.647 -0.1960 -1.1236 -1.3498
11526SOL     OW45256   8.783   1.000   1.165  0.4866  0.2027 -0.0388
11526SOL    HW145257   8.791   0.986   1.066 -0.9420 -0.7318 -0.0338
11526SOL    HW245258   8.818   0.920   1.213  0.8036  0.4872  0.2022
11527SOL     OW45259   3.713   1.519   1.962 -0.5462  0.3908  0.1062
11527SOL    HW145260   3.714   1.616   1.985  1.3368  0.2923  0.4958
11527SOL    HW245261   3.724   1.464   2.045 -1.5333 -0.1702 -0.1167
11528SOL     OW45262   1.052   7.154   3.687  0.4074 -0.4806 -0.3174
11528SOL    HW145263   0.992   7.224   3.648 -0.0086 -0.5079  0.2588
11528SOL    HW245264   1.044   7.156   3.787  1.4261 -0.4291 -0.2328
11529SOL     OW45265   1.818   8.877   4.771  0.1594 -0.0786 -0.3344
11529SOL    HW145266   1.755   8.801   4.761 -1.5145  1.3437 -0.8930
11529SOL    HW245267   1.803   8.944   4.698 -0.2881  2.0744  1.6348
11530SOL     OW45268   7.784   1.421   3.438  0.1498 -0.8484  0.2983
11530SOL    HW145269   7.757   1.510   3.474 -0.0042 -1.2908  1.2828
11530SOL    HW245270   7.880   1.424   3.411  0.3822 -0.6303  1.1395
11531SOL     OW45271   7.373   0.331   1.873  0.2355 -0.1209  0.0035
11531SOL    HW145272   7.387   0.303   1.968  1.0414 -1.9140 -0.6158
11531SOL    HW245273   7.455   0.377   1.840  0.0608  0.2533  0.0900
11532SOL     OW45274   3.740   2.316   3.470  0.4888  0.2750  0.4195
11532SOL    HW145275   3.763   2.305   3.567  1.9169 -1.2539 -0.0831
11532SOL    HW245276   3.730   2.414   3.450 -2.5901  0.5085  2.7035
11533SOL     OW45277   2.470   6.970   1.346 -0.0160  0.0170 -0.2003
11533SOL    HW145278   2.565   6.973   1.315 -0.5102  1.8349 -1.6628
11533SOL    HW245279   2.430   6.880   1.326  0.6837  0.0568 -1.8011
11534SOL     OW45280   2.169   0.244   2.230  0.0759  0.3924 -0.2369
11534SOL    HW145281   2.124   0.298   2.301 -0.6320  0.2967 -0.6057
11534SOL    HW245282   2.240   0.187   2.272 -1.2234 -0.6419  0.6007
11535SOL     OW45283   4.585   7.060   3.202  0.7194 -0.5337 -0.0707
11535SOL    HW145284   4.516   7.006   3.153  0.5502  0.5593 -1.0487
11535SOL    HW245285   4.553   7.154   3.211  2.5258  0.2412 -1.4520
11536SOL     OW45286   4.752   8.381   5.616 -0.7896 -0.1208 -0.2338
11536SOL    HW145287   4.801   8.385   5.529  1.6444  0.5421  1.1222
11536SOL    HW245288   4.719   8.288   5.632 -1.0796 -0.2983 -1.7337
11537SOL     OW45289   6.418   1.308   2.291 -0.3163  0.4237 -0.5769
11537SOL    HW145290   6.375   1.395   2.317 -1.0627  0.8542 -3.1030
11537SOL    HW245291   6.353   1.233   2.308 -0.1298  0.4924  0.4532
11538SOL     OW45292   9.945   6.695   1.930  0.0776  0.5436 -0.3016
11538SOL    HW145293   9.867   6.751   1.902 -1.3890 -1.8886 -1.2029
11538SOL    HW245294   9.916   6.628   1.998  1.6164  0.2707  0.1111
11539SOL     OW45295   2.112   2.245   0.143 -0.2512 -0.5534 -0.2951
11539SOL    HW145296   2.165   2.297   0.210 -0.0996  0.7297 -1.3729
11539SOL    HW245297   2.174   2.199   0.079 -0.4057 -0.6758 -0.3586
11540SOL     OW45298   0.277   8.515   1.405  0.8874  0.1149  0.2985
11540SOL    HW145299   0.213   8.590   1.424  0.8296  0.3818 -0.9071
11540SOL    HW245300   0.370   8.544   1.428  0.6920  0.0293  1.2330
11541SOL     OW45301   5.479   9.487   3.938  0.4654  0.1919 -0.1171
11541SOL    HW145302   5.437   9.502   3.849 -0.2800  1.9271  0.4933
11541SOL    HW245303   5.570   9.528   3.939  0.1872  0.8263  0.1253
11542SOL     OW45304   1.289   0.066   1.953 -0.2856  0.2892 -0.2528
11542SOL    HW145305   1.190   0.060   1.950 -0.4253  1.6770  1.0981
11542SOL    HW245306   1.319   0.081   2.047  1.2401 -0.5556 -0.5771
11543SOL     OW45307   1.494   4.731   0.033 -0.0485 -0.3030  0.2442
11543SOL    HW145308   1.500   4.708  -0.064  0.7994  1.1233 -0.0391
11543SOL    HW245309   1.541   4.817   0.051  2.4558 -2.0683  2.4677
11544SOL     OW45310   3.271   7.821   5.209  0.2409  0.1654  0.5302
11544SOL    HW145311   3.198   7.754   5.208  1.2527 -0.9478  0.2086
11544SOL    HW245312   3.267   7.873   5.295 -0.8875  0.0922  0.5309
11545SOL     OW45313   0.930   6.209   1.471  0.3905  0.2652  0.0820
11545SOL    HW145314   0.859   6.188   1.538 -0.8887  0.7809 -1.0772
11545SOL    HW245315   0.974   6.295   1.495  0.0682  0.3519  0.3622
11546SOL     OW45316   8.738   9.094   3.159 -0.4214 -0.0416 -0.2148
11546SOL    HW145317   8.802   9.117   3.086 -1.6876  0.4928 -1.1675
11546SOL    HW245318   8.697   9.004   3.140 -0.1132 -0.2938  0.2937
11547SOL     OW45319   9.426   7.102   4.171  0.2884  0.9356  0.1120
11547SOL    HW145320   9.469   7.067   4.088  0.7656 -1.1139  1.1877
11547SOL    HW245321   9.339   7.145   4.148 -0.9070 -2.0308 -1.1600
11548SOL     OW45322   1.373   5.860   2.742 -0.4501  0.0239 -0.4010
11548SOL    HW145323   1.302   5.924   2.715  1.0522  1.4753 -1.0022
11548SOL    HW245324   1.428   5.836   2.662  1.2261  0.8237  0.4843
11549SOL     OW45325   7.864   2.293   1.725 -0.1039  0.3562 -0.1094
11549SOL    HW145326   7.889   2.386   1.698 -2.0114  0.7410 -0.5905
11549SOL    HW245327   7.882   2.230   1.649  3.0678 -0.0486  0.8685
11550SOL     OW45328   0.085   0.556   4.599 -0.8920  0.2681  0.3603
11550SOL    HW145329   0.143   0.475   4.593  0.1467  0.9351  1.3002
11550SOL    HW245330   0.124   0.621   4.664 -1.2687  1.8926 -0.9881
11551SOL     OW45331   9.570   1.580   1.368  0.6587  0.2041 -0.1907
11551SOL    HW145332   9.589   1.509   1.300  1.9208  0.0251  0.3394
11551SOL    HW245333   9.471   1.592   1.377  0.4481 -1.0768 -0.7043
11552SOL     OW45334   9.066   2.049   4.608  0.2849  0.3283 -0.0847
11552SOL    HW145335   9.055   2.148   4.611  0.3698  0.3162  1.0149
11552SOL    HW245336   9.161   2.027   4.590 -0.0420  0.4399 -1.9935
11553SOL     OW45337   1.030   4.415   3.124 -0.1114 -0.5745 -0.2358
11553SOL    HW145338   0.971   4.386   3.049  1.2223 -2.3811 -0.6118
11553SOL    HW245339   1.100   4.477   3.089  0.1424 -0.9414 -0.3805
11554SOL     OW45340   2.260   1.010   4.980  0.2433  0.3792 -0.1746
11554SOL    HW145341   2.234   1.077   5.049  2.0324 -0.2139  1.0943
11554SOL    HW245342   2.195   0.934   4.981 -0.6135  1.1027 -0.2232
11555SOL     OW45343   9.531   1.220   5.593 -0.0489 -0.5716  0.1288
11555SOL    HW145344   9.537   1.120   5.596 -0.3490 -0.5663  1.2161
11555SOL    HW245345   9.453   1.247   5.536 -0.8777 -0.9972  1.0416
11556SOL     OW45346   3.505   2.775   5.312 -0.1485  0.8052  0.0088
11556SOL    HW145347   3.572   2.702   5.295 -0.0747  0.7823  0.3765
11556SOL    HW245348   3.420   2.754   5.265  0.7255  1.8122 -2.0876
11557SOL     OW45349   1.981   2.310   3.916  0.1154 -0.0459 -0.1604
11557SOL    HW145350   1.981   2.234   3.981  0.2261 -0.8591 -1.0882
11557SOL    HW245351   1.921   2.287   3.839 -1.4787  1.6633  0.5242
11558SOL     OW45352   7.681   2.923   2.143  0.4121 -0.4826 -0.1878
11558SOL    HW145353   7.593   2.957   2.176  0.6756 -0.0789  0.1166
11558SOL    HW245354   7.703   2.837   2.189  0.1654 -0.5951 -0.2820
11559SOL     OW45355   1.128   3.163   2.551 -0.9378 -0.0801  0.4033
11559SOL    HW145356   1.029   3.168   2.541 -1.3719 -1.3460  3.6090
11559SOL    HW245357   1.153   3.181   2.646  1.7519 -1.4560 -0.0050
11560SOL     OW45358   8.394   0.556   2.156 -0.0236  0.7619  0.2896
11560SOL    HW145359   8.493   0.559   2.142  0.0765  1.5161  1.0463
11560SOL    HW245360   8.358   0.469   2.125  0.7184  0.9050 -0.9933
11561SOL     OW45361   0.151   1.896   2.687  0.5474  0.1658  0.0717
11561SOL    HW145362   0.161   1.916   2.784 -0.3362  1.0296 -0.0148
11561SOL    HW245363   0.094   1.966   2.644 -1.3584 -1.7276 -0.5316
11562SOL     OW45364   5.614   7.168   4.064 -0.2790  0.6236 -0.0990
11562SOL    HW145365   5.626   7.149   4.162  1.0782 -1.2483 -0.6019
11562SOL    HW245366   5.640   7.263   4.045  2.4223  0.1038  0.8443
11563SOL     OW45367   9.903   1.205   2.274 -0.5329 -0.3981 -0.0554
11563SOL    HW145368   9.853   1.232   2.356  0.3179 -1.5085  0.8379
11563SOL    HW245369   9.925   1.108   2.278 -0.4480 -0.4525 -1.5837
11564SOL     OW45370   7.757   9.393   2.702  0.4978  0.2541  0.2950
11564SOL    HW145371   7.811   9.400   2.618  1.4274 -1.4039  0.7336
11564SOL    HW245372   7.808   9.340   2.770 -1.0155  0.0451  1.2921
11565SOL     OW45373   2.809   3.950   0.224 -0.4723  0.3028 -0.4902
11565SOL    HW145374   2.858   3.920   0.143 -0.0020  0.7525 -0.3734
11565SOL    HW245375   2.825   3.886   0.299 -1.3833 -0.4358 -0.9137
11566SOL     OW45376   8.158   1.338   2.666  0.2521 -0.2350 -0.1620
11566SOL    HW145377   8.226   1.271   2.635  0.8281  0.8484 -1.2799
11566SOL    HW245378   8.090   1.292   2.723  2.0236 -1.3064  1.1453
11567SOL     OW45379   9.853   2.032   1.375 -0.8646  0.1496 -0.4017
11567SOL    HW145380   9.892   2.121   1.398 -0.6501 -0.0036 -0.1596
11567SOL    HW245381   9.865   1.970   1.453  0.1944 -0.4818 -1.0541
11568SOL     OW45382   4.202   8.027   1.596 -0.2233  0.0261  0.0270
11568SOL    HW145383   4.120   8.060   1.549 -0.3377 -0.4513 -0.1014
11568SOL    HW245384   4.243   7.953   1.543  2.2287  2.5172 -1.7208
11569SOL     OW45385   3.171   9.359   2.061 -0.5175  0.6004 -0.0286
11569SOL    HW145386   3.211   9.324   1.977  0.3265  0.8986  0.2503
11569SOL    HW245387   3.078   9.322   2.071 -1.3416  2.0462 -2.0437
11570SOL     OW45388   0.385   7.374   1.519  0.3251  0.0833  0.0967
11570SOL    HW145389   0.437   7.298   1.480  0.1716 -0.2689  0.5763
11570SOL    HW245390   0.308   7.396   1.459  1.6577  1.3468 -1.2014
11571SOL     OW45391   0.637   5.511   3.330 -0.0352 -0.0060 -0.2151
11571SOL    HW145392   0.713   5.576   3.339 -0.0669  0.2010 -1.3591
11571SOL    HW245393   0.555   5.551   3.371  0.1448  0.3270 -0.1684
11572SOL     OW45394   2.350   1.154   3.682  0.4555 -0.8012 -0.2350
11572SOL    HW145395   2.358   1.055   3.688 -2.6358 -0.9975  1.7214
11572SOL    HW245396   2.336   1.192   3.774  0.2487  1.3105 -1.1105
11573SOL     OW45397   8.170   6.771   3.079  0.1140 -0.1019 -0.2610
11573SOL    HW145398   8.192   6.687   3.130 -0.7169 -0.1106  0.0858
11573SOL    HW245399   8.074   6.769   3.053  0.5266 -0.0890 -1.8247
11574SOL     OW45400   2.339   0.787   3.376 -0.1502 -0.0427  0.3916
11574SOL    HW145401   2.250   0.812   3.336 -0.4753  1.0475  1.7546
11574SOL    HW245402   2.348   0.688   3.377 -0.7998 -0.1322 -0.9409
11575SOL     OW45403   2.856   3.436   0.494  0.1685  0.1238 -0.4300
11575SOL    HW145404   2.841   3.428   0.396 -0.8528  1.0344 -0.3548
11575SOL    HW245405   2.954   3.443   0.512  0.2899  1.5245 -1.5186
11576SOL     OW45406   2.653   4.795   1.301  0.0622 -0.0294  0.2575
11576SOL    HW145407   2.657   4.758   1.394  1.5643  0.1526  0.2817
11576SOL    HW245408   2.713   4.876   1.295 -1.3263  0.9645 -0.4203
11577SOL     OW45409   3.747   2.157   0.499  0.4055 -0.5574 -0.3509
11577SOL    HW145410   3.823   2.174   0.436  0.2616  0.1082 -0.3530
11577SOL    HW245411   3.777   2.094   0.571  1.3931  0.7923  0.4477
11578SOL     OW45412   3.302   2.015   0.679 -0.1838 -0.7146  0.2832
11578SOL    HW145413   3.335   2.106   0.705 -0.7058 -0.9036  1.6859
11578SOL    HW245414   3.314   2.001   0.581 -0.4841  1.0320 -0.0183
11579SOL     OW45415   7.722   9.861   1.961  0.3425  0.5104  0.1587
11579SOL    HW145416   7.776   9.831   2.040 -0.6952  0.3868  0.8469
11579SOL    HW245417   7.663   9.937   1.989 -1.3873 -0.7468  0.0116
11580SOL     OW45418   2.931   4.016   0.767  0.2327 -0.4018  0.3084
11580SOL    HW145419   2.928   4.113   0.793 -0.3317 -0.6663  1.2956
11580SOL    HW245420   3.016   3.975   0.799 -0.5462 -0.7722  1.9791
11581SOL     OW45421   9.499   3.630   3.489  0.9378 -0.1412  0.1722
11581SOL    HW145422   9.533   3.724   3.495  0.0595  0.2958 -1.3559
11581SOL    HW245423   9.399   3.630   3.492  0.8739 -0.8826 -1.3568
11582SOL     OW45424   2.190   9.634   1.967 -0.3558  0.0457 -0.6808
11582SOL    HW145425   2.097   9.633   2.003 -0.2888 -0.6680 -0.5087
11582SOL    HW245426   2.210   9.724   1.927 -0.2063  1.0508  1.6187
11583SOL     OW45427   4.387   1.957   1.975  0.7982 -0.1903  0.1208
11583SOL    HW145428   4.353   2.046   1.946 -0.2036 -0.3613  0.7354
11583SOL    HW245429   4.310   1.898   1.998  1.3796 -1.6795 -1.5949
11584SOL     OW45430   0.793   7.269   3.306 -0.3899 -0.3234  0.4113
11584SOL    HW145431   0.832   7.210   3.235 -0.1733  0.1114  0.1666
11584SOL    HW245432   0.845   7.259   3.390  0.1908  0.1777  0.1137
11585SOL     OW45433   9.268   5.458   1.572 -0.1027 -0.4633  0.2587
11585SOL    HW145434   9.258   5.370   1.619  0.3101  0.7569  2.6996
11585SOL    HW245435   9.180   5.506   1.573  0.3957  0.4480  1.6400
11586SOL     OW45436   2.183   0.865   2.858 -0.5222 -0.4177 -0.2651
11586SOL    HW145437   2.141   0.928   2.925  0.3647  0.2617 -0.3402
11586SOL    HW245438   2.136   0.873   2.771 -0.2972  0.2785 -0.3234
11587SOL     OW45439   8.318   0.786   5.238  0.2844  0.5475  0.4034
11587SOL    HW145440   8.385   0.728   5.284 -0.2548 -1.3589 -1.1579
11587SOL    HW245441   8.359   0.874   5.217  1.6937  0.0958  1.1536
11588SOL     OW45442   2.776   4.257   0.512 -0.4956  0.0202 -0.1243
11588SOL    HW145443   2.721   4.188   0.561  1.1330 -0.9766  0.3410
11588SOL    HW245444   2.805   4.328   0.576  0.0912 -0.3028 -0.0301
11589SOL     OW45445   2.975   8.647   5.577  0.0449 -0.3737  0.0008
11589SOL    HW145446   2.970   8.633   5.478  1.7166 -0.7565 -0.0425
11589SOL    HW245447   2.978   8.558   5.623 -1.6980 -0.2129  0.4711
11590SOL     OW45448   9.738   8.352   2.037  0.4022 -0.0190  0.5562
11590SOL    HW145449   9.819   8.308   2.000 -0.1611  0.6190 -1.4828
11590SOL    HW245450   9.765   8.424   2.101  1.3757 -1.3961  1.7172
11591SOL     OW45451   8.325   0.883   3.634  0.1681  0.2962 -0.2405
11591SOL    HW145452   8.338   0.785   3.614  0.0595  0.0843  0.6934
11591SOL    HW245453   8.341   0.899   3.731  0.4868  1.2718 -0.4559
11592SOL     OW45454   3.164   0.431   4.227  0.2948 -0.3255 -0.1969
11592SOL    HW145455   3.167   0.531   4.222  1.7179 -0.3452  0.1644
11592SOL    HW245456   3.125   0.395   4.142  0.3475  0.4986 -0.5798
11593SOL     OW45457   1.798   3.318   2.343 -0.4165 -0.0615  0.2777
11593SOL    HW145458   1.790   3.367   2.429  0.3566  2.1947 -0.8830
11593SOL    HW245459   1.708   3.285   2.315 -1.2530  2.0368  0.3609
11594SOL     OW45460   7.230   2.006   2.211 -1.1796 -0.1169  0.0655
11594SOL    HW145461   7.241   1.974   2.117 -0.7229 -0.2720  0.1739
11594SOL    HW245462   7.221   2.106   2.211 -1.4584 -0.1382 -0.1650
11595SOL     OW45463   9.799   1.886   5.569 -0.3618 -0.6076 -0.3008
11595SOL    HW145464   9.759   1.831   5.642 -0.7162  0.9986  0.7497
11595SOL    HW245465   9.749   1.870   5.484 -1.0309 -1.2285  0.1994
11596SOL     OW45466   2.343   9.738   3.084 -0.2655 -0.2884  0.2897
11596SOL    HW145467   2.250   9.774   3.092  0.1512  0.7406  0.4895
11596SOL    HW245468   2.397   9.798   3.025 -0.0809 -1.5856 -0.8875
11597SOL     OW45469   1.485   1.017   4.213  0.1482  0.5353 -0.3600
11597SOL    HW145470   1.396   1.023   4.168  0.3325  1.2971 -0.6335
11597SOL    HW245471   1.490   1.084   4.287 -0.3096 -1.0056  1.0885
11598SOL     OW45472   8.996   5.553   1.862  0.0112 -0.7555 -0.0384
11598SOL    HW145473   8.917   5.613   1.875 -0.0674 -0.7205 -0.6555
11598SOL    HW245474   9.030   5.562   1.768  1.0358 -0.4157  0.3562
11599SOL     OW45475   9.428   8.770   4.860 -0.0331  0.4549 -0.1214
11599SOL    HW145476   9.453   8.831   4.936 -0.0141 -0.7539  0.8572
11599SOL    HW245477   9.492   8.783   4.785 -0.2002  1.8503 -0.0416
11600SOL     OW45478   9.979   2.956   1.073 -0.3660  0.6978  0.1935
11600SOL    HW145479   9.995   3.005   0.988  3.4891  0.0269  0.4545
11600SOL    HW245480   9.940   2.866   1.053  0.5798  0.5161 -0.8687
11601SOL     OW45481   3.465   0.725   0.392 -0.0243  0.5784 -0.1507
11601SOL    HW145482   3.454   0.638   0.344 -1.7526  0.6797  0.0037
11601SOL    HW245483   3.520   0.712   0.475 -2.0980 -0.8449  1.0455
11602SOL     OW45484   5.619   0.331   3.047  0.0130 -0.2329 -0.6450
11602SOL    HW145485   5.659   0.254   2.997  1.8988 -1.4983  2.6556
11602SOL    HW245486   5.668   0.415   3.023  1.2461 -0.9094 -0.5393
11603SOL     OW45487   3.157   6.209   3.862 -0.0271 -0.2619 -0.0616
11603SOL    HW145488   3.177   6.304   3.837 -3.3454 -0.3544 -3.4636
11603SOL    HW245489   3.105   6.208   3.948 -0.6322  1.0252 -0.4039
11604SOL     OW45490   9.384   6.964   0.802 -0.8575 -0.2087  0.3925
11604SOL    HW145491   9.459   6.943   0.865 -0.9451  1.8540  1.2068
11604SOL    HW245492   9.374   6.889   0.737  2.1261 -0.3797  0.0385
11605SOL     OW45493   0.943   8.524   2.160 -0.4029  0.0179  0.2582
11605SOL    HW145494   0.968   8.454   2.093 -1.9214  1.5413 -1.9573
11605SOL    HW245495   1.026   8.566   2.197  0.4543  1.4103 -3.1213
11606SOL     OW45496   4.296   7.930   4.576  0.0224 -0.3139  0.3356
11606SOL    HW145497   4.360   7.898   4.506  0.1762 -1.3026  0.9075
11606SOL    HW245498   4.258   7.851   4.625 -0.3113  0.3456  1.1565
11607SOL     OW45499   3.502   6.459   2.344  0.1071 -0.1963  0.2536
11607SOL    HW145500   3.592   6.445   2.302 -0.4509  0.8020 -1.3602
11607SOL    HW245501   3.460   6.542   2.305 -0.6635  0.5011  2.4570
11608SOL     OW45502   8.540   0.715   4.934 -0.2652 -0.6817 -0.2158
11608SOL    HW145503   8.486   0.774   4.995  0.5906 -0.2737  0.1519
11608SOL    HW245504   8.523   0.620   4.958  0.3338 -0.5210  0.9142
11609SOL     OW45505   3.406   3.226   1.619  0.5590 -0.0970  0.4909
11609SOL    HW145506   3.337   3.295   1.641 -1.0348 -2.1671  2.2457
11609SOL    HW245507   3.451   3.195   1.703  0.4775 -1.9296 -0.1102
11610SOL     OW45508   4.405   5.525   1.166  0.4372  0.2070 -0.2446
11610SOL    HW145509   4.361   5.571   1.243  0.9319 -0.1652  0.2569
11610SOL    HW245510   4.500   5.504   1.189  0.7574  0.6164 -1.1639
11611SOL     OW45511   7.082   1.099   3.475 -0.0594  0.3095 -0.3434
11611SOL    HW145512   7.028   1.077   3.556 -2.1127  3.4603 -0.7441
11611SOL    HW245513   7.164   1.150   3.503 -0.1162  0.2800 -0.1210
11612SOL     OW45514   1.483   5.150   1.994  0.0776  0.9836  0.3160
11612SOL    HW145515   1.461   5.237   2.037 -3.1111 -0.0056  0.8333
11612SOL    HW245516   1.525   5.089   2.061 -4.1119 -0.2551  1.9873
11613SOL     OW45517   0.873   9.789   4.965 -0.0834 -0.4315  0.2032
11613SOL    HW145518   0.930   9.768   5.045 -0.3830  0.6804  0.7147
11613SOL    HW245519   0.796   9.846   4.993  0.3059  0.7296 -1.0322
11614SOL     OW45520   5.562   1.392   1.836 -0.0027  0.1068  0.1585
11614SOL    HW145521   5.509   1.393   1.921 -0.1594 -1.8559  0.0998
11614SOL    HW245522   5.640   1.331   1.846 -0.9436 -1.4233 -1.6514
11615SOL     OW45523   1.159   1.883   3.477  0.5154 -0.2253  0.1142
11615SOL    HW145524   1.170   1.969   3.427 -0.8084  0.0798  0.3177
11615SOL    HW245525   1.246   1.834   3.480  1.1343  0.8250 -0.5252
11616SOL     OW45526   9.662   8.101   2.123 -0.0640 -0.6378  0.5407
11616SOL    HW145527   9.587   8.097   2.056 -1.2701 -1.0766  1.8829
11616SOL    HW245528   9.712   8.187   2.112 -1.3375  0.0828  0.2153
11617SOL     OW45529   5.053   7.603   3.860 -0.0238 -0.8097  0.7207
11617SOL    HW145530   5.112   7.545   3.805  0.2501 -0.8169  1.0232
11617SOL    HW245531   5.010   7.672   3.801  0.4105 -0.6984  0.5299
11618SOL     OW45532   3.708   4.526   0.442  0.0176 -0.0573  0.0948
11618SOL    HW145533   3.642   4.496   0.372  1.2904 -1.8774 -0.3541
11618SOL    HW245534   3.695   4.472   0.525  0.2591  0.3125  0.3741
11619SOL     OW45535   1.645   7.090   2.360  0.2621 -0.4518  0.3563
11619SOL    HW145536   1.706   7.169   2.350  2.3104 -1.9655  0.5534
11619SOL    HW245537   1.599   7.095   2.448 -0.2344  0.9206  0.0397
11620SOL     OW45538   4.592   3.049   5.113 -0.4035  0.0184  0.3268
11620SOL    HW145539   4.568   2.979   5.046 -1.2868 -0.1676  0.8369
11620SOL    HW245540   4.692   3.056   5.120 -0.3164 -1.2632  0.3737
11621SOL     OW45541   3.930   1.437   5.080 -0.6511 -0.1416 -0.2641
11621SOL    HW145542   3.919   1.394   4.990  0.6173  1.0282 -0.9879
11621SOL    HW245543   3.954   1.533   5.069  0.3974 -0.2040  1.3277
11622SOL     OW45544   2.502   7.538   3.648  0.5910 -0.0836 -0.4609
11622SOL    HW145545   2.519   7.491   3.562 -1.4537 -2.0372  0.1432
11622SOL    HW245546   2.435   7.610   3.634 -0.3940 -0.9610 -0.3895
11623SOL     OW45547   7.747   9.534   3.468 -0.1828 -0.4236  0.7784
11623SOL    HW145548   7.670   9.595   3.453  0.8004  0.6784  0.1517
11623SOL    HW245549   7.824   9.561   3.410  0.9310 -1.0433  1.9279
11624SOL     OW45550   3.382   2.949   5.022 -0.0988  0.0073 -0.3106
11624SOL    HW145551   3.390   3.041   5.061  1.0911 -0.6241  0.9679
11624SOL    HW245552   3.447   2.938   4.947  0.0359  0.0682 -0.2013
11625SOL     OW45553   3.053   1.211   1.412 -0.0534 -0.1606  0.2200
11625SOL    HW145554   3.033   1.124   1.369  1.5118  0.0080 -0.9060
11625SOL    HW245555   3.092   1.195   1.503  0.2699 -0.6300 -0.0007
11626SOL     OW45556   1.012   6.132   2.869  0.1050  0.1453  0.1180
11626SOL    HW145557   1.013   6.042   2.824 -1.7215  0.1585  0.0208
11626SOL    HW245558   0.996   6.203   2.801  1.5679  0.5680  0.1940
11627SOL     OW45559   2.748   1.642   4.165  0.2279 -0.2065  0.0264
11627SOL    HW145560   2.740   1.626   4.263 -0.8022 -0.4210 -0.0934
11627SOL    HW245561   2.714   1.734   4.143 -2.1269 -1.1858 -0.5019
11628SOL     OW45562   9.272   3.520   2.958 -0.2873 -0.6020  0.0856
11628SOL    HW145563   9.323   3.546   2.876 -0.3897  0.4638  0.3518
11628SOL    HW245564   9.177   3.551   2.948 -0.4061 -0.8638  0.4196
11629SOL     OW45565   8.666   9.420   1.248 -0.5232 -0.0622  0.3508
11629SOL    HW145566   8.751   9.460   1.283 -0.6036 -0.7307  1.3525
11629SOL    HW245567   8.688   9.356   1.175 -0.2210  0.2671  0.1477
11630SOL     OW45568   4.283   4.173   0.916  0.5115  0.2776  0.1504
11630SOL    HW145569   4.236   4.214   0.838 -0.6822  0.7404  1.0913
11630SOL    HW245570   4.382   4.184   0.905  0.2908  1.8039 -0.4943
11631SOL     OW45571   8.558   1.387   0.522 -0.2688 -0.2165  0.6930
11631SOL    HW145572   8.603   1.463   0.568 -1.3491  0.5127  0.5547
11631SOL    HW245573   8.546   1.311   0.587 -3.4313  1.4764  2.1989
11632SOL     OW45574   1.979   3.444   2.605  0.3047  0.4444 -0.4216
11632SOL    HW145575   1.882   3.454   2.582  0.3151 -1.8831 -1.6722
11632SOL    HW245576   2.032   3.434   2.520  1.3378 -0.5789  0.3296
11633SOL     OW45577   3.887   0.262   5.398 -0.1621  0.5509 -0.7613
11633SOL    HW145578   3.961   0.312   5.353  0.1712  2.4488  1.7589
11633SOL    HW245579   3.926   0.204   5.470 -0.9560  0.1048 -0.6898
11634SOL     OW45580   9.743   0.879   3.537  0.0432 -0.1803 -0.1092
11634SOL    HW145581   9.777   0.875   3.631  0.2203 -1.4074 -0.2187
11634SOL    HW245582   9.691   0.796   3.517  0.4517 -0.1644 -1.2684
11635SOL     OW45583   8.507   7.981   3.781  0.0764 -0.1531 -0.7999
11635SOL    HW145584   8.604   8.005   3.777 -0.2900  1.6282  0.4538
11635SOL    HW245585   8.456   8.039   3.717 -0.3877  0.1624 -0.1459
11636SOL     OW45586   3.183   1.717   5.428  0.2043 -0.5883 -0.8317
11636SOL    HW145587   3.180   1.742   5.525 -0.7046 -0.7886 -0.8001
11636SOL    HW245588   3.147   1.624   5.416  1.0012 -0.8432 -1.2750
11637SOL     OW45589   4.136   1.049   2.911  0.0230  0.5476 -0.2057
11637SOL    HW145590   4.213   1.068   2.971  0.3274 -0.2396 -0.3516
11637SOL    HW245591   4.069   1.123   2.920  0.1451  0.5285  0.9684
11638SOL     OW45592   3.093   8.449   4.542  0.3299  0.1519 -0.7025
11638SOL    HW145593   3.141   8.533   4.568  1.3013 -0.9129  1.0148
11638SOL    HW245594   3.160   8.380   4.516 -0.4619 -0.1794 -1.8957
11639SOL     OW45595   8.237   4.787   2.294  0.2856 -0.0233  0.8918
11639SOL    HW145596   8.253   4.834   2.381 -0.0042 -0.8728  1.4122
11639SOL    HW245597   8.265   4.692   2.302  1.2936  0.1588 -0.3020
11640SOL     OW45598   4.170   8.762   0.473 -0.6056  0.9264 -0.3409
11640SOL    HW145599   4.156   8.711   0.558 -0.1775 -0.2275 -0.9473
11640SOL    HW245600   4.149   8.859   0.488 -0.4513  0.7518  1.1015
11641SOL     OW45601   8.373   9.818   5.408 -0.6217 -0.3609 -0.2201
11641SOL    HW145602   8.326   9.763   5.339 -1.8609 -0.4319  0.6695
11641SOL    HW245603   8.349   9.914   5.396 -1.1978 -0.4280  0.4041
11642SOL     OW45604   8.543   9.887   1.770  0.3990  0.0129  0.4565
11642SOL    HW145605   8.454   9.870   1.729  0.4434  1.4557 -0.2687
11642SOL    HW245606   8.593   9.800   1.780 -0.0044 -0.4788 -1.6292
11643SOL     OW45607   0.391   1.340   5.111  0.5102 -0.1647 -0.1135
11643SOL    HW145608   0.436   1.315   5.026 -0.3109 -2.2599  0.0213
11643SOL    HW245609   0.341   1.260   5.146 -0.0060  0.9691  1.7792
11644SOL     OW45610   3.535   6.902   4.721  0.3120  1.0059  0.4819
11644SOL    HW145611   3.552   6.993   4.759  0.6812  0.9297  0.5018
11644SOL    HW245612   3.584   6.893   4.634 -0.9363  1.3666 -0.2787
11645SOL     OW45613   0.204   9.737   2.644 -0.0143 -0.0986  0.0711
11645SOL    HW145614   0.138   9.664   2.628 -0.7235  0.5286  0.1130
11645SOL    HW245615   0.288   9.718   2.594 -0.2578 -0.8542 -0.0539
11646SOL     OW45616   6.996   0.593   1.906  0.2542 -0.3341 -0.2622
11646SOL    HW145617   7.012   0.581   1.808  0.7392 -0.6717 -0.1433
11646SOL    HW245618   7.027   0.511   1.955 -3.0098 -1.5715 -0.1403
11647SOL     OW45619   8.349   2.172   2.823 -0.7703 -0.4625 -0.2933
11647SOL    HW145620   8.330   2.172   2.725  0.0206  0.7841 -0.4676
11647SOL    HW245621   8.417   2.102   2.844 -1.6567 -1.3809 -0.4827
11648SOL     OW45622   2.605   0.878   3.926  0.2898 -1.3056 -0.5659
11648SOL    HW145623   2.537   0.862   3.998  0.5270 -1.7815 -0.4477
11648SOL    HW245624   2.616   0.977   3.911 -0.8457 -1.2289 -0.9766
11649SOL     OW45625   9.875   0.899   0.480 -0.3191 -0.1928 -0.0084
11649SOL    HW145626   9.812   0.825   0.503 -0.9942 -0.2833 -2.0607
11649SOL    HW245627   9.969   0.868   0.496 -0.5909 -1.4961 -0.8122
11650SOL     OW45628   7.763   0.299   2.052 -0.0265  0.1083  0.9720
11650SOL    HW145629   7.716   0.211   2.059  1.1867 -0.6460 -0.2717
11650SOL    HW245630   7.697   0.373   2.060 -0.9565 -0.8959  2.8953
11651SOL     OW45631   3.757   2.083   4.466 -0.4325  0.0357 -0.2297
11651SOL    HW145632   3.811   2.070   4.382  0.1047 -3.8522  0.6248
11651SOL    HW245633   3.662   2.058   4.448 -0.2260 -1.2346  0.4098
11652SOL     OW45634   9.441   0.877   1.275 -0.7118  0.5533 -0.2524
11652SOL    HW145635   9.377   0.810   1.238  0.7701 -1.8292  1.3866
11652SOL    HW245636   9.413   0.902   1.368 -0.1482  0.6895 -0.1172
11653SOL     OW45637   9.643   8.127   3.849  0.0063  0.1667  0.6385
11653SOL    HW145638   9.587   8.210   3.857 -2.0759 -1.0059 -1.3794
11653SOL    HW245639   9.688   8.125   3.760 -1.7713 -1.9629 -0.2422
11654SOL     OW45640   0.950   0.085   3.935  0.4099  0.3784 -0.3997
11654SOL    HW145641   0.980   0.060   4.027  1.9118 -0.6092 -1.1441
11654SOL    HW245642   0.858   0.125   3.940  0.1993 -0.2883  1.4454
11655SOL     OW45643   0.589   3.996   1.535  0.5149  0.1032  0.3743
11655SOL    HW145644   0.610   3.899   1.526 -0.0711  0.0438 -0.3440
11655SOL    HW245645   0.579   4.037   1.445  2.3458  1.1800  0.6351
11656SOL     OW45646   2.337   2.019   2.466  0.2352 -0.4389 -0.1883
11656SOL    HW145647   2.243   1.992   2.446  0.1850  0.5411 -1.3345
11656SOL    HW245648   2.390   1.939   2.493 -0.6388 -1.1900 -0.6841
11657SOL     OW45649   8.286   6.274   1.658 -0.7206 -0.5121  0.0463
11657SOL    HW145650   8.351   6.325   1.715 -0.7036  2.4860 -2.5237
11657SOL    HW245651   8.195   6.316   1.667 -1.2522 -1.6022 -0.2052
11658SOL     OW45652   2.422   2.582   4.963  0.3365  0.1680 -0.2979
11658SOL    HW145653   2.342   2.539   4.922 -0.6147  1.4845  0.1838
11658SOL    HW245654   2.489   2.511   4.986 -0.7583 -0.9544 -0.5095
11659SOL     OW45655   2.601   0.144   4.581 -0.3257 -0.3283  0.7086
11659SOL    HW145656   2.668   0.098   4.522 -0.6932 -1.7570  1.3915
11659SOL    HW245657   2.634   0.141   4.676 -1.3748 -1.0649  1.0491
11660SOL     OW45658   2.213   0.307   3.080 -0.4188  0.4296 -0.2273
11660SOL    HW145659   2.200   0.380   3.013  0.6462  1.2814  0.4968
11660SOL    HW245660   2.218   0.345   3.172 -1.9830 -0.7557  0.3775
11661SOL     OW45661   9.720   2.773   2.019  0.1475 -0.2029  0.3729
11661SOL    HW145662   9.667   2.697   2.056  1.3848 -0.5383  1.4748
11661SOL    HW245663   9.725   2.846   2.088  0.0899  0.3288 -0.1824
11662SOL     OW45664   0.460   5.681   2.930 -0.5150  1.3885  0.5673
11662SOL    HW145665   0.380   5.738   2.944 -1.0206  0.5695  1.0507
11662SOL    HW245666   0.466   5.612   3.002 -1.2878 -0.7173 -1.2911
11663SOL     OW45667   0.396   3.146   1.957 -0.5314  0.5837 -0.2944
11663SOL    HW145668   0.353   3.175   2.042 -2.3190  0.1960 -1.0464
11663SOL    HW245669   0.346   3.183   1.879  1.6103  1.6754 -1.2062
  10.00000  10.00000   5.63389
