chitosan Film  in water:acetic acid 2%
11776
    1CHTO  H203    1   4.668   8.086   2.523  0.1001  1.0772  1.3362
    1CHTO   O82    2   4.645   8.023   2.589 -0.6372 -0.1252 -0.0328
    1CHTO  C123    3   4.757   7.982   2.664  0.2320 -0.5219 -0.1145
    1CHTO  H227    4   4.792   8.066   2.725 -2.0312  0.2200  0.2098
    1CHTO   O77    5   4.705   7.887   2.757 -0.1925 -0.0983  0.2267
    1CHTO  C118    6   4.810   7.814   2.827  0.0568 -0.1846 -1.2216
    1CHTO  H222    7   4.858   7.893   2.887 -2.6961  1.4116 -1.0698
    1CHTO  C125    8   4.739   7.718   2.921  0.2797  0.1738 -0.3691
    1CHTO   O84    9   4.673   7.618   2.848  0.2226 -0.3245 -0.7289
    1CHTO  H205   10   4.595   7.594   2.895  1.7689 -2.4560  0.8388
    1CHTO  C114   11   4.911   7.742   2.734  0.0708 -0.1628 -0.2116
    1CHTO  H218   12   4.859   7.669   2.672  1.8469 -0.3377 -1.5335
    1CHTO  C116   13   4.977   7.838   2.635  0.9831 -0.2251 -0.6900
    1CHTO  H220   14   5.060   7.889   2.688  0.8100 -0.8032  0.1592
    1CHTO   O79   15   5.046   7.756   2.537  0.2702  0.1604  0.8928
    1CHTO  H201   16   5.064   7.809   2.462  0.7158 -0.3639  0.6260
    1CHTO  C120   17   4.877   7.936   2.565  0.1216  0.0473 -0.4778
    1CHTO  H224   18   4.837   7.874   2.482  1.3089 -1.5343  0.1023
    1CHTO   N21   19   4.946   8.049   2.508 -0.4866 -0.8822  0.0286
    1CHTO  H211   20   4.890   8.140   2.524  0.9243 -0.0116  0.1214
    1CHTO  H212   21   4.954   8.028   2.402 -0.2398  0.7172 -0.2822
    1CHTO   O75   22   5.003   7.686   2.822  0.7745  0.0920 -0.3100
    1CHTO  C112   23   5.040   7.518   2.782 -0.4401  0.1787 -0.6923
    1CHTO  H216   24   5.016   7.501   2.676  1.8293 -3.2307 -0.7515
    1CHTO   O73   25   4.965   7.434   2.874  0.9735 -0.0161  0.4577
    1CHTO  C113   26   4.989   7.296   2.859 -0.2144  0.5628 -0.5967
    1CHTO  H217   27   4.955   7.272   2.755 -1.4860  1.7290 -0.4596
    1CHTO  C124   28   4.888   7.227   2.955  0.2144 -0.6303 -0.2601
    1CHTO   O83   29   4.879   7.084   2.953  0.1206 -0.0364  0.4870
    1CHTO  H204   30   4.798   7.054   2.991  0.6329 -0.0965  1.5513
    1CHTO  C109   31   5.135   7.270   2.896 -0.6977  0.3494  0.9374
    1CHTO  H213   32   5.153   7.303   3.000  3.3814  0.5066  0.2648
    1CHTO  C110   33   5.232   7.349   2.803 -0.0564 -0.7084  0.2920
    1CHTO  H214   34   5.223   7.305   2.703 -1.1415 -2.2886  1.0719
    1CHTO   O78   35   5.365   7.317   2.841  0.0287 -0.0825  0.1909
    1CHTO  H200   36   5.409   7.381   2.894 -0.5112 -0.4422  1.0715
    1CHTO  C111   37   5.198   7.500   2.797  0.4510  0.2025  0.5245
    1CHTO  H215   38   5.221   7.547   2.894  2.1995  2.6027 -0.9900
    1CHTO   N19   39   5.273   7.582   2.698 -0.0255 -0.3841 -0.8482
    1CHTO  H207   40   5.254   7.686   2.723  0.0287 -0.8529  1.2788
    1CHTO  H208   41   5.239   7.558   2.599  0.0431 -0.9018 -0.7481
    1CHTO   O74   42   5.163   7.130   2.885 -0.4977  0.3341 -0.4730
    1CHTO  C115   43   5.244   7.069   3.002 -0.8450 -0.7001 -0.1004
    1CHTO  H219   44   5.264   7.146   3.077 -1.8267  1.3661 -1.9103
    1CHTO   O76   45   5.173   6.969   3.071  0.5251  0.0041  0.0796
    1CHTO  C122   46   5.139   6.847   2.997 -0.2599 -0.3430 -0.4511
    1CHTO  H226   47   5.039   6.866   2.958 -0.6410  0.7391  0.9828
    1CHTO  C126   48   5.130   6.732   3.103  0.3266 -0.2447 -0.2455
    1CHTO   O85   49   5.247   6.666   3.142 -0.1426 -0.1296 -0.0913
    1CHTO  H206   50   5.310   6.709   3.196  1.0574 -2.3359  0.3187
    1CHTO  C121   51   5.243   6.801   2.877 -0.1268  0.1504  0.9314
    1CHTO  H225   52   5.240   6.691   2.870 -0.7408  0.1247  1.5510
    1CHTO   O81   53   5.188   6.855   2.755 -0.2233 -0.2633 -0.2657
    1CHTO  H202   54   5.194   6.948   2.755  1.6097 -0.3623  0.1060
    1CHTO  C119   55   5.382   6.856   2.911 -0.2358  0.2924 -0.6268
    1CHTO  H223   56   5.410   6.799   3.000  1.2552  0.0946 -1.2089
    1CHTO  C117   57   5.383   7.010   2.949 -0.2530  0.6107 -0.1808
    1CHTO  H221   58   5.405   7.074   2.864 -0.3689 -0.3038 -0.9009
    1CHTO   N20   59   5.490   7.043   3.052 -0.6093  0.1365 -0.1969
    1CHTO  H209   60   5.464   7.006   3.150  0.8306  0.9791  0.5150
    1CHTO  H210   61   5.583   6.996   3.023 -0.6702  0.1545 -0.4178
    1CHTO   O80   62   5.494   6.810   2.816  0.2422 -0.4230 -0.1005
    1CHTO  C103   63   5.568   6.666   2.834  0.8157  0.3115 -0.7487
    1CHTO  H190   64   5.563   6.646   2.941  1.2436  1.2558 -0.5454
    1CHTO  C101   65   5.533   6.545   2.738  0.0269 -0.2980  0.0440
    1CHTO  H188   66   5.536   6.580   2.635  0.6214 -3.2160 -0.9931
    1CHTO   O68   67   5.394   6.502   2.772  0.0747 -0.1639 -0.3707
    1CHTO  H168   68   5.339   6.573   2.746  0.1189 -0.5001 -1.4375
    1CHTO   C99   69   5.641   6.425   2.741 -0.5479 -0.4859  0.1703
    1CHTO  H186   70   5.636   6.368   2.836 -1.3820 -2.2773 -0.9161
    1CHTO   N17   71   5.616   6.324   2.632  0.0095  0.6297  0.6071
    1CHTO  H174   72   5.554   6.241   2.664  1.5880  0.0254  2.2128
    1CHTO  H175   73   5.592   6.371   2.538  0.2633 -0.5588 -0.0616
    1CHTO   C97   74   5.784   6.493   2.731  0.2768  0.2902  0.1390
    1CHTO  H184   75   5.795   6.532   2.629  0.5158 -1.5106 -0.5564
    1CHTO   O64   76   5.796   6.595   2.828 -0.2885 -0.2743  0.2781
    1CHTO  C104   77   5.711   6.707   2.804 -0.1207 -0.3827  0.2411
    1CHTO  H191   78   5.717   6.745   2.701  0.5747  2.0059  1.1214
    1CHTO  C108   79   5.765   6.822   2.889 -0.1171  0.5944 -0.3182
    1CHTO   O71   80   5.732   6.811   3.029 -0.4170  0.2672  0.4357
    1CHTO  H171   81   5.778   6.746   3.078  0.0410  0.3115  0.0646
    1CHTO   O62   82   5.894   6.399   2.755  0.2824 -0.1875  0.6228
    1CHTO   C91   83   5.975   6.370   2.639 -0.2629 -0.1724 -0.1137
    1CHTO  H178   84   5.907   6.369   2.554  1.4815  0.3779 -1.5363
    1CHTO   C92   85   6.027   6.222   2.654  0.2612  0.4918  0.2951
    1CHTO  H179   86   6.043   6.194   2.759 -0.2966 -2.2932 -0.3240
    1CHTO   O66   87   5.926   6.134   2.609  0.4211 -0.5113 -0.0302
    1CHTO  H166   88   5.841   6.149   2.647  0.0831 -0.8146 -0.6526
    1CHTO   C93   89   6.150   6.182   2.568  0.3777 -1.2758  0.2290
    1CHTO  H180   90   6.121   6.161   2.465  2.1997  2.4909 -1.1442
    1CHTO   N16   91   6.212   6.053   2.622 -0.1318  0.5912  0.0936
    1CHTO  H172   92   6.126   5.989   2.629  1.0009 -0.7495  2.0014
    1CHTO  H173   93   6.251   6.055   2.722  1.4648 -4.5971 -0.3036
    1CHTO   C94   94   6.252   6.298   2.573  0.7076  0.1310  0.1133
    1CHTO  H181   95   6.282   6.316   2.676 -0.4220 -0.8559  0.6257
    1CHTO   O61   96   6.193   6.419   2.527 -0.0743 -0.0846 -0.5480
    1CHTO   C95   97   6.093   6.469   2.618  0.0550  0.7563  0.7268
    1CHTO  H182   98   6.130   6.497   2.717 -0.6396  1.3415  0.8287
    1CHTO  C106   99   6.052   6.605   2.553 -0.6250  0.4771  0.0340
    1CHTO   O69  100   5.970   6.693   2.629  0.9292  0.2538  0.3801
    1CHTO  H169  101   6.008   6.701   2.715  0.1419  0.5937  0.7114
    1CHTO   O63  102   6.376   6.261   2.487  0.3927  0.1452 -0.4094
    1CHTO   C96  103   6.504   6.357   2.524  0.9724 -0.2466  0.1809
    1CHTO  H183  104   6.474   6.424   2.604  0.8796  1.4127 -1.2142
    1CHTO   C98  105   6.559   6.446   2.410  0.0845 -0.6075  0.5397
    1CHTO  H185  106   6.472   6.488   2.357 -0.0572 -2.5640 -0.8576
    1CHTO   O67  107   6.637   6.557   2.454 -0.1359 -0.2649 -0.1549
    1CHTO  H167  108   6.674   6.606   2.382 -2.7959  3.0580  0.6328
    1CHTO  C102  109   6.628   6.344   2.299  0.3430  0.6708 -0.2456
    1CHTO  H189  110   6.710   6.400   2.253  1.3627 -2.5733 -2.5431
    1CHTO   N18  111   6.536   6.296   2.190  0.1021  1.1046  0.2844
    1CHTO  H176  112   6.586   6.263   2.100  0.1634  1.7756  0.0657
    1CHTO  H177  113   6.454   6.361   2.165 -1.2889 -0.4749  0.6367
    1CHTO  C105  114   6.698   6.220   2.371  0.4800 -0.6497  0.6479
    1CHTO  H192  115   6.631   6.134   2.364 -1.8375  1.1574 -0.2798
    1CHTO   O65  116   6.729   6.253   2.509  0.2196 -0.5046 -0.0889
    1CHTO  C100  117   6.617   6.259   2.594  1.0259 -0.4034  0.0237
    1CHTO  H187  118   6.579   6.156   2.597  1.8083 -0.7968 -2.3785
    1CHTO  C107  119   6.652   6.308   2.737  0.2039  0.2182 -0.2885
    1CHTO   O70  120   6.758   6.222   2.786 -0.5503 -0.1519  0.3214
    1CHTO  H170  121   6.730   6.133   2.790  0.0737 -0.4183 -1.1304
    1CHTO   O57  122   6.840   6.185   2.298  0.3253  0.0646  0.3290
    1CHTO   C85  123   6.876   6.049   2.289  0.5237  0.6240 -0.2821
    1CHTO  H157  124   6.789   6.007   2.234  0.2266  0.6071  0.1942
    1CHTO   C83  125   6.883   5.979   2.426 -0.0044 -0.2786  0.1678
    1CHTO  H155  126   6.785   5.966   2.473  0.3850 -0.3908  0.9610
    1CHTO   O56  127   6.957   6.067   2.507 -0.5341 -0.2700  0.3245
    1CHTO  H135  128   6.913   6.146   2.532 -0.6141 -0.8075  1.9603
    1CHTO   C81  129   6.943   5.836   2.404 -0.0501 -0.1604  0.1606
    1CHTO  H153  130   6.878   5.770   2.346  1.7252 -1.9117  0.0799
    1CHTO   N14  131   6.945   5.759   2.528  0.1133  0.7459 -0.0452
    1CHTO  H141  132   6.995   5.669   2.501  0.5300  1.1671 -0.6968
    1CHTO  H142  133   7.005   5.807   2.603 -0.0327 -1.8686  1.8017
    1CHTO   C79  134   7.087   5.836   2.338 -0.6717 -0.0661  0.1075
    1CHTO  H151  135   7.119   5.733   2.326  1.5749  0.5439  0.6671
    1CHTO   O52  136   7.076   5.897   2.206  0.9260  0.4464  0.3664
    1CHTO   C86  137   7.006   6.031   2.211 -0.1688  0.2075  0.8540
    1CHTO  H158  138   7.081   6.104   2.249  0.4708 -1.5127  2.9294
    1CHTO   C90  139   6.973   6.075   2.066 -0.2063  0.7844  0.4544
    1CHTO   O60  140   7.090   6.102   1.989  0.2654  0.0423 -0.5327
    1CHTO  H138  141   7.101   6.048   1.913 -2.5149 -1.7644  0.2567
    1CHTO   O50  142   7.191   5.905   2.410  0.3174  0.2898 -0.5227
    1CHTO   C73  143   7.327   5.933   2.379  0.1413 -0.2422 -0.4535
    1CHTO  H145  144   7.337   5.957   2.272  1.1939 -0.0909 -0.3249
    1CHTO   C74  145   7.419   5.810   2.413 -0.6112 -0.2526  0.1140
    1CHTO  H146  146   7.382   5.723   2.357  0.5928 -1.1400  0.6693
    1CHTO   O54  147   7.548   5.827   2.357  0.2282  0.3111 -0.1789
    1CHTO  H133  148   7.553   5.862   2.270  0.1705 -0.9258 -0.7001
    1CHTO   C75  149   7.410   5.789   2.568 -0.1756  0.1439  0.5311
    1CHTO  H147  150   7.308   5.760   2.599  0.6178 -5.0423 -1.1605
    1CHTO   N13  151   7.495   5.676   2.625  0.1168  0.8143  0.2881
    1CHTO  H139  152   7.464   5.658   2.727 -1.3728  1.3904 -0.0519
    1CHTO  H140  153   7.476   5.583   2.573  3.9665  1.2130 -1.9766
    1CHTO   C76  154   7.437   5.922   2.653  0.5288  0.1932  0.4317
    1CHTO  H148  155   7.542   5.952   2.643 -0.1301  1.8438 -2.0479
    1CHTO   O49  156   7.363   6.033   2.598 -0.2783 -0.1568  0.8018
    1CHTO   C77  157   7.372   6.059   2.463 -0.3410 -0.7947 -0.1979
    1CHTO  H149  158   7.478   6.079   2.450 -0.0678 -0.5971  2.2844
    1CHTO   C88  159   7.289   6.182   2.420  0.3558 -0.5322  0.0398
    1CHTO   O58  160   7.325   6.229   2.284 -0.5678  0.5472  0.0866
    1CHTO  H136  161   7.333   6.155   2.227  1.8707 -0.6994  2.0128
    1CHTO   O51  162   7.395   5.906   2.811 -0.1092  0.2997  0.7091
    1CHTO   C78  163   7.344   6.034   2.884 -0.7377 -0.3632  0.5775
    1CHTO  H150  164   7.347   6.124   2.820  1.1931  0.1988  1.4274
    1CHTO   C80  165   7.438   6.063   3.001 -0.4391 -0.4648 -0.3411
    1CHTO  H152  166   7.449   5.971   3.061 -1.7575  0.2683  1.0778
    1CHTO   O55  167   7.570   6.088   2.950  0.2403 -0.0696  0.3991
    1CHTO  H134  168   7.622   6.010   2.941  2.2625  0.8002  3.6408
    1CHTO   C84  169   7.393   6.184   3.101 -0.1103 -0.5951 -0.0586
    1CHTO  H156  170   7.403   6.276   3.043  0.1503  0.8851  2.2944
    1CHTO   N15  171   7.489   6.185   3.218 -0.4790  1.1216 -0.1211
    1CHTO  H143  172   7.587   6.219   3.194 -0.5826  1.4443 -0.0820
    1CHTO  H144  173   7.448   6.242   3.299  0.6699  0.1023  1.2204
    1CHTO   C87  174   7.245   6.173   3.138 -0.6417  0.3901  0.3060
    1CHTO  H159  175   7.234   6.090   3.208  1.7405  0.6039  0.9585
    1CHTO   O53  176   7.174   6.148   2.995  0.0962  0.4705 -0.5192
    1CHTO   C82  177   7.200   6.025   2.930  1.4356 -0.2765  0.4408
    1CHTO  H154  178   7.174   5.948   3.004  0.3628 -1.2696 -0.9333
    1CHTO   C89  179   7.105   6.004   2.809  0.1846 -0.5394  0.7316
    1CHTO   O59  180   6.965   5.978   2.850 -0.2489  0.1871  0.1968
    1CHTO  H137  181   6.968   5.912   2.917  1.9104  0.0691  0.0026
    1CHTO   O45  182   7.196   6.327   3.208  0.0463 -0.6330  0.0897
    1CHTO   C67  183   7.127   6.412   3.108  0.3048  0.0392  0.0336
    1CHTO  H124  184   7.178   6.399   3.013  3.6584  0.2627  1.7243
    1CHTO   C65  185   6.972   6.380   3.088  0.5507  1.1165  0.7016
    1CHTO  H122  186   6.964   6.272   3.078 -2.5366  1.5422 -2.0853
    1CHTO   O44  187   6.925   6.431   2.965 -0.1245 -0.2831 -0.8211
    1CHTO  H102  188   6.965   6.391   2.891  1.0814 -1.0500  0.2123
    1CHTO   C63  189   6.890   6.425   3.216 -0.1515 -0.2645 -0.1758
    1CHTO  H120  190   6.919   6.364   3.301 -2.4418 -3.7640 -1.7564
    1CHTO   N11  191   6.752   6.385   3.218  0.3853  0.0424 -0.2156
    1CHTO  H108  192   6.701   6.467   3.264  2.9621  1.6047 -0.0274
    1CHTO  H109  193   6.732   6.302   3.282  0.0920  0.9049  0.8444
    1CHTO   C61  194   6.906   6.575   3.242 -0.3647  0.1262 -0.4311
    1CHTO  H118  195   6.858   6.600   3.338 -0.1211  0.8439 -0.4983
    1CHTO   O40  196   7.045   6.607   3.257  0.4600  0.7876 -0.5757
    1CHTO   C68  197   7.146   6.563   3.160  0.0166  0.2532 -0.5811
    1CHTO  H125  198   7.246   6.563   3.208  0.0469 -0.2826 -0.6407
    1CHTO   C72  199   7.162   6.659   3.039 -0.0994 -0.3367 -0.2994
    1CHTO   O48  200   7.164   6.794   3.073 -0.1090 -0.6414 -0.3388
    1CHTO  H105  201   7.241   6.814   3.123 -0.1754 -1.8521  0.2741
    1CHTO   O38  202   6.860   6.668   3.139 -0.6120  0.2525 -0.2334
    1CHTO   C55  203   6.770   6.774   3.175 -0.4747  0.1759  0.3571
    1CHTO  H112  204   6.736   6.750   3.277  0.4340 -2.4765  0.0849
    1CHTO   C56  205   6.655   6.796   3.070  0.3707 -0.7675 -0.1334
    1CHTO  H113  206   6.710   6.805   2.975 -1.5636  1.5654 -1.1009
    1CHTO   O42  207   6.577   6.676   3.039 -0.1429  0.7488  0.0828
    1CHTO  H100  208   6.496   6.702   3.001  0.1596  0.5920 -0.6950
    1CHTO   C57  209   6.558   6.921   3.109 -0.6181 -0.3185 -0.0493
    1CHTO  H114  210   6.506   6.887   3.199 -0.1043  0.9803  0.7526
    1CHTO   N10  211   6.453   6.953   3.000 -0.2699  0.5939  0.0149
    1CHTO  H106  212   6.502   7.020   2.931 -1.8271  2.1562  0.3986
    1CHTO  H107  213   6.368   7.006   3.041 -0.0971  1.2621 -0.4691
    1CHTO   C58  214   6.641   7.043   3.148 -0.0120 -0.3758 -0.5281
    1CHTO  H115  215   6.682   7.094   3.058  2.6048  1.1103  1.4192
    1CHTO   O37  216   6.748   7.010   3.240 -0.1442  0.4481 -0.5154
    1CHTO   C59  217   6.845   6.914   3.197  0.0719  0.3514  1.0676
    1CHTO  H116  218   6.886   6.944   3.101 -2.3425 -0.4680 -0.2547
    1CHTO   C70  219   6.939   6.911   3.317 -0.3333  0.5467 -0.6666
    1CHTO   O46  220   7.019   7.034   3.331  0.7295  0.0340 -0.0113
    1CHTO  H103  221   6.973   7.115   3.327 -4.1123 -2.4942  0.1739
    1CHTO   O39  222   6.546   7.151   3.229 -0.6108  0.7268 -0.3718
    1CHTO   C60  223   6.519   7.283   3.174 -0.2267 -0.5494 -0.1363
    1CHTO  H117  224   6.540   7.297   3.068 -1.8236 -0.8520 -0.4981
    1CHTO   C62  225   6.368   7.309   3.183  0.7749  0.5405  0.2680
    1CHTO  H119  226   6.320   7.242   3.109  1.0463 -0.0174  0.5955
    1CHTO   O43  227   6.317   7.276   3.312 -0.3183  0.0644  0.2039
    1CHTO  H101  228   6.316   7.182   3.316 -1.8306  0.0332 -0.4700
    1CHTO   C66  229   6.339   7.458   3.130 -0.0990  0.2659 -0.1076
    1CHTO  H123  230   6.383   7.468   3.031  2.1470  0.3866  0.8570
    1CHTO   N12  231   6.194   7.490   3.109  0.2125  0.1223 -0.0072
    1CHTO  H110  232   6.127   7.420   3.158  1.5750  0.2345  2.0819
    1CHTO  H111  233   6.171   7.590   3.142  1.6031  0.5094 -0.1667
    1CHTO   C69  234   6.414   7.566   3.213 -0.4337 -0.1452 -0.6820
    1CHTO  H126  235   6.384   7.568   3.320  0.2357 -1.8886 -0.4536
    1CHTO   O41  236   6.567   7.541   3.205  0.1805  0.0989 -0.5957
    1CHTO   C64  237   6.600   7.392   3.253  0.3115  0.0196 -0.3803
    1CHTO  H121  238   6.572   7.381   3.360  4.0831 -1.1098  0.5379
    1CHTO   C71  239   6.755   7.379   3.250  0.0233 -0.3948  0.3972
    1CHTO   O47  240   6.810   7.449   3.358 -0.1584  0.0126  0.0474
    1CHTO  H104  241   6.775   7.533   3.378  1.0929  0.8537 -1.1669
    1CHTO   O34  242   6.390   7.719   3.144  0.2755 -0.7798  0.3022
    1CHTO   C49  243   6.324   7.868   3.157  0.2980 -0.2403  0.6088
    1CHTO   H91  244   6.218   7.843   3.144 -0.1690  1.8478  0.2373
    1CHTO   C47  245   6.371   7.953   3.037  0.6401 -0.6455  0.0447
    1CHTO   H89  246   6.338   8.058   3.050  1.8727 -0.4061  1.3660
    1CHTO   O33  247   6.319   7.906   2.906 -0.0668  0.7892 -0.3117
    1CHTO   H70  248   6.335   7.969   2.839  1.5271  2.1171  1.2556
    1CHTO   C45  249   6.532   7.943   3.032 -0.1721 -0.1548 -0.0457
    1CHTO   H87  250   6.564   7.840   3.055 -4.8420 -2.1609 -1.8118
    1CHTO    N8  251   6.606   7.993   2.913  0.0803  0.0971 -0.4938
    1CHTO   H75  252   6.624   7.904   2.854 -0.2003 -0.6896  0.6035
    1CHTO   H76  253   6.565   8.072   2.851  0.5861  1.3760  0.7883
    1CHTO   C43  254   6.576   8.021   3.166 -0.6015  0.2523  0.6645
    1CHTO   H85  255   6.685   8.018   3.162 -0.6732 -1.0839 -2.0253
    1CHTO   O29  256   6.517   7.961   3.288  0.3176  0.0154 -0.1371
    1CHTO   C50  257   6.369   7.932   3.292  0.1845 -0.2683 -0.1664
    1CHTO   H92  258   6.352   7.852   3.365 -1.1173 -0.5502 -0.7635
    1CHTO   C54  259   6.285   8.046   3.344 -0.4959  0.1060 -0.0738
    1CHTO   O36  260   6.345   8.104   3.460  0.2180  0.8846  0.2202
    1CHTO   H72  261   6.273   8.100   3.521 -2.9625 -0.7649 -3.4175
    1CHTO   O27  262   6.545   8.160   3.162 -0.5504 -0.3320  0.2469
    1CHTO   C37  263   6.554   8.291   3.208  0.5447  0.4599  0.6081
    1CHTO   H79  264   6.512   8.303   3.309  0.6745  0.1841  0.6935
    1CHTO   C38  265   6.701   8.347   3.212  0.5165  0.2286 -0.0626
    1CHTO   H80  266   6.750   8.328   3.116  1.7972 -0.5657  0.7441
    1CHTO   O31  267   6.763   8.269   3.317 -0.4729 -0.3396  0.5900
    1CHTO   H68  268   6.712   8.272   3.396  0.1479  0.1323  0.9766
    1CHTO   C39  269   6.700   8.508   3.241 -0.5684  0.0269 -0.4407
    1CHTO   H81  270   6.650   8.528   3.335 -1.6117  1.3791 -1.2733
    1CHTO    N7  271   6.836   8.570   3.248 -0.3008  0.0275 -0.3624
    1CHTO   H73  272   6.826   8.668   3.292  0.2740  0.6521 -1.5735
    1CHTO   H74  273   6.897   8.571   3.159 -0.4761  1.9963 -0.4815
    1CHTO   C40  274   6.611   8.575   3.129 -1.0762 -0.0902 -0.2795
    1CHTO   H82  275   6.662   8.567   3.033 -2.6837  0.1826 -1.1790
    1CHTO   O26  276   6.483   8.514   3.127  0.5571  0.2235  0.1370
    1CHTO   C41  277   6.478   8.373   3.107  0.5997 -0.9162 -0.0203
    1CHTO   H83  278   6.517   8.349   3.007  1.2966 -0.2864  0.1009
    1CHTO   C52  279   6.329   8.346   3.118 -0.2117  0.8416 -0.4016
    1CHTO   O35  280   6.243   8.398   3.024 -0.2331 -0.5210  0.4779
    1CHTO   H71  281   6.166   8.417   3.074 -0.5280 -1.4687  0.3897
    1CHTO   O28  282   6.561   8.705   3.170 -0.0814  0.6314 -0.2466
    1CHTO   C42  283   6.541   8.816   3.074 -0.7695  0.6543  0.1308
    1CHTO   H84  284   6.593   8.780   2.985 -1.0862  1.0008 -0.1954
    1CHTO   C44  285   6.618   8.943   3.112 -0.0873 -0.3326  0.1687
    1CHTO   H86  286   6.572   8.980   3.204 -1.1960 -0.4756 -0.3196
    1CHTO   O32  287   6.754   8.903   3.123  0.2856 -0.2123 -0.4939
    1CHTO   H69  288   6.764   8.860   3.206 -1.4357  0.8078  0.2680
    1CHTO   C48  289   6.600   9.065   3.007 -0.2141  0.7442  0.0370
    1CHTO   H90  290   6.652   9.048   2.913 -0.5866 -0.3195  0.0115
    1CHTO    N9  291   6.656   9.189   3.057  0.8188 -0.0568  0.0688
    1CHTO   H77  292   6.630   9.267   2.988  0.2897  0.7972  1.2115
    1CHTO   H78  293   6.632   9.216   3.159  1.7402 -0.3360  0.3633
    1CHTO   C51  294   6.444   9.083   2.974 -0.2726  0.3309 -0.5592
    1CHTO   H93  295   6.382   9.123   3.055  1.5271  1.8307  0.1136
    1CHTO   O30  296   6.402   8.954   2.932  0.1348 -0.3020 -0.1739
    1CHTO   C46  297   6.397   8.850   3.031 -0.3346  0.2686  0.3627
    1CHTO   H88  298   6.342   8.884   3.119 -2.2961  2.3189 -1.6184
    1CHTO   C53  299   6.325   8.730   2.974 -0.1992 -0.1722 -0.6505
    1CHTO   O72  300   6.207   8.772   2.902 -0.2935 -0.2471  0.3392
    1CHTO  H199  301   6.230   8.780   2.811 -1.3209 -0.1766  0.0714
    1CHTO   O22  302   6.421   9.173   2.864 -0.0878 -0.1014  0.5929
    1CHTO   C31  303   6.403   9.154   2.724 -0.1040  0.3908 -0.3877
    1CHTO   H59  304   6.395   9.255   2.681  0.6341 -0.3215 -2.2257
    1CHTO   C29  305   6.528   9.090   2.656 -0.2476  0.3783 -0.4100
    1CHTO   H57  306   6.541   8.987   2.693  0.2891  0.2046 -1.0790
    1CHTO   O21  307   6.642   9.169   2.691 -0.5529 -0.0133  0.1673
    1CHTO   H37  308   6.718   9.151   2.639 -1.2287 -0.0967 -0.8055
    1CHTO   C27  309   6.512   9.097   2.499  0.5722 -0.2689 -0.0990
    1CHTO   H55  310   6.511   9.204   2.471 -1.6716  0.3178  2.0336
    1CHTO    N5  311   6.629   9.033   2.430  0.8375 -0.3006  0.0510
    1CHTO   H43  312   6.618   9.047   2.323  0.3277  1.5860  0.3197
    1CHTO   H44  313   6.718   9.083   2.466  0.0511  1.2624 -0.1272
    1CHTO   C25  314   6.383   9.023   2.461 -0.0135  0.3058 -0.0490
    1CHTO   H53  315   6.392   8.915   2.482  2.7314  0.3707 -0.7192
    1CHTO   O17  316   6.269   9.066   2.537 -0.0207  0.3351  0.0230
    1CHTO   C32  317   6.276   9.067   2.682 -0.2750 -0.3097 -0.1122
    1CHTO   H60  318   6.289   8.963   2.711  2.9077  0.3629  1.1009
    1CHTO   C36  319   6.143   9.135   2.728  0.5817 -0.2362 -0.8263
    1CHTO   O25  320   6.122   9.113   2.867  0.1867  0.1109  0.1354
    1CHTO   H40  321   6.039   9.075   2.885  1.1577 -1.8850  0.5011
    1CHTO   O15  322   6.345   9.039   2.317 -0.4297  0.3032 -0.4134
    1CHTO   C19  323   6.292   8.967   2.198 -0.5690 -0.0219 -0.0808
    1CHTO   H47  324   6.196   9.015   2.174  0.3186  0.7360 -2.2263
    1CHTO   C20  325   6.398   8.962   2.088 -0.3216 -0.1112 -0.4274
    1CHTO   H48  326   6.484   8.902   2.122 -0.8589  0.1698  1.5056
    1CHTO   O19  327   6.438   9.091   2.056 -0.0101 -0.1143 -0.0780
    1CHTO   H35  328   6.488   9.084   1.977  0.9679 -1.2117  0.6301
    1CHTO   C21  329   6.338   8.884   1.960 -0.1850  0.0664 -0.3368
    1CHTO   H49  330   6.256   8.942   1.918 -0.9887 -0.8361 -0.0356
    1CHTO    N4  331   6.444   8.868   1.852 -0.2538 -0.4269 -0.8165
    1CHTO   H41  332   6.450   8.944   1.775  0.8652 -0.1737 -0.4824
    1CHTO   H42  333   6.539   8.864   1.902 -0.4107 -2.7950 -0.6748
    1CHTO   C22  334   6.289   8.749   2.005  0.2725 -0.0176 -0.4676
    1CHTO   H50  335   6.379   8.694   2.035 -1.7269 -2.0154  2.1266
    1CHTO   O14  336   6.193   8.766   2.113 -0.4623  0.0919 -0.3621
    1CHTO   C23  337   6.246   8.822   2.230 -0.0741 -0.8313  0.2094
    1CHTO   H51  338   6.326   8.758   2.271  0.7106 -0.4485 -0.7117
    1CHTO   C34  339   6.141   8.822   2.342  0.5850 -0.3597  0.1924
    1CHTO   O23  340   6.110   8.690   2.379 -0.7562 -0.1566  0.0284
    1CHTO   H38  341   6.065   8.650   2.307 -0.1790 -1.3777  0.3444
    1CHTO   O16  342   6.215   8.671   1.903 -0.1505 -0.4059 -0.1030
    1CHTO   C24  343   6.268   8.514   1.889  0.0874 -0.1185 -0.6883
    1CHTO   H52  344   6.369   8.499   1.927 -0.6620  0.4911  1.5756
    1CHTO   C26  345   6.274   8.483   1.736 -0.2149 -0.6975  0.6441
    1CHTO   H54  346   6.174   8.511   1.695 -0.1696 -3.8904 -1.8202
    1CHTO   O20  347   6.372   8.567   1.668  0.4067  0.5672  0.1749
    1CHTO   H36  348   6.364   8.657   1.691  2.0038  0.8202 -0.1880
    1CHTO   C30  349   6.303   8.333   1.712  0.5689 -0.7416  0.5807
    1CHTO   H58  350   6.410   8.316   1.731  1.0535  1.2686 -0.2490
    1CHTO    N6  351   6.282   8.297   1.571 -1.0010  0.3413 -0.0156
    1CHTO   H45  352   6.181   8.325   1.545 -0.2703  1.9538 -1.2463
    1CHTO   H46  353   6.351   8.355   1.511  0.5573 -0.3517  1.0621
    1CHTO   C33  354   6.228   8.237   1.815  0.3528  0.2490 -0.4251
    1CHTO   H61  355   6.121   8.238   1.789  0.2557 -3.1490 -0.4662
    1CHTO   O18  356   6.250   8.285   1.949 -0.4012  0.4905 -0.5162
    1CHTO   C28  357   6.176   8.409   1.965 -0.4027  0.0442 -0.7460
    1CHTO   H56  358   6.075   8.417   1.926 -0.6977  0.1935  0.0223
    1CHTO   C35  359   6.178   8.450   2.120 -0.4198 -0.5850  0.5810
    1CHTO   O24  360   6.120   8.347   2.202  0.0437 -0.0990 -0.2613
    1CHTO   H39  361   6.064   8.287   2.157 -0.3529 -0.5941  0.8609
    1CHTO    O9  362   6.270   8.100   1.802 -0.9519 -0.4830 -0.2028
    1CHTO   C13  363   6.168   7.989   1.887 -0.3692 -0.4563  0.3152
    1CHTO   H26  364   6.076   8.042   1.918 -0.1378 -0.0251  0.2667
    1CHTO   C11  365   6.245   7.930   2.017  0.0886 -0.5274 -0.1185
    1CHTO   H24  366   6.241   8.008   2.095  3.0393  0.6026 -1.0072
    1CHTO    O8  367   6.388   7.902   1.983 -0.0854  0.0606  0.1755
    1CHTO    H3  368   6.423   7.836   2.039  0.3471 -1.0235 -1.3542
    1CHTO    C9  369   6.165   7.802   2.056 -0.4960 -0.4615 -0.0633
    1CHTO   H22  370   6.059   7.833   2.058 -0.1328  0.7530  1.9431
    1CHTO    N2  371   6.192   7.776   2.198 -0.1095  0.0264  0.2042
    1CHTO   H10  372   6.108   7.736   2.253 -0.8820 -0.8317 -1.5633
    1CHTO   H11  373   6.282   7.718   2.207  0.0605  0.0065 -1.4264
    1CHTO    C7  374   6.187   7.693   1.956 -0.5820  0.1369  0.1918
    1CHTO   H20  375   6.104   7.619   1.969 -0.8921  0.3329 -0.6650
    1CHTO    O4  376   6.183   7.739   1.820 -0.2400 -0.1056  0.0065
    1CHTO   C14  377   6.117   7.869   1.793 -0.3732  0.1541  0.5031
    1CHTO   H27  378   6.014   7.841   1.823 -0.0897 -1.1191  0.3314
    1CHTO   C18  379   6.116   7.893   1.641  0.0194 -0.0047 -0.0823
    1CHTO   O13  380   6.052   8.019   1.602  0.6336  1.0867 -0.4489
    1CHTO    H7  381   6.112   8.086   1.627  0.8195  0.1844  1.6201
    1CHTO    O2  382   6.328   7.610   1.975 -0.2023  0.6014 -0.0474
    1CHTO    C1  383   6.329   7.471   1.932 -0.0422  1.1539  0.2911
    1CHTO   H14  384   6.234   7.448   1.881  0.9313 -0.0945 -0.9905
    1CHTO    C2  385   6.364   7.367   2.065  0.0966 -0.2981 -0.6571
    1CHTO   H15  386   6.452   7.406   2.118  0.3364 -1.4396 -0.2035
    1CHTO    O6  387   6.251   7.371   2.155  0.4432  0.3139 -0.1407
    1CHTO    H1  388   6.181   7.428   2.129  1.0861  0.4947 -1.5255
    1CHTO    C3  389   6.381   7.220   2.017 -0.1620 -0.4123 -0.0849
    1CHTO   H16  390   6.281   7.178   2.000 -0.0178 -0.3976 -1.0034
    1CHTO    N1  391   6.445   7.134   2.129 -0.3324 -0.1466  0.0120
    1CHTO    H8  392   6.537   7.179   2.162  0.2354 -1.8093  0.7916
    1CHTO    H9  393   6.464   7.035   2.090 -0.3936  0.0526 -0.5282
    1CHTO    C4  394   6.470   7.217   1.888  0.0091 -0.4573 -0.0937
    1CHTO   H17  395   6.566   7.260   1.914  1.1799 -2.2207 -1.3753
    1CHTO    O1  396   6.411   7.298   1.790 -0.3284  0.6333  0.1127
    1CHTO    C5  397   6.434   7.440   1.818  0.1199 -0.3307  0.5876
    1CHTO   H18  398   6.533   7.462   1.859  0.6472  1.4765 -1.5915
    1CHTO   C16  399   6.410   7.525   1.691 -0.5177 -0.2032  0.2221
    1CHTO   O11  400   6.502   7.498   1.586 -0.4687  0.8156  0.7653
    1CHTO    H5  401   6.473   7.516   1.499 -0.1171 -2.0761  0.0200
    1CHTO    O3  402   6.495   7.088   1.827 -0.7152  0.0110  0.1760
    1CHTO    C6  403   6.621   7.078   1.748  0.1084 -0.4538  0.0769
    1CHTO   H19  404   6.648   7.174   1.703  1.0835 -0.3520  0.8544
    1CHTO    C8  405   6.733   7.007   1.830 -0.2385  0.0634  0.4023
    1CHTO   H21  406   6.695   6.919   1.883 -3.5963  0.2561 -1.5848
    1CHTO    O7  407   6.788   7.099   1.926 -0.2563  0.4726 -0.8458
    1CHTO    H2  408   6.760   7.091   2.015  3.2745 -2.6331  0.1012
    1CHTO   C12  409   6.857   6.962   1.740 -0.0483 -0.0508  0.1436
    1CHTO   H25  410   6.911   7.052   1.703  1.5819 -0.9763  0.2016
    1CHTO    N3  411   6.952   6.872   1.815 -0.4290  0.5542  0.3667
    1CHTO   H12  412   6.987   6.901   1.913 -1.7392 -2.2767  1.7316
    1CHTO   H13  413   7.028   6.834   1.748 -1.1097 -3.4754  1.7458
    1CHTO   C15  414   6.805   6.884   1.615 -0.2725  0.4998  0.6914
    1CHTO   H28  415   6.763   6.787   1.640  0.8859 -1.2803 -3.7542
    1CHTO   O10  416   6.893   6.870   1.505  0.2343 -0.0481 -0.7394
    1CHTO    H4  417   6.967   6.817   1.528 -0.8574 -1.0747  0.4553
    1CHTO    O5  418   6.703   6.964   1.553 -0.6731 -0.0399 -0.1187
    1CHTO   C10  419   6.586   6.987   1.634  0.7701  0.1096  0.3926
    1CHTO   H23  420   6.549   6.891   1.668 -0.3387 -0.1103 -1.3573
    1CHTO   C17  421   6.477   7.051   1.550  0.0939 -0.4762 -0.1742
    1CHTO   O12  422   6.439   6.968   1.441 -0.1390  0.0910  0.1382
    1CHTO    H6  423   6.409   6.885   1.474 -0.8349  0.4111  0.3064
    2CHTO  H203  424   5.351   4.981   0.389  1.0586 -1.7761  1.3358
    2CHTO   O82  425   5.273   4.982   0.441  0.0729 -0.3152 -0.1368
    2CHTO  C123  426   5.207   5.113   0.448 -0.5140 -0.5110 -0.6408
    2CHTO  H227  427   5.284   5.187   0.475 -0.3638 -0.5242 -1.0269
    2CHTO   O77  428   5.163   5.145   0.312 -0.5716 -0.3223 -0.1000
    2CHTO  C118  429   5.086   5.262   0.288  0.2062 -0.3190  0.3414
    2CHTO  H222  430   5.150   5.351   0.290  2.0320 -1.5383 -1.7008
    2CHTO  C125  431   5.027   5.249   0.139 -0.4133  1.3034  0.2265
    2CHTO   O84  432   5.118   5.293   0.035 -0.9947  0.2767 -0.4301
    2CHTO  H205  433   5.158   5.221  -0.009  0.1737  0.1574  0.7762
    2CHTO  C114  434   4.967   5.274   0.382 -0.2044  0.6221 -0.8827
    2CHTO  H218  435   4.897   5.192   0.363 -0.0629 -0.1735  1.8275
    2CHTO  C116  436   5.010   5.249   0.530 -0.1866  1.8085  0.0751
    2CHTO  H220  437   5.075   5.333   0.564  0.4880  1.0525  0.6851
    2CHTO   O79  438   4.890   5.246   0.611  0.2026 -0.6434  0.5370
    2CHTO  H201  439   4.909   5.242   0.703 -0.1055  0.3417  0.6508
    2CHTO  C120  440   5.097   5.116   0.555  0.6038  0.6391  0.0142
    2CHTO  H224  441   5.029   5.033   0.528  0.2624  0.8034  0.3670
    2CHTO   N21  442   5.140   5.100   0.694  0.6232  0.2175  0.0449
    2CHTO  H211  443   5.241   5.063   0.708  0.2480 -0.1336  1.9279
    2CHTO  H212  444   5.131   5.191   0.751 -1.1698  1.0987 -1.5811
    2CHTO   O75  445   4.903   5.400   0.349  0.0855  0.2586  0.0393
    2CHTO  C112  446   4.732   5.412   0.349  0.0154  0.4629 -0.1373
    2CHTO  H216  447   4.689   5.339   0.419 -1.3619  1.8638  0.5133
    2CHTO   O73  448   4.693   5.384   0.213  0.1341 -0.1344  0.3908
    2CHTO  C113  449   4.551   5.383   0.186 -0.6469 -0.0854 -0.2270
    2CHTO  H217  450   4.515   5.300   0.249 -0.1599  0.8035  1.2384
    2CHTO  C124  451   4.543   5.351   0.034  0.3744  0.1901  0.1426
    2CHTO   O83  452   4.601   5.224  -0.003 -0.9895  0.2825  0.3866
    2CHTO  H204  453   4.691   5.230   0.023  0.0925  1.3664 -3.3021
    2CHTO  C109  454   4.487   5.513   0.231  0.7806 -0.2727  0.6001
    2CHTO  H213  455   4.520   5.592   0.162 -0.3356 -0.4183 -0.1171
    2CHTO  C110  456   4.528   5.552   0.375 -0.0670  0.6456  0.5214
    2CHTO  H214  457   4.474   5.487   0.444 -1.0712  1.2708  0.3237
    2CHTO   O78  458   4.477   5.684   0.396  0.0154 -0.0810  0.3179
    2CHTO  H200  459   4.404   5.695   0.337 -0.4708 -0.7374  0.7795
    2CHTO  C111  460   4.682   5.554   0.398  0.3453 -0.5389 -0.3540
    2CHTO  H215  461   4.724   5.634   0.334  0.0819  2.5020  3.1220
    2CHTO   N19  462   4.725   5.591   0.536 -0.1298  0.3566  0.1876
    2CHTO  H207  463   4.669   5.535   0.609 -1.3706 -0.6795 -1.4994
    2CHTO  H208  464   4.832   5.576   0.539 -0.2254 -0.0389  2.9865
    2CHTO   O74  465   4.342   5.498   0.219 -0.3643 -0.2515  0.4594
    2CHTO  C115  466   4.258   5.618   0.203  0.5805  0.6695  0.1446
    2CHTO  H219  467   4.241   5.668   0.298 -1.3120  1.0424 -0.3639
    2CHTO   O76  468   4.320   5.723   0.104  0.5455 -0.5587 -0.1282
    2CHTO  C122  469   4.288   5.693  -0.032  0.3347 -0.0292  0.4067
    2CHTO  H226  470   4.322   5.591  -0.049 -0.6716 -0.3859  0.4927
    2CHTO  C126  471   4.375   5.778  -0.125  0.6046 -0.0049 -0.1615
    2CHTO   O85  472   4.348   5.753  -0.259  0.2954 -0.4325  0.7271
    2CHTO  H206  473   4.379   5.831  -0.301  3.2896 -2.1336 -0.3426
    2CHTO  C121  474   4.131   5.716  -0.055 -0.1995  0.1740  0.3966
    2CHTO  H225  475   4.119   5.820  -0.090  0.5905  0.2102  0.2188
    2CHTO   O81  476   4.083   5.629  -0.155 -0.1778 -0.2277 -0.4522
    2CHTO  H202  477   4.043   5.668  -0.231 -2.0014  0.4005  0.7938
    2CHTO  C119  478   4.052   5.693   0.081  0.1727  0.2480  0.3189
    2CHTO  H223  479   4.065   5.785   0.138 -1.6758  1.0317 -0.4921
    2CHTO  C117  480   4.116   5.569   0.160  0.1925 -0.0329  0.6705
    2CHTO  H221  481   4.130   5.481   0.097 -3.0112  0.5176 -0.9327
    2CHTO   N20  482   4.032   5.514   0.277 -0.3242  0.0882  0.7481
    2CHTO  H209  483   3.950   5.574   0.313 -1.8135 -1.3528 -0.1482
    2CHTO  H210  484   4.007   5.409   0.269 -2.0662  0.6121 -1.3295
    2CHTO   O80  485   3.895   5.693   0.070 -0.5931 -0.2369  0.3877
    2CHTO  C103  486   3.821   5.822   0.024  0.6255  0.2398  0.4459
    2CHTO  H190  487   3.893   5.903   0.031 -0.5992  1.4464 -0.7233
    2CHTO  C101  488   3.757   5.818  -0.120  0.6744  0.3534  0.5374
    2CHTO  H188  489   3.672   5.751  -0.132  0.7862  0.3433 -0.1738
    2CHTO   O68  490   3.872   5.790  -0.224 -0.3303 -0.5527  0.0145
    2CHTO  H168  491   3.916   5.711  -0.197 -0.6949 -0.6854  0.2242
    2CHTO   C99  492   3.709   5.966  -0.154 -0.3872  0.0093 -0.0393
    2CHTO  H186  493   3.793   6.039  -0.155  0.5498 -1.0601  0.2758
    2CHTO   N17  494   3.647   5.987  -0.290  0.1047 -0.1308 -0.1666
    2CHTO  H174  495   3.724   5.954  -0.358 -0.7528  1.1599 -1.8131
    2CHTO  H175  496   3.553   5.934  -0.297  0.1453 -0.2871  0.4407
    2CHTO   C97  497   3.605   6.008  -0.044  0.0946 -0.1471 -0.1581
    2CHTO  H184  498   3.514   5.948  -0.056 -1.0809  1.7559 -0.9631
    2CHTO   O64  499   3.666   5.992   0.087  0.1477  0.3517 -0.2211
    2CHTO  C104  500   3.703   5.858   0.119  0.4926 -0.6003  0.0048
    2CHTO  H191  501   3.621   5.787   0.104  1.6624 -2.2171  1.1191
    2CHTO  C108  502   3.741   5.847   0.270 -0.7037  0.0288 -0.3318
    2CHTO   O71  503   3.636   5.892   0.360  0.8403 -0.2459 -0.2207
    2CHTO  H171  504   3.603   5.814   0.402 -3.3633  0.1598 -2.5376
    2CHTO   O62  505   3.576   6.143  -0.040 -0.3450 -0.1403  0.1266
    2CHTO   C91  506   3.465   6.188   0.040 -0.0107  0.6817  0.4813
    2CHTO  H178  507   3.439   6.106   0.107 -3.2655 -0.3093 -1.8784
    2CHTO   C92  508   3.335   6.200  -0.050  0.3808 -0.1973  0.0121
    2CHTO  H179  509   3.336   6.106  -0.107 -0.1368 -0.8230  1.0259
    2CHTO   O66  510   3.212   6.184   0.028 -0.8951  0.1178 -0.2026
    2CHTO  H166  511   3.217   6.102   0.072 -2.0945  0.2108  0.1045
    2CHTO   C93  512   3.334   6.334  -0.129  0.1052  0.1630  0.3304
    2CHTO  H180  513   3.228   6.350  -0.152  0.5452  1.7934 -0.6657
    2CHTO   N16  514   3.408   6.334  -0.256  0.1445  0.4454  0.3534
    2CHTO  H172  515   3.354   6.270  -0.324  1.0588 -0.0808  0.1208
    2CHTO  H173  516   3.410   6.439  -0.281  1.4191  0.7577  1.6797
    2CHTO   C94  517   3.376   6.458  -0.034 -0.4857 -0.3162 -0.0899
    2CHTO  H181  518   3.469   6.502  -0.069  0.6000 -2.9229 -0.5461
    2CHTO   O61  519   3.397   6.431   0.106 -0.1388  0.1483  0.2167
    2CHTO   C95  520   3.491   6.323   0.131 -0.6632  0.4338  0.5533
    2CHTO  H182  521   3.591   6.356   0.100  0.5745 -1.7433  2.1192
    2CHTO  C106  522   3.487   6.279   0.284 -0.1628 -0.7564  0.0164
    2CHTO   O69  523   3.587   6.184   0.309 -0.2134  0.2968  0.5992
    2CHTO  H169  524   3.551   6.100   0.287  0.9909  0.2721 -1.3817
    2CHTO   O63  525   3.271   6.562  -0.055 -0.9308 -0.1573 -0.0343
    2CHTO   C96  526   3.309   6.697  -0.023  1.0224 -0.1062  0.7615
    2CHTO  H183  527   3.417   6.705  -0.012  1.1503  3.0403 -1.9492
    2CHTO   C98  528   3.251   6.755   0.112  0.4780 -0.3996 -0.2283
    2CHTO  H185  529   3.141   6.750   0.107  0.2612  2.0549  1.2037
    2CHTO   O67  530   3.288   6.668   0.219 -0.5029 -0.2505 -0.6042
    2CHTO  H167  531   3.228   6.596   0.227  0.5746 -0.9873  1.1696
    2CHTO  C102  532   3.310   6.905   0.137 -0.2070  0.2187 -0.5785
    2CHTO  H189  533   3.416   6.891   0.164 -0.1923 -0.4334 -0.9610
    2CHTO   N18  534   3.245   6.972   0.249  0.1097  0.0881 -0.3295
    2CHTO  H176  535   3.138   6.986   0.241  0.1258  0.8800  0.7788
    2CHTO  H177  536   3.305   7.059   0.271 -1.9973  1.4186  0.2799
    2CHTO  C105  537   3.305   6.990   0.002  0.2447 -0.0177 -0.4975
    2CHTO  H192  538   3.206   7.035  -0.010 -0.8786 -2.1560  0.3539
    2CHTO   O65  539   3.327   6.921  -0.126  0.3100 -0.1654  0.6764
    2CHTO  C100  540   3.268   6.788  -0.136  0.0427  0.5758 -0.6026
    2CHTO  H187  541   3.159   6.796  -0.127  0.0744 -1.6978  2.4487
    2CHTO  C107  542   3.303   6.734  -0.273 -0.0275 -0.4203  0.2915
    2CHTO   O70  543   3.274   6.826  -0.381  0.0734  0.2757 -0.3014
    2CHTO  H170  544   3.338   6.893  -0.398  0.1819  0.5005  0.9348
    2CHTO   O57  545   3.410   7.112   0.019 -0.2064 -0.0363  0.4199
    2CHTO   C85  546   3.375   7.236  -0.045  0.3045  0.6569 -0.7081
    2CHTO  H157  547   3.287   7.266   0.016  1.6549 -2.2962  2.8676
    2CHTO   C83  548   3.327   7.216  -0.189  0.4373 -0.5329  0.2701
    2CHTO  H155  549   3.235   7.157  -0.185 -0.0100  0.2513  2.4838
    2CHTO   O56  550   3.434   7.150  -0.260  0.1893  0.0699  0.5382
    2CHTO  H135  551   3.397   7.141  -0.346 -0.3912 -1.9271  0.9579
    2CHTO   C81  552   3.290   7.355  -0.247  0.1420  0.4335  0.5061
    2CHTO  H153  553   3.217   7.403  -0.184 -0.6427  0.9160 -0.7545
    2CHTO   N14  554   3.226   7.342  -0.387  0.2614  0.2433 -0.0581
    2CHTO  H141  555   3.239   7.249  -0.437 -0.0343 -0.8533  1.8374
    2CHTO  H142  556   3.120   7.357  -0.385 -0.3761 -3.6995  0.4636
    2CHTO   C79  557   3.414   7.448  -0.250  0.1434  0.0237 -0.7629
    2CHTO  H151  558   3.376   7.547  -0.276 -1.0831  1.0505  4.3828
    2CHTO   O52  559   3.459   7.466  -0.116 -0.2277  0.0264 -0.6772
    2CHTO   C86  560   3.484   7.343  -0.039  0.1387  0.4893 -0.1748
    2CHTO  H158  561   3.576   7.303  -0.088  0.5115 -1.5838  2.1295
    2CHTO   C90  562   3.524   7.374   0.112 -0.8942  0.8325 -0.2952
    2CHTO   O60  563   3.447   7.486   0.165 -0.0085 -0.0376  0.0327
    2CHTO  H138  564   3.462   7.568   0.122 -0.6425  0.7318  1.2474
    2CHTO   O50  565   3.526   7.401  -0.338 -0.1761 -0.1028  0.0463
    2CHTO   C73  566   3.600   7.453  -0.447 -0.3347 -0.4062 -0.3998
    2CHTO  H145  567   3.574   7.557  -0.469  0.2130 -0.5465 -1.7624
    2CHTO   C74  568   3.575   7.367  -0.571  0.0105  0.1932  0.0440
    2CHTO  H146  569   3.468   7.368  -0.598 -0.1063  0.9291  0.5436
    2CHTO   O54  570   3.637   7.435  -0.678 -0.5113  0.7807  0.4087
    2CHTO  H133  571   3.586   7.514  -0.682  0.1417  1.3224  2.6164
    2CHTO   C75  572   3.635   7.220  -0.550 -1.2213  0.7345 -0.0825
    2CHTO  H147  573   3.576   7.170  -0.472  0.0525  1.6763  1.5075
    2CHTO   N13  574   3.629   7.133  -0.672  0.9567 -0.3869 -0.3462
    2CHTO  H139  575   3.529   7.119  -0.710 -0.0332  1.6746  1.4114
    2CHTO  H140  576   3.686   7.042  -0.662 -0.3386 -1.1620  0.1133
    2CHTO   C76  577   3.789   7.231  -0.496 -0.1416 -0.5075  0.1917
    2CHTO  H148  578   3.845   7.283  -0.573  0.4095  1.1247  1.6680
    2CHTO   O49  579   3.792   7.310  -0.381  0.5187 -0.4892 -0.3261
    2CHTO   C77  580   3.759   7.445  -0.409  0.2044 -0.1459 -0.0497
    2CHTO  H149  581   3.817   7.487  -0.490 -1.0358  1.2687 -0.2456
    2CHTO   C88  582   3.800   7.519  -0.284  0.6994 -0.2796 -0.0972
    2CHTO   O58  583   3.800   7.668  -0.317  0.3254  0.0429 -0.0187
    2CHTO  H136  584   3.843   7.681  -0.399  0.7431 -0.3255  0.1408
    2CHTO   O51  585   3.839   7.088  -0.451 -0.0839  0.2561  0.1803
    2CHTO   C78  586   3.891   7.044  -0.312  0.1920  0.8232 -0.5759
    2CHTO  H150  587   3.839   7.097  -0.230  1.1848  3.4243 -1.5648
    2CHTO   C80  588   4.043   7.061  -0.305  0.2912  0.5766  0.1164
    2CHTO  H152  589   4.091   7.008  -0.391  0.6630 -0.7162  1.1099
    2CHTO   O55  590   4.075   7.203  -0.309 -0.2476  0.3497  0.6713
    2CHTO  H134  591   3.999   7.258  -0.317 -1.1907 -0.3184  4.0550
    2CHTO   C84  592   4.098   6.993  -0.170  0.0148 -0.2290  0.7802
    2CHTO  H156  593   4.052   7.047  -0.087  0.3944 -0.1650  0.9539
    2CHTO   N15  594   4.245   7.013  -0.158 -0.7585  0.4791 -0.5189
    2CHTO  H143  595   4.265   7.114  -0.129 -1.1924  0.5064 -0.3157
    2CHTO  H144  596   4.306   6.985  -0.242  0.7750  0.8169  0.4461
    2CHTO   C87  597   4.059   6.841  -0.174 -0.7002  0.2420 -0.6210
    2CHTO  H159  598   4.100   6.789  -0.261  1.1425 -1.7133  1.3619
    2CHTO   O53  599   3.909   6.834  -0.183  0.1498  0.2904  0.3632
    2CHTO   C82  600   3.852   6.898  -0.298 -0.3161 -0.2012  0.1241
    2CHTO  H154  601   3.874   6.839  -0.388  0.1295  2.8070 -1.7980
    2CHTO   C89  602   3.702   6.890  -0.274  0.2481 -0.1940  0.3866
    2CHTO   O59  603   3.658   6.757  -0.258  0.0774  0.6653 -0.2699
    2CHTO  H137  604   3.586   6.758  -0.198 -0.8899  2.1172 -1.4253
    2CHTO   O45  605   4.119   6.757  -0.033 -0.1919 -0.0055 -0.5369
    2CHTO   C67  606   4.023   6.742   0.076  0.0783  0.6558  0.3773
    2CHTO  H124  607   3.946   6.817   0.059 -1.9777 -0.5476  3.9254
    2CHTO   C65  608   3.954   6.604   0.068  0.0662 -0.2612 -0.5463
    2CHTO  H122  609   4.005   6.553  -0.013  1.6597 -0.8251  0.7739
    2CHTO   O44  610   3.818   6.624   0.029  0.3029 -0.1241  0.6902
    2CHTO  H102  611   3.753   6.568   0.067  0.4683 -0.2189  0.8324
    2CHTO   C63  612   3.970   6.514   0.192 -0.0917  0.4282 -0.2447
    2CHTO  H120  613   4.076   6.500   0.211 -0.4266 -1.2042  0.5463
    2CHTO   N11  614   3.923   6.377   0.183 -0.2407  0.0844  0.0214
    2CHTO  H108  615   4.000   6.308   0.155  2.4268  1.8775  2.5868
    2CHTO  H109  616   3.830   6.370   0.130 -0.6670  2.7294  0.3741
    2CHTO   C61  617   3.921   6.606   0.312 -0.0327 -0.5207  0.2707
    2CHTO  H118  618   3.946   6.548   0.402 -1.7235 -0.9088  0.5068
    2CHTO   O40  619   3.995   6.733   0.318 -0.1573 -0.3871  0.3544
    2CHTO   C68  620   4.090   6.767   0.213 -0.2061 -0.7158 -0.0129
    2CHTO  H125  621   4.182   6.707   0.226  1.5410  1.4914 -1.8151
    2CHTO   C72  622   4.139   6.917   0.224  0.3590  0.4786 -0.0353
    2CHTO   O48  623   4.219   6.932   0.345 -0.2633 -0.2203  0.3197
    2CHTO  H105  624   4.163   6.914   0.418  1.1349  3.7024  2.5161
    2CHTO   O38  625   3.776   6.625   0.305  0.4101  0.0068 -0.0100
    2CHTO   C55  626   3.721   6.699   0.414  0.1186 -0.7529 -0.1889
    2CHTO  H112  627   3.793   6.759   0.472 -0.4260 -0.7581  0.4897
    2CHTO   C56  628   3.631   6.609   0.510 -0.0421 -1.0278  0.1821
    2CHTO  H113  629   3.557   6.551   0.454 -1.1448  0.9414 -0.4454
    2CHTO   O42  630   3.716   6.508   0.569  0.1661 -0.1368 -0.5107
    2CHTO  H100  631   3.777   6.483   0.503 -0.1528  0.6174 -1.0995
    2CHTO   C57  632   3.560   6.704   0.619  0.1518 -0.1011  0.8268
    2CHTO  H114  633   3.640   6.754   0.673 -1.6762  4.0228 -0.1068
    2CHTO   N10  634   3.474   6.634   0.714 -0.1477  0.4565  0.1252
    2CHTO  H106  635   3.522   6.542   0.745  0.5532 -0.2509 -2.8779
    2CHTO  H107  636   3.451   6.696   0.799  1.1691  0.9795  0.1156
    2CHTO   C58  637   3.483   6.816   0.545  0.3132  0.3162 -0.2547
    2CHTO  H115  638   3.393   6.784   0.488  0.0672  1.7055 -0.6797
    2CHTO   O37  639   3.563   6.883   0.447  0.0180 -0.0852 -0.1522
    2CHTO   C59  640   3.628   6.801   0.347  0.5520 -0.0018 -0.1314
    2CHTO  H116  641   3.551   6.754   0.287 -0.5699  3.2356 -1.3527
    2CHTO   C70  642   3.714   6.887   0.251 -0.4585 -0.1654 -0.7059
    2CHTO   O46  643   3.642   6.992   0.186 -0.1999  0.1354 -0.5136
    2CHTO  H103  644   3.578   7.029   0.244  1.1342  0.7961  0.5513
    2CHTO   O39  645   3.448   6.934   0.668  0.1350 -0.2425 -0.0012
    2CHTO   C60  646   3.316   6.999   0.649  0.3649 -0.7247  0.0032
    2CHTO  H117  647   3.315   7.003   0.540 -0.4625  0.4663  0.0441
    2CHTO   C62  648   3.199   6.927   0.700 -1.1578 -0.0255  1.1133
    2CHTO  H119  649   3.207   6.821   0.669  0.2479  1.2000 -3.0087
    2CHTO   O43  650   3.219   6.923   0.844 -0.3079 -0.2746 -0.5852
    2CHTO  H101  651   3.162   6.863   0.887  1.9362 -0.4236  2.3501
    2CHTO   C66  652   3.061   6.991   0.660  0.7060 -0.6728 -1.1078
    2CHTO  H123  653   3.054   7.004   0.551  0.7732  2.2822 -0.8146
    2CHTO   N12  654   2.938   6.914   0.698 -0.3777  0.1287 -0.3718
    2CHTO  H110  655   2.891   6.862   0.616  0.1364  1.0763 -1.2705
    2CHTO  H111  656   2.868   6.977   0.750 -2.8326 -1.7079 -1.3603
    2CHTO   C69  657   3.059   7.135   0.727 -0.0250 -0.6791  0.0867
    2CHTO  H126  658   3.070   7.134   0.837  1.6864  0.0788 -0.0693
    2CHTO   O41  659   3.177   7.211   0.683  0.0261 -0.1818  0.1173
    2CHTO   C64  660   3.317   7.153   0.696 -0.0453 -0.3066  0.2290
    2CHTO  H121  661   3.349   7.164   0.802  1.4414  1.1700 -0.3652
    2CHTO   C71  662   3.426   7.227   0.616 -0.2525 -0.1425 -0.4389
    2CHTO   O47  663   3.469   7.337   0.697  0.2205 -0.0994  0.0133
    2CHTO  H104  664   3.555   7.368   0.676 -1.1746  3.3112 -1.0583
    2CHTO   O34  665   2.924   7.214   0.692 -0.5146  0.3801  0.0978
    2CHTO   C49  666   2.845   7.310   0.781  0.0691  0.2131 -0.4226
    2CHTO   H91  667   2.818   7.252   0.870  1.2368  0.2537 -0.0277
    2CHTO   C47  668   2.719   7.364   0.706  0.1749 -0.0830 -0.7097
    2CHTO   H89  669   2.654   7.411   0.783 -0.2723 -2.4436  0.3941
    2CHTO   O33  670   2.647   7.255   0.648 -0.0190  0.3527 -0.1505
    2CHTO   H70  671   2.583   7.222   0.707 -1.8699  2.8182 -0.6722
    2CHTO   C45  672   2.772   7.461   0.588 -0.6842  0.1405  0.2848
    2CHTO   H87  673   2.846   7.399   0.535  0.0106 -0.6789  2.1865
    2CHTO    N8  674   2.668   7.502   0.487  0.3614 -0.1373 -0.0899
    2CHTO   H75  675   2.605   7.582   0.522  1.6414  1.6432 -1.8158
    2CHTO   H76  676   2.616   7.424   0.433 -1.7440  1.5861 -0.6167
    2CHTO   C43  677   2.846   7.581   0.660  0.0750 -0.2244  0.5183
    2CHTO   H85  678   2.879   7.639   0.573 -0.3765 -0.7483 -0.0110
    2CHTO   O29  679   2.956   7.535   0.738  0.5576 -0.0425  0.4856
    2CHTO   C50  680   2.932   7.428   0.833 -0.4855 -0.9434 -0.8869
    2CHTO   H92  681   3.026   7.390   0.873 -0.0425  0.6797 -0.3389
    2CHTO   C54  682   2.857   7.476   0.960 -0.2266  0.4717  0.0403
    2CHTO   O36  683   2.919   7.592   1.023  0.2074 -0.2700 -0.2301
    2CHTO   H72  684   2.900   7.594   1.115 -1.6277 -0.0914 -0.5878
    2CHTO   O27  685   2.756   7.667   0.737 -0.2660  0.6876 -0.3645
    2CHTO   C37  686   2.673   7.788   0.746  0.4781  0.6657  0.2217
    2CHTO   H79  687   2.587   7.771   0.679 -0.3419  0.4884  1.3072
    2CHTO   C38  688   2.607   7.815   0.892 -0.2326  0.2152  0.2263
    2CHTO   H80  689   2.687   7.826   0.967  2.0911  1.9214 -2.3576
    2CHTO   O31  690   2.517   7.699   0.913 -0.2860 -0.3331 -0.2428
    2CHTO   H68  691   2.481   7.713   0.998 -0.0538 -1.5711  0.0720
    2CHTO   C39  692   2.526   7.948   0.901  0.3414 -0.1999  0.3865
    2CHTO   H81  693   2.445   7.938   0.828 -0.0152 -0.5534  0.8366
    2CHTO    N7  694   2.465   7.988   1.033  0.2304  0.2590  0.4816
    2CHTO   H73  695   2.384   7.924   1.064 -0.4831 -0.2159 -2.2472
    2CHTO   H74  696   2.431   8.091   1.032  0.3351  0.3249  2.1698
    2CHTO   C40  697   2.615   8.064   0.837  0.3012 -0.5463 -0.1496
    2CHTO   H82  698   2.699   8.091   0.901 -0.5012  0.9662  0.2892
    2CHTO   O26  699   2.654   8.028   0.709 -0.7024  0.6315 -0.2145
    2CHTO   C41  700   2.752   7.918   0.706 -0.1120  0.7334  0.6737
    2CHTO   H83  701   2.827   7.943   0.782 -1.0616 -0.4651  2.0161
    2CHTO   C52  702   2.824   7.918   0.562  0.2721 -0.4747  0.2591
    2CHTO   O35  703   2.720   7.909   0.440  0.2740  0.2798  0.2159
    2CHTO   H71  704   2.700   7.818   0.425 -1.2504  0.5744  0.4171
    2CHTO   O28  705   2.545   8.192   0.802  0.0594  0.3557 -0.2655
    2CHTO   C42  706   2.618   8.317   0.823  0.5000 -0.0207  0.3653
    2CHTO   H84  707   2.561   8.387   0.763  0.5532 -1.3062 -1.2233
    2CHTO   C44  708   2.758   8.327   0.762 -0.4298 -0.8359 -0.3705
    2CHTO   H86  709   2.814   8.241   0.799  1.5537  0.7977  0.5414
    2CHTO   O32  710   2.739   8.301   0.622 -0.4939 -0.3956 -0.3299
    2CHTO   H69  711   2.701   8.373   0.575 -0.0348 -0.0035 -0.1070
    2CHTO   C48  712   2.820   8.469   0.800  0.3434  0.0825  0.4799
    2CHTO   H90  713   2.763   8.544   0.745  1.6101  2.3192  2.1413
    2CHTO    N9  714   2.963   8.480   0.737  0.3330  0.2091 -0.0444
    2CHTO   H77  715   3.040   8.440   0.801 -0.0034 -0.4222 -0.0269
    2CHTO   H78  716   2.984   8.583   0.713  0.7402 -0.2728 -1.8564
    2CHTO   C51  717   2.815   8.487   0.952  0.2318  0.1213  0.3332
    2CHTO   H93  718   2.871   8.405   0.998  1.5128  0.3153 -0.8306
    2CHTO   O30  719   2.680   8.496   0.997  0.4429  0.4511 -0.1119
    2CHTO   C46  720   2.605   8.362   0.964  0.3031  0.5726 -0.3303
    2CHTO   H88  721   2.650   8.286   1.028 -0.0537  0.9153  0.3274
    2CHTO   C53  722   2.458   8.388   1.005 -0.5154 -0.0525  0.1620
    2CHTO   O72  723   2.447   8.438   1.139  0.2125 -0.6293 -0.7462
    2CHTO  H199  724   2.527   8.456   1.185 -0.3909 -0.5401  0.2923
    2CHTO   O22  725   2.879   8.620   0.978  0.6002 -0.0436 -0.5879
    2CHTO   C31  726   2.912   8.666   1.116  0.1085  0.4258 -0.2887
    2CHTO   H59  727   2.950   8.769   1.101  0.2242  0.4742  0.3160
    2CHTO   C29  728   2.787   8.685   1.203  0.9846  0.1376 -0.2189
    2CHTO   H57  729   2.749   8.585   1.228  1.3555 -0.4339 -1.8622
    2CHTO   O21  730   2.695   8.766   1.126  0.0771 -0.0801  0.0731
    2CHTO   H37  731   2.740   8.837   1.085 -0.3296  0.4291  0.4947
    2CHTO   C27  732   2.820   8.751   1.340  0.0095  0.2142  0.0052
    2CHTO   H55  733   2.853   8.854   1.320 -0.1872  0.3971  0.6192
    2CHTO    N5  734   2.701   8.755   1.429  0.5641 -0.4124  0.6570
    2CHTO   H43  735   2.663   8.855   1.445 -1.0057 -0.5271 -2.0001
    2CHTO   H44  736   2.713   8.694   1.518  1.4454 -0.9634  0.1739
    2CHTO   C25  737   2.938   8.670   1.408 -0.1447  0.2361 -0.3256
    2CHTO   H53  738   2.897   8.575   1.446 -0.9107  0.0672 -1.5428
    2CHTO   O17  739   3.052   8.639   1.317  0.2429 -0.2484  0.4998
    2CHTO   C32  740   3.022   8.592   1.187  0.7101  0.7782 -0.5596
    2CHTO   H60  741   2.996   8.486   1.199 -2.3415  1.5085 -0.3980
    2CHTO   C36  742   3.154   8.612   1.105 -0.4029  0.0467 -0.2713
    2CHTO   O25  743   3.225   8.737   1.104  0.0969 -0.3274  0.3669
    2CHTO   H40  744   3.161   8.799   1.076 -1.3876 -1.4780  1.0777
    2CHTO   O15  745   2.997   8.751   1.526 -0.4674 -0.2368  0.2475
    2CHTO   C19  746   3.026   8.687   1.651 -0.0351  0.3329 -0.0418
    2CHTO   H47  747   2.985   8.585   1.641 -0.0691  0.2999  0.4251
    2CHTO   C20  748   3.180   8.674   1.676  0.0566  0.2300 -0.0806
    2CHTO   H48  749   3.229   8.771   1.661  1.1593 -0.3454 -0.2583
    2CHTO   O19  750   3.244   8.589   1.576 -0.1584  0.1214 -0.3091
    2CHTO   H35  751   3.238   8.497   1.591  2.0199  0.1605  1.0143
    2CHTO   C21  752   3.221   8.619   1.818 -0.5664  0.3345  0.2624
    2CHTO   H49  753   3.198   8.513   1.816  0.6375  0.0690 -2.3353
    2CHTO    N4  754   3.370   8.616   1.834 -0.7195  0.2899  0.5368
    2CHTO   H41  755   3.409   8.703   1.783  0.9493  1.8092  4.2173
    2CHTO   H42  756   3.410   8.525   1.792  0.7640  0.8594  0.6808
    2CHTO   C22  757   3.141   8.697   1.927  0.5534 -1.1330 -0.2266
    2CHTO   H50  758   3.154   8.805   1.923 -2.5450 -0.7584 -2.0494
    2CHTO   O14  759   3.000   8.676   1.894  0.3637  0.5251 -0.1592
    2CHTO   C23  760   2.957   8.747   1.779 -0.6744  0.1723  0.7286
    2CHTO   H51  761   2.977   8.854   1.789  0.0447  0.1750 -0.6943
    2CHTO   C34  762   2.804   8.733   1.765  0.3574  0.5755 -0.0392
    2CHTO   O23  763   2.759   8.599   1.768 -0.3848 -0.3031 -0.6474
    2CHTO   H38  764   2.736   8.573   1.681 -1.9344  0.6035 -0.5179
    2CHTO   O16  765   3.168   8.639   2.049  0.2028 -0.2004 -0.2988
    2CHTO   C24  766   3.175   8.723   2.170  0.2714 -0.7241 -0.8100
    2CHTO   H52  767   3.086   8.786   2.176 -0.2436 -1.4914 -0.3296
    2CHTO   C26  768   3.307   8.812   2.165  0.7613 -0.0111  0.0088
    2CHTO   H54  769   3.388   8.754   2.115  0.9326  0.4125 -0.2092
    2CHTO   O20  770   3.285   8.929   2.077  0.4288  0.3979 -0.4604
    2CHTO   H36  771   3.198   8.957   2.096  0.8912  1.1349  0.5726
    2CHTO   C30  772   3.344   8.857   2.307 -0.3558 -0.9982 -0.5473
    2CHTO   H58  773   3.292   8.951   2.328  0.7100 -0.6293  0.4961
    2CHTO    N6  774   3.491   8.893   2.310  0.5933 -0.1986 -0.1030
    2CHTO   H45  775   3.546   8.855   2.225 -0.6647  1.3557 -1.6390
    2CHTO   H46  776   3.507   9.000   2.316 -0.1218 -0.1050  0.1502
    2CHTO   C33  777   3.313   8.758   2.420  0.4355 -0.1218  0.5305
    2CHTO   H61  778   3.385   8.674   2.427  1.1629  0.2450 -1.8903
    2CHTO   O18  779   3.175   8.709   2.407  0.1038  0.2976 -0.2471
    2CHTO   C28  780   3.163   8.626   2.295 -0.4490 -0.0315 -0.3472
    2CHTO   H56  781   3.241   8.551   2.296  0.2513  0.6880 -0.5036
    2CHTO   C35  782   3.023   8.559   2.292  0.0082 -0.5309  0.6584
    2CHTO   O24  783   3.003   8.480   2.406  0.0300  0.0225 -0.5625
    2CHTO   H39  784   2.985   8.531   2.482 -3.2731 -0.7466 -0.7738
    2CHTO    O9  785   3.328   8.825   2.546  0.0911 -0.4777  0.6325
    2CHTO   C13  786   3.307   8.727   2.691 -0.0809 -0.0286 -0.1075
    2CHTO   H26  787   3.351   8.627   2.671  0.7411  0.2252  0.4123
    2CHTO   C11  788   3.152   8.719   2.717 -0.0908  0.3007  0.2759
    2CHTO   H24  789   3.116   8.653   2.637  1.1140  1.1490 -0.9843
    2CHTO    O8  790   3.093   8.849   2.701 -0.5131 -0.0081  0.2386
    2CHTO    H3  791   3.055   8.884   2.780  0.6376  0.6856  0.4969
    2CHTO    C9  792   3.143   8.635   2.842 -0.2213  0.3596 -0.0951
    2CHTO   H22  793   3.209   8.548   2.826 -0.4892 -0.1553  1.4878
    2CHTO    N2  794   3.009   8.580   2.865 -0.1173 -0.6662 -0.0966
    2CHTO   H10  795   2.929   8.639   2.823 -0.5461 -1.0682  0.1633
    2CHTO   H11  796   2.982   8.538   2.960 -0.4045  0.1970  0.2047
    2CHTO    C7  797   3.189   8.724   2.965 -0.2482  0.7166  0.1075
    2CHTO   H20  798   3.194   8.654   3.050 -0.6762  2.9496  2.0313
    2CHTO    O4  799   3.327   8.772   2.949 -0.1533 -0.2524  0.5799
    2CHTO   C14  800   3.380   8.795   2.818  0.7706 -0.2698  0.2164
    2CHTO   H27  801   3.480   8.749   2.832 -0.2021 -1.8875  2.0717
    2CHTO   C18  802   3.397   8.949   2.806 -0.0190  0.0476  0.8088
    2CHTO   O13  803   3.516   8.991   2.864  0.1556 -0.4252  0.1353
    2CHTO    H7  804   3.579   9.004   2.796  0.6700  1.6131  0.9623
    2CHTO    O2  805   3.083   8.861   2.999  0.3400 -0.2674  0.2873
    2CHTO    C1  806   3.092   8.903   3.135  0.1483  0.6213 -0.5034
    2CHTO   H14  807   3.177   8.856   3.188 -0.7029 -1.1936 -0.6701
    2CHTO    C2  808   2.962   8.852   3.206  0.2765  0.7289 -0.2342
    2CHTO   H15  809   2.872   8.878   3.149 -0.8085  1.4643  1.7736
    2CHTO    O6  810   2.970   8.705   3.219  0.3527  0.1071 -0.2544
    2CHTO    H1  811   2.914   8.675   3.289  1.7769 -0.2845  0.7454
    2CHTO    C3  812   2.944   8.916   3.354 -0.6351 -0.0747 -1.1751
    2CHTO   H16  813   3.022   8.877   3.422 -1.5455 -0.1705 -0.1664
    2CHTO    N1  814   2.817   8.879   3.423  0.3637  0.4476  0.2602
    2CHTO    H8  815   2.826   8.903   3.528  2.5740  0.3004  0.1088
    2CHTO    H9  816   2.794   8.774   3.411 -0.2558  0.5105  0.8254
    2CHTO    C4  817   2.962   9.075   3.346 -0.3480  0.4007  1.1759
    2CHTO   H17  818   2.873   9.111   3.294 -0.4880 -2.1597 -0.4746
    2CHTO    O1  819   3.086   9.109   3.283  0.5362  0.0316 -0.7254
    2CHTO    C5  820   3.095   9.054   3.153 -0.3639  0.3710  0.2167
    2CHTO   H18  821   3.006   9.091   3.102 -2.0544 -1.2320  1.9476
    2CHTO   C16  822   3.223   9.121   3.095  0.1456 -0.1611 -0.5425
    2CHTO   O11  823   3.347   9.098   3.165  0.1181  0.2666 -0.3436
    2CHTO    H5  824   3.336   9.062   3.251 -2.5901  1.4266 -0.1537
    2CHTO    O3  825   2.960   9.136   3.473 -0.0474 -0.6324 -0.2723
    2CHTO    C6  826   2.926   9.280   3.477  0.5517  0.4153 -0.4040
    2CHTO   H19  827   2.961   9.327   3.385 -1.4828  0.4097 -1.2161
    2CHTO    C8  828   2.762   9.299   3.486 -0.1600  0.5034  0.3337
    2CHTO   H21  829   2.723   9.254   3.577  0.4675  0.3756  0.5402
    2CHTO    O7  830   2.706   9.241   3.365  0.5697  0.2811 -0.8473
    2CHTO    H2  831   2.614   9.261   3.359  0.1901 -0.8424  0.9686
    2CHTO   C12  832   2.747   9.452   3.495 -0.0712  0.4317  0.3021
    2CHTO   H25  833   2.779   9.498   3.400 -2.3485 -0.5172 -0.9690
    2CHTO    N3  834   2.598   9.484   3.504  0.0423  0.1365 -0.1911
    2CHTO   H12  835   2.565   9.459   3.604  2.0561  0.0862  0.4789
    2CHTO   H13  836   2.577   9.589   3.493  0.1503  0.0958 -0.8066
    2CHTO   C15  837   2.840   9.508   3.607  1.0823  0.8794  0.0959
    2CHTO   H28  838   2.805   9.486   3.708  3.0047  1.0180  0.8095
    2CHTO   O10  839   2.840   9.664   3.599 -0.6247 -0.4050 -0.0377
    2CHTO    H4  840   2.867   9.692   3.514 -1.5358  0.6254  0.0047
    2CHTO    O5  841   2.980   9.479   3.592 -0.2502  0.6160  0.0354
    2CHTO   C10  842   3.004   9.335   3.600 -0.3149  0.1969  0.6366
    2CHTO   H23  843   2.969   9.294   3.695  0.4470  0.2868  0.9626
    2CHTO   C17  844   3.160   9.312   3.592  0.9670 -0.4163  0.1511
    2CHTO   O12  845   3.193   9.176   3.626  0.2323  0.0797  0.7959
    2CHTO    H6  846   3.284   9.183   3.647  1.0299 -0.5545 -2.2231
    3CHTO  H203  847   7.746   2.855   1.646 -0.4839 -0.3121  1.1072
    3CHTO   O82  848   7.679   2.806   1.602 -0.2294 -0.1152  0.4958
    3CHTO  C123  849   7.629   2.711   1.702 -0.0984 -0.2913  0.4021
    3CHTO  H227  850   7.652   2.751   1.801 -0.4898  1.8059 -0.3260
    3CHTO   O77  851   7.486   2.704   1.675  0.0543  0.4162 -0.2025
    3CHTO  C118  852   7.406   2.621   1.760  0.3236 -0.1387  0.0629
    3CHTO  H222  853   7.422   2.657   1.862 -0.3694  2.3175 -0.6426
    3CHTO  C125  854   7.254   2.639   1.717 -0.4254 -0.0936  0.0774
    3CHTO   O84  855   7.157   2.607   1.811  0.1955  0.8883 -0.2558
    3CHTO  H205  856   7.167   2.662   1.886 -0.0473 -0.0551  0.4816
    3CHTO  C114  857   7.460   2.479   1.745 -0.1136  0.0817  0.8059
    3CHTO  H218  858   7.451   2.449   1.641 -0.4286  1.8080  0.3357
    3CHTO  C116  859   7.611   2.474   1.787 -0.2566  0.1754 -0.0147
    3CHTO  H220  860   7.616   2.513   1.891  0.7074 -0.6640  0.2675
    3CHTO   O79  861   7.666   2.335   1.786 -0.1742  0.0005 -0.0601
    3CHTO  H201  862   7.712   2.322   1.867 -1.4451  0.5222  0.7663
    3CHTO  C120  863   7.688   2.563   1.687 -0.2767  0.1345 -0.0171
    3CHTO  H224  864   7.670   2.530   1.583  0.1758  0.3744 -0.1752
    3CHTO   N21  865   7.833   2.565   1.724 -0.4508 -0.1739  0.0474
    3CHTO  H211  866   7.890   2.585   1.635 -0.8507  1.8166  0.2019
    3CHTO  H212  867   7.868   2.615   1.814  2.2316 -1.9655  0.0530
    3CHTO   O75  868   7.394   2.396   1.835 -0.2859  0.3599  0.2581
    3CHTO  C112  869   7.298   2.283   1.762 -0.2907  0.2779 -0.2344
    3CHTO  H216  870   7.318   2.281   1.653  1.0431  2.4075 -0.0438
    3CHTO   O73  871   7.166   2.327   1.784 -0.1683 -0.3925 -0.6780
    3CHTO  C113  872   7.068   2.259   1.711  0.3003  0.0518  0.1253
    3CHTO  H217  873   7.096   2.241   1.605  0.0272  1.0463 -0.1168
    3CHTO  C124  874   6.940   2.337   1.727  0.2499 -0.2152  0.8514
    3CHTO   O83  875   6.935   2.468   1.672  0.1660  0.1916 -0.3150
    3CHTO  H204  876   6.849   2.471   1.635  0.0180 -0.0126  0.0166
    3CHTO  C109  877   7.048   2.113   1.769  0.4589  0.7004 -0.3465
    3CHTO  H213  878   7.017   2.127   1.873  1.0816 -0.9706  0.0705
    3CHTO  C110  879   7.186   2.037   1.768 -0.3973 -0.1980 -0.2866
    3CHTO  H214  880   7.203   2.014   1.663 -3.2509 -1.2199 -0.5677
    3CHTO   O78  881   7.176   1.918   1.840 -0.0496  0.0145 -0.0369
    3CHTO  H200  882   7.144   1.935   1.927 -0.9786 -1.4852 -0.0643
    3CHTO  C111  883   7.297   2.133   1.824 -0.8330 -0.0717 -0.0258
    3CHTO  H215  884   7.274   2.157   1.929 -1.5469 -0.8572 -0.0008
    3CHTO   N19  885   7.437   2.084   1.824  0.2543  0.5736 -0.4793
    3CHTO  H207  886   7.466   2.062   1.722 -2.1409 -2.8682 -0.5012
    3CHTO  H208  887   7.500   2.146   1.886  0.9103  0.6430 -1.1999
    3CHTO   O74  888   6.941   2.041   1.696 -0.0128 -0.3259 -0.3267
    3CHTO  C115  889   6.808   2.011   1.791 -0.2799  0.0226  0.3027
    3CHTO  H219  890   6.839   1.993   1.894  0.8728 -0.1820 -0.0685
    3CHTO   O76  891   6.716   2.136   1.803 -0.4433  0.1947 -0.4004
    3CHTO  C122  892   6.626   2.162   1.699  0.2417 -0.1195 -0.8145
    3CHTO  H226  893   6.682   2.171   1.606 -2.3902 -0.2972 -2.4649
    3CHTO  C126  894   6.551   2.294   1.715  0.4301  0.1989  0.7103
    3CHTO   O85  895   6.514   2.320   1.850 -0.0108 -0.2315 -0.3015
    3CHTO  H206  896   6.420   2.323   1.859 -0.1386 -0.1904 -1.6357
    3CHTO  C121  897   6.521   2.039   1.689 -0.1827  0.2535  0.7503
    3CHTO  H225  898   6.424   2.072   1.732 -1.1419  2.0450 -2.5969
    3CHTO   O81  899   6.498   2.008   1.547 -0.2436 -0.8572 -0.6516
    3CHTO  H202  900   6.516   2.080   1.488  1.3199 -1.0432 -0.4335
    3CHTO  C119  901   6.570   1.911   1.757 -0.5103  0.1670  0.0151
    3CHTO  H223  902   6.550   1.924   1.863  0.0504  1.9129 -0.0889
    3CHTO  C117  903   6.722   1.898   1.723  0.8322  0.5613 -0.4487
    3CHTO  H221  904   6.753   1.897   1.618 -0.9520  1.8318 -1.0113
    3CHTO   N20  905   6.762   1.767   1.778  0.5465  0.2568 -0.0762
    3CHTO  H209  906   6.738   1.756   1.883 -2.0020  2.4355 -0.3597
    3CHTO  H210  907   6.710   1.689   1.724  1.8913 -0.3945 -0.4528
    3CHTO   O80  908   6.466   1.786   1.725  0.4540 -0.1151 -0.1663
    3CHTO  C103  909   6.318   1.789   1.777 -0.1223 -0.2046 -0.3307
    3CHTO  H190  910   6.302   1.846   1.869 -0.4487 -0.0022 -0.5147
    3CHTO  C101  911   6.206   1.847   1.675 -0.7388 -0.2136  0.4596
    3CHTO  H188  912   6.234   1.807   1.577 -0.7082 -1.0181  0.7873
    3CHTO   O68  913   6.216   1.987   1.685  0.6284  0.0310 -0.4624
    3CHTO  H168  914   6.131   2.023   1.669  1.0796  1.5355  0.4540
    3CHTO   C99  915   6.064   1.791   1.705  1.2100  0.2212 -0.6543
    3CHTO  H186  916   6.025   1.848   1.792  1.0851 -0.4112 -0.2925
    3CHTO   N17  917   5.967   1.804   1.593  0.1964 -0.2193  0.0784
    3CHTO  H174  918   6.008   1.753   1.508 -0.3294  1.9310 -1.5090
    3CHTO  H175  919   5.875   1.756   1.624  0.3108 -1.3269 -1.2384
    3CHTO   C97  920   6.066   1.642   1.752 -0.3143 -0.3880  0.4472
    3CHTO  H184  921   6.101   1.584   1.665 -0.5211  0.5466 -0.2684
    3CHTO   O64  922   6.161   1.631   1.859 -0.1617  0.0070 -0.2794
    3CHTO  C104  923   6.296   1.642   1.815 -0.0502  0.4709 -0.8000
    3CHTO  H191  924   6.317   1.576   1.730  1.1461  2.5866 -2.1790
    3CHTO  C108  925   6.395   1.596   1.928 -0.0102 -0.4167  0.3543
    3CHTO   O71  926   6.380   1.451   1.945 -0.3197  0.0595  0.0364
    3CHTO  H171  927   6.420   1.419   2.024 -0.7347 -0.9544 -0.1515
    3CHTO   O62  928   5.954   1.598   1.817 -0.3796 -0.3359 -0.3996
    3CHTO   C91  929   5.870   1.501   1.760  0.6850  0.0459  0.3499
    3CHTO  H178  930   5.894   1.505   1.654 -0.7353  2.2048  0.0834
    3CHTO   C92  931   5.718   1.545   1.763 -0.0107 -0.0406  0.7807
    3CHTO  H179  932   5.682   1.561   1.866  0.2550 -2.9154  1.3727
    3CHTO   O66  933   5.699   1.672   1.701 -0.3152  0.2941  0.0760
    3CHTO  H166  934   5.613   1.693   1.669  0.0316  0.0709 -1.0455
    3CHTO   C93  935   5.617   1.440   1.698 -0.4060 -0.4707 -0.1334
    3CHTO  H180  936   5.623   1.447   1.588  0.5206 -0.9639 -0.1207
    3CHTO   N16  937   5.478   1.466   1.730  0.0632 -0.1879  0.3155
    3CHTO  H172  938   5.477   1.458   1.838  0.9666  0.0454  0.3499
    3CHTO  H173  939   5.415   1.388   1.691  0.9456  0.1717 -1.9330
    3CHTO   C94  940   5.665   1.291   1.737 -0.2212  0.7600  0.8169
    3CHTO  H181  941   5.634   1.263   1.838  1.3317 -2.0670  0.5710
    3CHTO   O61  942   5.805   1.267   1.733  0.3769 -0.4921  0.1167
    3CHTO   C95  943   5.883   1.349   1.813 -0.1358  0.4787 -0.7220
    3CHTO  H182  944   5.846   1.352   1.916 -0.0577 -1.2603 -0.6141
    3CHTO  C106  945   6.029   1.299   1.830 -0.0844 -0.4794  0.0204
    3CHTO   O69  946   6.088   1.289   1.698 -0.2985  0.6573  0.0849
    3CHTO  H169  947   6.120   1.369   1.660  0.7617  0.5458  0.7252
    3CHTO   O63  948   5.619   1.193   1.629  0.3342  0.4306  0.5751
    3CHTO   C96  949   5.570   1.049   1.673 -0.0297  0.1196  0.4355
    3CHTO  H183  950   5.559   1.002   1.575 -0.2652  1.5586 -0.2558
    3CHTO   C98  951   5.431   1.054   1.739 -0.4062 -0.1015  0.3705
    3CHTO  H185  952   5.431   1.129   1.819  0.8624  0.5268 -0.2005
    3CHTO   O67  953   5.327   1.085   1.643 -0.3058 -0.5173  0.2628
    3CHTO  H167  954   5.252   1.121   1.685 -1.4075 -2.9485  0.4247
    3CHTO  C102  955   5.396   0.916   1.805  0.1105 -0.1147 -1.0437
    3CHTO  H189  956   5.377   0.849   1.719 -2.2755 -0.4673 -0.2761
    3CHTO   N18  957   5.266   0.908   1.880 -0.3709 -0.2083  0.0988
    3CHTO  H176  958   5.270   0.988   1.953 -2.2131 -0.1544  0.1771
    3CHTO  H177  959   5.194   0.925   1.800  1.4614 -1.7835 -1.9433
    3CHTO  C105  960   5.516   0.862   1.892  0.2987 -0.4641 -0.3621
    3CHTO  H192  961   5.537   0.935   1.971  1.1263 -1.0975  0.0058
    3CHTO   O65  962   5.625   0.844   1.800  0.6879 -0.7210  0.0414
    3CHTO  C100  963   5.677   0.968   1.751 -0.6914  0.1841  0.1438
    3CHTO  H187  964   5.710   1.023   1.841 -1.7350 -1.9895  1.8926
    3CHTO  C107  965   5.801   0.934   1.661 -0.2769 -0.3588 -0.0960
    3CHTO   O70  966   5.910   0.896   1.751 -0.1243  0.0123 -0.5215
    3CHTO  H170  967   5.973   0.856   1.695  0.8416  0.9543 -0.1340
    3CHTO   O57  968   5.482   0.724   1.954 -0.0379  0.3722 -0.3603
    3CHTO   C85  969   5.535   0.675   2.080  0.5259  0.2182  0.9081
    3CHTO  H157  970   5.558   0.568   2.063 -0.0631 -0.0162  1.5488
    3CHTO   C83  971   5.423   0.669   2.189  0.4070 -0.0756 -0.4706
    3CHTO  H155  972   5.348   0.600   2.152  0.0197 -0.5756  1.1826
    3CHTO   O56  973   5.352   0.801   2.199  0.4213  0.2236  0.5571
    3CHTO  H135  974   5.417   0.858   2.234 -1.1237  2.2162  0.2328
    3CHTO   C81  975   5.485   0.620   2.323 -0.1084 -0.3164  0.3592
    3CHTO  H153  976   5.524   0.519   2.308  0.6804 -0.0389  0.5012
    3CHTO   N14  977   5.374   0.591   2.416 -0.1671  0.3339  0.3289
    3CHTO  H141  978   5.422   0.557   2.506  0.3775  2.1731  0.7579
    3CHTO  H142  979   5.332   0.687   2.441 -2.9628 -1.1974  1.7470
    3CHTO   C79  980   5.593   0.724   2.378  0.2374  0.6659  0.8423
    3CHTO  H151  981   5.623   0.687   2.476 -0.9411 -1.2732  0.5043
    3CHTO   O52  982   5.703   0.712   2.283  0.1711  0.1522 -0.4981
    3CHTO   C86  983   5.667   0.755   2.145  0.1337 -0.3586  0.0994
    3CHTO  H158  984   5.645   0.863   2.153 -0.6430 -0.6125  1.6241
    3CHTO   C90  985   5.790   0.748   2.057 -0.1798  0.5096  0.4715
    3CHTO   O60  986   5.884   0.849   2.098 -0.2430  0.6350  0.5070
    3CHTO  H138  987   5.884   0.924   2.042 -1.3936  0.6855  0.5639
    3CHTO   O50  988   5.539   0.858   2.397  0.4801 -1.3300  0.4010
    3CHTO   C73  989   5.555   0.930   2.521  0.2861 -0.2320  0.1929
    3CHTO  H145  990   5.639   0.897   2.583  1.5996 -0.5314 -1.6794
    3CHTO   C74  991   5.420   0.915   2.598  0.6118 -0.0089 -0.2666
    3CHTO  H146  992   5.417   0.807   2.621 -0.7113 -0.5961 -2.9597
    3CHTO   O54  993   5.423   0.980   2.728  0.1575 -0.4123 -0.4726
    3CHTO  H133  994   5.458   0.919   2.790  2.0895  1.9305  0.8107
    3CHTO   C75  995   5.297   0.956   2.517 -0.3282  0.2692  0.2180
    3CHTO  H147  996   5.308   0.897   2.425  1.9915  1.5145 -0.3473
    3CHTO   N13  997   5.163   0.936   2.567  0.6746 -0.0068 -0.5859
    3CHTO  H139  998   5.099   0.932   2.480 -0.2246  1.6854 -0.0281
    3CHTO  H140  999   5.153   0.844   2.622  1.1939 -0.8549 -1.8995
    3CHTO   C76 1000   5.319   1.107   2.464  0.1419 -0.2123 -0.4599
    3CHTO  H148 1001   5.308   1.177   2.546  0.6425  0.6098 -1.0808
    3CHTO   O49 1002   5.453   1.129   2.405 -0.1628 -0.5471 -0.1673
    3CHTO   C77 1003   5.567   1.083   2.489  0.1157 -0.1322  0.2325
    3CHTO  H149 1004   5.579   1.142   2.580  2.3735 -0.1462 -0.0132
    3CHTO   C88 1005   5.687   1.106   2.402  0.3679 -0.5315  0.0530
    3CHTO   O58 1006   5.815   1.095   2.482 -0.1991 -0.2610  0.1357
    3CHTO  H136 1007   5.823   1.009   2.520 -0.2692  0.1239  1.0427
    3CHTO   O51 1008   5.217   1.142   2.328  0.0713  0.4261 -0.2205
    3CHTO   C78 1009   5.184   1.281   2.296 -0.7161 -0.8632  0.0820
    3CHTO  H150 1010   5.264   1.354   2.320 -0.8556  0.0816 -2.2084
    3CHTO   C80 1011   5.052   1.335   2.354  0.5751  0.1548  0.4375
    3CHTO  H152 1012   4.967   1.272   2.322  0.4653  0.5662 -0.0805
    3CHTO   O55 1013   5.039   1.327   2.499 -0.0074  0.2793  0.3372
    3CHTO  H134 1014   5.099   1.391   2.533  1.0525  0.8933 -2.5078
    3CHTO   C84 1015   5.019   1.482   2.318 -0.2700  0.2320  0.4017
    3CHTO  H156 1016   5.090   1.550   2.366  1.1203 -1.0238  0.1489
    3CHTO   N15 1017   4.883   1.529   2.349  0.2555  0.2043  0.1215
    3CHTO  H143 1018   4.837   1.506   2.443  0.4102 -0.1129  0.1187
    3CHTO  H144 1019   4.879   1.635   2.335 -1.5250  0.1927  0.4511
    3CHTO   C87 1020   5.036   1.508   2.164  0.3455 -0.0831  0.4457
    3CHTO  H159 1021   4.951   1.483   2.101  0.1068 -0.7717  1.0332
    3CHTO   O53 1022   5.163   1.430   2.094 -0.7373  0.2656 -0.4473
    3CHTO   C82 1023   5.182   1.294   2.141 -0.0695 -0.3022 -0.6129
    3CHTO  H154 1024   5.099   1.242   2.094  1.9398 -2.1819 -2.1490
    3CHTO   C89 1025   5.307   1.246   2.063  0.5146  0.4249 -0.4885
    3CHTO   O59 1026   5.382   1.128   2.110  0.5281  0.4126  0.3453
    3CHTO  H137 1027   5.360   1.053   2.059 -0.7023 -2.4130  4.7700
    3CHTO   O45 1028   5.076   1.669   2.144  0.1699  0.3034  0.6394
    3CHTO   C67 1029   5.211   1.708   2.125  0.5591 -0.6248 -0.0406
    3CHTO  H124 1030   5.287   1.634   2.148 -0.6684 -0.8586  3.5378
    3CHTO   C65 1031   5.229   1.753   1.975 -0.9196 -0.7254  0.6174
    3CHTO  H122 1032   5.134   1.797   1.943  0.4143  1.0696 -1.0456
    3CHTO   O44 1033   5.243   1.632   1.902 -0.7691 -0.7196  0.4769
    3CHTO  H102 1034   5.311   1.579   1.939  1.2416 -0.5361 -2.8239
    3CHTO   C63 1035   5.348   1.864   1.954 -0.2920  0.1279  0.3829
    3CHTO  H120 1036   5.307   1.964   1.966 -1.0683 -0.2063  0.5375
    3CHTO   N11 1037   5.418   1.869   1.817 -0.0155 -0.1614  0.1961
    3CHTO  H108 1038   5.390   1.779   1.767  0.8745 -1.6558  2.3163
    3CHTO  H109 1039   5.524   1.879   1.828  0.3412 -2.5141 -0.8293
    3CHTO   C61 1040   5.449   1.854   2.076  0.0970 -0.9474  0.6319
    3CHTO  H118 1041   5.500   1.950   2.059 -1.4735 -0.1587  0.2678
    3CHTO   O40 1042   5.385   1.862   2.202  0.1026 -0.1749 -0.3009
    3CHTO   C68 1043   5.244   1.828   2.218 -0.7775 -0.7773  0.1300
    3CHTO  H125 1044   5.184   1.920   2.202 -1.6112 -1.0351  1.6098
    3CHTO   C72 1045   5.236   1.789   2.363 -0.0656 -0.0696 -0.0353
    3CHTO   O48 1046   5.249   1.892   2.460 -0.3428  0.0570 -0.5620
    3CHTO  H105 1047   5.186   1.961   2.452 -0.2580  0.0999 -0.8674
    3CHTO   O38 1048   5.527   1.737   2.064 -0.0252  0.2022  0.2361
    3CHTO   C55 1049   5.641   1.726   2.152  0.1215  0.0717  0.1941
    3CHTO  H112 1050   5.613   1.764   2.251 -3.7074 -2.7571  0.3052
    3CHTO   C56 1051   5.776   1.801   2.090  0.2147  0.6037  0.2604
    3CHTO  H113 1052   5.787   1.762   1.988  2.1726  0.3294  0.5651
    3CHTO   O42 1053   5.754   1.943   2.072  0.6432  0.2618 -0.2614
    3CHTO  H100 1054   5.664   1.962   2.053  0.3123 -0.5689  0.4217
    3CHTO   C57 1055   5.901   1.766   2.176 -0.8130 -0.1882 -0.4973
    3CHTO  H114 1056   5.891   1.815   2.273 -1.5462 -2.3793  0.5817
    3CHTO   N10 1057   6.032   1.810   2.123  0.2373  0.0453  0.3946
    3CHTO  H106 1058   6.036   1.795   2.016 -1.4535 -2.2636  0.6251
    3CHTO  H107 1059   6.112   1.761   2.176  0.1590  2.0305  2.4160
    3CHTO   C58 1060   5.897   1.614   2.197  0.1469  0.2816 -0.6972
    3CHTO  H115 1061   5.908   1.562   2.100  3.1177  1.9506 -1.3057
    3CHTO   O37 1062   5.777   1.576   2.277 -0.4951 -0.1674  0.5561
    3CHTO   C59 1063   5.675   1.570   2.176  0.1510  0.2525  0.1612
    3CHTO  H116 1064   5.698   1.526   2.080 -2.0142 -0.5906  0.0004
    3CHTO   C70 1065   5.549   1.501   2.231 -0.0255 -0.5367 -0.0783
    3CHTO   O46 1066   5.578   1.363   2.266  0.3193  0.4630  0.0087
    3CHTO  H103 1067   5.581   1.306   2.191 -0.5881  0.4131  0.0068
    3CHTO   O39 1068   6.035   1.558   2.295 -0.1216 -0.6084  0.4338
    3CHTO   C60 1069   6.041   1.414   2.303  0.5278  0.3186 -0.2070
    3CHTO  H117 1070   5.947   1.368   2.271 -2.0141  4.0186  1.6543
    3CHTO   C62 1071   6.165   1.371   2.204 -0.6728  0.5612 -0.4478
    3CHTO  H119 1072   6.138   1.415   2.106 -0.9527  0.2627 -0.5055
    3CHTO   O43 1073   6.289   1.418   2.260  0.5341 -0.3635  0.5934
    3CHTO  H101 1074   6.266   1.502   2.294  1.3441  1.0161 -2.1445
    3CHTO   C66 1075   6.161   1.209   2.206 -0.1135  0.6509  0.3292
    3CHTO  H123 1076   6.064   1.169   2.177 -0.3509  1.3238  0.1840
    3CHTO   N12 1077   6.261   1.147   2.117  0.3772 -1.2518  0.2524
    3CHTO  H110 1078   6.218   1.055   2.079  0.0743 -0.7396 -0.6659
    3CHTO  H111 1079   6.358   1.138   2.165  0.9327  0.4650 -0.5126
    3CHTO   C69 1080   6.166   1.151   2.354 -0.6406  0.3090  0.2614
    3CHTO  H126 1081   6.269   1.169   2.393 -0.1847 -2.9888  0.6880
    3CHTO   O41 1082   6.045   1.226   2.453 -0.3807 -0.4652  0.9502
    3CHTO   C64 1083   6.065   1.362   2.452  0.1905 -0.5307  0.2089
    3CHTO  H121 1084   6.167   1.391   2.482  0.6220  0.0528 -1.7314
    3CHTO   C71 1085   5.967   1.439   2.547  0.4737 -0.4453 -0.1228
    3CHTO   O47 1086   5.829   1.411   2.528 -0.0038  0.7541  0.1926
    3CHTO  H104 1087   5.796   1.364   2.602 -1.4972 -0.7283 -1.3646
    3CHTO   O34 1088   6.149   0.999   2.356  0.4949 -0.6411  0.2173
    3CHTO   C49 1089   6.228   0.858   2.350 -0.7360 -0.0156 -0.2615
    3CHTO   H91 1090   6.271   0.855   2.250  0.3730 -0.0847  0.2082
    3CHTO   C47 1091   6.129   0.742   2.358  0.1236  0.4510  0.1861
    3CHTO   H89 1092   6.104   0.738   2.250  0.3694 -0.5470  0.1547
    3CHTO   O33 1093   6.013   0.776   2.438 -0.1737 -0.0264 -0.3275
    3CHTO   H70 1094   5.952   0.837   2.403 -0.8818  0.5896  1.9157
    3CHTO   C45 1095   6.207   0.597   2.400  0.1108  0.6121 -0.6633
    3CHTO   H87 1096   6.201   0.584   2.509 -0.2038  1.2070 -0.6067
    3CHTO    N8 1097   6.135   0.481   2.337  0.0630 -0.1748  0.0824
    3CHTO   H75 1098   6.031   0.493   2.363 -0.3318  0.4248 -1.6844
    3CHTO   H76 1099   6.172   0.387   2.376 -1.3379 -0.5642  0.5117
    3CHTO   C43 1100   6.359   0.606   2.364  0.2196 -0.4350 -0.1510
    3CHTO   H85 1101   6.400   0.510   2.394  2.1845  0.8415  1.3598
    3CHTO   O29 1102   6.423   0.717   2.435 -0.2056  0.3638  0.0284
    3CHTO   C50 1103   6.348   0.838   2.452 -0.2180  0.3458  0.3767
    3CHTO   H92 1104   6.312   0.846   2.556 -0.5080  0.9351  0.2355
    3CHTO   C54 1105   6.457   0.951   2.433 -0.3604 -0.0046  0.3366
    3CHTO   O36 1106   6.520   0.948   2.314 -0.1273  0.9214  0.0689
    3CHTO   H72 1107   6.599   0.999   2.310  0.8186 -0.6055 -1.8602
    3CHTO   O27 1108   6.375   0.613   2.222 -0.5308  0.8354  0.0833
    3CHTO   C37 1109   6.499   0.646   2.159  0.0015  0.7729 -0.3431
    3CHTO   H79 1110   6.546   0.736   2.202  1.6837 -0.3605  0.2261
    3CHTO   C38 1111   6.614   0.540   2.180  0.3565 -0.1774  0.0783
    3CHTO   H80 1112   6.579   0.444   2.138 -0.3305 -0.7678  1.9247
    3CHTO   O31 1113   6.641   0.521   2.322  0.9702  0.5809  0.8214
    3CHTO   H68 1114   6.562   0.501   2.368  0.3193 -2.4315 -1.4595
    3CHTO   C39 1115   6.738   0.574   2.099  0.1894 -0.3779  0.0308
    3CHTO   H81 1116   6.778   0.665   2.143 -1.4987  0.4434 -0.0915
    3CHTO    N7 1117   6.846   0.473   2.106 -0.6044 -0.1822  0.3138
    3CHTO   H73 1118   6.853   0.440   2.208 -0.3511 -1.5054 -0.1204
    3CHTO   H74 1119   6.939   0.526   2.097 -1.0969  0.7644  0.7707
    3CHTO   C40 1120   6.706   0.618   1.950 -0.7000  0.0301  0.2229
    3CHTO   H82 1121   6.667   0.532   1.895  0.8133 -1.5755  1.6306
    3CHTO   O26 1122   6.610   0.722   1.958  0.5478  0.6467 -0.8789
    3CHTO   C41 1123   6.476   0.676   2.004 -0.4437  0.6116  0.5159
    3CHTO   H83 1124   6.444   0.594   1.939 -0.4749 -0.9779  2.5047
    3CHTO   C52 1125   6.384   0.794   1.982  0.1404 -0.2279  0.4514
    3CHTO   O35 1126   6.252   0.774   2.014  0.5037 -0.1527 -0.0262
    3CHTO   H71 1127   6.206   0.855   1.998  0.1882 -0.5183 -1.0231
    3CHTO   O28 1128   6.829   0.651   1.874  0.0137  0.0277  0.0637
    3CHTO   C42 1129   6.859   0.770   1.809 -0.4704 -0.1009 -0.0784
    3CHTO   H84 1130   6.961   0.755   1.775 -0.5745 -0.7055 -0.1223
    3CHTO   C44 1131   6.870   0.902   1.904  0.3263 -0.7237  0.2254
    3CHTO   H86 1132   6.770   0.937   1.930 -0.1205 -1.6882 -0.1830
    3CHTO   O32 1133   6.940   0.874   2.024 -0.1393  0.0925 -0.1961
    3CHTO   H69 1134   7.030   0.857   2.003 -0.3082 -0.2521 -0.6420
    3CHTO   C48 1135   6.928   1.026   1.828 -0.1779  0.4054  0.7176
    3CHTO   H90 1136   7.032   1.001   1.811  0.2663  2.6540  0.0334
    3CHTO    N9 1137   6.934   1.153   1.906  0.1916 -0.1193  0.6865
    3CHTO   H77 1138   6.965   1.233   1.840 -0.8439  1.1749  1.7323
    3CHTO   H78 1139   6.985   1.143   2.000  1.3976  0.7953  0.1448
    3CHTO   C51 1140   6.843   1.048   1.694 -0.2424  0.2466 -0.8493
    3CHTO   H93 1141   6.743   1.074   1.730  0.5988 -0.9231  2.5369
    3CHTO   O30 1142   6.845   0.926   1.618  0.8080  0.2528  0.6209
    3CHTO   C46 1143   6.781   0.805   1.688 -0.4166 -1.1141 -0.0845
    3CHTO   H88 1144   6.677   0.830   1.712 -0.4260 -0.2215 -0.9888
    3CHTO   C53 1145   6.775   0.689   1.590 -0.4966  0.2090 -0.4013
    3CHTO   O72 1146   6.700   0.716   1.471  0.1176  0.1722  0.5013
    3CHTO  H199 1147   6.613   0.683   1.461 -0.4800  1.7238  0.3539
    3CHTO   O22 1148   6.888   1.152   1.601 -0.3662  0.1595 -0.2928
    3CHTO   C31 1149   6.793   1.252   1.547 -0.7573 -0.8342  0.2402
    3CHTO   H59 1150   6.809   1.240   1.438  0.3764  1.9107  0.0678
    3CHTO   C29 1151   6.640   1.242   1.582 -0.4154  0.4002 -0.7463
    3CHTO   H57 1152   6.620   1.256   1.690 -0.2143 -0.9376 -0.5257
    3CHTO   O21 1153   6.586   1.113   1.547  0.4957  0.2594 -0.0009
    3CHTO   H37 1154   6.644   1.044   1.570 -1.0715 -0.8634  0.6557
    3CHTO   C27 1155   6.553   1.346   1.502  0.6182  0.8164 -0.1865
    3CHTO   H55 1156   6.565   1.319   1.396 -0.2430  1.0853 -0.3600
    3CHTO    N5 1157   6.408   1.343   1.533 -0.1924  0.4651 -0.0840
    3CHTO   H43 1158   6.400   1.322   1.639  1.4245  0.9507  0.1369
    3CHTO   H44 1159   6.359   1.252   1.500 -0.8191 -0.8958  4.2823
    3CHTO   C25 1160   6.618   1.487   1.521  0.3104 -0.4170  0.5041
    3CHTO   H53 1161   6.610   1.513   1.627 -1.3458 -0.2532  0.3535
    3CHTO   O17 1162   6.759   1.485   1.499 -0.6476  0.4089  0.5695
    3CHTO   C32 1163   6.842   1.396   1.574  1.5773  0.2856 -0.5643
    3CHTO   H60 1164   6.828   1.411   1.681  0.4925  2.0650 -0.9367
    3CHTO   C36 1165   6.985   1.418   1.532 -0.3888  0.3361  0.2609
    3CHTO   O25 1166   7.031   1.537   1.591  0.1124  0.0219  0.5871
    3CHTO   H40 1167   7.057   1.594   1.521  0.1047 -0.2579  0.3596
    3CHTO   O15 1168   6.551   1.593   1.431 -0.3323 -0.7041  0.1260
    3CHTO   C19 1169   6.503   1.628   1.299 -0.4927  0.3071  0.0677
    3CHTO   H47 1170   6.453   1.537   1.262 -0.0447  0.2516 -0.4090
    3CHTO   C20 1171   6.393   1.738   1.303 -0.4036  0.0338  0.1795
    3CHTO   H48 1172   6.423   1.820   1.370 -0.0862  1.0650 -1.1992
    3CHTO   O19 1173   6.274   1.675   1.357 -0.3243  0.0676  0.1139
    3CHTO   H35 1174   6.276   1.653   1.448 -2.1828 -0.1418  0.1243
    3CHTO   C21 1175   6.358   1.805   1.161 -0.6113  0.4402  0.1011
    3CHTO   H49 1176   6.303   1.737   1.097  0.5766 -1.2626  0.8656
    3CHTO    N4 1177   6.274   1.926   1.170  0.3463  0.0181  0.5393
    3CHTO   H41 1178   6.278   1.970   1.268  1.3014 -1.0176  0.9869
    3CHTO   H42 1179   6.172   1.902   1.145  0.5438  0.9586 -1.2708
    3CHTO   C22 1180   6.485   1.834   1.082 -0.7099  0.1931 -0.9739
    3CHTO   H50 1181   6.529   1.921   1.130  0.8704 -0.6003 -0.9513
    3CHTO   O14 1182   6.557   1.716   1.073 -0.1394  0.4885 -0.2150
    3CHTO   C23 1183   6.615   1.670   1.198 -0.1013 -0.0096  0.2159
    3CHTO   H51 1184   6.682   1.747   1.240  0.3600 -0.1033 -0.3362
    3CHTO   C34 1185   6.707   1.552   1.161  0.2039 -0.1787 -0.3036
    3CHTO   O23 1186   6.813   1.598   1.080  0.0500  0.1776  0.0257
    3CHTO   H38 1187   6.893   1.599   1.130 -0.1971  0.5598  0.4153
    3CHTO   O16 1188   6.468   1.860   0.938 -0.4613 -0.2243  0.2175
    3CHTO   C24 1189   6.517   2.004   0.882  0.5665  0.1920  0.3322
    3CHTO   H52 1190   6.542   2.075   0.961 -0.1849  1.2745 -0.3967
    3CHTO   C26 1191   6.405   2.052   0.789  0.5943  0.2845  0.5120
    3CHTO   H54 1192   6.382   1.973   0.715 -0.9293  1.3671 -0.1972
    3CHTO   O20 1193   6.291   2.086   0.863 -0.8309  0.4036  0.1524
    3CHTO   H36 1194   6.216   2.088   0.807  0.0369 -0.0592 -1.0544
    3CHTO   C30 1195   6.455   2.175   0.707  0.2161  0.2533  0.5116
    3CHTO   H58 1196   6.471   2.264   0.770  1.4050  0.9005 -0.6638
    3CHTO    N6 1197   6.361   2.210   0.598  0.2763  0.3492 -0.2156
    3CHTO   H45 1198   6.362   2.120   0.538  2.1043 -0.7752  1.4327
    3CHTO   H46 1199   6.260   2.223   0.634  0.2911 -1.6507  0.6456
    3CHTO   C33 1200   6.596   2.152   0.644 -0.0734  0.6960 -0.8417
    3CHTO   H61 1201   6.587   2.072   0.569 -0.1667 -1.2537  1.1959
    3CHTO   O18 1202   6.685   2.116   0.752 -0.1509  0.1342 -0.2206
    3CHTO   C28 1203   6.653   1.984   0.801 -0.0388 -0.6481  0.0205
    3CHTO   H56 1204   6.639   1.916   0.717  1.3117  1.8994 -2.3225
    3CHTO   C35 1205   6.765   1.923   0.890 -0.2557 -0.8570 -0.8502
    3CHTO   O24 1206   6.881   1.884   0.820  0.1085  0.3327  0.5609
    3CHTO   H39 1207   6.958   1.889   0.873  0.6596 -0.8298 -0.1011
    3CHTO    O9 1208   6.645   2.265   0.562 -0.3306  0.4481 -0.1954
    3CHTO   C13 1209   6.722   2.392   0.656  0.3551  0.3429 -0.2036
    3CHTO   H26 1210   6.694   2.386   0.763 -2.5919 -1.7314 -1.0347
    3CHTO   C11 1211   6.688   2.534   0.601  0.6685 -0.2701 -0.7744
    3CHTO   H24 1212   6.580   2.553   0.610  0.4212 -0.4859 -3.0225
    3CHTO    O8 1213   6.709   2.541   0.459 -0.5117  0.1730  0.2193
    3CHTO    H3 1214   6.651   2.498   0.400 -0.0526  0.2715 -0.3155
    3CHTO    C9 1215   6.752   2.642   0.694 -0.0718 -0.8880  0.4702
    3CHTO   H22 1216   6.720   2.619   0.797  0.5974 -0.8883  0.6787
    3CHTO    N2 1217   6.710   2.778   0.654 -0.0077  1.0976 -0.0060
    3CHTO   H10 1218   6.764   2.853   0.711 -1.9688  0.3493  2.9268
    3CHTO   H11 1219   6.603   2.789   0.656 -0.2454 -0.6884 -1.4256
    3CHTO    C7 1220   6.911   2.619   0.694 -0.1529 -0.3967 -0.7746
    3CHTO   H20 1221   6.949   2.688   0.772 -0.7630  1.6909 -2.2696
    3CHTO    O4 1222   6.951   2.482   0.726 -0.4591  0.0314  0.0690
    3CHTO   C14 1223   6.881   2.369   0.665  0.3466 -0.1159 -0.1292
    3CHTO   H27 1224   6.902   2.287   0.737 -0.3610 -0.2077 -0.0203
    3CHTO   C18 1225   6.940   2.327   0.531  0.4643  0.7967 -0.1714
    3CHTO   O13 1226   7.073   2.273   0.545  0.0468 -0.6050  0.3327
    3CHTO    H7 1227   7.140   2.332   0.572 -0.9970  0.5593  0.4064
    3CHTO    O2 1228   6.980   2.663   0.558  0.5316  0.1081 -0.1091
    3CHTO    C1 1229   7.121   2.654   0.542 -0.2035 -0.2184  0.6477
    3CHTO   H14 1230   7.149   2.546   0.540  0.4215 -0.0585  0.6648
    3CHTO    C2 1231   7.213   2.714   0.661 -0.7356 -0.0683  0.2500
    3CHTO   H15 1232   7.163   2.810   0.683 -0.8447 -0.1002  0.1438
    3CHTO    O6 1233   7.207   2.631   0.769 -0.8453 -0.1701 -0.5247
    3CHTO    H1 1234   7.281   2.641   0.826  0.1054 -2.2656 -1.3295
    3CHTO    C3 1235   7.354   2.751   0.612  0.0180  0.1128  0.3265
    3CHTO   H16 1236   7.412   2.659   0.594  1.2050  0.7000  1.0802
    3CHTO    N1 1237   7.440   2.823   0.718  0.2966  0.1754 -0.0491
    3CHTO    H8 1238   7.389   2.911   0.755  1.0682  0.7126 -0.2633
    3CHTO    H9 1239   7.476   2.754   0.794 -0.6512 -0.7951 -0.4643
    3CHTO    C4 1240   7.354   2.828   0.479  0.5431  1.1444  0.9304
    3CHTO   H17 1241   7.309   2.926   0.495  0.4675  1.1768  0.5258
    3CHTO    O1 1242   7.286   2.741   0.379 -0.4286  0.6547 -0.0170
    3CHTO    C5 1243   7.151   2.728   0.406  0.3563  0.1905  0.4122
    3CHTO   H18 1244   7.110   2.828   0.424 -1.4001  0.1996 -3.2713
    3CHTO   C16 1245   7.081   2.671   0.288  0.6382  0.6596 -0.5506
    3CHTO   O11 1246   7.116   2.531   0.267  0.4829 -0.0728 -0.2368
    3CHTO    H5 1247   7.102   2.511   0.176 -1.1291 -0.3040  0.0568
    3CHTO    O3 1248   7.488   2.844   0.425  0.0173  0.3758  0.4580
    3CHTO    C6 1249   7.501   2.951   0.329  0.2547  0.3361 -0.3360
    3CHTO   H19 1250   7.410   2.999   0.295  1.1135  0.8427 -1.9708
    3CHTO    C8 1251   7.592   3.065   0.398 -0.4222  0.0127 -0.4674
    3CHTO   H21 1252   7.686   3.018   0.428  0.0932  0.3726 -1.4994
    3CHTO    O7 1253   7.524   3.102   0.512  0.5047 -0.4457 -0.5012
    3CHTO    H2 1254   7.543   3.049   0.586 -1.1611 -0.6856 -0.2247
    3CHTO   C12 1255   7.616   3.181   0.290  0.1329 -0.2810 -0.1863
    3CHTO   H25 1256   7.520   3.228   0.263 -0.0973 -0.8055 -0.2881
    3CHTO    N3 1257   7.706   3.292   0.344  0.1468 -0.3043  0.1485
    3CHTO   H12 1258   7.647   3.335   0.424 -2.0507 -1.4900 -0.7696
    3CHTO   H13 1259   7.794   3.240   0.376 -0.7305 -2.1353 -0.3558
    3CHTO   C15 1260   7.676   3.123   0.156 -0.0914 -0.6718  0.5039
    3CHTO   H28 1261   7.778   3.087   0.170 -1.1117 -3.1877  1.7177
    3CHTO   O10 1262   7.670   3.233   0.035 -0.3422 -0.0674 -0.2534
    3CHTO    H4 1263   7.747   3.228  -0.019 -0.8901 -1.0052 -0.9577
    3CHTO    O5 1264   7.597   3.010   0.116 -0.1442  0.2509 -0.1198
    3CHTO   C10 1265   7.577   2.899   0.203  0.2615  0.2850  0.1174
    3CHTO   H23 1266   7.669   2.848   0.230  0.9174  1.6388  0.4559
    3CHTO   C17 1267   7.490   2.798   0.114 -0.0293  0.1201 -0.1924
    3CHTO   O12 1268   7.561   2.758   0.002 -0.3905 -0.1428  0.5659
    3CHTO    H6 1269   7.537   2.673  -0.030  1.0177 -1.0185  1.7491
    4CHTO  H203 1270   5.575   8.047   2.527 -0.5840 -2.9709  0.5162
    4CHTO   O82 1271   5.491   8.052   2.570 -0.5910 -0.4870  0.3162
    4CHTO  C123 1272   5.437   8.190   2.561 -0.4017 -0.2555 -0.2799
    4CHTO  H227 1273   5.330   8.192   2.589 -0.5255  0.3642 -0.7848
    4CHTO   O77 1274   5.526   8.255   2.657  0.8535  0.3119 -0.3622
    4CHTO  C118 1275   5.509   8.400   2.682  0.1780 -0.4503  0.8275
    4CHTO  H222 1276   5.414   8.424   2.731  0.7905  0.3635  1.6241
    4CHTO  C125 1277   5.621   8.441   2.780 -0.2949 -0.3623  0.0806
    4CHTO   O84 1278   5.598   8.571   2.841  0.1580 -0.5014  0.0194
    4CHTO  H205 1279   5.676   8.591   2.890  0.8019  0.1340 -1.2421
    4CHTO  C114 1280   5.520   8.465   2.545 -0.2263  0.3781  0.1286
    4CHTO  H218 1281   5.621   8.465   2.505 -0.4860 -1.4256 -0.5479
    4CHTO  C116 1282   5.432   8.405   2.425 -0.7590  0.4869 -0.1785
    4CHTO  H220 1283   5.324   8.420   2.445 -1.3428 -2.7446 -0.6298
    4CHTO   O79 1284   5.468   8.460   2.295  0.0984  0.2446  0.0299
    4CHTO  H201 1285   5.421   8.439   2.217 -4.7733  2.3771  2.2265
    4CHTO  C120 1286   5.459   8.252   2.418  0.9240 -0.8506 -0.7403
    4CHTO  H224 1287   5.563   8.241   2.380  1.0224  0.4762 -0.8719
    4CHTO   N21 1288   5.367   8.184   2.322 -0.2674 -0.0969  0.2372
    4CHTO  H211 1289   5.411   8.172   2.224  0.5998 -0.5117  0.6716
    4CHTO  H212 1290   5.346   8.084   2.355  1.2763 -0.8550 -1.0260
    4CHTO   O75 1291   5.475   8.603   2.567  0.2602  0.6247  0.0566
    4CHTO  C112 1292   5.577   8.740   2.519  0.3102 -0.7362 -0.3874
    4CHTO  H216 1293   5.611   8.718   2.417 -2.4596 -0.0142 -1.5041
    4CHTO   O73 1294   5.689   8.746   2.610  0.2922  0.2146  0.1185
    4CHTO  C113 1295   5.791   8.831   2.571 -0.3417 -0.5334  0.4009
    4CHTO  H217 1296   5.832   8.792   2.475  2.0639  2.0342  0.3064
    4CHTO  C124 1297   5.899   8.814   2.673  0.4994 -0.2238  0.4640
    4CHTO   O83 1298   5.951   8.681   2.679 -0.3117  0.1173 -1.2129
    4CHTO  H204 1299   6.034   8.680   2.723 -1.4905  0.7477  1.0726
    4CHTO  C109 1300   5.741   8.976   2.548 -0.8789  0.7063 -0.1087
    4CHTO  H213 1301   5.725   9.018   2.648  1.6505 -1.2025  1.1540
    4CHTO  C110 1302   5.605   8.990   2.476 -0.0929 -0.1436  0.2443
    4CHTO  H214 1303   5.621   8.986   2.368 -0.4670 -3.2270  0.2510
    4CHTO   O78 1304   5.551   9.123   2.499 -0.3846 -0.2458 -0.3110
    4CHTO  H200 1305   5.619   9.183   2.524  0.2721 -1.8061  1.7934
    4CHTO  C111 1306   5.506   8.877   2.518  0.2077 -0.8647 -0.1086
    4CHTO  H215 1307   5.478   8.889   2.624 -0.8494  0.0402 -0.4859
    4CHTO   N19 1308   5.380   8.875   2.437  1.1555 -0.0104  0.2567
    4CHTO  H207 1309   5.356   8.974   2.401  1.5965 -0.3961 -1.1317
    4CHTO  H208 1310   5.296   8.833   2.490 -1.6414  2.9550 -1.6536
    4CHTO   O74 1311   5.852   9.050   2.471 -0.4044  0.2775 -0.3916
    4CHTO  C115 1312   5.845   9.223   2.460  0.1445 -0.6055  0.4777
    4CHTO  H219 1313   5.764   9.255   2.395  0.7543 -0.2048 -0.0859
    4CHTO   O76 1314   5.816   9.297   2.612  0.1404 -0.0789 -0.5170
    4CHTO  C122 1315   5.804   9.440   2.600  0.1251 -0.1491  0.0252
    4CHTO  H226 1316   5.805   9.470   2.705  0.7500 -3.1742  0.9466
    4CHTO  C126 1317   5.653   9.473   2.549  0.2981 -0.9222  0.2620
    4CHTO   O85 1318   5.622   9.610   2.563  0.5637 -0.6405 -0.7409
    4CHTO  H206 1319   5.676   9.656   2.501  1.0993  2.4428  1.8347
    4CHTO  C121 1320   5.923   9.512   2.522  0.5036  0.5571 -0.3943
    4CHTO  H225 1321   5.914   9.621   2.504  1.0920  0.7436  0.4426
    4CHTO   O81 1322   6.040   9.514   2.605  0.1000  0.0298 -0.7008
    4CHTO  H202 1323   6.118   9.539   2.559  0.8392  0.8098  0.9233
    4CHTO  C119 1324   5.955   9.437   2.383  0.0820 -0.6696  0.1918
    4CHTO  H223 1325   5.864   9.446   2.324 -0.6627 -1.3464  1.2137
    4CHTO  C117 1326   5.979   9.284   2.398 -0.0724 -0.1688 -0.5986
    4CHTO  H221 1327   6.065   9.262   2.463  1.4673 -0.5361 -2.7082
    4CHTO   N20 1328   6.020   9.225   2.263 -0.0378  0.2766 -0.2349
    4CHTO  H209 1329   6.040   9.119   2.261 -0.3219  0.2370 -1.6983
    4CHTO  H210 1330   5.938   9.234   2.193  1.2212 -1.3549 -1.9699
    4CHTO   O80 1331   6.077   9.523   2.283 -0.3335 -0.0978  0.0317
    4CHTO  C103 1332   6.212   9.581   2.342 -0.0128 -0.1103 -0.5252
    4CHTO  H190 1333   6.187   9.649   2.424 -0.5499  0.6977 -1.3426
    4CHTO  C101 1334   6.332   9.484   2.382 -0.4298  0.0738 -0.3761
    4CHTO  H188 1335   6.340   9.411   2.301 -1.7640 -0.6708  0.1593
    4CHTO   O68 1336   6.289   9.418   2.494  0.4338  0.6808 -0.2184
    4CHTO  H168 1337   6.284   9.326   2.477  0.3674  0.7488 -0.5817
    4CHTO   C99 1338   6.470   9.558   2.405  0.4949  0.5292 -0.1535
    4CHTO  H186 1339   6.451   9.626   2.491 -0.9562  0.0253 -0.0627
    4CHTO   N17 1340   6.583   9.467   2.431 -0.1899 -0.0582  0.1726
    4CHTO  H174 1341   6.575   9.405   2.519 -0.4533  0.7614  0.7385
    4CHTO  H175 1342   6.615   9.416   2.342 -2.2588  0.7747 -1.0690
    4CHTO   C97 1343   6.500   9.655   2.282  0.0923  0.2360 -0.2039
    4CHTO  H184 1344   6.521   9.595   2.193 -0.8162  0.1817 -0.3789
    4CHTO   O64 1345   6.385   9.741   2.260  0.4009 -0.1522 -0.1467
    4CHTO  C104 1346   6.266   9.671   2.227  0.5819  0.4751 -0.8877
    4CHTO  H191 1347   6.288   9.606   2.141 -0.2363  0.6140 -1.2008
    4CHTO  C108 1348   6.156   9.769   2.178 -0.2567  0.1827 -0.5239
    4CHTO   O71 1349   6.214   9.855   2.081 -0.2601  0.5559  0.1875
    4CHTO  H171 1350   6.147   9.873   2.017 -1.7490  1.5029  1.9765
    4CHTO   O62 1351   6.607   9.750   2.317  0.2114  0.0435 -0.6357
    4CHTO   C91 1352   6.638   9.847   2.211  0.4557 -0.7239  0.4603
    4CHTO  H178 1353   6.564   9.828   2.133  0.0369 -0.6313  0.8332
    4CHTO   C92 1354   6.780   9.817   2.157  0.5665 -0.3247  0.0812
    4CHTO  H179 1355   6.853   9.852   2.232 -0.9057  0.5634  1.1293
    4CHTO   O66 1356   6.793   9.675   2.140 -0.2128  0.0731 -0.9972
    4CHTO  H166 1357   6.880   9.646   2.162 -0.0231  0.6826 -0.9518
    4CHTO   C93 1358   6.803   9.898   2.025  0.4396  0.0673  0.3715
    4CHTO  H180 1359   6.742   9.850   1.947 -0.5745  1.6097  0.2118
    4CHTO   N16 1360   6.943   9.889   1.969  0.2246 -0.2333  0.4288
    4CHTO  H172 1361   6.943   9.808   1.897 -0.6130  0.2670 -0.1399
    4CHTO  H173 1362   7.014   9.882   2.051  1.4838  0.1001 -0.6075
    4CHTO   C94 1363   6.758  10.051   2.040  0.2166  0.0367 -0.0402
    4CHTO  H181 1364   6.844  10.117   2.028  0.9763 -1.1245 -1.1688
    4CHTO   O61 1365   6.717  10.089   2.178 -0.2299  0.1997  0.2280
    4CHTO   C95 1366   6.630   9.998   2.253 -0.0376  0.1470  0.0568
    4CHTO  H182 1367   6.659  10.001   2.358 -0.5839  1.9204  0.1626
    4CHTO  C106 1368   6.476  10.043   2.241 -0.2268 -0.1125  0.0573
    4CHTO   O69 1369   6.437  10.178   2.282  0.4935  0.1836 -0.4143
    4CHTO  H169 1370   6.372  10.178   2.349  1.9853  0.3586  1.0581
    4CHTO   O63 1371   6.615  10.091   1.943  0.1055  0.0485 -0.1580
    4CHTO   C96 1372   6.642  10.059   1.782 -0.3918  0.5775  0.6756
    4CHTO  H183 1373   6.735  10.003   1.779 -0.6891 -0.0523  2.5177
    4CHTO   C98 1374   6.655  10.183   1.697  0.2662  0.3156  0.1569
    4CHTO  H185 1375   6.556  10.231   1.693  0.4706  0.5436 -3.3950
    4CHTO   O67 1376   6.743  10.279   1.767 -0.0923  0.2931 -0.6654
    4CHTO  H167 1377   6.748  10.360   1.720 -0.4447 -0.6060 -2.3138
    4CHTO  C102 1378   6.707  10.147   1.557 -0.3722  0.2090  0.2686
    4CHTO  H189 1379   6.814  10.126   1.574  0.3474  2.9166 -0.5334
    4CHTO   N18 1380   6.710  10.259   1.461  0.6481  0.1652 -0.3988
    4CHTO  H176 1381   6.807  10.305   1.447  0.9523 -0.7166 -1.2591
    4CHTO  H177 1382   6.639  10.330   1.502  1.8333  1.6550 -0.8741
    4CHTO  C105 1383   6.650  10.017   1.500  0.3612  0.3871 -0.1293
    4CHTO  H192 1384   6.556  10.042   1.451 -0.3300 -1.0876  0.4055
    4CHTO   O65 1385   6.618   9.916   1.597 -0.1241  0.3340 -0.6283
    4CHTO  C100 1386   6.549   9.958   1.713  0.1966  0.1532 -0.5536
    4CHTO  H187 1387   6.451  10.000   1.689  1.0143  1.0916 -2.3167
    4CHTO  C107 1388   6.533   9.833   1.795 -1.2755  0.4564 -0.6261
    4CHTO   O70 1389   6.427   9.858   1.890 -0.1043  0.2863 -0.0617
    4CHTO  H170 1390   6.448   9.927   1.949  0.3233 -0.8005  1.0829
    4CHTO   O57 1391   6.758   9.962   1.387  0.3188 -0.4040  0.5275
    4CHTO   C85 1392   6.697   9.922   1.266 -0.9383  0.3864  0.3979
    4CHTO  H157 1393   6.614   9.994   1.254 -0.3883  0.5641 -2.9609
    4CHTO   C83 1394   6.643   9.774   1.286 -0.1165 -0.1872 -0.3146
    4CHTO  H155 1395   6.559   9.781   1.355  0.1419 -2.3849  0.2845
    4CHTO   O56 1396   6.741   9.685   1.345  0.3634  0.2187  0.0478
    4CHTO  H135 1397   6.762   9.727   1.426  0.7039 -0.6279  0.3994
    4CHTO   C81 1398   6.583   9.729   1.147 -0.4999 -0.1555  0.0186
    4CHTO  H153 1399   6.513   9.807   1.118 -0.5019  0.5993  1.9791
    4CHTO   N14 1400   6.523   9.593   1.146  0.2299  0.4373 -0.3778
    4CHTO  H141 1401   6.436   9.591   1.083  0.1689  1.1086 -0.3189
    4CHTO  H142 1402   6.501   9.558   1.244  0.6756 -1.2811 -0.8835
    4CHTO   C79 1403   6.711   9.734   1.043 -0.0489 -0.4378 -0.3217
    4CHTO  H151 1404   6.671   9.707   0.945 -0.1020 -2.0525  0.1357
    4CHTO   O52 1405   6.760   9.863   1.021  0.8121  0.2064  0.4387
    4CHTO   C86 1406   6.797   9.933   1.149 -0.3670  0.1860 -0.3258
    4CHTO  H158 1407   6.897   9.892   1.175  0.6972  2.2793 -0.9712
    4CHTO   C90 1408   6.829  10.084   1.121 -0.0734  0.0654 -0.6680
    4CHTO   O60 1409   6.943  10.105   1.033  0.0875 -0.4855 -0.2309
    4CHTO  H138 1410   6.907  10.125   0.948 -1.5667 -2.3110  0.0046
    4CHTO   O50 1411   6.828   9.655   1.078 -0.3870 -0.4501 -0.1251
    4CHTO   C73 1412   6.942   9.603   1.006 -0.2502  0.2802  0.1955
    4CHTO  H145 1413   7.002   9.692   0.986 -0.3118 -0.0884 -1.6612
    4CHTO   C74 1414   6.904   9.539   0.866 -0.3967 -0.6260  0.4053
    4CHTO  H146 1415   6.859   9.609   0.795 -0.3889 -1.6204 -0.5891
    4CHTO   O54 1416   7.028   9.500   0.807  0.6277 -0.3021 -0.0545
    4CHTO  H133 1417   7.017   9.470   0.719  0.7880  0.7105 -0.4256
    4CHTO   C75 1418   6.814   9.414   0.891 -0.0252  0.0440  0.1542
    4CHTO  H147 1419   6.723   9.453   0.940  1.5968  5.9534 -1.1215
    4CHTO   N13 1420   6.766   9.357   0.762 -0.2337 -0.7409  0.0842
    4CHTO  H139 1421   6.756   9.427   0.681  0.2226 -0.2085  0.4885
    4CHTO  H140 1422   6.672   9.305   0.768 -0.5006 -0.0987  1.9093
    4CHTO   C76 1423   6.892   9.313   0.978 -0.1871  0.2320  0.0228
    4CHTO  H148 1424   6.981   9.280   0.923 -0.2210 -0.3788  0.3314
    4CHTO   O49 1425   6.934   9.379   1.101 -0.7305 -0.2098  0.1689
    4CHTO   C77 1426   7.021   9.494   1.084  0.0047  0.0029 -0.5380
    4CHTO  H149 1427   7.116   9.465   1.040  0.1357 -0.6610  0.1756
    4CHTO   C88 1428   7.066   9.549   1.222  0.6074 -0.3729 -0.5097
    4CHTO   O58 1429   7.150   9.442   1.292 -0.0682 -0.0924 -0.6926
    4CHTO  H136 1430   7.114   9.356   1.277 -2.4478  0.9399 -1.1756
    4CHTO   O51 1431   6.802   9.191   1.028 -0.5698 -0.4976  0.0756
    4CHTO   C78 1432   6.886   9.062   1.099  0.3470  0.5293  0.6049
    4CHTO  H150 1433   6.811   8.982   1.115  0.6868  0.2581  0.8618
    4CHTO   C80 1434   6.951   9.098   1.240  0.7570  0.8472  0.3014
    4CHTO  H152 1435   7.024   9.181   1.227  1.2629  0.3187 -0.2735
    4CHTO   O55 1436   6.833   9.129   1.321 -0.1052  0.1669 -0.4946
    4CHTO  H134 1437   6.820   9.222   1.327  0.6895  0.1790  1.9672
    4CHTO   C84 1438   7.023   8.980   1.313 -0.2384 -0.3215  0.0927
    4CHTO  H156 1439   6.938   8.917   1.339 -0.8390 -0.0351 -1.1454
    4CHTO   N15 1440   7.089   9.016   1.444 -0.4316  0.4480 -0.1147
    4CHTO  H143 1441   7.163   9.091   1.432  0.7897 -0.5967  0.6952
    4CHTO  H144 1442   7.123   8.933   1.503 -0.7878  0.2645 -0.1643
    4CHTO   C87 1443   7.107   8.894   1.220 -0.2975  0.3300 -0.1929
    4CHTO  H159 1444   7.207   8.935   1.208  0.5299 -1.3957  0.7176
    4CHTO   O53 1445   7.024   8.865   1.080 -0.5820  0.3341  0.2294
    4CHTO   C82 1446   6.999   8.990   1.014 -0.5631 -0.6663 -0.2269
    4CHTO  H154 1447   7.087   9.053   1.002 -0.5880 -0.4013  0.9428
    4CHTO   C89 1448   6.950   8.960   0.878 -0.0799  0.5232  0.0353
    4CHTO   O59 1449   7.051   8.892   0.805  0.2726  0.3828  0.4642
    4CHTO  H137 1450   7.009   8.844   0.737  1.0953  1.3892 -0.7934
    4CHTO   O45 1451   7.131   8.746   1.291  0.2699  0.3732 -0.3052
    4CHTO   C67 1452   7.169   8.651   1.199  1.0579  0.6989  0.3829
    4CHTO  H124 1453   7.205   8.694   1.106 -0.4274  0.2732 -0.4100
    4CHTO   C65 1454   7.281   8.570   1.255  0.9400 -0.0955  0.5341
    4CHTO  H122 1455   7.347   8.642   1.304 -1.6912  1.1964  2.2967
    4CHTO   O44 1456   7.351   8.497   1.154  0.1128  0.0437 -0.1115
    4CHTO  H102 1457   7.435   8.461   1.176 -0.5494 -1.8940 -0.7205
    4CHTO   C63 1458   7.229   8.481   1.369 -0.0493  0.7787  0.4779
    4CHTO  H120 1459   7.191   8.544   1.450  1.8600  1.8758  0.5400
    4CHTO   N11 1460   7.346   8.419   1.444  0.5018  0.3928  0.5621
    4CHTO  H108 1461   7.339   8.313   1.434 -1.1475  0.2963  2.4664
    4CHTO  H109 1462   7.447   8.443   1.417  1.4797 -1.0035  2.8146
    4CHTO   C61 1463   7.111   8.386   1.323  0.4418  0.8473 -0.1550
    4CHTO  H118 1464   7.070   8.348   1.418  1.9979  0.0274  0.2069
    4CHTO   O40 1465   7.000   8.451   1.245  0.0454  0.4146 -0.3073
    4CHTO   C68 1466   7.042   8.559   1.155  0.0354 -0.1924 -0.1876
    4CHTO  H125 1467   6.956   8.628   1.146  1.7052  2.0100  0.3169
    4CHTO   C72 1468   7.072   8.494   1.014 -0.5361 -0.5522  0.4641
    4CHTO   O48 1469   6.952   8.466   0.955 -0.1857 -0.1068 -0.0006
    4CHTO  H105 1470   6.959   8.460   0.862 -0.0486  3.0445 -0.2343
    4CHTO   O38 1471   7.165   8.271   1.252 -0.2299 -0.2541 -0.3792
    4CHTO   C55 1472   7.086   8.153   1.254  0.7147  0.8798 -1.0307
    4CHTO  H112 1473   6.982   8.167   1.285  0.9777  0.8004 -0.0954
    4CHTO   C56 1474   7.162   8.062   1.364 -0.2465 -0.2656 -0.4361
    4CHTO  H113 1475   7.262   8.040   1.326 -1.0236  0.7363 -3.2072
    4CHTO   O42 1476   7.163   8.129   1.495  0.1025 -0.1340  0.1582
    4CHTO  H100 1477   7.235   8.089   1.541  1.3419  0.7575 -0.9575
    4CHTO   C57 1478   7.084   7.923   1.366  0.7396  0.5028  0.0279
    4CHTO  H114 1479   6.983   7.941   1.404  1.0819  1.1634  0.6278
    4CHTO   N10 1480   7.142   7.815   1.451  0.3957  0.0944  0.5615
    4CHTO  H106 1481   7.094   7.809   1.548 -0.9646 -0.3396 -0.1423
    4CHTO  H107 1482   7.248   7.835   1.461  0.1636  1.1383  0.9806
    4CHTO   C58 1483   7.074   7.859   1.223 -0.0726  0.0902 -0.0272
    4CHTO  H115 1484   7.177   7.844   1.186  0.0524 -1.8086  1.0308
    4CHTO   O37 1485   7.019   7.944   1.126  0.5075 -0.2641 -0.0234
    4CHTO   C59 1486   7.079   8.076   1.116  0.2903 -0.5955  0.0915
    4CHTO  H116 1487   7.181   8.070   1.078  0.1242 -0.2818 -0.4036
    4CHTO   C70 1488   6.994   8.162   1.017 -0.5205 -0.2175  0.0131
    4CHTO   O46 1489   6.859   8.180   1.054  0.7774 -0.2088  0.3530
    4CHTO  H103 1490   6.799   8.145   0.991  0.6730  0.7489 -0.0829
    4CHTO   O39 1491   6.987   7.714   1.214  0.6873  0.1500 -0.7401
    4CHTO   C60 1492   6.841   7.713   1.202  0.2860  0.0407  0.6460
    4CHTO  H117 1493   6.790   7.778   1.273 -0.9142 -0.5299  0.3347
    4CHTO   C62 1494   6.789   7.745   1.060 -0.6855 -0.6658 -1.0229
    4CHTO  H119 1495   6.823   7.849   1.040  0.6424 -0.8019  0.4118
    4CHTO   O43 1496   6.854   7.655   0.964 -0.0276 -0.4968  0.2596
    4CHTO  H101 1497   6.931   7.694   0.927 -1.0213  0.2726 -1.0188
    4CHTO   C66 1498   6.631   7.745   1.044 -0.5165 -0.3436  0.0859
    4CHTO  H123 1499   6.589   7.817   1.113  0.2076  0.2458 -0.0761
    4CHTO   N12 1500   6.586   7.805   0.915  0.2707 -0.0041  0.6188
    4CHTO  H110 1501   6.489   7.845   0.943 -0.6013 -1.6116 -0.0164
    4CHTO  H111 1502   6.659   7.878   0.886  1.1387 -0.4918  1.5494
    4CHTO   C69 1503   6.581   7.601   1.073  1.3471 -0.1405  0.5806
    4CHTO  H126 1504   6.618   7.552   0.980  1.1269 -1.0717  0.9786
    4CHTO   O41 1505   6.642   7.554   1.230  0.6350 -0.8871 -0.4724
    4CHTO   C64 1506   6.796   7.568   1.239  0.6045 -0.4639 -0.6910
    4CHTO  H121 1507   6.848   7.490   1.179  0.4931  0.2303 -1.6993
    4CHTO   C71 1508   6.846   7.534   1.389 -0.1541  0.3203  0.0598
    4CHTO   O47 1509   6.785   7.619   1.484  0.0045  0.1929  0.3397
    4CHTO  H104 1510   6.692   7.629   1.481  0.1276  1.7195  1.0202
    4CHTO   O34 1511   6.436   7.597   1.067 -0.2140 -0.0779 -0.6707
    4CHTO   C49 1512   6.292   7.518   1.047 -0.3138  0.2860 -0.1146
    4CHTO   H91 1513   6.210   7.585   1.073  0.4811  0.0791  3.1261
    4CHTO   C47 1514   6.294   7.396   1.148 -0.1367 -0.2913 -0.7226
    4CHTO   H89 1515   6.189   7.360   1.162 -0.3256  0.5733  0.1400
    4CHTO   O33 1516   6.329   7.454   1.274 -0.3356 -0.2337 -0.1520
    4CHTO   H70 1517   6.269   7.503   1.327  0.5437 -0.5063  1.1161
    4CHTO   C45 1518   6.399   7.284   1.104 -0.4619 -0.7120  0.7040
    4CHTO   H87 1519   6.498   7.306   1.148 -0.3035  0.3323 -0.1278
    4CHTO    N8 1520   6.352   7.157   1.159  0.0113  0.1114 -0.1928
    4CHTO   H75 1521   6.287   7.108   1.089 -0.5599  2.5763 -1.4474
    4CHTO   H76 1522   6.307   7.162   1.257  2.4701 -3.3746  1.2063
    4CHTO   C43 1523   6.435   7.299   0.950 -0.5060 -0.1366  0.0370
    4CHTO   H85 1524   6.504   7.383   0.936 -0.8702  0.1088 -0.2846
    4CHTO   O29 1525   6.314   7.324   0.885  0.6486 -0.2418  0.3164
    4CHTO   C50 1526   6.265   7.459   0.904  0.4335  0.4354 -0.7026
    4CHTO   H92 1527   6.310   7.522   0.827  1.8000  0.9972  0.5360
    4CHTO   C54 1528   6.109   7.472   0.866  0.0234  0.3848  0.1530
    4CHTO   O36 1529   6.049   7.350   0.914  0.3640 -0.3227 -0.0561
    4CHTO   H72 1530   6.099   7.281   0.875  1.9789  1.3369 -1.0143
    4CHTO   O27 1531   6.520   7.197   0.894 -0.0665 -0.6171  0.6560
    4CHTO   C37 1532   6.648   7.134   0.879 -0.3832  0.2526  0.4375
    4CHTO   H79 1533   6.686   7.134   0.776  0.4876  0.4099  0.7496
    4CHTO   C38 1534   6.750   7.210   0.964 -0.2044  0.0493 -0.1928
    4CHTO   H80 1535   6.722   7.206   1.070  0.9836  1.6412  0.2175
    4CHTO   O31 1536   6.756   7.344   0.920  0.2272  0.2518 -0.0983
    4CHTO   H68 1537   6.730   7.403   0.988  1.6455 -0.0185  0.6886
    4CHTO   C39 1538   6.893   7.138   0.950  1.1919  0.0264 -0.7976
    4CHTO   H81 1539   6.928   7.154   0.848  1.5327  1.1575 -0.5103
    4CHTO    N7 1540   6.996   7.208   1.042 -0.0402  0.5629  0.5842
    4CHTO   H73 1541   6.954   7.273   1.118 -0.0075  0.8298  0.3734
    4CHTO   H74 1542   7.083   7.242   0.989 -0.7603 -1.9066 -2.3125
    4CHTO   C40 1543   6.878   6.982   0.973 -0.0486  0.3720 -0.4013
    4CHTO   H82 1544   6.873   6.966   1.081  3.3959  2.7096  0.1797
    4CHTO   O26 1545   6.762   6.932   0.904  0.2439  0.5356  0.1532
    4CHTO   C41 1546   6.633   6.992   0.926  0.4763 -0.0119 -0.1181
    4CHTO   H83 1547   6.611   6.989   1.034 -0.7094  0.2714 -0.3391
    4CHTO   C52 1548   6.538   6.906   0.842 -0.1332 -0.0201 -0.3925
    4CHTO   O35 1549   6.391   6.966   0.883 -0.0491 -0.1832 -0.0278
    4CHTO   H71 1550   6.326   6.937   0.821 -0.9064  2.3459 -0.3818
    4CHTO   O28 1551   6.981   6.904   0.917  0.2315  0.1441  0.1781
    4CHTO   C42 1552   7.018   6.774   0.962 -0.6359  0.6047 -0.2550
    4CHTO   H84 1553   7.072   6.729   0.879 -1.0392 -1.1201  0.3848
    4CHTO   C44 1554   6.903   6.670   0.988 -0.0303  0.3023 -0.0178
    4CHTO   H86 1555   6.830   6.711   1.058  1.2912  1.2362  0.8423
    4CHTO   O32 1556   6.831   6.651   0.864 -0.2056 -0.0041 -0.1046
    4CHTO   H69 1557   6.839   6.563   0.830 -2.4556  0.6265 -2.4404
    4CHTO   C48 1558   6.966   6.536   1.058  0.1553 -0.0902  0.2861
    4CHTO   H90 1559   7.038   6.482   0.997  0.4283 -2.8562  2.9238
    4CHTO    N9 1560   6.855   6.437   1.086 -0.0515  0.7680 -0.1432
    4CHTO   H77 1561   6.879   6.384   1.177 -0.2424 -1.8742 -1.5759
    4CHTO   H78 1562   6.842   6.368   1.003  1.0204 -1.2664  1.3497
    4CHTO   C51 1563   7.036   6.580   1.191 -0.1328 -0.2996 -0.4930
    4CHTO   H93 1564   6.971   6.636   1.258 -0.0524  0.9416 -1.4391
    4CHTO   O30 1565   7.146   6.654   1.147  0.4688  0.6379  0.6601
    4CHTO   C46 1566   7.115   6.784   1.082 -0.9071  0.1808  0.6222
    4CHTO   H88 1567   7.075   6.851   1.158  0.9050  2.0489 -0.0416
    4CHTO   C53 1568   7.255   6.845   1.046  0.7159 -0.2750 -0.6579
    4CHTO   O72 1569   7.326   6.774   0.949  0.0910  0.0795 -0.0062
    4CHTO  H199 1570   7.379   6.707   0.986  0.2770  0.8818  1.1896
    4CHTO   O22 1571   7.099   6.468   1.260  0.0239  0.1336 -0.1854
    4CHTO   C31 1572   7.118   6.466   1.409 -0.1684  0.4462  0.0923
    4CHTO   H59 1573   7.077   6.565   1.439  2.5929  2.3416 -2.2368
    4CHTO   C29 1574   7.044   6.358   1.488  0.5747  0.3823 -0.2733
    4CHTO   H57 1575   7.093   6.264   1.457  0.0577 -0.3829  1.2269
    4CHTO   O21 1576   6.913   6.374   1.430 -0.1854 -0.2356 -0.8290
    4CHTO   H37 1577   6.893   6.296   1.382  2.0843 -0.8724 -0.8347
    4CHTO   C27 1578   7.052   6.372   1.644  0.4582 -0.6444  0.0672
    4CHTO   H55 1579   7.002   6.466   1.672  0.9999 -0.7677  1.4897
    4CHTO    N5 1580   6.977   6.265   1.712  0.0659 -0.2340 -0.2161
    4CHTO   H43 1581   6.871   6.285   1.707  0.0035 -0.9716 -2.3256
    4CHTO   H44 1582   7.001   6.169   1.670  4.2722  1.1555 -1.3618
    4CHTO   C25 1583   7.208   6.383   1.683 -0.4395 -0.0273  0.0018
    4CHTO   H53 1584   7.258   6.290   1.650 -1.7537 -0.9790  0.6379
    4CHTO   O17 1585   7.279   6.487   1.599 -0.5897  0.4483 -0.3800
    4CHTO   C32 1586   7.269   6.466   1.458 -0.1291 -0.7303  0.5053
    4CHTO   H60 1587   7.314   6.370   1.431 -0.5761 -0.9576  0.5599
    4CHTO   C36 1588   7.352   6.573   1.379 -0.2568  0.1172 -0.3572
    4CHTO   O25 1589   7.492   6.547   1.402  0.0221  0.2685 -0.1509
    4CHTO   H40 1590   7.525   6.619   1.453 -0.9292  1.4283 -1.1560
    4CHTO   O15 1591   7.226   6.405   1.847 -0.3023  0.2354 -0.1715
    4CHTO   C19 1592   7.172   6.513   1.929 -0.1138 -0.3504 -0.2305
    4CHTO   H47 1593   7.091   6.555   1.868  0.2651 -0.1134 -0.5754
    4CHTO   C20 1594   7.095   6.464   2.056 -0.4672 -0.1160 -0.8792
    4CHTO   H48 1595   7.153   6.395   2.119 -0.4256  0.9991  0.3260
    4CHTO   O19 1596   6.979   6.389   2.009 -0.3817 -0.0489  0.2171
    4CHTO   H35 1597   6.904   6.392   2.064  0.5280  0.5224  1.4466
    4CHTO   C21 1598   7.053   6.579   2.155  0.0152 -0.0107 -0.1897
    4CHTO   H49 1599   6.967   6.634   2.117 -0.3572 -2.0844 -2.4778
    4CHTO    N4 1600   7.008   6.523   2.282  0.5505  0.0478  0.0802
    4CHTO   H41 1601   6.980   6.607   2.344 -0.2472 -0.4913  0.4630
    4CHTO   H42 1602   6.924   6.455   2.276  0.1442  0.3740  1.7971
    4CHTO   C22 1603   7.174   6.677   2.171  0.2568  1.0055 -0.2346
    4CHTO   H50 1604   7.257   6.615   2.207  2.1087  4.3138  1.3950
    4CHTO   O14 1605   7.218   6.729   2.047 -0.1720 -0.0533  0.6175
    4CHTO   C23 1606   7.273   6.627   1.956 -0.5370 -0.4506  0.2865
    4CHTO   H51 1607   7.366   6.589   2.001  0.7066  2.1317  0.0003
    4CHTO   C34 1608   7.296   6.710   1.826  0.1068  0.1581 -0.1826
    4CHTO   O23 1609   7.407   6.803   1.829  0.2254  0.1903 -0.0510
    4CHTO   H38 1610   7.479   6.775   1.775  0.1054 -1.8485  0.8265
    4CHTO   O16 1611   7.140   6.784   2.260  0.0213 -0.1917  0.4130
    4CHTO   C24 1612   7.111   6.935   2.170  0.7399 -0.1875 -0.2895
    4CHTO   H52 1613   7.089   6.917   2.065  1.8093  1.2191 -0.7669
    4CHTO   C26 1614   7.225   7.037   2.179  0.1827  0.0889 -0.6858
    4CHTO   H54 1615   7.259   7.040   2.285  1.4466  3.4341 -1.1377
    4CHTO   O20 1616   7.340   6.993   2.114 -0.1394  0.0680  0.1292
    4CHTO   H36 1617   7.416   6.994   2.168  1.2239  1.3119 -1.7541
    4CHTO   C30 1618   7.194   7.184   2.137  0.9171 -0.0513 -0.0865
    4CHTO   H58 1619   7.184   7.198   2.029 -0.1375  1.3528  0.1728
    4CHTO    N6 1620   7.309   7.274   2.165 -0.2052  0.0237 -0.4063
    4CHTO   H45 1621   7.403   7.222   2.175  1.3465  2.5840 -1.0744
    4CHTO   H46 1622   7.291   7.320   2.261  0.5442  0.5208 -0.4972
    4CHTO   C33 1623   7.061   7.234   2.205  0.3105  0.3298  1.5853
    4CHTO   H61 1624   7.078   7.251   2.312 -0.5401  1.6707  1.5218
    4CHTO   O18 1625   6.962   7.132   2.184 -0.5129  0.0216  0.5387
    4CHTO   C28 1626   6.981   6.997   2.228 -0.5159 -0.0964 -0.5891
    4CHTO   H56 1627   6.993   6.996   2.337 -1.5772 -2.5197 -0.4610
    4CHTO   C35 1628   6.859   6.910   2.187  0.8617  0.5571 -0.4091
    4CHTO   O24 1629   6.738   6.973   2.241 -0.1038 -0.2252  0.5492
    4CHTO   H39 1630   6.736   7.052   2.189  1.7107 -0.6292 -0.1841
    4CHTO    O9 1631   7.023   7.359   2.138 -0.7462 -0.9476 -0.3035
    4CHTO   C13 1632   6.878   7.420   2.177 -0.0049 -0.5398  0.2214
    4CHTO   H26 1633   6.803   7.339   2.159  1.3390 -1.4662 -1.3970
    4CHTO   C11 1634   6.851   7.542   2.079  0.4990  0.2280 -0.5235
    4CHTO   H24 1635   6.846   7.504   1.976  1.7457 -3.0958  0.5886
    4CHTO    O8 1636   6.959   7.635   2.083  0.1755  0.2294  0.2842
    4CHTO    H3 1637   6.955   7.707   2.023 -0.8040  1.2214  1.5346
    4CHTO    C9 1638   6.713   7.597   2.119 -0.3394  0.1261  0.2026
    4CHTO   H22 1639   6.645   7.512   2.101 -1.0473  0.6213  0.4747
    4CHTO    N2 1640   6.655   7.708   2.038  0.0633 -0.2680  0.1430
    4CHTO   H10 1641   6.710   7.799   2.055 -1.8979  0.7030  1.5250
    4CHTO   H11 1642   6.549   7.715   2.057  0.5385 -0.3328  3.0230
    4CHTO    C7 1643   6.711   7.634   2.273  0.1679 -0.1260  0.1219
    4CHTO   H20 1644   6.608   7.671   2.294  0.2100  0.3534 -0.5085
    4CHTO    O4 1645   6.743   7.515   2.355 -0.1530 -1.2749 -0.0693
    4CHTO   C14 1646   6.862   7.448   2.333  0.0953 -0.1395  0.1786
    4CHTO   H27 1647   6.853   7.350   2.385 -1.3024  0.5576  1.2900
    4CHTO   C18 1648   6.988   7.515   2.400 -0.0308 -0.5499  0.5463
    4CHTO   O13 1649   6.962   7.524   2.535 -0.2506  0.1290  0.3637
    4CHTO    H7 1650   6.947   7.613   2.558 -1.8132  0.0185 -0.1296
    4CHTO    O2 1651   6.826   7.753   2.310  0.1365  0.0365 -0.2627
    4CHTO    C1 1652   6.771   7.880   2.367 -0.0666  0.1503 -0.0447
    4CHTO   H14 1653   6.662   7.875   2.384 -0.1369  3.2644  0.7269
    4CHTO    C2 1654   6.804   8.008   2.279  0.1202 -0.2312  0.7194
    4CHTO   H15 1655   6.905   7.986   2.243  1.0701 -0.4915  3.4053
    4CHTO    O6 1656   6.712   8.018   2.162 -0.6847 -0.2663 -0.3975
    4CHTO    H1 1657   6.675   7.935   2.142  0.3584 -1.0330  0.7727
    4CHTO    C3 1658   6.807   8.146   2.366  0.1321  0.2849 -0.5371
    4CHTO   H16 1659   6.701   8.177   2.366 -0.3604 -1.2972  0.4813
    4CHTO    N1 1660   6.899   8.239   2.299 -0.0324 -0.1970  0.2204
    4CHTO    H8 1661   6.949   8.306   2.368 -0.5531  0.7338 -0.2916
    4CHTO    H9 1662   6.849   8.298   2.224  0.2337  2.2329  1.8831
    4CHTO    C4 1663   6.848   8.121   2.516 -0.0658 -0.3513 -0.2110
    4CHTO   H17 1664   6.957   8.114   2.525 -0.2177 -1.6902  0.9855
    4CHTO    O1 1665   6.787   8.004   2.570 -0.7640  0.1417 -0.0719
    4CHTO    C5 1666   6.833   7.886   2.504  0.2039 -0.4726 -0.5983
    4CHTO   H18 1667   6.941   7.886   2.496  0.1635  0.7295 -1.3301
    4CHTO   C16 1668   6.787   7.762   2.583 -0.5188  0.1989 -0.3045
    4CHTO   O11 1669   6.837   7.736   2.714 -0.3179  0.3066  0.2139
    4CHTO    H5 1670   6.926   7.707   2.702 -0.0671  0.7111  1.0745
    4CHTO    O3 1671   6.800   8.234   2.600  0.2130  0.2226 -0.3569
    4CHTO    C6 1672   6.881   8.311   2.674 -0.3497 -0.1331 -0.4376
    4CHTO   H19 1673   6.982   8.313   2.633  0.0251  0.6360  0.5046
    4CHTO    C8 1674   6.828   8.465   2.669  0.1827  0.9355 -0.2227
    4CHTO   H21 1675   6.730   8.468   2.717 -0.5853 -0.3811 -1.6859
    4CHTO    O7 1676   6.834   8.499   2.532 -0.0792 -0.1969  0.2272
    4CHTO    H2 1677   6.757   8.455   2.499  0.2197  0.5482 -1.5246
    4CHTO   C12 1678   6.914   8.556   2.757  0.2536  0.1013  0.0016
    4CHTO   H25 1679   7.013   8.566   2.707  0.5893 -0.1630  0.6086
    4CHTO    N3 1680   6.858   8.696   2.758  0.0945  0.4851 -0.1615
    4CHTO   H12 1681   6.754   8.702   2.731 -0.7262 -1.0422  2.4766
    4CHTO   H13 1682   6.891   8.753   2.843  0.7839 -1.3259  0.8124
    4CHTO   C15 1683   6.926   8.500   2.901  0.7625 -0.1480  0.1989
    4CHTO   H28 1684   6.836   8.511   2.962  1.0582  0.9451  0.4425
    4CHTO   O10 1685   7.059   8.559   2.984  0.1183 -0.0942 -0.0027
    4CHTO    H4 1686   7.062   8.530   3.073 -1.1369 -0.9831 -0.2331
    4CHTO    O5 1687   6.965   8.359   2.904 -0.0825  0.0074  0.2504
    4CHTO   C10 1688   6.891   8.264   2.825 -0.5379 -0.3618 -0.8185
    4CHTO   H23 1689   6.786   8.263   2.855 -0.3646 -1.9486 -0.2658
    4CHTO   C17 1690   6.949   8.124   2.842  0.2463 -0.5839 -0.1879
    4CHTO   O12 1691   6.922   8.071   2.968  0.3723 -0.0366 -0.1798
    4CHTO    H6 1692   6.879   7.987   2.969 -1.7520  1.0094  0.1744
    5CHTO  H203 1693   7.349   4.216   1.196  1.4724 -1.3756 -0.2277
    5CHTO   O82 1694   7.345   4.167   1.275  0.1346 -0.5883  0.2118
    5CHTO  C123 1695   7.445   4.209   1.371 -0.1549 -0.1145  0.7228
    5CHTO  H227 1696   7.537   4.235   1.317 -0.6434  1.5333  0.6421
    5CHTO   O77 1697   7.383   4.325   1.436 -0.0306 -0.0854  0.4089
    5CHTO  C118 1698   7.458   4.389   1.544  0.5058  0.3910  0.1494
    5CHTO  H222 1699   7.560   4.415   1.513  0.4125  0.4753 -0.0938
    5CHTO  C125 1700   7.378   4.524   1.594 -0.0512  0.3958 -0.0388
    5CHTO   O84 1701   7.253   4.487   1.642 -0.7605 -0.1451  0.0375
    5CHTO  H205 1702   7.241   4.526   1.727  0.5912  3.8823 -1.5258
    5CHTO  C114 1703   7.467   4.278   1.657  0.1041 -0.1272  0.0116
    5CHTO  H218 1704   7.366   4.253   1.692 -0.8135 -0.8257 -2.9951
    5CHTO  C116 1705   7.545   4.157   1.602  0.0418  0.3037 -0.4493
    5CHTO  H220 1706   7.649   4.178   1.567 -0.0478 -0.8996 -1.4866
    5CHTO   O79 1707   7.562   4.060   1.709  0.2086 -0.4408 -0.0492
    5CHTO  H201 1708   7.632   4.002   1.687 -0.0903 -1.2905  1.2259
    5CHTO  C120 1709   7.468   4.096   1.477 -0.2048  0.4004  0.0722
    5CHTO  H224 1710   7.372   4.059   1.519  1.1907 -1.1330  2.0625
    5CHTO   N21 1711   7.543   3.983   1.422 -0.7895  0.0935  0.9160
    5CHTO  H211 1712   7.602   3.926   1.492 -0.6157 -1.3833 -0.3877
    5CHTO  H212 1713   7.491   3.926   1.346 -0.6553  0.2666  0.6908
    5CHTO   O75 1714   7.539   4.340   1.768 -0.6346 -0.6235 -0.0833
    5CHTO  C112 1715   7.462   4.328   1.908  0.3142 -0.3761 -0.5278
    5CHTO  H216 1716   7.428   4.224   1.921 -0.2664 -0.4374 -2.3673
    5CHTO   O73 1717   7.350   4.422   1.908  0.0142 -0.2221 -0.4575
    5CHTO  C113 1718   7.269   4.418   2.029 -0.7555  0.1678 -0.2813
    5CHTO  H217 1719   7.226   4.316   2.037 -3.5366  1.4224  1.5504
    5CHTO  C124 1720   7.167   4.517   1.992  0.4342  0.0244  0.8031
    5CHTO   O83 1721   7.057   4.519   2.090  0.0513  0.2557  0.2797
    5CHTO  H204 1722   7.080   4.551   2.175 -1.4403 -0.9331  1.1570
    5CHTO  C109 1723   7.356   4.456   2.151  0.4645 -0.2984 -0.4018
    5CHTO  H213 1724   7.400   4.554   2.128  0.0060  0.1196  0.4816
    5CHTO  C110 1725   7.478   4.360   2.166  0.7356 -0.1650  0.6786
    5CHTO  H214 1726   7.440   4.260   2.186  0.2953  0.0034  0.6915
    5CHTO   O78 1727   7.558   4.402   2.277  0.3240 -0.1744 -0.3836
    5CHTO  H200 1728   7.593   4.489   2.282 -0.4364  0.0228  2.6012
    5CHTO  C111 1729   7.557   4.361   2.029 -0.1579  0.4516 -1.4640
    5CHTO  H215 1730   7.597   4.462   2.013 -3.0187  1.8968  0.2234
    5CHTO   N19 1731   7.672   4.264   2.035  0.3358 -0.3448 -0.2370
    5CHTO  H207 1732   7.765   4.300   1.994  0.3004  2.3114  1.8871
    5CHTO  H208 1733   7.645   4.168   1.993  2.1132 -1.4936  1.1909
    5CHTO   O74 1734   7.268   4.475   2.273  0.0725  0.5172 -0.1151
    5CHTO  C115 1735   7.248   4.370   2.383 -0.6056 -0.0826  0.2606
    5CHTO  H219 1736   7.343   4.323   2.407  0.4581  0.7586 -2.1026
    5CHTO   O76 1737   7.209   4.440   2.519 -0.9522  0.2431  0.1536
    5CHTO  C122 1738   7.089   4.516   2.503  0.5704 -0.2072  0.5825
    5CHTO  H226 1739   7.106   4.602   2.439  1.0160 -1.1188 -0.5354
    5CHTO  C126 1740   7.056   4.577   2.646 -0.6693 -0.2171  0.0745
    5CHTO   O85 1741   7.052   4.475   2.750 -0.1448  0.5716 -0.5935
    5CHTO  H206 1742   7.140   4.444   2.761 -1.2717 -3.1736 -1.1315
    5CHTO  C121 1743   6.968   4.438   2.456  0.4231 -0.2281  0.2542
    5CHTO  H225 1744   6.895   4.436   2.539  0.5945 -1.9837  0.3814
    5CHTO   O81 1745   6.913   4.509   2.345 -0.1847  0.1086 -0.1891
    5CHTO  H202 1746   6.832   4.465   2.324  0.7713 -0.7010 -2.3695
    5CHTO  C119 1747   7.001   4.292   2.418  0.5645  0.2802 -0.7870
    5CHTO  H223 1748   7.028   4.254   2.516 -1.1463  1.4151  0.1498
    5CHTO  C117 1749   7.132   4.274   2.328 -0.0008  0.4107  0.5084
    5CHTO  H221 1750   7.122   4.299   2.222  1.5352 -1.1880 -0.0367
    5CHTO   N20 1751   7.170   4.123   2.328 -0.8825 -0.4395  0.2768
    5CHTO  H209 1752   7.081   4.066   2.351 -1.3304  0.3759  0.5669
    5CHTO  H210 1753   7.243   4.103   2.405  1.4935 -2.8403 -2.4727
    5CHTO   O80 1754   6.858   4.208   2.383  0.4111 -0.1009  0.5194
    5CHTO  C103 1755   6.775   4.246   2.225  0.4334  0.1512  0.0927
    5CHTO  H190 1756   6.809   4.342   2.186  1.7502  0.2476  1.3920
    5CHTO  C101 1757   6.793   4.136   2.116 -0.4376  0.5413  0.0656
    5CHTO  H188 1758   6.799   4.036   2.159  0.4539 -0.2090 -1.7767
    5CHTO   O68 1759   6.924   4.164   2.037  0.1251 -0.0115 -0.6132
    5CHTO  H168 1760   6.987   4.160   2.106 -1.1950 -0.0434  0.6164
    5CHTO   C99 1761   6.671   4.119   2.007  1.0086  0.0496 -0.5841
    5CHTO  H186 1762   6.667   4.211   1.944 -0.5616 -0.0088 -0.5819
    5CHTO   N17 1763   6.685   4.017   1.891  0.3961  0.1844 -0.0842
    5CHTO  H174 1764   6.765   4.017   1.819  0.0723 -1.0245 -0.4514
    5CHTO  H175 1765   6.596   3.974   1.846  0.2594 -0.2695  0.6113
    5CHTO   C97 1766   6.537   4.120   2.094  0.4557 -0.2913  0.0471
    5CHTO  H184 1767   6.541   4.037   2.166  2.0506  1.0454  1.5678
    5CHTO   O64 1768   6.529   4.248   2.161  0.0676 -0.6269  0.6667
    5CHTO  C104 1769   6.621   4.259   2.270 -0.2232 -0.2525 -0.5868
    5CHTO  H191 1770   6.603   4.183   2.346  0.6344  0.6019  0.4698
    5CHTO  C108 1771   6.593   4.395   2.343  0.0460 -0.0240  0.0332
    5CHTO   O71 1772   6.660   4.397   2.467  0.2597  0.0242 -0.9219
    5CHTO  H171 1773   6.697   4.482   2.481  0.2825 -0.0919 -0.2761
    5CHTO   O62 1774   6.411   4.123   2.013 -0.0451  0.0994 -0.4134
    5CHTO   C91 1775   6.300   4.066   2.086 -0.3315 -1.1643 -0.1797
    5CHTO  H178 1776   6.320   4.081   2.193 -0.1366  1.8410 -0.5977
    5CHTO   C92 1777   6.285   3.916   2.057  0.5179  0.4622  0.3514
    5CHTO  H179 1778   6.296   3.900   1.948 -0.0483 -1.1163  0.5158
    5CHTO   O66 1779   6.401   3.848   2.104 -0.8571 -0.2140 -0.2902
    5CHTO  H166 1780   6.408   3.770   2.053  1.3251  0.2157 -0.6881
    5CHTO   C93 1781   6.152   3.854   2.123  0.0414 -0.3920 -0.5758
    5CHTO  H180 1782   6.152   3.864   2.233  0.3229  2.1767 -0.7890
    5CHTO   N16 1783   6.141   3.708   2.104 -0.5040  0.6305 -0.0272
    5CHTO  H172 1784   6.124   3.661   2.200 -0.7430  0.4685 -0.1487
    5CHTO  H173 1785   6.242   3.683   2.077 -0.8683 -0.0458 -0.7766
    5CHTO   C94 1786   6.028   3.932   2.069  0.7436  0.8440 -0.3464
    5CHTO  H181 1787   6.017   3.921   1.961 -2.7434  2.6076 -0.2413
    5CHTO   O61 1788   6.039   4.073   2.099 -0.9637  0.0877  0.1642
    5CHTO   C95 1789   6.162   4.136   2.054 -0.3846 -0.0596  1.4363
    5CHTO  H182 1790   6.165   4.142   1.946  1.3673 -1.8283  1.3555
    5CHTO  C106 1791   6.158   4.282   2.113 -0.1938 -0.3680 -0.0452
    5CHTO   O69 1792   6.083   4.372   2.030  0.0630 -0.2423  0.2447
    5CHTO  H169 1793   6.145   4.393   1.963 -0.7413 -0.2217 -0.5149
    5CHTO   O63 1794   5.880   3.890   2.136 -0.1078  0.7221  0.3165
    5CHTO   C96 1795   5.776   3.850   2.027 -1.2010  0.4557 -0.0988
    5CHTO  H183 1796   5.837   3.808   1.947 -0.2724  2.0084 -0.2160
    5CHTO   C98 1797   5.681   3.958   1.970  0.2309 -0.4120 -0.4688
    5CHTO  H185 1798   5.621   3.992   2.055  0.2154  0.1748 -0.7133
    5CHTO   O67 1799   5.755   4.073   1.933 -0.4164  0.2344  0.2953
    5CHTO  H167 1800   5.694   4.139   1.905 -0.0493  0.2258 -0.5317
    5CHTO  C102 1801   5.595   3.907   1.846 -0.0140 -0.2277 -0.3296
    5CHTO  H189 1802   5.667   3.898   1.763  0.4368  3.9416 -0.5027
    5CHTO   N18 1803   5.491   4.005   1.807  0.4820  0.2835 -0.0887
    5CHTO  H176 1804   5.431   4.032   1.892 -1.3788  0.2412 -1.3559
    5CHTO  H177 1805   5.537   4.095   1.769 -0.1285  0.1699 -1.1136
    5CHTO  C105 1806   5.539   3.769   1.884  0.1304 -0.1444  0.3187
    5CHTO  H192 1807   5.444   3.783   1.936 -0.6541 -0.6361 -0.9396
    5CHTO   O65 1808   5.621   3.677   1.960 -0.2552  0.4661 -0.1104
    5CHTO  C100 1809   5.684   3.730   2.075  0.6363  0.2751 -0.1834
    5CHTO  H187 1810   5.610   3.771   2.145 -0.2023 -1.7793  0.1576
    5CHTO  C107 1811   5.768   3.631   2.149  0.1617 -0.2172 -0.1382
    5CHTO   O70 1812   5.783   3.676   2.285  0.2739  0.2230  0.1868
    5CHTO  H170 1813   5.872   3.660   2.312  0.3857  0.3246 -0.1132
    5CHTO   O57 1814   5.517   3.703   1.731 -0.1459 -0.0530 -0.4278
    5CHTO   C85 1815   5.406   3.614   1.713 -0.6201 -0.0548  0.4094
    5CHTO  H157 1816   5.314   3.652   1.763  0.2013  3.3219 -0.5370
    5CHTO   C83 1817   5.430   3.483   1.791  0.4430  0.8722 -0.2343
    5CHTO  H155 1818   5.417   3.502   1.898  1.4916  0.7267 -0.0719
    5CHTO   O56 1819   5.562   3.430   1.767  0.1308  0.5775 -0.3837
    5CHTO  H135 1820   5.561   3.340   1.792 -1.5917  0.3354 -1.2551
    5CHTO   C81 1821   5.323   3.378   1.748 -0.1302 -0.5303 -0.1070
    5CHTO  H153 1822   5.225   3.423   1.758  0.0149 -0.3555  0.5483
    5CHTO   N14 1823   5.317   3.267   1.851 -0.2393 -0.5451  0.4382
    5CHTO  H141 1824   5.276   3.303   1.943  0.4399 -0.8751  0.8725
    5CHTO  H142 1825   5.254   3.191   1.810  0.5232 -1.0396  0.1658
    5CHTO   C79 1826   5.347   3.343   1.597 -0.2585  0.5525  0.0678
    5CHTO  H151 1827   5.266   3.278   1.565 -1.0121  2.8555 -2.9470
    5CHTO   O52 1828   5.312   3.468   1.527  0.3827  0.1302 -0.2800
    5CHTO   C86 1829   5.387   3.594   1.556  0.0727  0.9176 -0.1997
    5CHTO  H158 1830   5.480   3.565   1.502  0.5562 -0.3803  1.2977
    5CHTO   C90 1831   5.323   3.705   1.480 -0.2464 -0.2941 -0.2165
    5CHTO   O60 1832   5.406   3.819   1.503 -0.4038 -0.3844 -0.3964
    5CHTO  H138 1833   5.395   3.844   1.592 -0.7750 -0.5446 -0.3976
    5CHTO   O50 1834   5.477   3.305   1.552  0.6178  0.3886  0.1973
    5CHTO   C73 1835   5.526   3.222   1.441 -0.6954  0.0473  0.0591
    5CHTO  H145 1836   5.444   3.226   1.367 -0.1471  2.0621 -0.4744
    5CHTO   C74 1837   5.547   3.073   1.489 -0.0818  0.3069  0.4021
    5CHTO  H146 1838   5.453   3.044   1.540 -1.1612 -2.4016 -2.9195
    5CHTO   O54 1839   5.551   2.979   1.375 -0.1281 -0.0582 -0.1342
    5CHTO  H133 1840   5.468   2.977   1.331 -0.1654 -0.1860 -0.0558
    5CHTO   C75 1841   5.665   3.070   1.585 -0.1946 -0.9473  0.5544
    5CHTO  H147 1842   5.633   3.123   1.676 -0.9966 -1.3268  0.4982
    5CHTO   N13 1843   5.712   2.934   1.626 -0.3795 -0.2834 -0.0397
    5CHTO  H139 1844   5.805   2.942   1.681 -0.7890  1.9136  0.3401
    5CHTO  H140 1845   5.725   2.878   1.534 -0.1581 -0.0697 -0.1384
    5CHTO   C76 1846   5.793   3.146   1.523 -0.3087  0.2453 -0.0979
    5CHTO  H148 1847   5.828   3.085   1.440 -0.0459 -0.0953  0.2590
    5CHTO   O49 1848   5.760   3.280   1.476  0.5151  0.6579 -0.3460
    5CHTO   C77 1849   5.659   3.273   1.374 -0.7985 -0.3871 -0.3436
    5CHTO  H149 1850   5.683   3.207   1.292  2.9247  1.9628 -1.2490
    5CHTO   C88 1851   5.649   3.407   1.293 -0.3255 -0.1669  0.3794
    5CHTO   O58 1852   5.538   3.381   1.181 -0.0197 -0.5229 -0.2589
    5CHTO  H136 1853   5.521   3.460   1.133 -0.4158 -0.2991  0.2523
    5CHTO   O51 1854   5.911   3.181   1.647 -0.5062 -0.1751 -0.7103
    5CHTO   C78 1855   6.056   3.258   1.607  0.0447 -0.5239 -0.0777
    5CHTO  H150 1856   6.038   3.311   1.511  1.5017 -0.4717 -0.3349
    5CHTO   C80 1857   6.168   3.158   1.586 -0.8460  0.5184 -0.4041
    5CHTO  H152 1858   6.163   3.089   1.672 -2.8751  0.8418 -0.2559
    5CHTO   O55 1859   6.127   3.076   1.476 -0.7503  1.0542  0.5426
    5CHTO  H134 1860   6.166   2.990   1.472  0.1939  1.5519 -2.6879
    5CHTO   C84 1861   6.314   3.210   1.566 -0.5313  0.2662  0.6121
    5CHTO  H156 1862   6.309   3.276   1.479 -1.6048  1.5017  1.5760
    5CHTO   N15 1863   6.416   3.106   1.539  0.3779  0.2415  0.3286
    5CHTO  H143 1864   6.472   3.075   1.625  1.5366 -0.6802 -0.7309
    5CHTO  H144 1865   6.480   3.136   1.459 -2.5880  1.0815 -1.8151
    5CHTO   C87 1866   6.350   3.314   1.677  0.4343  0.4011  0.0826
    5CHTO  H159 1867   6.347   3.258   1.771 -3.2522 -0.6112 -0.5404
    5CHTO   O53 1868   6.221   3.430   1.656  0.3619 -0.1279  1.1494
    5CHTO   C82 1869   6.100   3.368   1.710  1.1724  0.8589 -0.3500
    5CHTO  H154 1870   6.125   3.313   1.801 -0.4964  0.0562 -0.3603
    5CHTO   C89 1871   5.983   3.471   1.743  0.3436  0.4161  0.3515
    5CHTO   O59 1872   5.997   3.536   1.872 -0.1831  0.8473  0.9390
    5CHTO  H137 1873   6.007   3.468   1.937  1.1919  0.8749  0.7875
    5CHTO   O45 1874   6.492   3.382   1.652 -0.3617 -0.1852 -0.4597
    5CHTO   C67 1875   6.552   3.433   1.777  0.4931 -0.2391 -0.1821
    5CHTO  H124 1876   6.481   3.427   1.861  0.0251  1.2301 -0.4556
    5CHTO   C65 1877   6.682   3.352   1.813 -0.5791  0.4914 -0.3144
    5CHTO  H122 1878   6.717   3.301   1.724  0.2878 -1.4103  1.0675
    5CHTO   O44 1879   6.650   3.262   1.919  0.0925  0.5827  0.0812
    5CHTO  H102 1880   6.716   3.196   1.922 -1.5813 -1.2141 -1.0663
    5CHTO   C63 1881   6.804   3.449   1.839  0.0021  0.2005  0.2823
    5CHTO  H120 1882   6.833   3.496   1.745 -2.7560 -1.9303 -1.7255
    5CHTO   N11 1883   6.929   3.383   1.881  0.3477 -0.4410 -0.0481
    5CHTO  H108 1884   6.932   3.331   1.975  0.9773 -2.2455 -1.0588
    5CHTO  H109 1885   6.965   3.318   1.805  2.0972  1.7784 -1.1707
    5CHTO   C61 1886   6.761   3.561   1.936 -0.2421 -0.1722  0.6824
    5CHTO  H118 1887   6.851   3.623   1.944 -0.5418  0.8933 -3.2014
    5CHTO   O40 1888   6.651   3.637   1.881 -0.0322  0.1386  0.3856
    5CHTO   C68 1889   6.581   3.585   1.762 -0.7741  0.0075 -0.5862
    5CHTO  H125 1890   6.648   3.613   1.678  1.3161 -1.5322  0.5278
    5CHTO   C72 1891   6.452   3.664   1.751  0.1493  0.2083  0.2070
    5CHTO   O48 1892   6.470   3.797   1.702  0.4013 -0.1665  0.1179
    5CHTO  H105 1893   6.421   3.810   1.624 -1.6505  0.9178  1.5479
    5CHTO   O38 1894   6.724   3.506   2.065 -0.4665 -0.3404 -0.2148
    5CHTO   C55 1895   6.661   3.590   2.160 -0.8476  0.6165  0.3511
    5CHTO  H112 1896   6.587   3.649   2.103 -0.1547  2.4535  1.2922
    5CHTO   C56 1897   6.757   3.686   2.244 -0.9031  0.6132  0.1461
    5CHTO  H113 1898   6.841   3.625   2.281 -0.2820  0.9525 -0.6772
    5CHTO   O42 1899   6.828   3.776   2.155  0.5017 -0.7047  0.2321
    5CHTO  H100 1900   6.783   3.853   2.126  0.8097  0.0497  1.7236
    5CHTO   C57 1901   6.675   3.761   2.347  0.1691 -0.2727 -0.9160
    5CHTO  H114 1902   6.597   3.819   2.298  0.4305 -0.4885 -1.5981
    5CHTO   N10 1903   6.753   3.862   2.425  0.3648 -0.1463  0.9874
    5CHTO  H106 1904   6.781   3.816   2.519  1.3296  0.0805  0.8196
    5CHTO  H107 1905   6.700   3.953   2.448 -0.3087 -0.5224  0.9444
    5CHTO   C58 1906   6.599   3.664   2.440  0.5030 -0.4361  0.3903
    5CHTO  H115 1907   6.673   3.617   2.508  0.6195 -0.8811 -0.0459
    5CHTO   O37 1908   6.524   3.571   2.359  0.4699  0.2705 -0.0606
    5CHTO   C59 1909   6.580   3.496   2.249 -0.9521 -0.1144 -0.3524
    5CHTO  H116 1910   6.632   3.411   2.295  1.6393 -0.5630 -3.9451
    5CHTO   C70 1911   6.463   3.427   2.174  0.0369  0.5487  0.8486
    5CHTO   O46 1912   6.404   3.319   2.248  0.1014  0.4831  0.3305
    5CHTO  H103 1913   6.344   3.358   2.310 -1.5629 -0.9494 -0.3476
    5CHTO   O39 1914   6.508   3.749   2.535  0.1588  0.4992 -0.1594
    5CHTO   C60 1915   6.374   3.765   2.491  0.1127  0.1276  0.1357
    5CHTO  H117 1916   6.372   3.759   2.382 -1.2217  2.1646  0.0190
    5CHTO   C62 1917   6.279   3.649   2.540  0.8596  0.8076  0.0841
    5CHTO  H119 1918   6.309   3.561   2.479 -1.1205 -0.5289  0.9934
    5CHTO   O43 1919   6.315   3.634   2.677  0.3728  0.5633 -0.2208
    5CHTO  H101 1920   6.271   3.562   2.718  0.1612  1.8775  1.9977
    5CHTO   C66 1921   6.128   3.682   2.509  0.3532 -0.3105  0.0956
    5CHTO  H123 1922   6.115   3.686   2.401 -0.0081  0.4494  0.1667
    5CHTO   N12 1923   6.036   3.576   2.555 -0.4194 -0.0951 -0.0159
    5CHTO  H110 1924   5.935   3.606   2.580 -1.2769 -0.2706 -3.0257
    5CHTO  H111 1925   6.075   3.524   2.641 -3.0125 -0.5907  0.9171
    5CHTO   C69 1926   6.092   3.823   2.575  0.1624 -0.3687  0.1706
    5CHTO  H126 1927   6.112   3.831   2.684 -0.9847  0.1082  0.3506
    5CHTO   O41 1928   6.184   3.926   2.511  0.0818  0.6102 -0.2306
    5CHTO   C64 1929   6.319   3.908   2.530 -0.4494  0.4132  0.5209
    5CHTO  H121 1930   6.344   3.928   2.636  1.2044  0.9519  0.0450
    5CHTO   C71 1931   6.383   4.014   2.450  0.4511  0.1770 -0.8933
    5CHTO   O47 1932   6.336   4.151   2.465 -0.6831  0.3804  0.7600
    5CHTO  H104 1933   6.249   4.150   2.502 -1.8350  0.3546 -1.8434
    5CHTO   O34 1934   5.947   3.865   2.551  0.5061  0.1834  0.6485
    5CHTO   C49 1935   5.883   4.018   2.494 -0.0393  0.3536  0.8126
    5CHTO   H91 1936   5.941   4.035   2.403 -2.1365  0.2145 -0.5690
    5CHTO   C47 1937   5.906   4.131   2.600  0.4702 -0.5814  0.2547
    5CHTO   H89 1938   5.869   4.224   2.552  0.6071  0.3676  1.9655
    5CHTO   O33 1939   6.045   4.153   2.633  0.3017  0.2420 -0.1845
    5CHTO   H70 1940   6.092   4.201   2.568 -0.8396  1.9056  0.1811
    5CHTO   C45 1941   5.825   4.092   2.729  0.4408 -0.5415 -0.0800
    5CHTO   H87 1942   5.843   3.986   2.750  1.1060 -0.7191 -1.5119
    5CHTO    N8 1943   5.863   4.170   2.852 -0.8308 -0.3660  0.0451
    5CHTO   H75 1944   5.884   4.275   2.838 -1.3061 -0.3554 -0.6442
    5CHTO   H76 1945   5.787   4.156   2.928 -0.4840 -0.4878  0.3697
    5CHTO   C43 1946   5.663   4.093   2.697 -0.2112 -0.3325 -0.1073
    5CHTO   H85 1947   5.610   4.038   2.775  2.5081 -3.6620 -0.4651
    5CHTO   O29 1948   5.641   4.031   2.572  0.6924  0.6204  0.5611
    5CHTO   C50 1949   5.728   4.009   2.457  0.4864 -0.7819  0.2946
    5CHTO   H92 1950   5.720   3.909   2.413  0.5272 -1.5858  2.0610
    5CHTO   C54 1951   5.698   4.110   2.341 -0.2717 -0.0255  0.7269
    5CHTO   O36 1952   5.573   4.072   2.280  0.2432 -0.1505 -0.9720
    5CHTO   H72 1953   5.548   4.144   2.226 -1.2214 -1.2053 -1.7227
    5CHTO   O27 1954   5.608   4.230   2.683 -0.0808  0.3051  0.2182
    5CHTO   C37 1955   5.484   4.292   2.729  0.0362 -0.1240  0.4990
    5CHTO   H79 1956   5.456   4.382   2.674  0.6800  0.6630  1.4445
    5CHTO   C38 1957   5.350   4.207   2.700  0.0064  0.0526  0.7197
    5CHTO   H80 1958   5.355   4.104   2.738  1.1619 -1.0865 -2.3864
    5CHTO   O31 1959   5.354   4.191   2.561 -0.1623 -0.6475  0.0331
    5CHTO   H68 1960   5.347   4.270   2.511  0.3009 -0.7540 -0.1989
    5CHTO   C39 1961   5.221   4.278   2.747  0.3485  0.2668 -0.8837
    5CHTO   H81 1962   5.211   4.369   2.687 -1.0354  0.4058 -0.4741
    5CHTO    N7 1963   5.095   4.200   2.727 -0.6697 -0.1926  0.2345
    5CHTO   H73 1964   5.008   4.255   2.758  0.1755  0.1112  2.1409
    5CHTO   H74 1965   5.098   4.155   2.628  1.5192 -0.8660  0.5683
    5CHTO   C40 1966   5.235   4.328   2.896 -0.0375 -0.3316  0.8114
    5CHTO   H82 1967   5.228   4.246   2.967 -3.4831  0.3595  1.3863
    5CHTO   O26 1968   5.362   4.399   2.909  0.1900 -0.0841  0.3743
    5CHTO   C41 1969   5.488   4.329   2.881 -0.8235  0.8644  0.0400
    5CHTO   H83 1970   5.502   4.238   2.941 -1.1312 -0.3321 -1.6499
    5CHTO   C52 1971   5.605   4.434   2.909  0.1799  0.4072 -0.1303
    5CHTO   O35 1972   5.619   4.471   3.052  0.0964  0.8246 -0.1710
    5CHTO   H71 1973   5.534   4.480   3.091 -0.3927  0.4784 -1.1642
    5CHTO   O28 1974   5.147   4.439   2.934 -0.0005  0.0978  0.9283
    5CHTO   C42 1975   5.114   4.481   3.065  0.4542 -0.2326 -0.3851
    5CHTO   H84 1976   5.037   4.557   3.052  2.2925  2.0620  1.5172
    5CHTO   C44 1977   5.229   4.555   3.145 -0.3659  0.7817 -0.3965
    5CHTO   H86 1978   5.310   4.574   3.075 -1.1349  3.6375 -0.6170
    5CHTO   O32 1979   5.173   4.686   3.180  0.3487  0.2149 -0.5195
    5CHTO   H69 1980   5.105   4.688   3.244  0.2324 -0.8711 -0.6090
    5CHTO   C48 1981   5.278   4.478   3.279 -0.2251 -0.6949  0.5951
    5CHTO   H90 1982   5.193   4.493   3.345 -0.3383 -1.6145  0.6752
    5CHTO    N9 1983   5.399   4.546   3.344  0.3422  0.3218 -0.0320
    5CHTO   H77 1984   5.378   4.643   3.386 -3.4918 -1.1698  1.7990
    5CHTO   H78 1985   5.448   4.469   3.403  1.6038  0.9837 -0.2119
    5CHTO   C51 1986   5.290   4.328   3.233  0.3732  0.4793 -0.5143
    5CHTO   H93 1987   5.352   4.319   3.144 -1.9568 -0.6325 -2.0672
    5CHTO   O30 1988   5.160   4.280   3.208  0.4949  0.4380 -0.0748
    5CHTO   C46 1989   5.054   4.367   3.150  0.5898 -0.1374  0.1722
    5CHTO   H88 1990   5.000   4.304   3.079  0.4956 -0.3709  0.4540
    5CHTO   C53 1991   4.960   4.416   3.275  0.1945  0.1477 -0.2542
    5CHTO   O72 1992   4.841   4.490   3.243  0.9303  0.7142  0.0847
    5CHTO  H199 1993   4.856   4.582   3.253 -1.8308  1.2074  0.0292
    5CHTO   O22 1994   5.342   4.240   3.340  0.2384  1.0346 -0.6501
    5CHTO   C31 1995   5.398   4.105   3.311  0.8629 -0.2079  0.4655
    5CHTO   H59 1996   5.404   4.048   3.406  0.7008 -2.0178 -0.5701
    5CHTO   C29 1997   5.309   4.021   3.214  0.3786  0.0015 -0.4170
    5CHTO   H57 1998   5.299   4.074   3.118 -1.8409  0.1847 -0.1205
    5CHTO   O21 1999   5.178   4.021   3.271  0.3222  0.0877 -0.4012
    5CHTO   H37 2000   5.119   3.993   3.204 -1.9141  0.8876  1.1859
    5CHTO   C27 2001   5.371   3.885   3.183 -0.4431  0.0394  0.3480
    5CHTO   H55 2002   5.369   3.827   3.276 -0.9453 -0.4471  0.0363
    5CHTO    N5 2003   5.300   3.808   3.078  0.3016 -0.4661  0.8696
    5CHTO   H43 2004   5.285   3.871   2.992  1.1472 -0.2968  0.8473
    5CHTO   H44 2005   5.199   3.791   3.114 -0.5752  2.0661 -0.2905
    5CHTO   C25 2006   5.528   3.892   3.158 -0.0425  0.5741 -0.2300
    5CHTO   H53 2007   5.536   3.931   3.056 -1.9849 -2.9585 -1.8125
    5CHTO   O17 2008   5.596   3.989   3.239 -0.0588  0.1089 -0.2367
    5CHTO   C32 2009   5.536   4.116   3.258  0.9422 -0.7270 -0.2496
    5CHTO   H60 2010   5.532   4.175   3.167 -0.2826 -1.2752 -0.5536
    5CHTO   C36 2011   5.622   4.192   3.356  0.0357 -0.9865 -0.6365
    5CHTO   O25 2012   5.737   4.238   3.284  0.3393  0.5019 -0.1095
    5CHTO   H40 2013   5.812   4.246   3.339  1.8180 -2.7048 -1.5278
    5CHTO   O15 2014   5.592   3.756   3.176 -0.6355  0.3657  0.4015
    5CHTO   C19 2015   5.717   3.696   3.220 -0.8628 -0.2656  0.2846
    5CHTO   H47 2016   5.741   3.761   3.305 -1.2221  0.3303 -0.0730
    5CHTO   C20 2017   5.697   3.551   3.272 -0.5600 -0.2452  0.2872
    5CHTO   H48 2018   5.645   3.491   3.196 -1.6724 -0.1754  0.9712
    5CHTO   O19 2019   5.616   3.560   3.388 -0.0358 -0.1130  0.1207
    5CHTO   H35 2020   5.604   3.475   3.425  1.2523 -0.1273  0.5000
    5CHTO   C21 2021   5.828   3.467   3.311 -0.4838 -0.4962  0.2909
    5CHTO   H49 2022   5.865   3.507   3.406  1.9896  0.1265 -0.8954
    5CHTO    N4 2023   5.797   3.325   3.332  0.1048  0.0809  0.1791
    5CHTO   H41 2024   5.707   3.320   3.390  0.4145 -0.3128  0.6307
    5CHTO   H42 2025   5.873   3.265   3.380 -1.0382 -0.5946  1.1798
    5CHTO   C22 2026   5.945   3.498   3.210 -0.5410  0.2024 -0.3726
    5CHTO   H50 2027   5.922   3.451   3.115  2.0503  1.6902 -1.7825
    5CHTO   O14 2028   5.956   3.640   3.173 -0.1648 -0.0151  0.2080
    5CHTO   C23 2029   5.837   3.698   3.116 -0.6633 -1.3358 -0.2889
    5CHTO   H51 2030   5.815   3.641   3.024 -1.9458 -1.1339 -0.1169
    5CHTO   C34 2031   5.879   3.845   3.086  0.2253  0.1551  0.0556
    5CHTO   O23 2032   5.980   3.851   2.987 -0.1562  0.6879  0.1920
    5CHTO   H38 2033   5.977   3.938   2.951 -1.4745  0.6232  0.1240
    5CHTO   O16 2034   6.076   3.455   3.250  0.1391  0.4207 -0.2811
    5CHTO   C24 2035   6.170   3.389   3.150  0.2036 -0.0637 -0.0771
    5CHTO   H52 2036   6.118   3.359   3.059 -1.2045 -0.2310  0.7692
    5CHTO   C26 2037   6.229   3.260   3.210 -0.1267  0.1949  0.4180
    5CHTO   H54 2038   6.279   3.289   3.305  1.4269  0.2346 -0.4007
    5CHTO   O20 2039   6.115   3.172   3.229 -0.1198  0.0920 -0.3138
    5CHTO   H36 2040   6.135   3.085   3.257 -0.5079 -0.4712 -1.7175
    5CHTO   C30 2041   6.348   3.203   3.123  0.1220 -0.1597 -0.1255
    5CHTO   H58 2042   6.314   3.161   3.027 -0.1834  0.8273 -0.4592
    5CHTO    N6 2043   6.408   3.089   3.201 -0.2433 -0.2325 -0.2337
    5CHTO   H45 2044   6.487   3.044   3.144 -0.8883 -1.2996 -0.2886
    5CHTO   H46 2045   6.451   3.121   3.295 -3.2780 -0.3451  1.2659
    5CHTO   C33 2046   6.446   3.312   3.084 -0.5001  0.4069 -0.6692
    5CHTO   H61 2047   6.492   3.344   3.179  0.0649 -0.9352 -0.4761
    5CHTO   O18 2048   6.375   3.427   3.025 -0.1625 -0.1276 -0.2890
    5CHTO   C28 2049   6.275   3.485   3.105  0.2434 -0.2925  0.4162
    5CHTO   H56 2050   6.323   3.527   3.194 -1.0775  0.0389  0.9940
    5CHTO   C35 2051   6.231   3.602   3.009  0.0185 -0.2956 -0.1305
    5CHTO   O24 2052   6.168   3.548   2.892  0.1570 -0.1498  1.0013
    5CHTO   H39 2053   6.161   3.602   2.816 -1.4177  0.6153  1.6759
    5CHTO    O9 2054   6.554   3.265   2.997  0.2639  0.1491  0.1373
    5CHTO   C13 2055   6.520   3.248   2.844 -0.0800 -0.1597  0.3702
    5CHTO   H26 2056   6.414   3.217   2.841  0.0643 -0.8149  1.5517
    5CHTO   C11 2057   6.609   3.136   2.780 -0.6146  0.8455 -0.2345
    5CHTO   H24 2058   6.589   3.041   2.832  1.6543  0.3752 -0.1658
    5CHTO    O8 2059   6.743   3.167   2.811  0.2080 -0.0681  0.5408
    5CHTO    H3 2060   6.782   3.228   2.751  2.1620 -0.2878  1.5783
    5CHTO    C9 2061   6.595   3.133   2.623 -0.2212  0.4538 -0.6415
    5CHTO   H22 2062   6.486   3.126   2.607 -0.0848  0.6663 -1.7283
    5CHTO    N2 2063   6.647   3.015   2.549 -0.4811 -0.7284  0.4806
    5CHTO   H10 2064   6.567   2.943   2.538 -1.7296  0.6854  0.1820
    5CHTO   H11 2065   6.743   2.973   2.575 -0.8071 -0.5012  2.0798
    5CHTO    C7 2066   6.644   3.277   2.565 -0.0318  1.0937  0.0687
    5CHTO   H20 2067   6.629   3.273   2.455  1.1267 -0.4962 -0.0452
    5CHTO    O4 2068   6.566   3.381   2.615 -0.1157  0.4723  0.2434
    5CHTO   C14 2069   6.544   3.387   2.759  0.5176  0.8115  0.1015
    5CHTO   H27 2070   6.451   3.448   2.772  1.7336  2.7171  0.0980
    5CHTO   C18 2071   6.652   3.468   2.823 -0.1074 -0.1765  0.7505
    5CHTO   O13 2072   6.668   3.593   2.761 -0.2225  0.1694  0.4141
    5CHTO    H7 2073   6.646   3.663   2.820 -0.0042 -1.1040  2.0523
    5CHTO    O2 2074   6.811   3.311   2.586 -0.4488  0.0085  0.0856
    5CHTO    C1 2075   6.866   3.357   2.462 -0.0316 -0.6636 -0.3295
    5CHTO   H14 2076   6.793   3.424   2.411 -0.5316 -0.3003  0.8506
    5CHTO    C2 2077   6.907   3.240   2.368  0.1088 -0.0985  0.2884
    5CHTO   H15 2078   6.962   3.178   2.440 -0.5063  0.7329  1.4875
    5CHTO    O6 2079   6.795   3.177   2.305  0.0519  0.4875 -0.1128
    5CHTO    H1 2080   6.739   3.150   2.375  0.3987  2.0399  0.8083
    5CHTO    C3 2081   7.003   3.294   2.250 -0.2047 -0.4124 -0.2164
    5CHTO   H16 2082   6.939   3.352   2.181  0.9676 -0.6157 -1.5164
    5CHTO    N1 2083   7.064   3.179   2.181  0.0827  0.5089 -0.2190
    5CHTO    H8 2084   6.987   3.103   2.175  0.1309  0.3131  1.3821
    5CHTO    H9 2085   7.110   3.204   2.087 -2.2734  2.1677 -0.9678
    5CHTO    C4 2086   7.119   3.378   2.310  0.0372  0.0908 -0.1829
    5CHTO   H17 2087   7.177   3.313   2.376 -0.3658 -2.4612 -2.2479
    5CHTO    O1 2088   7.056   3.484   2.372  0.1989 -0.0771 -0.2770
    5CHTO    C5 2089   6.993   3.448   2.493  0.6378 -0.7121  0.0326
    5CHTO   H18 2090   7.056   3.387   2.558 -0.1997  1.2693  2.8202
    5CHTO   C16 2091   6.955   3.579   2.566 -0.3978  0.8262  0.4224
    5CHTO   O11 2092   7.069   3.625   2.636  0.6385 -0.4781  0.8508
    5CHTO    H5 2093   7.034   3.682   2.702 -0.2238 -1.0377  0.8903
    5CHTO    O3 2094   7.207   3.434   2.214  0.6836  0.2042 -0.0319
    5CHTO    C6 2095   7.351   3.445   2.248 -0.2790  0.1477  0.0300
    5CHTO   H19 2096   7.383   3.409   2.346  0.4486 -2.4577 -1.1202
    5CHTO    C8 2097   7.424   3.364   2.134 -0.5950  0.1130 -0.2895
    5CHTO   H21 2098   7.378   3.391   2.039  0.8610 -0.4457 -1.1595
    5CHTO    O7 2099   7.398   3.226   2.152  0.3363 -0.0082 -0.8170
    5CHTO    H2 2100   7.424   3.182   2.073  1.4114  1.1835 -1.1451
    5CHTO   C12 2101   7.583   3.401   2.138 -0.2277 -0.5681  0.3889
    5CHTO   H25 2102   7.631   3.341   2.218  0.4975 -1.9858 -1.0858
    5CHTO    N3 2103   7.646   3.343   2.013  0.2348  0.0836 -0.2151
    5CHTO   H12 2104   7.655   3.236   2.023 -0.3750  0.1011  0.5070
    5CHTO   H13 2105   7.605   3.361   1.914 -0.3146  4.3340  0.6870
    5CHTO   C15 2106   7.617   3.553   2.165  0.5290 -0.6205 -0.1532
    5CHTO   H28 2107   7.616   3.616   2.077  0.5828  0.1707  0.4077
    5CHTO   O10 2108   7.773   3.566   2.231 -1.4140 -0.6072 -0.3389
    5CHTO    H4 2109   7.813   3.481   2.222 -1.9141 -0.8342 -0.4138
    5CHTO    O5 2110   7.533   3.610   2.270  0.2344 -0.3031 -0.6030
    5CHTO   C10 2111   7.395   3.595   2.245 -0.5467 -0.5689 -0.4405
    5CHTO   H23 2112   7.371   3.637   2.147 -0.2197 -1.1671 -0.7772
    5CHTO   C17 2113   7.323   3.673   2.356 -0.2387 -0.3789  0.6522
    5CHTO   O12 2114   7.341   3.817   2.351  0.5150  0.1348  0.3931
    5CHTO    H6 2115   7.391   3.857   2.282  1.0081  0.8928  1.1676
    6CHTO  H203 2116   5.415   5.145   2.641  0.3971 -1.8909 -0.0860
    6CHTO   O82 2117   5.397   5.158   2.733  0.5774 -0.3689 -0.2398
    6CHTO  C123 2118   5.485   5.260   2.784 -0.1745  0.3613 -0.1480
    6CHTO  H227 2119   5.562   5.285   2.710 -0.2205  0.6582 -0.0999
    6CHTO   O77 2120   5.395   5.373   2.813 -0.7347 -0.0219  0.4314
    6CHTO  C118 2121   5.455   5.496   2.858  0.1841 -0.2838 -0.4950
    6CHTO  H222 2122   5.528   5.536   2.786 -1.2335  1.7905 -0.8566
    6CHTO  C125 2123   5.332   5.599   2.870  0.2888 -0.3618 -0.3663
    6CHTO   O84 2124   5.267   5.614   2.746  0.1689  0.3895 -0.2431
    6CHTO  H205 2125   5.307   5.688   2.705 -0.4025 -0.0457 -1.5885
    6CHTO  C114 2126   5.537   5.473   2.985 -0.7911 -0.0592  0.1598
    6CHTO  H218 2127   5.470   5.464   3.071 -0.4132  2.3881  0.7563
    6CHTO  C116 2128   5.627   5.342   2.980  0.3671  0.0384 -0.4387
    6CHTO  H220 2129   5.709   5.367   2.910  0.6385 -1.6193 -0.7362
    6CHTO   O79 2130   5.680   5.317   3.111 -0.0273 -0.0995 -0.1799
    6CHTO  H201 2131   5.770   5.342   3.109 -0.1220  0.3506  0.8763
    6CHTO  C120 2132   5.549   5.216   2.929  1.0330 -0.2631  1.0255
    6CHTO  H224 2133   5.470   5.198   3.005  0.3120 -3.4138 -0.3802
    6CHTO   N21 2134   5.624   5.094   2.914 -0.5955  0.7293  0.8742
    6CHTO  H211 2135   5.628   5.066   3.018  0.0749 -1.9801  0.1510
    6CHTO  H212 2136   5.550   5.029   2.869 -0.9554  1.8185 -0.1180
    6CHTO   O75 2137   5.613   5.595   3.002  0.0583 -0.2234  0.3784
    6CHTO  C112 2138   5.593   5.643   3.153 -0.4840 -0.2363  0.6329
    6CHTO  H216 2139   5.615   5.561   3.223  0.5393  0.1367  0.7595
    6CHTO   O73 2140   5.462   5.694   3.164  0.0504  0.6857  0.0082
    6CHTO  C113 2141   5.417   5.701   3.300  0.4149  0.3933  0.4039
    6CHTO  H217 2142   5.447   5.611   3.356  0.2821  0.1614  0.1060
    6CHTO  C124 2143   5.265   5.710   3.303  0.2475 -0.1339 -0.2518
    6CHTO   O83 2144   5.192   5.592   3.272  0.3203  0.2285  0.2432
    6CHTO  H204 2145   5.208   5.560   3.186  0.5678 -0.0060  0.3764
    6CHTO  C109 2146   5.493   5.822   3.365 -0.3131 -0.2005  0.0495
    6CHTO  H213 2147   5.447   5.914   3.325 -1.7857 -0.8749  0.1843
    6CHTO  C110 2148   5.649   5.815   3.337 -0.0670  0.3584  0.4950
    6CHTO  H214 2149   5.692   5.744   3.407 -0.7197 -1.2863 -0.7469
    6CHTO   O78 2150   5.716   5.934   3.377  0.0579 -0.4120  0.0605
    6CHTO  H200 2151   5.809   5.922   3.374 -0.2228 -2.8242  0.2130
    6CHTO  C111 2152   5.682   5.769   3.190  0.2216  0.1499 -0.5217
    6CHTO  H215 2153   5.659   5.850   3.119 -1.8954 -0.5870 -0.7122
    6CHTO   N19 2154   5.824   5.731   3.174  0.2300 -0.7212  0.0767
    6CHTO  H207 2155   5.838   5.686   3.077 -1.0515 -0.2986 -0.3169
    6CHTO  H208 2156   5.853   5.643   3.230 -0.4805  0.5657  2.5422
    6CHTO   O74 2157   5.476   5.828   3.511  0.1779  0.1897  0.6952
    6CHTO  C115 2158   5.351   5.926   3.561  0.0724  0.4570  0.8364
    6CHTO  H219 2159   5.313   5.988   3.481 -0.2696 -0.2242  0.4630
    6CHTO   O76 2160   5.216   5.830   3.612  0.3170 -0.3572 -0.4820
    6CHTO  C122 2161   5.248   5.748   3.724 -0.6210 -0.0291  0.9577
    6CHTO  H226 2162   5.290   5.659   3.677  0.6653  1.2972 -0.4889
    6CHTO  C126 2163   5.115   5.696   3.786  0.1905 -0.5325  0.4446
    6CHTO   O85 2164   5.025   5.789   3.849 -0.1921 -0.3152 -0.2507
    6CHTO  H206 2165   5.000   5.849   3.782  0.5224  2.9976  2.3538
    6CHTO  C121 2166   5.341   5.819   3.835  0.3568 -1.1248 -0.4947
    6CHTO  H225 2167   5.296   5.799   3.934  0.3386 -1.1992 -0.5178
    6CHTO   O81 2168   5.478   5.764   3.841  0.2516 -0.0720  0.2286
    6CHTO  H202 2169   5.487   5.693   3.781  1.1402  0.3413 -0.1362
    6CHTO  C119 2170   5.344   5.977   3.811 -0.2033  0.3541  0.2912
    6CHTO  H223 2171   5.242   6.016   3.805 -1.6808 -3.1712  0.9746
    6CHTO  C117 2172   5.410   6.014   3.674  0.1204  0.1799  0.0988
    6CHTO  H221 2173   5.516   5.989   3.671  0.2573  0.5344  1.4964
    6CHTO   N20 2174   5.409   6.162   3.651  0.2977  0.6660 -0.1301
    6CHTO  H209 2175   5.306   6.195   3.653 -0.1081 -0.6511  0.9353
    6CHTO  H210 2176   5.467   6.222   3.719  0.9112 -2.0347  1.8229
    6CHTO   O80 2177   5.408   6.064   3.937  0.3457  0.4488 -0.2506
    6CHTO  C103 2178   5.330   6.080   4.071  0.2089  0.3502 -0.1853
    6CHTO  H190 2179   5.359   6.173   4.119  1.0762 -0.3826  0.7357
    6CHTO  C101 2180   5.179   6.079   4.060 -0.0386 -0.1085  0.1880
    6CHTO  H188 2181   5.137   5.997   4.002  1.3749 -0.9666  0.3620
    6CHTO   O68 2182   5.138   6.205   3.986 -0.8617  0.8335 -0.4325
    6CHTO  H168 2183   5.140   6.279   4.044 -1.6447  0.1742  0.4423
    6CHTO   C99 2184   5.113   6.074   4.199 -0.5907  0.6614 -0.4455
    6CHTO  H186 2185   5.146   6.163   4.256  0.6975  0.9337 -1.5667
    6CHTO   N17 2186   4.967   6.084   4.209 -0.3318  0.7564  0.0790
    6CHTO  H174 2187   4.940   6.179   4.166  3.6193  2.0779  0.3068
    6CHTO  H175 2188   4.929   6.003   4.149 -0.4112  0.0973  1.0069
    6CHTO   C97 2189   5.177   5.950   4.270  0.7352 -0.1705  0.1370
    6CHTO  H184 2190   5.143   5.863   4.213 -2.0094 -0.2449  1.7977
    6CHTO   O64 2191   5.319   5.959   4.278  0.0054 -0.1301 -0.3382
    6CHTO  C104 2192   5.385   5.969   4.161 -0.0163 -0.2814  0.6025
    6CHTO  H191 2193   5.380   5.872   4.111 -0.6829  0.1838 -0.2515
    6CHTO  C108 2194   5.535   5.996   4.198 -0.3690  0.1946 -0.1341
    6CHTO   O71 2195   5.562   6.094   4.294  0.2718 -0.1235  0.3387
    6CHTO  H171 2196   5.601   6.163   4.245  1.1378 -0.3846  0.6442
    6CHTO   O62 2197   5.138   5.941   4.408  0.3883  0.1795  0.3252
    6CHTO   C91 2198   5.146   5.811   4.468  0.3895 -0.5671 -0.5182
    6CHTO  H178 2199   5.079   5.818   4.554  0.4855 -3.2389 -0.1586
    6CHTO   C92 2200   5.283   5.770   4.520  0.1220 -0.0320  0.0737
    6CHTO  H179 2201   5.345   5.770   4.429 -1.4315 -0.7866 -1.0106
    6CHTO   O66 2202   5.327   5.882   4.598 -0.2749  0.5425  0.3963
    6CHTO  H166 2203   5.418   5.892   4.579  0.1476 -3.5685 -0.3052
    6CHTO   C93 2204   5.279   5.633   4.601  0.1683  0.2856  0.4403
    6CHTO  H180 2205   5.219   5.671   4.685 -1.3799 -0.1802 -0.4401
    6CHTO   N16 2206   5.410   5.589   4.654  0.1739  0.6045 -0.4385
    6CHTO  H172 2207   5.454   5.668   4.714 -0.2715  0.7671 -0.3220
    6CHTO  H173 2208   5.474   5.556   4.573 -0.2802  1.9659 -1.3677
    6CHTO   C94 2209   5.200   5.520   4.530  0.5768 -0.0222  0.2734
    6CHTO  H181 2210   5.255   5.474   4.448  0.5282  0.8354 -0.2551
    6CHTO   O61 2211   5.077   5.575   4.480  0.4044  0.3006 -0.1282
    6CHTO   C95 2212   5.076   5.689   4.396 -0.3381 -0.9165  0.0354
    6CHTO  H182 2213   5.124   5.659   4.303 -1.0304 -0.6794 -0.4044
    6CHTO  C106 2214   4.929   5.724   4.355 -0.0394 -0.2116 -0.5419
    6CHTO   O69 2215   4.870   5.634   4.261  0.1470  0.2983 -0.2761
    6CHTO  H169 2216   4.818   5.689   4.205  0.5896  1.0268  0.0241
    6CHTO   O63 2217   5.155   5.405   4.639 -0.4615  0.2265  0.2445
    6CHTO   C96 2218   5.100   5.271   4.577 -0.4702  0.4668 -0.4953
    6CHTO  H183 2219   5.125   5.269   4.471  1.7189  0.2215  0.0147
    6CHTO   C98 2220   4.944   5.251   4.596  0.0411  0.1091 -0.7009
    6CHTO  H185 2221   4.924   5.261   4.703 -1.3821 -1.9805 -0.7437
    6CHTO   O67 2222   4.870   5.354   4.528  0.6712 -0.5145 -0.0485
    6CHTO  H167 2223   4.928   5.400   4.470  1.4067 -0.7020  0.5214
    6CHTO  C102 2224   4.882   5.111   4.545  0.2472  0.0109 -0.0490
    6CHTO  H189 2225   4.838   5.128   4.445  0.5094  0.0810 -0.1516
    6CHTO   N18 2226   4.770   5.068   4.635  0.4989 -0.0692 -0.2275
    6CHTO  H176 2227   4.808   5.085   4.735  1.6811  0.0098 -0.6797
    6CHTO  H177 2228   4.690   5.140   4.625 -0.2162 -0.9783 -1.1187
    6CHTO  C105 2229   4.994   5.006   4.527  0.6348 -0.7171 -0.1685
    6CHTO  H192 2230   4.952   4.906   4.529  0.3858 -0.5998  2.4625
    6CHTO   O65 2231   5.098   5.017   4.624  0.1305  0.6497 -0.4840
    6CHTO  C100 2232   5.173   5.146   4.641 -0.7227  0.4995  0.0754
    6CHTO  H187 2233   5.173   5.168   4.749 -0.8991 -0.5754  0.3055
    6CHTO  C107 2234   5.317   5.113   4.597 -0.3292  0.3045  0.5231
    6CHTO   O70 2235   5.408   5.223   4.589  0.2979 -0.4610  0.3021
    6CHTO  H170 2236   5.492   5.188   4.613  2.1654  3.0425 -0.6905
    6CHTO   O57 2237   5.060   5.045   4.387 -0.0329  0.2881 -0.3254
    6CHTO   C85 2238   4.992   5.013   4.264 -1.1400  0.5394  0.5601
    6CHTO  H157 2239   4.885   4.991   4.286 -1.5482  0.4716 -1.3990
    6CHTO   C83 2240   5.050   4.880   4.208 -0.4260 -0.7676  0.4526
    6CHTO  H155 2241   5.041   4.801   4.283 -2.0296 -0.7388  0.2914
    6CHTO   O56 2242   5.191   4.881   4.180  0.1568  0.4286 -0.1912
    6CHTO  H135 2243   5.238   4.892   4.260 -0.2166  0.2933  0.0482
    6CHTO   C81 2244   4.966   4.838   4.087  0.2554  0.1503 -0.0245
    6CHTO  H153 2245   4.862   4.857   4.113  0.4480 -0.3245  1.0996
    6CHTO   N14 2246   4.981   4.696   4.054 -0.6458 -0.0208  0.2499
    6CHTO  H141 2247   4.902   4.656   3.994 -0.1569  0.3804 -0.6619
    6CHTO  H142 2248   5.069   4.686   3.994  0.8210 -1.0721  2.5252
    6CHTO   C79 2249   4.986   4.944   3.969 -0.0138  0.0414  0.3719
    6CHTO  H151 2250   4.923   4.914   3.885  0.4353  0.5104 -0.1355
    6CHTO   O52 2251   4.945   5.075   4.020  0.1379 -0.1212  0.2806
    6CHTO   C86 2252   5.005   5.112   4.152  0.3248  0.0652 -0.2790
    6CHTO  H158 2253   5.113   5.127   4.130  0.6805 -1.8285  0.0921
    6CHTO   C90 2254   4.946   5.249   4.191 -0.2901 -0.6874  0.6358
    6CHTO   O60 2255   4.990   5.350   4.096  0.6498 -0.6867 -0.0518
    6CHTO  H138 2256   4.962   5.325   4.010 -1.3782 -0.7931  0.6205
    6CHTO   O50 2257   5.120   4.959   3.918  0.2961 -0.0868 -0.0950
    6CHTO   C73 2258   5.211   4.961   3.813  0.4226 -0.2927  0.2126
    6CHTO  H145 2259   5.161   4.954   3.715 -0.4213  1.3967  0.5010
    6CHTO   C74 2260   5.318   4.849   3.830  0.2263  0.3276  1.5847
    6CHTO  H146 2261   5.266   4.753   3.834 -1.7613  1.2532 -0.7447
    6CHTO   O54 2262   5.387   4.829   3.703 -0.0883  0.0757  0.2927
    6CHTO  H133 2263   5.455   4.893   3.697  0.4802 -0.6416 -0.9958
    6CHTO   C75 2264   5.423   4.868   3.943  0.3779 -0.6857 -0.2919
    6CHTO  H147 2265   5.380   4.842   4.041 -2.5659  2.2359 -0.7153
    6CHTO   N13 2266   5.530   4.764   3.951 -0.1729  0.1748  0.1065
    6CHTO  H139 2267   5.510   4.662   3.921 -2.2676  0.0732  1.7261
    6CHTO  H140 2268   5.588   4.771   4.042  1.4620  0.1620 -0.9087
    6CHTO   C76 2269   5.468   5.022   3.952 -0.3313  0.5459 -0.0686
    6CHTO  H148 2270   5.546   5.043   3.879  2.2553  2.8811  3.1771
    6CHTO   O49 2271   5.362   5.112   3.934  0.2856 -0.0377  0.2934
    6CHTO   C77 2272   5.285   5.096   3.811 -0.9552  0.8912  0.2631
    6CHTO  H149 2273   5.342   5.102   3.718 -2.2260 -0.4720 -0.6383
    6CHTO   C88 2274   5.194   5.222   3.800 -0.2963 -0.3066 -0.3488
    6CHTO   O58 2275   5.273   5.350   3.745  0.6141 -0.2865  0.5730
    6CHTO  H136 2276   5.353   5.326   3.701 -0.1672  1.7528 -2.1039
    6CHTO   O51 2277   5.515   5.060   4.108 -0.4837 -0.4982 -0.6776
    6CHTO   C78 2278   5.553   5.227   4.141  0.3969  0.2394  0.4441
    6CHTO  H150 2279   5.601   5.231   4.241 -1.6500 -1.5722  1.5502
    6CHTO   C80 2280   5.437   5.325   4.140 -0.1548 -0.4431  0.5110
    6CHTO  H152 2281   5.392   5.330   4.038  1.8750  2.7252 -0.3055
    6CHTO   O55 2282   5.337   5.276   4.232 -0.3781  0.4033 -0.1633
    6CHTO  H134 2283   5.265   5.332   4.252 -0.3304  0.6676 -0.7162
    6CHTO   C84 2284   5.478   5.475   4.171 -0.6159  0.6902  0.5932
    6CHTO  H156 2285   5.503   5.482   4.277  1.9237  4.3484 -0.1611
    6CHTO   N15 2286   5.372   5.578   4.141  0.1484 -0.2603 -0.0746
    6CHTO  H143 2287   5.327   5.562   4.045  1.6194 -0.0869 -0.8090
    6CHTO  H144 2288   5.424   5.671   4.136  0.0031 -0.2507 -1.7714
    6CHTO   C87 2289   5.609   5.507   4.093 -0.0621 -0.2777 -0.6565
    6CHTO  H159 2290   5.586   5.518   3.986 -1.7413 -1.6466 -0.4582
    6CHTO   O53 2291   5.708   5.399   4.113  0.2767 -0.4685  0.3981
    6CHTO   C82 2292   5.654   5.280   4.051 -0.5583 -0.3795  0.1069
    6CHTO  H154 2293   5.610   5.294   3.952 -0.8159 -0.7194  0.1744
    6CHTO   C89 2294   5.766   5.177   4.031  0.1090 -0.6031  0.0323
    6CHTO   O59 2295   5.878   5.240   3.970  0.5186  0.0911 -0.5805
    6CHTO  H137 2296   5.956   5.209   4.012 -0.2076  0.6189  1.1993
    6CHTO   O45 2297   5.670   5.646   4.129 -0.4859  0.2997  0.6366
    6CHTO   C67 2298   5.806   5.668   4.095  0.0580 -0.2946  0.6964
    6CHTO  H124 2299   5.863   5.581   4.128 -1.2985 -1.3872  0.2046
    6CHTO   C65 2300   5.823   5.687   3.940 -0.1786 -0.2112  0.0962
    6CHTO  H122 2301   5.724   5.674   3.895 -0.4573 -0.8281  0.8707
    6CHTO   O44 2302   5.910   5.581   3.892  0.4155 -0.6796 -0.0547
    6CHTO  H102 2303   5.850   5.512   3.871 -0.0168 -0.9196  1.8490
    6CHTO   C63 2304   5.871   5.835   3.903  0.4233  0.8883 -0.0649
    6CHTO  H120 2305   5.803   5.909   3.945  1.5586  2.1718 -0.4229
    6CHTO   N11 2306   5.876   5.872   3.760 -0.4191  0.2203 -0.3037
    6CHTO  H108 2307   5.939   5.802   3.709 -1.3542 -2.0051  1.4897
    6CHTO  H109 2308   5.910   5.973   3.759  2.8538 -0.8328 -1.4938
    6CHTO   C61 2309   6.002   5.873   3.987  0.1427 -0.5022  0.0113
    6CHTO  H118 2310   5.999   5.983   3.994  0.2454 -0.3760 -1.7485
    6CHTO   O40 2311   5.993   5.820   4.129 -0.1557 -0.2722  0.0028
    6CHTO   C68 2312   5.861   5.791   4.175  0.1863  0.1948 -0.6213
    6CHTO  H125 2313   5.803   5.884   4.158 -1.1556 -0.6507 -0.7245
    6CHTO   C72 2314   5.876   5.770   4.324  1.1049  0.2450 -0.4069
    6CHTO   O48 2315   5.961   5.663   4.373 -0.4010 -0.6885 -0.4634
    6CHTO  H105 2316   5.949   5.587   4.321  0.2289 -2.0051  1.2564
    6CHTO   O38 2317   6.132   5.832   3.929  0.1817  0.0277 -0.0531
    6CHTO   C55 2318   6.246   5.878   4.010  0.0424  0.4076 -1.0523
    6CHTO  H112 2319   6.225   5.905   4.114  0.5274 -1.7956 -0.3568
    6CHTO   C56 2320   6.314   6.001   3.928 -0.3489 -0.0084 -0.7442
    6CHTO  H113 2321   6.338   5.957   3.830  0.0363  2.0571 -1.6040
    6CHTO   O42 2322   6.208   6.100   3.915 -0.4402  0.0986  0.4248
    6CHTO  H100 2323   6.197   6.139   4.000 -0.8648  0.2486  0.3017
    6CHTO   C57 2324   6.437   6.063   3.999 -0.5527  0.1832  0.7152
    6CHTO  H114 2325   6.394   6.087   4.096 -0.3442  0.2654  0.7875
    6CHTO   N10 2326   6.498   6.182   3.934 -0.3688 -0.2151  0.6620
    6CHTO  H106 2327   6.504   6.168   3.827 -2.3660 -1.9100  0.7371
    6CHTO  H107 2328   6.449   6.276   3.954 -0.4743 -0.0151 -0.4673
    6CHTO   C58 2329   6.541   5.947   4.012 -0.5090 -0.1297 -0.1646
    6CHTO  H115 2330   6.589   5.934   3.913 -0.5116  1.1776 -0.3584
    6CHTO   O37 2331   6.479   5.825   4.058  0.2063 -0.4241  0.0470
    6CHTO   C59 2332   6.351   5.773   4.015 -0.2319 -0.4664 -0.1488
    6CHTO  H116 2333   6.369   5.727   3.918 -1.8049  0.2009 -0.7721
    6CHTO   C70 2334   6.314   5.668   4.117 -0.2365 -0.6549  0.1340
    6CHTO   O46 2335   6.185   5.610   4.100 -0.0656 -0.2206 -0.0360
    6CHTO  H103 2336   6.126   5.681   4.082 -0.3991 -0.8261 -1.3791
    6CHTO   O39 2337   6.659   5.988   4.121 -0.0987  0.7877  0.0368
    6CHTO   C60 2338   6.781   5.915   4.105  0.6244  0.2877 -0.5252
    6CHTO  H117 2339   6.758   5.809   4.100  0.5879  0.3044 -0.7151
    6CHTO   C62 2340   6.859   5.959   3.972 -0.6220 -0.3150 -0.0031
    6CHTO  H119 2341   6.790   5.933   3.889 -0.1441 -0.7862 -0.2571
    6CHTO   O43 2342   6.874   6.104   3.984 -0.3482 -0.1021 -0.3902
    6CHTO  H101 2343   6.923   6.121   4.062  0.9054 -0.5700 -1.0616
    6CHTO   C66 2344   7.000   5.885   3.963  0.2240 -0.5424 -0.1176
    6CHTO  H123 2345   6.981   5.778   3.957 -0.3631 -0.4546  0.1429
    6CHTO   N12 2346   7.058   5.922   3.834 -1.3019 -0.2024 -0.1074
    6CHTO  H110 2347   7.139   5.993   3.838 -1.3576 -0.2129  1.3914
    6CHTO  H111 2348   7.091   5.832   3.784 -0.1789 -0.1368  0.5008
    6CHTO   C69 2349   7.100   5.922   4.084 -0.0603  0.9757  0.3826
    6CHTO  H126 2350   7.134   6.028   4.081  2.1565  0.2821  0.1634
    6CHTO   O41 2351   7.007   5.902   4.228 -0.0707 -0.3762  0.1233
    6CHTO   C64 2352   6.857   5.949   4.228  0.3097 -0.2623 -0.8510
    6CHTO  H121 2353   6.858   6.059   4.241 -0.9099 -0.3941  0.3946
    6CHTO   C71 2354   6.789   5.886   4.356 -0.3655 -0.5464  0.7488
    6CHTO   O47 2355   6.853   5.911   4.481 -0.0495 -0.3673 -0.1873
    6CHTO  H104 2356   6.820   5.991   4.516 -0.4877 -0.1717 -1.0385
    6CHTO   O34 2357   7.205   5.849   4.094 -0.3175  0.1106  0.0438
    6CHTO   C49 2358   7.361   5.848   4.130  1.2028  0.0175 -0.0845
    6CHTO   H91 2359   7.414   5.797   4.050  0.3360 -0.1973 -0.5261
    6CHTO   C47 2360   7.374   5.775   4.263 -0.2086 -0.0326 -0.3329
    6CHTO   H89 2361   7.484   5.766   4.279  0.1031  0.6977 -2.0356
    6CHTO   O33 2362   7.314   5.641   4.252 -0.0829  0.7091 -0.0681
    6CHTO   H70 2363   7.222   5.646   4.270 -0.6971  0.0441 -2.8524
    6CHTO   C45 2364   7.303   5.856   4.381 -1.1689  0.2515 -0.8000
    6CHTO   H87 2365   7.196   5.870   4.360 -1.1968 -1.3948 -1.8410
    6CHTO    N8 2366   7.320   5.778   4.508  0.6190 -0.6406  0.0499
    6CHTO   H75 2367   7.381   5.833   4.577 -0.1800 -1.6916  1.6340
    6CHTO   H76 2368   7.224   5.758   4.554  0.2587 -0.6193 -0.6816
    6CHTO   C43 2369   7.370   6.001   4.394 -0.6018  0.1442 -0.2283
    6CHTO   H85 2370   7.312   6.049   4.472 -0.4058  0.0707 -0.0373
    6CHTO   O29 2371   7.366   6.065   4.263 -0.2292 -1.0556 -0.2997
    6CHTO   C50 2372   7.413   5.992   4.145 -0.3305  0.8115 -0.0039
    6CHTO   H92 2373   7.377   6.061   4.067 -2.0234 -0.3942 -0.3326
    6CHTO   C54 2374   7.568   5.982   4.134  0.5018 -0.0850  0.1696
    6CHTO   O36 2375   7.613   6.113   4.092 -0.1230 -0.3263  0.4837
    6CHTO   H72 2376   7.690   6.139   4.140 -0.8144 -1.0043  2.0072
    6CHTO   O27 2377   7.496   6.008   4.464 -0.7861  0.3523 -0.6489
    6CHTO   C37 2378   7.571   6.099   4.545 -0.1316  0.4620 -0.1454
    6CHTO   H79 2379   7.678   6.082   4.526  0.0954  0.1689  1.3624
    6CHTO   C38 2380   7.542   6.247   4.494  0.2733 -0.2420 -0.5067
    6CHTO   H80 2381   7.436   6.266   4.517  1.3600  2.0742  2.8845
    6CHTO   O31 2382   7.573   6.253   4.353 -0.0067 -0.1681 -0.2393
    6CHTO   H68 2383   7.503   6.219   4.301 -0.3971 -0.7788  0.6696
    6CHTO   C39 2384   7.629   6.343   4.582  0.3605 -0.2784  0.4453
    6CHTO   H81 2385   7.734   6.325   4.560  0.3073  0.7186 -0.6213
    6CHTO    N7 2386   7.615   6.493   4.545 -0.2819  0.4221 -0.3677
    6CHTO   H73 2387   7.589   6.556   4.629 -1.7750  0.1093 -0.5824
    6CHTO   H74 2388   7.550   6.512   4.461  1.6731 -1.1836 -2.2810
    6CHTO   C40 2389   7.604   6.317   4.735 -0.0776  0.2417  0.1669
    6CHTO   H82 2390   7.517   6.363   4.781  0.3570 -0.1726  1.4291
    6CHTO   O26 2391   7.611   6.173   4.769 -0.4638  0.2995  0.1449
    6CHTO   C41 2392   7.532   6.078   4.691  0.2626  0.6350 -0.4774
    6CHTO   H83 2393   7.424   6.100   4.694 -0.0713 -1.1318  1.4705
    6CHTO   C52 2394   7.553   5.936   4.742 -0.2048  0.5226 -1.0531
    6CHTO   O35 2395   7.709   5.874   4.746 -0.0904 -0.2014 -0.5585
    6CHTO   H71 2396   7.762   5.926   4.804  2.4028 -0.9193 -2.1128
    6CHTO   O28 2397   7.717   6.371   4.809  1.1154  1.1005  0.3989
    6CHTO   C42 2398   7.702   6.424   4.947  0.6381  0.1150  0.5303
    6CHTO   H84 2399   7.804   6.456   4.969  1.3220 -1.8666  0.3487
    6CHTO   C44 2400   7.681   6.313   5.049 -0.1198  0.6186  0.0192
    6CHTO   H86 2401   7.584   6.269   5.024  1.4596 -2.4970 -0.8544
    6CHTO   O32 2402   7.781   6.215   5.040 -0.1475 -0.3131  0.7576
    6CHTO   H69 2403   7.744   6.133   5.067 -1.2664 -1.3945 -3.6080
    6CHTO   C48 2404   7.677   6.378   5.196  0.8654  0.4001  0.0038
    6CHTO   H90 2405   7.773   6.425   5.219  0.6854  0.1667  1.2348
    6CHTO    N9 2406   7.645   6.278   5.307 -0.2525  0.3456  0.7656
    6CHTO   H77 2407   7.633   6.176   5.274  0.7455  0.3198  0.4752
    6CHTO   H78 2408   7.567   6.307   5.377  0.1885  0.3285  1.2647
    6CHTO   C51 2409   7.574   6.498   5.201  0.8572  0.0736 -0.3476
    6CHTO   H93 2410   7.475   6.454   5.190  1.1726 -0.8378  0.3686
    6CHTO   O30 2411   7.602   6.595   5.105 -0.2288 -0.2952  0.6107
    6CHTO   C46 2412   7.606   6.544   4.964 -0.2179  0.2848 -0.4176
    6CHTO   H88 2413   7.508   6.511   4.932 -0.9724 -0.3134  2.3606
    6CHTO   C53 2414   7.654   6.654   4.880  1.1865 -0.0222  0.4650
    6CHTO   O72 2415   7.569   6.770   4.886  0.1705 -0.5819  0.5262
    6CHTO  H199 2416   7.618   6.828   4.831 -0.6933  1.5751  1.9476
    6CHTO   O22 2417   7.581   6.571   5.327 -0.2102  0.3578  0.0654
    6CHTO   C31 2418   7.484   6.666   5.384  0.5219  0.2423  0.4264
    6CHTO   H59 2419   7.507   6.672   5.493  0.9519 -2.2030  0.4870
    6CHTO   C29 2420   7.497   6.810   5.328 -0.3378 -0.6628 -0.4484
    6CHTO   H57 2421   7.487   6.801   5.219  1.3609  1.6795 -0.8504
    6CHTO   O21 2422   7.635   6.846   5.358 -0.5961  0.5575 -0.1028
    6CHTO   H37 2423   7.673   6.886   5.283  0.6233 -0.4819 -0.0613
    6CHTO   C27 2424   7.387   6.907   5.381  0.0756 -0.1890 -0.1601
    6CHTO   H55 2425   7.408   6.928   5.487 -1.9122 -1.8653  0.6013
    6CHTO    N5 2426   7.391   7.028   5.309  0.6197 -0.8483 -0.0017
    6CHTO   H43 2427   7.360   7.020   5.205 -0.5428 -0.7218  0.3259
    6CHTO   H44 2428   7.322   7.098   5.353  1.2815 -0.2672  0.1180
    6CHTO   C25 2429   7.248   6.840   5.387  0.2150 -0.2970  0.3292
    6CHTO   H53 2430   7.217   6.820   5.284  0.4393 -0.4646  0.2933
    6CHTO   O17 2431   7.260   6.716   5.457  0.0762 -0.1711  0.0265
    6CHTO   C32 2432   7.331   6.612   5.378  0.2663 -0.3039  0.0594
    6CHTO   H60 2433   7.308   6.607   5.271  0.3513 -2.5185  0.1193
    6CHTO   C36 2434   7.303   6.469   5.438 -0.5924  0.2469 -0.3737
    6CHTO   O25 2435   7.344   6.456   5.572  0.4381 -0.9941  0.2204
    6CHTO   H40 2436   7.273   6.435   5.631 -0.7938  2.4134  0.0547
    6CHTO   O15 2437   7.140   6.942   5.471  0.0171 -0.3050 -0.1476
    6CHTO   C19 2438   7.004   6.990   5.502 -1.3897  0.2344 -0.4265
    6CHTO   H47 2439   6.985   6.941   5.599  3.3345  0.4546  0.7456
    6CHTO   C20 2440   6.991   7.142   5.511 -0.2409 -0.0710 -0.0451
    6CHTO   H48 2441   7.021   7.192   5.417  1.7425  0.2652  0.7476
    6CHTO   O19 2442   7.073   7.179   5.626  0.0345 -0.4126 -0.0836
    6CHTO   H35 2443   7.028   7.241   5.680  1.6488 -1.3282  2.4096
    6CHTO   C21 2444   6.841   7.189   5.543 -0.7528  0.3996  0.3312
    6CHTO   H49 2445   6.816   7.161   5.646 -1.3340 -2.0067 -0.4502
    6CHTO    N4 2446   6.823   7.337   5.546  0.0209  0.2141 -0.5189
    6CHTO   H41 2447   6.718   7.363   5.545  0.1797  0.8116 -1.9024
    6CHTO   H42 2448   6.879   7.388   5.469  0.9329 -1.3549 -0.9239
    6CHTO   C22 2449   6.743   7.119   5.437 -0.6987  0.0351 -0.2710
    6CHTO   H50 2450   6.758   7.170   5.343 -0.5982  1.5035  0.5326
    6CHTO   O14 2451   6.764   6.977   5.429 -0.4584  0.4027  0.1640
    6CHTO   C23 2452   6.900   6.939   5.403  0.1995  0.3394  0.0008
    6CHTO   H51 2453   6.916   6.978   5.301  1.0857  0.6436  0.2554
    6CHTO   C34 2454   6.907   6.787   5.395  0.8285  0.0927  0.1540
    6CHTO   O23 2455   6.861   6.719   5.512 -0.0658 -0.0693  0.6263
    6CHTO   H38 2456   6.778   6.678   5.498 -2.3907  3.7588  2.5094
    6CHTO   O16 2457   6.600   7.119   5.464 -0.2240  0.3704  0.5095
    6CHTO   C24 2458   6.500   7.149   5.340 -0.3658 -0.1267 -0.5446
    6CHTO   H52 2459   6.540   7.109   5.247  1.4830  0.4723 -0.0275
    6CHTO   C26 2460   6.460   7.297   5.333  0.2810  0.3472  0.3425
    6CHTO   H54 2461   6.425   7.330   5.434 -0.5882  0.9267 -0.1397
    6CHTO   O20 2462   6.582   7.374   5.309 -0.0506  0.2825  0.1778
    6CHTO   H36 2463   6.612   7.416   5.386 -2.5368  0.3909  1.1230
    6CHTO   C30 2464   6.354   7.321   5.221  0.3870 -0.1046  0.0263
    6CHTO   H58 2465   6.386   7.295   5.119  0.1026 -1.8821  0.3690
    6CHTO    N6 2466   6.318   7.467   5.209 -0.3028  0.0081 -0.1865
    6CHTO   H45 2467   6.337   7.515   5.304  1.0537  1.4962 -1.1908
    6CHTO   H46 2468   6.384   7.516   5.138  0.7211  0.7907  1.2673
    6CHTO   C33 2469   6.233   7.233   5.257 -0.9411 -0.7385  0.4688
    6CHTO   H61 2470   6.188   7.272   5.350 -1.6884  0.6633 -0.4721
    6CHTO   O18 2471   6.265   7.096   5.283  0.4976 -0.1730  0.4188
    6CHTO   C28 2472   6.369   7.076   5.375  0.2751  0.2925 -0.3737
    6CHTO   H56 2473   6.338   7.100   5.477 -0.7799  0.3548 -0.7007
    6CHTO   C35 2474   6.404   6.921   5.361 -0.6470 -0.3823  0.0068
    6CHTO   O24 2475   6.478   6.882   5.239  0.4338  0.0818  0.7726
    6CHTO   H39 2476   6.439   6.929   5.168  1.5252  3.2732  2.1936
    6CHTO    O9 2477   6.130   7.244   5.154 -0.6429  0.3381  0.2388
    6CHTO   C13 2478   5.983   7.297   5.204 -0.1422 -0.0983  0.1126
    6CHTO   H26 2479   6.009   7.383   5.269 -0.4312  0.5993 -0.6684
    6CHTO   C11 2480   5.909   7.189   5.281 -0.2307  0.2663 -0.6375
    6CHTO   H24 2481   5.969   7.161   5.370  0.1632  0.8103 -0.7357
    6CHTO    O8 2482   5.887   7.071   5.202  0.0664  0.2549  0.3024
    6CHTO    H3 2483   5.964   7.052   5.152  1.0352  3.3696  0.4769
    6CHTO    C9 2484   5.778   7.246   5.331  0.3039  0.1043 -0.2203
    6CHTO   H22 2485   5.797   7.334   5.394 -0.0196 -0.3022  0.4561
    6CHTO    N2 2486   5.721   7.161   5.436 -0.2918 -0.9192 -0.2252
    6CHTO   H10 2487   5.631   7.207   5.472 -0.2329 -1.1950  0.2890
    6CHTO   H11 2488   5.709   7.059   5.403 -2.9616 -0.2176 -1.5524
    6CHTO    C7 2489   5.688   7.288   5.204 -0.1781  0.0633  0.2327
    6CHTO   H20 2490   5.607   7.349   5.250  1.9028  2.7047  0.4967
    6CHTO    O4 2491   5.757   7.369   5.110 -0.1540  0.6359 -0.2895
    6CHTO   C14 2492   5.898   7.361   5.086  0.0650  0.8383  0.0727
    6CHTO   H27 2493   5.933   7.466   5.075  0.8100  0.7592  1.6512
    6CHTO   C18 2494   5.916   7.288   4.944  0.4958 -0.3605  0.1783
    6CHTO   O13 2495   5.895   7.384   4.838  0.4985  0.8796  0.0049
    6CHTO    H7 2496   5.803   7.397   4.827  0.0043 -1.6040  0.9548
    6CHTO    O2 2497   5.621   7.143   5.126  0.3359 -0.3387  0.2195
    6CHTO    C1 2498   5.476   7.170   5.087 -0.6828 -0.0561 -0.1653
    6CHTO   H14 2499   5.459   7.086   5.017  0.7811 -0.6013  0.1195
    6CHTO    C2 2500   5.450   7.303   5.004 -0.3673 -0.3393 -0.1579
    6CHTO   H15 2501   5.468   7.384   5.077  3.2145  0.8521 -2.2392
    6CHTO    O6 2502   5.534   7.310   4.888  0.5029  0.0805  0.2256
    6CHTO    H1 2503   5.536   7.396   4.849 -0.6912 -0.1877 -0.4614
    6CHTO    C3 2504   5.299   7.320   4.959 -0.3982  0.1179 -0.1894
    6CHTO   H16 2505   5.275   7.240   4.886  0.6045 -0.7902  0.4666
    6CHTO    N1 2506   5.277   7.449   4.886  0.6418  0.4514  0.7472
    6CHTO    H8 2507   5.202   7.512   4.932  0.8904  1.7210 -0.5443
    6CHTO    H9 2508   5.270   7.436   4.780  0.3798 -0.9698  0.9348
    6CHTO    C4 2509   5.201   7.289   5.082  0.4619  0.1810 -0.2399
    6CHTO   H17 2510   5.191   7.380   5.142  3.0617 -0.3471  1.0788
    6CHTO    O1 2511   5.234   7.179   5.163 -0.2722  0.3000 -0.1945
    6CHTO    C5 2512   5.369   7.177   5.205 -0.3197  0.1438  0.3934
    6CHTO   H18 2513   5.395   7.265   5.263 -0.5328  0.5567 -0.1279
    6CHTO   C16 2514   5.388   7.054   5.298  0.2977 -0.2187 -0.1685
    6CHTO   O11 2515   5.322   6.936   5.238 -0.6468 -0.0570 -0.1631
    6CHTO    H5 2516   5.324   6.865   5.299 -2.5612 -2.1280 -2.4131
    6CHTO    O3 2517   5.062   7.260   5.039 -0.0791 -0.0576  0.1231
    6CHTO    C6 2518   4.966   7.300   5.143  0.4684  0.0162  0.3838
    6CHTO   H19 2519   5.016   7.316   5.239 -1.4526  0.9351  1.2775
    6CHTO    C8 2520   4.889   7.431   5.093 -0.6428 -0.8123  0.7587
    6CHTO   H21 2521   4.857   7.416   4.990  0.9234 -1.0565  0.2949
    6CHTO    O7 2522   4.982   7.539   5.086  0.0184  0.2192  0.0808
    6CHTO    H2 2523   4.975   7.587   5.005  0.8352  0.1587 -0.0292
    6CHTO   C12 2524   4.773   7.465   5.194  0.5577 -0.5201  0.1672
    6CHTO   H25 2525   4.836   7.495   5.280  0.4525 -0.5153  0.2423
    6CHTO    N3 2526   4.694   7.594   5.162  0.3189 -0.4288  0.2283
    6CHTO   H12 2527   4.598   7.562   5.127  0.7718 -2.8761  1.1087
    6CHTO   H13 2528   4.745   7.656   5.090 -0.2897 -0.1055  0.0731
    6CHTO   C15 2529   4.685   7.339   5.225  0.7909 -0.2419  0.0239
    6CHTO   H28 2530   4.642   7.308   5.130  0.7201  3.2537 -1.1576
    6CHTO   O10 2531   4.605   7.356   5.334 -0.4642  0.4303 -0.2947
    6CHTO    H4 2532   4.550   7.281   5.345  0.5500 -0.6171 -2.1058
    6CHTO    O5 2533   4.766   7.232   5.268  0.5584 -0.3065 -0.4594
    6CHTO   C10 2534   4.865   7.185   5.172  1.2340 -0.4100  0.2058
    6CHTO   H23 2535   4.812   7.153   5.082  0.0935  0.3764  0.5867
    6CHTO   C17 2536   4.936   7.060   5.219 -0.0015 -0.5485  0.2614
    6CHTO   O12 2537   4.967   7.066   5.358  0.3508  0.5015 -0.7648
    6CHTO    H6 2538   5.009   6.986   5.382 -0.2687 -0.2017 -1.9479
    7CHTO  H203 2539   4.750   3.180   2.447 -1.9075 -0.6486 -0.3370
    7CHTO   O82 2540   4.800   3.123   2.391 -0.0280  0.4468  0.1771
    7CHTO  C123 2541   4.937   3.170   2.384 -0.1388  0.5683 -0.3512
    7CHTO  H227 2542   4.942   3.278   2.403 -0.7374  0.7449 -1.1296
    7CHTO   O77 2543   4.993   3.097   2.492 -0.2151  0.4830  0.4532
    7CHTO  C118 2544   5.120   3.156   2.524 -0.4494 -0.4404  0.1923
    7CHTO  H222 2545   5.114   3.263   2.550  1.6322  0.3935 -2.6150
    7CHTO  C125 2546   5.168   3.084   2.663 -0.5730  0.5932 -0.0696
    7CHTO   O84 2547   5.055   3.069   2.753 -0.9414 -0.4728 -0.4952
    7CHTO  H205 2548   5.061   3.139   2.815  2.7793 -1.9518  1.0025
    7CHTO  C114 2549   5.224   3.134   2.410 -0.2360 -0.5931 -0.2183
    7CHTO  H218 2550   5.255   3.030   2.419  1.0582 -0.1864  0.1985
    7CHTO  C116 2551   5.160   3.173   2.269  1.0152  0.1483  0.4945
    7CHTO  H220 2552   5.159   3.283   2.255 -3.0426  0.0479 -0.8068
    7CHTO   O79 2553   5.241   3.120   2.175 -0.3746 -0.1170 -0.2541
    7CHTO  H201 2554   5.205   3.127   2.088 -0.1275  0.4467 -0.3122
    7CHTO  C120 2555   5.011   3.131   2.251  0.2115 -0.0589 -0.8829
    7CHTO  H224 2556   5.007   3.021   2.243  0.3486 -0.0273 -1.3535
    7CHTO   N21 2557   4.945   3.191   2.132 -0.3502  0.0715  0.3691
    7CHTO  H211 2558   4.841   3.207   2.154 -0.0025  0.1399  1.9756
    7CHTO  H212 2559   4.989   3.286   2.105  1.4836 -1.0899 -0.9124
    7CHTO   O75 2560   5.337   3.216   2.452  0.2262  0.2207  0.6054
    7CHTO  C112 2561   5.487   3.152   2.406 -0.2385 -0.4851  0.6372
    7CHTO  H216 2562   5.474   3.115   2.303  2.9517 -1.5401  0.5307
    7CHTO   O73 2563   5.523   3.043   2.496  0.1353  0.3728  0.1866
    7CHTO  C113 2564   5.643   2.978   2.462  0.3974  0.0972 -1.2820
    7CHTO  H217 2565   5.629   2.950   2.355  0.7457 -0.2739 -1.2312
    7CHTO  C124 2566   5.664   2.849   2.537 -0.0906 -0.6021  0.1764
    7CHTO   O83 2567   5.691   2.844   2.677 -0.3396 -0.2446  0.3700
    7CHTO  H204 2568   5.778   2.871   2.699 -0.2840 -0.2349  0.1341
    7CHTO  C109 2569   5.767   3.072   2.465 -0.6072  0.4766 -0.1565
    7CHTO  H213 2570   5.778   3.107   2.569 -0.0527 -2.6802  0.9127
    7CHTO  C110 2571   5.734   3.193   2.374 -0.4582 -0.0439  0.0725
    7CHTO  H214 2572   5.740   3.165   2.269 -0.2033  0.2804 -0.0016
    7CHTO   O78 2573   5.837   3.301   2.391 -0.5690 -0.2457 -0.2096
    7CHTO  H200 2574   5.850   3.346   2.310  0.1141  0.6137  0.3677
    7CHTO  C111 2575   5.600   3.259   2.405  0.5400 -0.6288  0.2420
    7CHTO  H215 2576   5.613   3.319   2.496  0.5038 -0.4501  0.1303
    7CHTO   N19 2577   5.559   3.359   2.300  0.9117 -0.5991 -0.8113
    7CHTO  H207 2578   5.460   3.386   2.333  1.3056 -1.1429  0.8376
    7CHTO  H208 2579   5.625   3.443   2.282  1.1917 -0.6473 -0.0297
    7CHTO   O74 2580   5.891   3.007   2.426  0.2438  0.6720  1.0165
    7CHTO  C115 2581   6.008   3.045   2.527 -0.7256 -0.1367 -0.2741
    7CHTO  H219 2582   5.998   3.147   2.564 -0.2308  1.3269 -3.9164
    7CHTO   O76 2583   6.004   2.962   2.654 -0.3110  0.0449  0.2258
    7CHTO  C122 2584   6.105   2.981   2.757  0.2928  0.3116 -0.6552
    7CHTO  H226 2585   6.110   2.887   2.812  1.8231  0.2562 -0.8505
    7CHTO  C126 2586   6.067   3.100   2.856 -0.2560  0.2420 -0.3521
    7CHTO   O85 2587   5.935   3.085   2.919 -0.2389  0.4887 -0.1922
    7CHTO  H206 2588   5.937   3.055   3.008  1.6854 -2.5502 -1.1900
    7CHTO  C121 2589   6.250   3.004   2.697  0.2590  0.5900  0.3474
    7CHTO  H225 2590   6.266   3.114   2.699 -0.5445  0.7028  0.7982
    7CHTO   O81 2591   6.352   2.939   2.775 -0.0625 -0.2718  0.1290
    7CHTO  H202 2592   6.354   2.849   2.747  2.5314 -0.2344  0.1104
    7CHTO  C119 2593   6.257   2.951   2.547 -0.2020 -0.9132 -0.2813
    7CHTO  H223 2594   6.357   2.970   2.506  0.1430 -0.4523  0.7531
    7CHTO  C117 2595   6.146   3.030   2.458 -0.2697  0.6646 -0.3706
    7CHTO  H221 2596   6.121   2.978   2.366  1.9250  2.3502 -1.9473
    7CHTO   N20 2597   6.191   3.170   2.411  0.0206  0.5529 -0.3788
    7CHTO  H209 2598   6.133   3.209   2.329  0.2431  0.5555 -0.5359
    7CHTO  H210 2599   6.193   3.238   2.495  0.3124 -1.1517  1.0416
    7CHTO   O80 2600   6.231   2.791   2.522 -0.6318 -0.2706 -0.1397
    7CHTO  C103 2601   6.260   2.720   2.383 -0.3029 -0.7632  0.3060
    7CHTO  H190 2602   6.224   2.784   2.302  1.1148  0.0967  0.3479
    7CHTO  C101 2603   6.408   2.680   2.342  0.1876  0.2162  0.2594
    7CHTO  H188 2604   6.455   2.625   2.423  3.3692  1.9516 -0.3522
    7CHTO   O68 2605   6.485   2.828   2.333 -0.8578 -0.2337  0.4161
    7CHTO  H168 2606   6.573   2.821   2.364  0.2068 -0.7813 -2.5169
    7CHTO   C99 2607   6.406   2.589   2.209 -0.1462  0.5070 -0.0512
    7CHTO  H186 2608   6.369   2.654   2.128 -2.2293 -1.6354 -0.8733
    7CHTO   N17 2609   6.532   2.533   2.164 -0.4686 -0.1162  0.2032
    7CHTO  H174 2610   6.555   2.578   2.069 -1.3029  0.6721  0.3682
    7CHTO  H175 2611   6.534   2.425   2.172  0.3370 -0.0760  0.6229
    7CHTO   C97 2612   6.303   2.477   2.228  0.7261 -0.1008 -0.5503
    7CHTO  H184 2613   6.344   2.414   2.308  0.0572 -0.7108 -0.6847
    7CHTO   O64 2614   6.175   2.533   2.261  0.2367 -0.5143  0.1819
    7CHTO  C104 2615   6.169   2.587   2.394  0.1004 -0.4788 -0.3687
    7CHTO  H191 2616   6.206   2.516   2.467  0.8401  0.8956  0.6279
    7CHTO  C108 2617   6.027   2.622   2.434 -0.0374  0.3017  0.4186
    7CHTO   O71 2618   5.941   2.513   2.465  0.1111 -0.0514 -0.2266
    7CHTO  H171 2619   5.917   2.508   2.556 -0.4233 -1.9689 -0.4391
    7CHTO   O62 2620   6.271   2.398   2.112  0.5312  0.2132 -0.2158
    7CHTO   C91 2621   6.208   2.266   2.129 -0.8691  1.0431  0.8899
    7CHTO  H178 2622   6.285   2.197   2.096 -1.5433  1.7932 -2.3888
    7CHTO   C92 2623   6.093   2.251   2.024 -0.3184  0.2390 -0.7058
    7CHTO  H179 2624   6.126   2.300   1.931 -2.4466 -0.4729 -1.8645
    7CHTO   O66 2625   6.092   2.112   1.991  0.3700 -0.5020 -0.1138
    7CHTO  H166 2626   6.138   2.092   1.912  1.7447  0.1262  0.5191
    7CHTO   C93 2627   5.957   2.280   2.083  0.2641 -0.0079 -0.1165
    7CHTO  H180 2628   5.878   2.232   2.022 -0.4237  0.2099  0.6029
    7CHTO   N16 2629   5.913   2.419   2.062 -0.3168 -0.8032  0.1242
    7CHTO  H172 2630   5.986   2.484   2.107 -1.2294  2.2354 -2.5356
    7CHTO  H173 2631   5.906   2.452   1.960 -2.4511  0.6485  0.7118
    7CHTO   C94 2632   5.936   2.234   2.233 -0.9630 -0.6526  0.1409
    7CHTO  H181 2633   5.924   2.319   2.300 -1.3183 -0.9095  0.4091
    7CHTO   O61 2634   6.036   2.148   2.278 -0.1697  0.0414  0.1238
    7CHTO   C95 2635   6.164   2.216   2.284  0.2459 -0.2921  0.2721
    7CHTO  H182 2636   6.158   2.309   2.340  1.6391 -0.7041  1.1422
    7CHTO  C106 2637   6.269   2.125   2.337  0.3484 -0.5681 -0.0954
    7CHTO   O69 2638   6.235   2.094   2.469 -0.0299 -0.0865  0.3482
    7CHTO  H169 2639   6.168   2.031   2.483 -0.3084 -0.1984 -1.4014
    7CHTO   O63 2640   5.810   2.140   2.245 -0.5834 -0.0780 -0.1320
    7CHTO   C96 2641   5.719   2.170   2.365 -0.7406 -0.7208  0.4520
    7CHTO  H183 2642   5.694   2.276   2.352  0.3918 -0.5495 -0.3779
    7CHTO   C98 2643   5.789   2.160   2.503 -0.1310 -0.4077  0.4029
    7CHTO  H185 2644   5.887   2.210   2.500  0.1703 -0.9680  1.0296
    7CHTO   O67 2645   5.714   2.241   2.595  0.2704  0.1297 -0.0209
    7CHTO  H167 2646   5.746   2.230   2.682 -3.4177 -3.7409  0.9986
    7CHTO  C102 2647   5.792   2.014   2.560 -0.6760  0.6113 -0.2825
    7CHTO  H189 2648   5.805   2.025   2.668 -2.1884  0.8599 -0.1282
    7CHTO   N18 2649   5.909   1.930   2.517  0.0579  0.5418  0.7456
    7CHTO  H176 2650   5.963   1.977   2.437  0.4568  0.1062  0.7575
    7CHTO  H177 2651   5.967   1.892   2.600  0.3680 -0.2298  0.1847
    7CHTO  C105 2652   5.653   1.945   2.532  0.1653 -0.2327  0.7776
    7CHTO  H192 2653   5.666   1.859   2.466  2.3370  0.2804  0.5151
    7CHTO   O65 2654   5.548   2.022   2.478  0.1437 -0.0827  0.1172
    7CHTO  C100 2655   5.589   2.086   2.355  0.7528  0.1959 -0.5458
    7CHTO  H187 2656   5.605   2.004   2.284  0.2884 -1.2300  0.9884
    7CHTO  C107 2657   5.459   2.165   2.312 -0.0778  0.2367  0.1875
    7CHTO   O70 2658   5.460   2.247   2.193 -0.6354 -0.4859  0.2054
    7CHTO  H170 2659   5.458   2.340   2.205 -3.2789 -0.7876  2.3633
    7CHTO   O57 2660   5.606   1.900   2.682  0.5298 -0.6977 -0.2202
    7CHTO   C85 2661   5.632   1.755   2.702  0.9753  0.1518  1.3747
    7CHTO  H157 2662   5.713   1.712   2.639 -2.7967 -2.1560 -2.1844
    7CHTO   C83 2663   5.505   1.676   2.644 -0.7885 -0.6434 -0.0033
    7CHTO  H155 2664   5.511   1.711   2.541 -0.7066  0.6483  0.4253
    7CHTO   O56 2665   5.389   1.727   2.714 -0.4098 -0.1445 -0.1873
    7CHTO  H135 2666   5.312   1.703   2.666 -1.7607  1.5969  0.9922
    7CHTO   C81 2667   5.529   1.522   2.656  0.2361 -0.7409  0.1355
    7CHTO  H153 2668   5.601   1.495   2.579  1.3926  2.9750 -0.2229
    7CHTO   N14 2669   5.410   1.452   2.609  0.2179 -0.1756  0.5998
    7CHTO  H141 2670   5.442   1.350   2.601  2.0212  0.1994  2.5541
    7CHTO  H142 2671   5.325   1.461   2.674 -0.4223  0.0606 -0.2526
    7CHTO   C79 2672   5.574   1.472   2.798 -0.1868 -0.4996 -0.0438
    7CHTO  H151 2673   5.628   1.379   2.781  2.7388  0.9500  0.9571
    7CHTO   O52 2674   5.678   1.562   2.854  0.4443 -0.6968 -0.5194
    7CHTO   C86 2675   5.643   1.714   2.847 -0.1631 -0.0376  0.1688
    7CHTO  H158 2676   5.552   1.724   2.909 -0.7020  1.0096 -0.7647
    7CHTO   C90 2677   5.744   1.788   2.916  0.4353  0.2030  0.4187
    7CHTO   O60 2678   5.868   1.763   2.853  0.2055  0.5810 -0.0835
    7CHTO  H138 2679   5.938   1.816   2.886  0.2784  0.7482 -0.5037
    7CHTO   O50 2680   5.466   1.446   2.894 -0.4676 -0.8780  0.1875
    7CHTO   C73 2681   5.434   1.329   2.970 -0.0204 -0.1064 -0.3930
    7CHTO  H145 2682   5.525   1.268   2.980  1.4314  2.1675  0.6056
    7CHTO   C74 2683   5.315   1.253   2.900 -0.1480  0.0382  0.2940
    7CHTO  H146 2684   5.344   1.238   2.795 -1.3375  1.2294 -0.2112
    7CHTO   O54 2685   5.299   1.129   2.972  0.1484  0.9078  0.4509
    7CHTO  H133 2686   5.362   1.062   2.955 -0.9419  0.3433 -1.4873
    7CHTO   C75 2687   5.185   1.340   2.912  0.3639 -0.0616 -0.0288
    7CHTO  H147 2688   5.206   1.441   2.875 -0.4302 -0.5469 -1.8529
    7CHTO   N13 2689   5.075   1.280   2.841  0.8683 -0.7381  0.3504
    7CHTO  H139 2690   5.057   1.339   2.753  0.0206  0.6871  1.4585
    7CHTO  H140 2691   4.976   1.274   2.883 -0.8532 -0.8071 -3.5729
    7CHTO   C76 2692   5.154   1.364   3.065  0.5675 -0.2517 -1.1805
    7CHTO  H148 2693   5.140   1.270   3.118 -0.7561  2.6180  3.8029
    7CHTO   O49 2694   5.260   1.441   3.122 -0.2686 -0.2115 -0.4627
    7CHTO   C77 2695   5.387   1.375   3.112 -0.9649  0.4188 -0.4973
    7CHTO  H149 2696   5.390   1.288   3.178 -0.4934  1.6259  1.0852
    7CHTO   C88 2697   5.492   1.471   3.171 -0.8675  0.2284 -0.5635
    7CHTO   O58 2698   5.481   1.609   3.108 -0.4936 -0.3059  0.0978
    7CHTO  H136 2699   5.521   1.594   3.025  0.7041 -1.2287  0.8252
    7CHTO   O51 2700   5.026   1.465   3.098  0.0549 -0.1309  0.0134
    7CHTO   C78 2701   4.990   1.455   3.258  0.2090  0.6351 -0.1974
    7CHTO  H150 2702   5.066   1.405   3.321 -1.1621 -0.5184  0.5840
    7CHTO   C80 2703   4.856   1.379   3.269  0.3965  0.1468  0.6514
    7CHTO  H152 2704   4.784   1.420   3.194 -0.5035  0.9398  1.9298
    7CHTO   O55 2705   4.876   1.241   3.231 -0.7196  1.0369  0.0055
    7CHTO  H134 2706   4.942   1.210   3.290  0.1022 -0.7519 -1.8193
    7CHTO   C84 2707   4.792   1.386   3.410 -0.2355  0.1252  0.0262
    7CHTO  H156 2708   4.851   1.315   3.469 -0.7890 -0.8146 -0.5437
    7CHTO   N15 2709   4.647   1.345   3.414 -0.2674 -0.0960  0.1258
    7CHTO  H143 2710   4.597   1.365   3.507  0.3110  6.4795 -0.7738
    7CHTO  H144 2711   4.632   1.242   3.387  0.6685 -0.2799  0.3107
    7CHTO   C87 2712   4.804   1.529   3.480 -0.2464 -0.7341  0.3422
    7CHTO  H159 2713   4.728   1.600   3.447  1.2939  0.1860 -1.2884
    7CHTO   O53 2714   4.954   1.586   3.459 -0.3240 -0.4305 -0.0542
    7CHTO   C82 2715   4.979   1.596   3.320 -0.1560 -0.1846  0.0429
    7CHTO  H154 2716   4.903   1.665   3.284  1.0173  1.5836  0.8551
    7CHTO   C89 2717   5.120   1.667   3.308 -0.3203  0.1253  0.1664
    7CHTO   O59 2718   5.120   1.737   3.181  0.3498  0.6922 -0.0309
    7CHTO  H137 2719   5.079   1.820   3.189  0.6469  0.7502  0.9489
    7CHTO   O45 2720   4.780   1.519   3.651 -0.2320 -0.1043 -0.7043
    7CHTO   C67 2721   4.834   1.635   3.718  0.2288  0.1314 -0.4982
    7CHTO  H124 2722   4.936   1.660   3.689  0.3099  1.0090  0.5105
    7CHTO   C65 2723   4.748   1.760   3.699 -0.0283 -0.4345  0.0260
    7CHTO  H122 2724   4.657   1.712   3.663  0.6044 -1.3510 -0.3662
    7CHTO   O44 2725   4.802   1.821   3.578  0.1080  0.2995 -0.4193
    7CHTO  H102 2726   4.774   1.764   3.509 -2.4393  0.8646  0.0958
    7CHTO   C63 2727   4.715   1.837   3.830  0.5110 -0.1899 -0.5185
    7CHTO  H120 2728   4.652   1.775   3.894  0.4249  1.2191  0.7916
    7CHTO   N11 2729   4.629   1.960   3.823  0.1513  0.6524  0.1209
    7CHTO  H108 2730   4.535   1.950   3.772  1.5236  2.8078 -2.9838
    7CHTO  H109 2731   4.684   2.024   3.757 -2.0253  1.8386 -0.6040
    7CHTO   C61 2732   4.843   1.853   3.915 -0.8796  0.6872  0.2240
    7CHTO  H118 2733   4.830   1.906   4.011 -2.2016 -0.2736  0.5944
    7CHTO   O40 2734   4.898   1.725   3.944  0.0959  0.0573 -0.1847
    7CHTO   C68 2735   4.848   1.606   3.873  0.1726  0.3997 -0.4926
    7CHTO  H125 2736   4.755   1.569   3.922  0.3050 -0.9458 -1.2316
    7CHTO   C72 2737   4.948   1.499   3.892  0.3415  0.1451  0.3552
    7CHTO   O48 2738   4.901   1.366   3.859 -0.6659 -0.2627  0.1802
    7CHTO  H105 2739   4.815   1.376   3.825 -0.6589 -0.7431  0.0074
    7CHTO   O38 2740   4.940   1.929   3.844  0.1339 -0.3048 -0.1134
    7CHTO   C55 2741   5.079   1.944   3.890 -0.0035 -0.1808 -0.2570
    7CHTO  H112 2742   5.100   1.876   3.973 -0.2802 -0.1657 -0.1722
    7CHTO   C56 2743   5.101   2.097   3.936  0.2995  0.5957  0.0148
    7CHTO  H113 2744   5.061   2.159   3.855 -1.4127  0.4610  0.7265
    7CHTO   O42 2745   5.037   2.120   4.062 -0.0911 -0.3657  0.2064
    7CHTO  H100 2746   5.070   2.077   4.139 -0.3253  0.3933  0.7428
    7CHTO   C57 2747   5.255   2.134   3.959 -0.5455  0.0621  0.0871
    7CHTO  H114 2748   5.290   2.078   4.045 -0.3497  1.9069  1.2300
    7CHTO   N10 2749   5.285   2.280   3.982 -0.2423 -0.6450 -0.2537
    7CHTO  H106 2750   5.387   2.310   3.961  0.2744 -0.6162  2.1496
    7CHTO  H107 2751   5.220   2.332   3.914 -2.0660 -1.6053  0.7177
    7CHTO   C58 2752   5.334   2.091   3.834 -0.6305 -0.1188  0.1392
    7CHTO  H115 2753   5.295   2.146   3.745  1.2880  0.2914 -0.4605
    7CHTO   O37 2754   5.311   1.940   3.824  0.0637 -0.1189  0.4818
    7CHTO   C59 2755   5.176   1.912   3.781 -0.2657  0.8959  0.6757
    7CHTO  H116 2756   5.140   1.959   3.689 -1.1269 -1.4456 -0.2199
    7CHTO   C70 2757   5.177   1.757   3.750  0.4072  0.0481  0.3066
    7CHTO   O46 2758   5.288   1.708   3.672 -0.1089  0.2343  0.3163
    7CHTO  H103 2759   5.277   1.615   3.669 -2.1754  0.4930 -0.7517
    7CHTO   O39 2760   5.495   2.107   3.845 -0.1682 -0.0590  0.6624
    7CHTO   C60 2761   5.573   2.026   3.750  0.3265  0.1915 -0.2597
    7CHTO  H117 2762   5.564   1.922   3.782  1.7090 -0.4694 -1.9683
    7CHTO   C62 2763   5.522   2.027   3.609  0.8323 -0.5558 -0.5728
    7CHTO  H119 2764   5.420   1.984   3.608  0.3294  0.6441 -0.5700
    7CHTO   O43 2765   5.515   2.165   3.579 -0.2880 -0.4910  0.2330
    7CHTO  H101 2766   5.434   2.197   3.546 -0.6170 -1.2992  0.2358
    7CHTO   C66 2767   5.615   1.933   3.515  0.4511  0.1603 -0.7101
    7CHTO  H123 2768   5.610   1.831   3.552 -1.1512  0.9560  1.3830
    7CHTO   N12 2769   5.556   1.921   3.379 -0.5415 -0.1925  0.2996
    7CHTO  H110 2770   5.608   1.841   3.328  2.0278  1.1485  0.7201
    7CHTO  H111 2771   5.451   1.896   3.383 -1.1591  2.5105  1.6844
    7CHTO   C69 2772   5.765   1.963   3.523 -0.1312 -0.4843 -0.3490
    7CHTO  H126 2773   5.794   2.059   3.476 -2.3454  0.1820 -0.3677
    7CHTO   O41 2774   5.806   1.963   3.654  0.0984  0.0712 -0.1864
    7CHTO   C64 2775   5.724   2.057   3.753 -0.3334  0.3066 -0.6015
    7CHTO  H121 2776   5.741   2.160   3.715 -1.7019  0.2197 -1.4885
    7CHTO   C71 2777   5.777   2.041   3.896  0.4754 -0.0032 -0.3724
    7CHTO   O47 2778   5.922   2.040   3.908  0.3517 -0.2744  0.3001
    7CHTO  H104 2779   5.956   2.123   3.936  2.1794 -1.1234  0.6728
    7CHTO   O34 2780   5.833   1.844   3.452 -0.1456  0.1535 -0.9428
    7CHTO   C49 2781   5.977   1.772   3.494  0.6510  0.3666 -0.1518
    7CHTO   H91 2782   6.004   1.801   3.596 -1.4153  0.1163  0.5061
    7CHTO   C47 2783   6.088   1.826   3.401  0.3889 -0.0372 -0.3538
    7CHTO   H89 2784   6.179   1.771   3.432  1.7660  2.3047 -0.1384
    7CHTO   O33 2785   6.104   1.968   3.432 -0.3401 -0.0726  0.1154
    7CHTO   H70 2786   6.019   2.001   3.455  0.2377  2.1337 -0.7814
    7CHTO   C45 2787   6.060   1.794   3.252  0.1710  0.0767 -0.8713
    7CHTO   H87 2788   5.954   1.817   3.232 -0.3949  1.4131  3.1194
    7CHTO    N8 2789   6.146   1.868   3.158 -0.0603  0.2328  0.0625
    7CHTO   H75 2790   6.094   1.942   3.099  1.0793  0.9341 -0.0888
    7CHTO   H76 2791   6.202   1.796   3.098 -0.2382  0.6516 -0.6087
    7CHTO   C43 2792   6.062   1.643   3.230  0.0881  0.0101  0.9590
    7CHTO   H85 2793   6.031   1.623   3.128  0.5247 -1.0712  1.0339
    7CHTO   O29 2794   5.978   1.575   3.322 -0.2229 -0.4467  0.1897
    7CHTO   C50 2795   5.964   1.621   3.461 -0.0520  0.0884 -0.0329
    7CHTO   H92 2796   5.866   1.592   3.503 -0.6029  0.8233 -0.8130
    7CHTO   C54 2797   6.061   1.543   3.547 -0.3371  0.3279 -0.6028
    7CHTO   O36 2798   6.029   1.396   3.552  0.1494 -0.5003  0.3307
    7CHTO   H72 2799   6.103   1.338   3.561 -0.5660 -1.4237  0.3740
    7CHTO   O27 2800   6.195   1.581   3.230  0.4560  0.3134 -0.4340
    7CHTO   C37 2801   6.274   1.473   3.284 -0.1972 -0.5402  0.1218
    7CHTO   H79 2802   6.267   1.482   3.394  1.2953  2.4277  0.0099
    7CHTO   C38 2803   6.251   1.328   3.233  0.6682 -0.6060  0.1573
    7CHTO   H80 2804   6.233   1.334   3.125 -2.9667  3.0090  0.8199
    7CHTO   O31 2805   6.129   1.283   3.294  0.1296 -0.0644 -0.2798
    7CHTO   H68 2806   6.085   1.214   3.249  2.2493 -1.1392 -0.7734
    7CHTO   C39 2807   6.369   1.233   3.261 -0.5345  0.1837  0.1335
    7CHTO   H81 2808   6.366   1.198   3.365 -1.7380  0.1104  0.0837
    7CHTO    N7 2809   6.357   1.094   3.199 -0.4800 -0.4458 -0.1582
    7CHTO   H73 2810   6.275   1.036   3.240 -0.2919 -0.3710  0.3240
    7CHTO   H74 2811   6.445   1.043   3.163  1.4760  0.3692  3.2594
    7CHTO   C40 2812   6.511   1.301   3.241 -0.3304 -0.2013  0.5089
    7CHTO   H82 2813   6.538   1.308   3.135  0.8638 -3.5074  0.5191
    7CHTO   O26 2814   6.517   1.429   3.310  0.8050  0.2251  1.3440
    7CHTO   C41 2815   6.423   1.517   3.250 -0.4757 -0.0858  0.2113
    7CHTO   H83 2816   6.444   1.522   3.142  1.8730 -0.9039  0.5842
    7CHTO   C52 2817   6.456   1.660   3.296  0.7769  0.2985 -0.3665
    7CHTO   O35 2818   6.424   1.687   3.441  0.0010  0.4368  0.2215
    7CHTO   H71 2819   6.334   1.673   3.466 -0.8377  0.7756 -2.3991
    7CHTO   O28 2820   6.602   1.215   3.319  0.2446  0.2265  0.0640
    7CHTO   C42 2821   6.732   1.215   3.257 -0.1096 -0.3418 -0.2403
    7CHTO   H84 2822   6.796   1.177   3.337 -0.4438  1.2060  0.7936
    7CHTO   C44 2823   6.796   1.349   3.216 -0.2101 -0.0848  0.3421
    7CHTO   H86 2824   6.730   1.399   3.145  0.7767 -0.0426 -0.5546
    7CHTO   O32 2825   6.797   1.428   3.342  0.6571 -0.2006  0.6122
    7CHTO   H69 2826   6.740   1.500   3.323  1.4670  0.5636  1.0838
    7CHTO   C48 2827   6.935   1.333   3.144 -0.2849 -0.0301 -0.1849
    7CHTO   H90 2828   6.997   1.277   3.214  1.1993  0.0091 -1.4418
    7CHTO    N9 2829   7.015   1.456   3.112  0.8794 -0.0856 -0.4765
    7CHTO   H77 2830   6.993   1.530   3.188  0.8657  0.0044 -0.5676
    7CHTO   H78 2831   6.977   1.499   3.021 -2.0953 -3.1910 -0.7948
    7CHTO   C51 2832   6.927   1.235   3.013  0.3311  0.5283 -0.4765
    7CHTO   H93 2833   6.852   1.277   2.946 -1.2340  1.8049  1.9781
    7CHTO   O30 2834   6.883   1.113   3.071 -0.3391 -0.0163  0.4311
    7CHTO   C46 2835   6.737   1.119   3.138  1.3326 -0.5718  0.5335
    7CHTO   H88 2836   6.672   1.157   3.059  0.8838 -0.3617  0.9999
    7CHTO   C53 2837   6.714   0.973   3.179 -0.1693 -0.1526  0.2978
    7CHTO   O72 2838   6.710   0.891   3.058 -0.7283 -0.6730  0.2685
    7CHTO  H199 2839   6.793   0.861   3.025 -1.4463  0.6212 -2.8719
    7CHTO   O22 2840   7.059   1.203   2.950 -0.0074  0.0477 -0.5645
    7CHTO   C31 2841   7.059   1.181   2.801  0.0479  0.8169  0.3143
    7CHTO   H59 2842   7.158   1.140   2.774  0.2558  0.8375  1.0500
    7CHTO   C29 2843   6.948   1.080   2.744 -0.5614 -0.0752 -0.4246
    7CHTO   H57 2844   6.847   1.109   2.779  0.2064 -0.6136  2.3554
    7CHTO   O21 2845   6.968   0.953   2.804  0.8262  0.2726 -0.2591
    7CHTO   H37 2846   6.884   0.919   2.829  0.0318  0.6000 -2.3230
    7CHTO   C27 2847   6.950   1.067   2.590  0.1911 -0.6862 -0.1185
    7CHTO   H55 2848   7.046   1.023   2.558 -0.4575 -1.9539 -0.3571
    7CHTO    N5 2849   6.841   0.992   2.528 -0.4168 -0.0370 -0.1873
    7CHTO   H43 2850   6.849   0.980   2.421 -2.0478 -0.6389 -0.2459
    7CHTO   H44 2851   6.855   0.893   2.569 -1.0424 -0.7518 -1.6372
    7CHTO   C25 2852   6.936   1.217   2.533  0.6439  0.4550 -0.2688
    7CHTO   H53 2853   6.837   1.262   2.549  1.1280  0.2779  3.7338
    7CHTO   O17 2854   7.042   1.312   2.580 -0.3977  0.0715  0.6352
    7CHTO   C32 2855   7.048   1.322   2.728 -0.2433  0.4870 -0.9505
    7CHTO   H60 2856   6.958   1.373   2.761 -0.3970 -1.1025  1.2000
    7CHTO   C36 2857   7.159   1.421   2.766  0.5648 -0.5202  0.3170
    7CHTO   O25 2858   7.286   1.357   2.757 -0.1272 -0.5021 -0.4908
    7CHTO   H40 2859   7.301   1.319   2.672  1.7584 -0.0861 -0.3806
    7CHTO   O15 2860   6.952   1.228   2.357 -0.1355  0.1848 -0.6127
    7CHTO   C19 2861   6.908   1.337   2.274  0.0634  0.2523 -0.1946
    7CHTO   H47 2862   6.931   1.299   2.173  2.1664  0.5716  0.1535
    7CHTO   C20 2863   6.764   1.388   2.294  0.5715  0.2583 -0.1505
    7CHTO   H48 2864   6.740   1.403   2.400 -0.2350 -0.7329 -0.1854
    7CHTO   O19 2865   6.683   1.270   2.258  0.2196 -0.2737 -0.5093
    7CHTO   H35 2866   6.597   1.297   2.231 -0.1172 -1.1579 -0.3177
    7CHTO   C21 2867   6.717   1.516   2.209  0.5517 -0.3401  0.3026
    7CHTO   H49 2868   6.705   1.490   2.104 -0.8420 -1.1369  0.6449
    7CHTO    N4 2869   6.576   1.553   2.243  0.4466  0.8218 -0.0109
    7CHTO   H41 2870   6.510   1.471   2.217  1.6696  0.0900 -0.8425
    7CHTO   H42 2871   6.571   1.559   2.351  1.4292 -1.5576  0.1806
    7CHTO   C22 2872   6.829   1.620   2.235  0.3039 -0.0192  0.6235
    7CHTO   H50 2873   6.816   1.651   2.339  1.7985  1.9081  0.2516
    7CHTO   O14 2874   6.959   1.568   2.203 -0.3683 -0.0152  0.0877
    7CHTO   C23 2875   6.999   1.462   2.295 -0.5574  0.2775 -0.6991
    7CHTO   H51 2876   6.990   1.505   2.395  1.2960 -0.3843 -0.2402
    7CHTO   C34 2877   7.146   1.425   2.285 -0.0538  0.6357  0.1033
    7CHTO   O23 2878   7.220   1.539   2.338 -0.3666  0.0268 -0.2566
    7CHTO   H38 2879   7.208   1.606   2.273 -3.3378 -0.3446 -0.1649
    7CHTO   O16 2880   6.826   1.730   2.146 -0.1497 -0.4983 -0.3831
    7CHTO   C24 2881   6.820   1.870   2.220  0.0800  0.3371  0.3447
    7CHTO   H52 2882   6.808   1.857   2.327 -0.4024 -1.4589  0.0888
    7CHTO   C26 2883   6.697   1.945   2.164 -0.1110 -0.7091 -0.7957
    7CHTO   H54 2884   6.695   1.927   2.055  1.2810 -3.2059 -0.4513
    7CHTO   O20 2885   6.583   1.879   2.224  0.5724  0.3328  0.0113
    7CHTO   H36 2886   6.576   1.885   2.317  0.8397 -0.1960  0.0649
    7CHTO   C30 2887   6.691   2.100   2.203  0.6519 -0.8114  0.3846
    7CHTO   H58 2888   6.666   2.115   2.309 -1.0226  1.5653 -0.3056
    7CHTO    N6 2889   6.581   2.169   2.134 -0.1678  0.7523  0.0117
    7CHTO   H45 2890   6.486   2.122   2.153  1.0078 -1.4111  0.6826
    7CHTO   H46 2891   6.572   2.275   2.151  0.4698  0.8378 -0.1493
    7CHTO   C33 2892   6.822   2.174   2.185  0.0857 -0.0311  0.5120
    7CHTO   H61 2893   6.837   2.178   2.076  0.0427 -0.5243  0.4845
    7CHTO   O18 2894   6.927   2.101   2.247  0.3446 -0.0998  0.0750
    7CHTO   C28 2895   6.947   1.959   2.200  0.4298  0.4043 -0.1424
    7CHTO   H56 2896   6.972   1.956   2.094  0.6121  0.1841 -0.0936
    7CHTO   C35 2897   7.066   1.899   2.275 -0.8480 -0.3244 -0.0475
    7CHTO   O24 2898   7.045   1.892   2.419  0.6334  0.2741  0.2428
    7CHTO   H39 2899   7.007   1.975   2.440 -2.4376 -0.5238 -1.8751
    7CHTO    O9 2900   6.821   2.305   2.230  0.3179 -0.1597  0.5343
    7CHTO   C13 2901   6.957   2.402   2.165 -0.5212  0.0767  0.3061
    7CHTO   H26 2902   6.973   2.371   2.060 -0.3740 -1.9346  0.8868
    7CHTO   C11 2903   7.089   2.372   2.249  0.7621  0.1206  0.7596
    7CHTO   H24 2904   7.116   2.267   2.234  1.4182  0.0111  2.5956
    7CHTO    O8 2905   7.070   2.381   2.393  0.1795  0.4069 -0.3125
    7CHTO    H3 2906   7.040   2.469   2.407 -0.4480  0.3292 -1.1012
    7CHTO    C9 2907   7.203   2.459   2.194 -0.1750 -0.0349 -0.5120
    7CHTO   H22 2908   7.210   2.436   2.086  2.1886 -0.3696 -0.2971
    7CHTO    N2 2909   7.339   2.423   2.245  0.1383 -0.5064  0.0795
    7CHTO   H10 2910   7.408   2.470   2.176  1.5401  0.4594  2.0827
    7CHTO   H11 2911   7.348   2.318   2.267 -1.5257 -0.6317  0.2242
    7CHTO    C7 2912   7.164   2.610   2.207  0.2289 -0.4086  0.0399
    7CHTO   H20 2913   7.241   2.670   2.154 -0.2972 -1.0757 -1.4859
    7CHTO    O4 2914   7.036   2.634   2.148  0.0950  0.2229 -0.0763
    7CHTO   C14 2915   6.916   2.553   2.168  0.8964  0.9700 -0.0183
    7CHTO   H27 2916   6.837   2.558   2.090  1.8825 -0.9941 -1.1725
    7CHTO   C18 2917   6.850   2.590   2.301  0.2330 -1.0053 -0.2691
    7CHTO   O13 2918   6.827   2.727   2.321  0.1378  0.0514 -0.9257
    7CHTO    H7 2919   6.912   2.767   2.315  0.3217 -0.4352 -1.7150
    7CHTO    O2 2920   7.168   2.666   2.375 -0.3184  0.1287  0.0675
    7CHTO    C1 2921   7.171   2.810   2.396  0.5952  0.0256 -0.0852
    7CHTO   H14 2922   7.086   2.854   2.339  0.2827  0.1964  0.5162
    7CHTO    C2 2923   7.311   2.878   2.366  0.0822  0.4329 -0.0270
    7CHTO   H15 2924   7.384   2.808   2.410  0.3337 -0.0127 -1.1243
    7CHTO    O6 2925   7.335   2.888   2.224  0.1430  0.4993 -0.6028
    7CHTO    H1 2926   7.296   2.817   2.178  0.3832  1.2219 -1.9405
    7CHTO    C3 2927   7.334   3.025   2.426  0.1231 -0.7098  0.3326
    7CHTO   H16 2928   7.278   3.092   2.359  0.9072  1.7192  2.0622
    7CHTO    N1 2929   7.480   3.069   2.426 -0.2797 -0.8542 -0.2459
    7CHTO    H8 2930   7.551   2.989   2.435  1.5473  0.6769 -0.7406
    7CHTO    H9 2931   7.500   3.149   2.357 -0.1937 -0.3086  0.4000
    7CHTO    C4 2932   7.273   3.048   2.567 -0.9017  0.0336  0.1036
    7CHTO   H17 2933   7.341   2.999   2.637 -0.2189  0.6801 -0.1060
    7CHTO    O1 2934   7.143   2.986   2.561 -0.1380  0.3678  0.1383
    7CHTO    C5 2935   7.138   2.844   2.545  0.0400  0.8623 -0.3983
    7CHTO   H18 2936   7.218   2.803   2.607 -0.2733 -2.8293 -2.3105
    7CHTO   C16 2937   7.009   2.791   2.594  0.1524 -1.0389 -0.1666
    7CHTO   O11 2938   7.009   2.750   2.732 -0.1267 -0.8788 -0.4744
    7CHTO    H5 2939   6.961   2.670   2.740  1.3357 -2.0580 -3.0886
    7CHTO    O3 2940   7.245   3.187   2.602  0.1005 -0.2750 -0.3188
    7CHTO    C6 2941   7.317   3.250   2.713 -0.1023 -0.3121  0.6973
    7CHTO   H19 2942   7.402   3.191   2.745 -1.7608 -3.6378 -0.7498
    7CHTO    C8 2943   7.364   3.395   2.664 -0.4339  0.4938 -0.9224
    7CHTO   H21 2944   7.281   3.448   2.618 -0.3236  1.5860  0.1150
    7CHTO    O7 2945   7.475   3.382   2.569  0.3952  0.2532  0.1722
    7CHTO    H2 2946   7.555   3.337   2.587 -0.3276 -0.6583  1.1835
    7CHTO   C12 2947   7.418   3.481   2.783 -0.4485 -0.8938 -0.4073
    7CHTO   H25 2948   7.516   3.435   2.809  0.4595  1.7511  1.0171
    7CHTO    N3 2949   7.454   3.625   2.746 -0.4844  0.2851 -0.4699
    7CHTO   H12 2950   7.500   3.622   2.649 -3.6908 -1.5418 -2.0413
    7CHTO   H13 2951   7.517   3.672   2.820  0.9339 -0.8961 -0.9162
    7CHTO   C15 2952   7.324   3.478   2.914 -0.4275  0.9295  0.4257
    7CHTO   H28 2953   7.229   3.527   2.894 -1.0206 -0.2785  0.2518
    7CHTO   O10 2954   7.402   3.539   3.045  0.4729  0.6817 -0.0540
    7CHTO    H4 2955   7.335   3.585   3.093  0.8243  1.9413 -0.7692
    7CHTO    O5 2956   7.293   3.343   2.948  0.0396 -0.1554  0.2851
    7CHTO   C10 2957   7.224   3.271   2.839  0.3940  0.6008  0.4521
    7CHTO   H23 2958   7.137   3.326   2.804  1.6922  1.3967 -1.5772
    7CHTO   C17 2959   7.190   3.128   2.896  0.9057  0.2159  0.2594
    7CHTO   O12 2960   7.084   3.124   2.986 -0.3528  0.0978 -0.5816
    7CHTO    H6 2961   7.088   3.037   3.021 -0.3998  1.0113  1.8391
    8CHTO  H203 2962   6.972   9.018   1.852 -1.2330  3.5778  0.9787
    8CHTO   O82 2963   6.891   9.011   1.806  0.0028  0.3302 -0.8079
    8CHTO  C123 2964   6.843   9.131   1.748  0.1855  0.1596  0.2755
    8CHTO  H227 2965   6.923   9.167   1.682  1.6432  0.2209  2.0042
    8CHTO   O77 2966   6.725   9.084   1.681  0.0706  0.6486  0.4290
    8CHTO  C118 2967   6.660   9.193   1.620  0.7527  0.3386  0.1229
    8CHTO  H222 2968   6.728   9.244   1.551  1.4683 -2.8805 -1.6630
    8CHTO  C125 2969   6.552   9.122   1.527 -0.5098 -0.1904 -0.6529
    8CHTO   O84 2970   6.472   9.214   1.451 -0.1030  0.4300 -0.0639
    8CHTO  H205 2971   6.525   9.258   1.388 -1.1514  0.3667 -1.0126
    8CHTO  C114 2972   6.607   9.292   1.717  0.3306 -0.5352  0.3497
    8CHTO  H218 2973   6.522   9.246   1.768  0.6119  1.2553  2.5279
    8CHTO  C116 2974   6.720   9.342   1.810  0.0718  0.0374 -0.2787
    8CHTO  H220 2975   6.777   9.410   1.742  2.1348 -0.8901  0.4737
    8CHTO   O79 2976   6.658   9.423   1.919  0.3349 -0.5559 -0.1360
    8CHTO  H201 2977   6.624   9.369   1.987 -2.8259 -1.7861 -2.5727
    8CHTO  C120 2978   6.816   9.229   1.868 -0.4110  0.0163  0.4379
    8CHTO  H224 2979   6.752   9.185   1.947  1.5005 -2.1251  0.8410
    8CHTO   N21 2980   6.930   9.294   1.932 -0.1926 -0.2599  0.3695
    8CHTO  H211 2981   7.009   9.295   1.858 -1.1531 -2.2059 -0.7100
    8CHTO  H212 2982   6.964   9.246   2.022 -0.2794  1.6141  1.4167
    8CHTO   O75 2983   6.558   9.410   1.636  0.0011 -0.1595  0.3773
    8CHTO  C112 2984   6.400   9.489   1.692 -0.0361 -0.1855  0.0465
    8CHTO  H216 2985   6.427   9.574   1.756  1.6196 -0.1320 -0.6838
    8CHTO   O73 2986   6.315   9.387   1.760 -0.2722 -0.1462 -0.0434
    8CHTO  C113 2987   6.211   9.447   1.840  0.4893  0.2236 -0.5141
    8CHTO  H217 2988   6.257   9.522   1.908  0.3435 -0.7658  0.6732
    8CHTO  C124 2989   6.135   9.339   1.916 -0.5513 -0.2868  0.1512
    8CHTO   O83 2990   6.224   9.253   1.990 -0.1001  0.1795  0.0866
    8CHTO  H204 2991   6.179   9.199   2.052  1.5402 -2.3253 -0.8212
    8CHTO  C109 2992   6.112   9.533   1.750  0.6057 -0.0053  0.4395
    8CHTO  H213 2993   6.042   9.463   1.701 -1.5944  1.8397  0.8605
    8CHTO  C110 2994   6.179   9.613   1.638 -0.5892  0.5922  0.1963
    8CHTO  H214 2995   6.210   9.710   1.678 -0.6071  1.1438 -1.0797
    8CHTO   O78 2996   6.078   9.638   1.543 -0.7523 -0.0793  0.2698
    8CHTO  H200 2997   6.072   9.570   1.480 -3.2266  0.3407  0.0180
    8CHTO  C111 2998   6.305   9.543   1.580  0.0635 -0.0609 -0.3991
    8CHTO  H215 2999   6.269   9.459   1.519 -0.3490 -0.5451  0.5021
    8CHTO   N19 3000   6.377   9.634   1.494 -0.3060 -0.7364  0.3560
    8CHTO  H207 3001   6.456   9.694   1.537 -1.0592  1.5834 -1.4052
    8CHTO  H208 3002   6.421   9.571   1.419  2.1600 -0.3149  1.4061
    8CHTO   O74 3003   6.032   9.619   1.841 -0.2663  0.0344 -0.7304
    8CHTO  C115 3004   5.864   9.570   1.846  0.1788  0.1863 -0.7083
    8CHTO  H219 3005   5.854   9.468   1.808  0.3422 -0.3724  0.7309
    8CHTO   O76 3006   5.811   9.576   1.986 -0.3349  0.2914 -0.3774
    8CHTO  C122 3007   5.781   9.711   2.027  0.4462  0.0821  0.2074
    8CHTO  H226 3008   5.882   9.750   2.040 -0.0169  1.0301  0.9448
    8CHTO  C126 3009   5.712   9.704   2.169  0.3472 -0.4225  0.1189
    8CHTO   O85 3010   5.602   9.606   2.157 -0.0795  0.4272 -0.5468
    8CHTO  H206 3011   5.625   9.532   2.209 -0.3813  1.2537  0.7780
    8CHTO  C121 3012   5.702   9.804   1.926  0.3867  0.1790 -0.4489
    8CHTO  H225 3013   5.600   9.759   1.919  0.9583 -1.2276  0.1351
    8CHTO   O81 3014   5.697   9.943   1.959  0.6119 -0.2065 -0.3819
    8CHTO  H202 3015   5.777   9.977   1.992  1.6672 -1.0012 -2.0847
    8CHTO  C119 3016   5.776   9.803   1.790  1.0023 -0.6349 -0.2367
    8CHTO  H223 3017   5.711   9.867   1.731  1.1567 -0.7961 -0.5838
    8CHTO  C117 3018   5.797   9.659   1.733 -0.3709 -0.2150  0.5646
    8CHTO  H221 3019   5.868   9.650   1.651 -0.2422 -2.6580  0.9151
    8CHTO   N20 3020   5.679   9.593   1.674  0.0435  0.0407  0.0547
    8CHTO  H209 3021   5.606   9.583   1.753 -0.4486  0.1569 -0.3888
    8CHTO  H210 3022   5.643   9.643   1.586  1.0503  0.0595 -0.3569
    8CHTO   O80 3023   5.915   9.878   1.785 -0.7542  0.0889 -0.4933
    8CHTO  C103 3024   5.925  10.024   1.715  0.1132 -0.4692 -0.4198
    8CHTO  H190 3025   5.825  10.067   1.705 -0.1068 -1.3026 -2.0377
    8CHTO  C101 3026   6.006  10.122   1.809  0.3616  0.0681 -0.1805
    8CHTO  H188 3027   6.097  10.065   1.830 -0.6285 -0.8952  1.5303
    8CHTO   O68 3028   5.925  10.142   1.959 -0.4086 -0.3334  0.3363
    8CHTO  H168 3029   5.888  10.065   1.997  2.0323 -1.6097  0.2522
    8CHTO   C99 3030   6.040  10.256   1.732  0.8857  0.0895  0.0595
    8CHTO  H186 3031   5.956  10.328   1.726  0.1511 -0.5718  2.0773
    8CHTO   N17 3032   6.143  10.333   1.808 -0.2777 -0.7431  0.2639
    8CHTO  H174 3033   6.240  10.284   1.809 -0.9749 -2.1379  1.3067
    8CHTO  H175 3034   6.150  10.430   1.761 -2.9677 -0.6383  0.0166
    8CHTO   C97 3035   6.084  10.236   1.587  0.1983  0.4575  0.1354
    8CHTO  H184 3036   6.187  10.199   1.575 -0.1556 -0.2631 -0.6982
    8CHTO   O64 3037   5.991  10.152   1.520 -0.1943 -0.1763  0.4689
    8CHTO  C104 3038   5.992  10.021   1.573 -0.2823  0.1043 -0.1116
    8CHTO  H191 3039   6.092   9.978   1.582 -1.1931 -2.0466  0.0087
    8CHTO  C108 3040   5.913   9.932   1.467 -0.0672  0.1268 -0.1733
    8CHTO   O71 3041   5.784   9.993   1.432 -0.2833 -0.6907  0.6025
    8CHTO  H171 3042   5.793  10.042   1.352  0.9036  2.7579  2.7741
    8CHTO   O62 3043   6.081  10.361   1.507 -0.0585  0.4663  0.1015
    8CHTO   C91 3044   6.156  10.371   1.381  0.0853 -0.3307 -0.1445
    8CHTO  H178 3045   6.184  10.271   1.350 -3.3499 -1.3808 -0.0520
    8CHTO   C92 3046   6.295  10.443   1.400  0.3771  0.0308  0.1894
    8CHTO  H179 3047   6.275  10.525   1.470  0.1286  1.3009 -1.3243
    8CHTO   O66 3048   6.391  10.355   1.460 -0.3328 -0.4948  0.3773
    8CHTO  H166 3049   6.445  10.329   1.388  0.4079  1.3424  0.2582
    8CHTO   C93 3050   6.349  10.517   1.267 -0.2983 -0.9088 -0.1405
    8CHTO  H180 3051   6.406  10.450   1.201 -0.5204 -0.5964 -0.6507
    8CHTO   N16 3052   6.459  10.608   1.304 -0.8370  0.3541 -0.0319
    8CHTO  H172 3053   6.544  10.558   1.349  0.6619  2.3721 -0.5544
    8CHTO  H173 3054   6.423  10.684   1.372 -1.1036  0.0997  0.1138
    8CHTO   C94 3055   6.233  10.582   1.185  0.7089  0.3353 -0.1055
    8CHTO  H181 3056   6.177  10.652   1.247  0.3065 -0.0929  0.0214
    8CHTO   O61 3057   6.144  10.477   1.148  0.4066 -0.4727  0.2283
    8CHTO   C95 3058   6.070  10.441   1.270  0.4371 -0.3949  1.1472
    8CHTO  H182 3059   6.031  10.531   1.319  0.2478  1.0721 -1.6029
    8CHTO  C106 3060   5.955  10.349   1.219  0.1257  0.6783  0.0075
    8CHTO   O69 3061   5.856  10.416   1.148 -0.7829  0.2674 -0.4605
    8CHTO  H169 3062   5.840  10.371   1.067 -1.5233 -1.3011  0.5321
    8CHTO   O63 3063   6.287  10.652   1.056 -0.4253 -0.4864  0.2819
    8CHTO   C96 3064   6.175  10.690   0.949  0.4789 -0.3604 -0.1014
    8CHTO  H183 3065   6.090  10.622   0.958 -0.9999  1.8062  3.2910
    8CHTO   C98 3066   6.224  10.667   0.805  0.1475 -0.2491 -0.1362
    8CHTO  H185 3067   6.318  10.721   0.788 -0.8089  1.4617 -0.1637
    8CHTO   O67 3068   6.253  10.525   0.781 -0.0974 -0.0624  0.0101
    8CHTO  H167 3069   6.271  10.510   0.690  2.0895  1.6115  0.1285
    8CHTO  C102 3070   6.119  10.723   0.697 -0.2977 -0.1710  0.1651
    8CHTO  H189 3071   6.027  10.665   0.712 -0.1715 -0.2536  0.6494
    8CHTO   N18 3072   6.161  10.711   0.553 -0.3946  0.2787  0.5847
    8CHTO  H176 3073   6.252  10.653   0.552 -0.2788  0.4576  0.9935
    8CHTO  H177 3074   6.082  10.657   0.502 -0.9234  1.0694  0.5588
    8CHTO  C105 3075   6.076  10.870   0.734 -0.2634 -0.5118 -0.3216
    8CHTO  H192 3076   6.113  10.942   0.662 -1.5982  1.8860  1.3159
    8CHTO   O65 3077   6.116  10.925   0.861 -0.1288  0.4446  0.0632
    8CHTO  C100 3078   6.114  10.837   0.976 -0.0128 -0.5018  0.6755
    8CHTO  H187 3079   6.182  10.893   1.043  0.1514  0.5326 -0.3494
    8CHTO  C107 3080   5.974  10.838   1.040 -0.6036  0.3958  0.8830
    8CHTO   O70 3081   5.977  10.759   1.155 -0.0802 -0.2136  0.3478
    8CHTO  H170 3082   5.960  10.668   1.138  1.8141 -0.2780 -1.3661
    8CHTO   O57 3083   5.928  10.852   0.723 -0.0226 -0.3037  0.1165
    8CHTO   C85 3084   5.850  10.937   0.638 -0.7324 -0.5789 -0.0542
    8CHTO  H157 3085   5.915  10.978   0.559 -1.4904  0.2583 -0.2568
    8CHTO   C83 3086   5.805  11.066   0.718 -0.3327  0.2749 -0.0916
    8CHTO  H155 3087   5.894  11.116   0.754 -0.6794 -0.8844  2.4769
    8CHTO   O56 3088   5.734  11.029   0.835 -0.1385  0.1090  0.1077
    8CHTO  H135 3089   5.720  11.104   0.889  0.1458 -0.1670  0.5654
    8CHTO   C81 3090   5.733  11.159   0.615 -0.7299  0.2246 -0.4366
    8CHTO  H153 3091   5.806  11.188   0.540 -1.4040 -0.7212 -1.4779
    8CHTO   N14 3092   5.689  11.284   0.683 -0.3757  0.6206 -0.3578
    8CHTO  H141 3093   5.617  11.254   0.756 -1.6793  0.3202 -1.7278
    8CHTO  H142 3094   5.758  11.354   0.724 -0.4905  0.4691  0.0915
    8CHTO   C79 3095   5.610  11.084   0.545 -0.8460 -0.5576 -0.0050
    8CHTO  H151 3096   5.584  11.144   0.458  1.5834  1.0432  0.3166
    8CHTO   O52 3097   5.648  10.952   0.490 -0.4631 -0.2663 -0.0314
    8CHTO   C86 3098   5.722  10.864   0.581  0.1655  0.4507 -1.2782
    8CHTO  H158 3099   5.653  10.842   0.666  2.4664  2.2586  1.1328
    8CHTO   C90 3100   5.757  10.724   0.521  0.2308 -0.4050  0.0895
    8CHTO   O60 3101   5.838  10.741   0.404 -0.0585  0.7784 -0.2102
    8CHTO  H138 3102   5.925  10.752   0.436  1.0080 -0.3385 -2.6313
    8CHTO   O50 3103   5.498  11.058   0.639  0.3298 -0.0553 -0.5532
    8CHTO   C73 3104   5.355  11.055   0.635  0.4093  0.3098  0.7839
    8CHTO  H145 3105   5.323  11.061   0.530 -0.1769  2.1956  1.0612
    8CHTO   C74 3106   5.283  11.181   0.695  0.0622 -0.5190  0.0027
    8CHTO  H146 3107   5.320  11.271   0.643  1.0502  0.3388  2.1419
    8CHTO   O54 3108   5.142  11.170   0.663  0.7402  0.2067 -0.1876
    8CHTO  H133 3109   5.115  11.133   0.580 -1.7817 -1.7688  1.4111
    8CHTO   C75 3110   5.301  11.189   0.851 -0.3747 -0.3484 -0.3631
    8CHTO  H147 3111   5.407  11.190   0.880 -0.2914 -0.8143 -0.6435
    8CHTO   N13 3112   5.242  11.308   0.917 -0.4628 -0.2429  0.7742
    8CHTO  H139 3113   5.144  11.325   0.874  0.3113  0.1405 -0.9019
    8CHTO  H140 3114   5.230  11.285   1.021 -1.7042  1.9110  1.1293
    8CHTO   C76 3115   5.268  11.051   0.923  0.5189  0.3704 -0.0351
    8CHTO  H148 3116   5.161  11.036   0.936  0.5692  1.2657  1.5472
    8CHTO   O49 3117   5.319  10.939   0.847  0.8101 -0.8396 -0.2718
    8CHTO   C77 3118   5.297  10.931   0.703 -0.2091  0.0636 -0.1621
    8CHTO  H149 3119   5.194  10.925   0.668  0.9105  2.5136 -4.2865
    8CHTO   C88 3120   5.357  10.804   0.642  0.3135  0.1257  0.2618
    8CHTO   O58 3121   5.333  10.690   0.735  0.9460 -0.7055 -0.2381
    8CHTO  H136 3122   5.376  10.711   0.816  1.4564  2.1309 -1.1655
    8CHTO   O51 3123   5.349  11.033   1.069 -0.5457 -0.0114 -1.0133
    8CHTO   C78 3124   5.318  10.894   1.150  0.0979  0.8923  0.0215
    8CHTO  H150 3125   5.264  10.818   1.089  0.6848  0.8193 -0.4185
    8CHTO   C80 3126   5.231  10.923   1.275  0.3517 -0.4628  0.7087
    8CHTO  H152 3127   5.281  11.007   1.329 -0.6434 -1.1642  2.7372
    8CHTO   O55 3128   5.105  10.983   1.233  0.6642 -0.0748 -0.1596
    8CHTO  H134 3129   5.027  10.932   1.243  0.0432  0.8413 -0.2358
    8CHTO   C84 3130   5.196  10.797   1.359  0.0692 -0.3035 -0.1974
    8CHTO  H156 3131   5.131  10.737   1.295 -0.1844 -0.1186 -0.1111
    8CHTO   N15 3132   5.118  10.821   1.485  0.9465 -0.0838 -0.2886
    8CHTO  H143 3133   5.013  10.797   1.482  0.7909  0.7515 -1.9864
    8CHTO  H144 3134   5.129  10.920   1.523 -0.6992  0.2738 -0.7172
    8CHTO   C87 3135   5.325  10.715   1.387 -0.2980 -0.0993  0.4823
    8CHTO  H159 3136   5.376  10.774   1.463 -0.6231 -1.2242  1.5898
    8CHTO   O53 3137   5.411  10.692   1.263  0.2080  0.3961 -0.1520
    8CHTO   C82 3138   5.447  10.817   1.195 -0.3790 -0.2412 -0.2499
    8CHTO  H154 3139   5.504  10.883   1.260  1.9802 -1.3272 -1.1567
    8CHTO   C89 3140   5.539  10.787   1.077  0.1104  0.5047  0.7134
    8CHTO   O59 3141   5.572  10.903   1.003  0.3454  0.9054 -0.9016
    8CHTO  H137 3142   5.519  10.902   0.925  0.8120 -1.4556 -1.2026
    8CHTO   O45 3143   5.284  10.566   1.414  0.1706  0.0800  0.2188
    8CHTO   C67 3144   5.370  10.494   1.510  0.0772 -0.6458 -0.4977
    8CHTO  H124 3145   5.326  10.395   1.521 -0.8401  0.1220  3.1325
    8CHTO   C65 3146   5.520  10.471   1.466  0.8928 -0.2260  0.2804
    8CHTO  H122 3147   5.543  10.518   1.371  0.2182 -0.1812  0.1365
    8CHTO   O44 3148   5.545  10.333   1.444 -0.2897  0.7202  0.6653
    8CHTO  H102 3149   5.638  10.319   1.443 -0.0955  2.0144  0.5110
    8CHTO   C63 3150   5.616  10.547   1.572  0.4065 -1.2782 -0.2905
    8CHTO  H120 3151   5.596  10.654   1.570  0.5350 -1.2556 -0.2311
    8CHTO   N11 3152   5.761  10.551   1.526 -0.0054 -0.1447  0.6539
    8CHTO  H108 3153   5.831  10.568   1.605 -0.7008  0.0624  1.2387
    8CHTO  H109 3154   5.777  10.472   1.456 -0.0328  1.3060 -1.0257
    8CHTO   C61 3155   5.589  10.501   1.718 -0.3702 -0.3896  0.0385
    8CHTO  H118 3156   5.637  10.569   1.790 -0.9271  0.3396 -0.2706
    8CHTO   O40 3157   5.449  10.496   1.752  0.3070 -0.0465 -0.2237
    8CHTO   C68 3158   5.356  10.556   1.658 -0.2655 -0.5433  1.1000
    8CHTO  H125 3159   5.384  10.663   1.661  3.0535 -1.1939 -2.5868
    8CHTO   C72 3160   5.221  10.544   1.721 -0.0760 -0.3282 -0.2258
    8CHTO   O48 3161   5.196  10.613   1.840 -0.4074  0.8703 -0.0110
    8CHTO  H105 3162   5.201  10.704   1.818 -0.2374  0.8313 -0.1289
    8CHTO   O38 3163   5.649  10.368   1.749  0.0463  0.3033 -0.1176
    8CHTO   C55 3164   5.588  10.250   1.799  0.5185 -0.0868 -0.4420
    8CHTO  H112 3165   5.684  10.197   1.811  0.3928 -0.0288  0.9553
    8CHTO   C56 3166   5.490  10.179   1.704 -0.1850 -0.0535  0.2327
    8CHTO  H113 3167   5.441  10.253   1.639  0.1113 -1.4594 -1.6096
    8CHTO   O42 3168   5.558  10.089   1.611 -0.0397 -0.1500 -0.1068
    8CHTO  H100 3169   5.566  10.129   1.526  1.0968 -0.0719  0.0200
    8CHTO   C57 3170   5.367  10.103   1.779  0.1594  0.0933 -0.1731
    8CHTO  H114 3171   5.391  10.002   1.813  0.0545  0.2580  0.3876
    8CHTO   N10 3172   5.250  10.080   1.688 -0.2253  0.4549 -0.6301
    8CHTO  H106 3173   5.256   9.988   1.631 -1.8770  0.0344 -0.1361
    8CHTO  H107 3174   5.157  10.072   1.742  0.4220 -0.8182  0.3384
    8CHTO   C58 3175   5.322  10.184   1.900  0.4232 -0.0504 -0.5404
    8CHTO  H115 3176   5.296  10.289   1.875  1.0307  0.3435  0.4599
    8CHTO   O37 3177   5.433  10.180   1.989 -0.2461 -0.4632 -0.0943
    8CHTO   C59 3178   5.535  10.277   1.949  0.0857  0.1488 -0.3097
    8CHTO  H116 3179   5.498  10.379   1.953  1.8528  0.8346 -0.7146
    8CHTO   C70 3180   5.650  10.265   2.050  0.6223 -0.0978 -0.3610
    8CHTO   O46 3181   5.754  10.363   2.033  0.2857 -0.1737  0.1963
    8CHTO  H103 3182   5.813  10.368   2.105 -0.1815 -0.6223  0.6141
    8CHTO   O39 3183   5.204  10.109   1.991  0.1266  0.1107 -0.0380
    8CHTO   C60 3184   5.073  10.169   1.985 -0.4549 -0.2596  0.1138
    8CHTO  H117 3185   5.071  10.247   1.908  0.1291  0.4932  0.8490
    8CHTO   C62 3186   4.969  10.060   1.949  0.5474 -0.2274 -0.4618
    8CHTO  H119 3187   4.994  10.040   1.843  0.6980 -0.5571 -0.3658
    8CHTO   O43 3188   4.974   9.950   2.032 -0.1037  0.1950  0.0289
    8CHTO  H101 3189   5.007   9.959   2.119 -1.6849  0.1953  0.6486
    8CHTO   C66 3190   4.825  10.126   1.946  0.1181  0.3618  0.4762
    8CHTO  H123 3191   4.836  10.207   1.873 -0.4778 -0.4352 -0.5004
    8CHTO   N12 3192   4.716  10.036   1.896 -0.1158  0.5223 -0.2750
    8CHTO  H110 3193   4.652   9.992   1.971 -1.7343  1.9521 -0.7738
    8CHTO  H111 3194   4.749   9.955   1.833 -1.1343  0.6736 -1.0236
    8CHTO   C69 3195   4.798  10.198   2.083  0.4483 -0.4631  0.2285
    8CHTO  H126 3196   4.790  10.110   2.149  0.7343 -1.4032 -0.9660
    8CHTO   O41 3197   4.922  10.297   2.129  0.0294  0.4468 -0.0383
    8CHTO   C64 3198   5.043  10.242   2.124 -0.1161 -0.0673 -0.5017
    8CHTO  H121 3199   5.040  10.166   2.204 -0.7625 -1.5398 -1.8967
    8CHTO   C71 3200   5.156  10.343   2.164  0.3418  0.0776 -0.2458
    8CHTO   O47 3201   5.150  10.460   2.085 -0.0459 -0.0737  0.1534
    8CHTO  H104 3202   5.205  10.521   2.129 -0.3265 -1.4677  2.5365
    8CHTO   O34 3203   4.686  10.271   2.102  0.5089  0.0508  0.2980
    8CHTO   C49 3204   4.643  10.416   2.111 -0.0670 -0.3247  0.3396
    8CHTO   H91 3205   4.675  10.449   2.210  0.3058  1.1159 -0.2656
    8CHTO   C47 3206   4.489  10.423   2.085  0.6123  0.2456  0.1497
    8CHTO   H89 3207   4.456  10.529   2.094 -0.6874 -0.0963 -0.4358
    8CHTO   O33 3208   4.429  10.348   2.192 -0.1165 -0.3596 -0.2984
    8CHTO   H70 3209   4.423  10.406   2.265 -0.5081 -1.3064  0.4341
    8CHTO   C45 3210   4.450  10.374   1.937 -0.4349 -0.8648  0.2290
    8CHTO   H87 3211   4.495  10.274   1.927  1.4090  0.0131 -0.3230
    8CHTO    N8 3212   4.302  10.362   1.919 -0.7793 -0.1368 -0.2005
    8CHTO   H75 3213   4.246  10.409   1.998 -1.6300 -0.9699 -0.2903
    8CHTO   H76 3214   4.287  10.405   1.821 -2.5646  1.7179  0.8660
    8CHTO   C43 3215   4.528  10.471   1.829  0.1541  0.5779  0.2229
    8CHTO   H85 3216   4.513  10.431   1.729  2.7874 -3.4041  1.2842
    8CHTO   O29 3217   4.665  10.470   1.858 -0.0105 -0.3727 -0.1455
    8CHTO   C50 3218   4.706  10.499   1.994 -0.8922  0.6631  0.3519
    8CHTO   H92 3219   4.814  10.482   1.983 -0.8250 -0.0784  1.9454
    8CHTO   C54 3220   4.703  10.646   2.022 -0.1280 -0.5580  0.0229
    8CHTO   O36 3221   4.713  10.691   2.152 -0.1208  0.4422  0.1518
    8CHTO   H72 3222   4.792  10.670   2.198 -0.0565 -1.8241 -0.9424
    8CHTO   O27 3223   4.474  10.607   1.835  0.2857  0.3740 -0.0431
    8CHTO   C37 3224   4.430  10.703   1.741  0.4461  0.4575 -0.1722
    8CHTO   H79 3225   4.380  10.645   1.662  1.2675 -1.3144  0.6086
    8CHTO   C38 3226   4.321  10.790   1.804  0.1040  0.1969  0.7662
    8CHTO   H80 3227   4.360  10.829   1.899 -0.4844  0.7653  0.7780
    8CHTO   O31 3228   4.204  10.704   1.834  0.0717  0.0222  0.2078
    8CHTO   H68 3229   4.216  10.661   1.916 -0.1629  0.3316  0.4036
    8CHTO   C39 3230   4.285  10.907   1.707 -0.3408  0.5891  0.2386
    8CHTO   H81 3231   4.236  10.860   1.622  0.6975  0.3834 -0.2524
    8CHTO    N7 3232   4.194  11.008   1.771  0.8303 -0.0608 -0.6253
    8CHTO   H73 3233   4.091  10.979   1.787  1.3213 -1.1855  0.6518
    8CHTO   H74 3234   4.229  11.045   1.867 -1.8127 -0.1738  0.4081
    8CHTO   C40 3235   4.413  10.971   1.640  0.5611 -0.6018 -0.1036
    8CHTO   H82 3236   4.470  11.019   1.720  3.2344 -2.0381 -1.1070
    8CHTO   O26 3237   4.486  10.869   1.578  0.1866  0.2617 -0.4403
    8CHTO   C41 3238   4.547  10.778   1.678  0.1625  0.4271 -1.4961
    8CHTO   H83 3239   4.599  10.836   1.756 -0.5642  0.9958 -1.4208
    8CHTO   C52 3240   4.650  10.699   1.597  0.2226 -0.2785 -0.0845
    8CHTO   O35 3241   4.605  10.612   1.500 -0.0492  0.4002 -0.2187
    8CHTO   H71 3242   4.565  10.534   1.534 -0.0466 -0.4778 -2.1861
    8CHTO   O28 3243   4.399  11.084   1.550  0.6190 -0.6751  0.2233
    8CHTO   C42 3244   4.391  11.082   1.404 -0.1257 -0.2207 -0.4033
    8CHTO   H84 3245   4.370  11.187   1.384 -1.2546 -0.0366  1.6099
    8CHTO   C44 3246   4.278  10.995   1.332 -0.0979  0.0700 -0.0766
    8CHTO   H86 3247   4.300  10.889   1.347 -1.7415 -0.2036  0.4994
    8CHTO   O32 3248   4.158  11.035   1.392  0.0243  0.2129 -0.0312
    8CHTO   H69 3249   4.129  11.116   1.354  1.4554  1.1856  0.9220
    8CHTO   C48 3250   4.271  11.014   1.174  0.1876 -0.6797  0.0638
    8CHTO   H90 3251   4.233  11.112   1.144  2.2501 -0.2458 -1.2451
    8CHTO    N9 3252   4.162  10.923   1.116  0.7294 -0.1332 -0.6564
    8CHTO   H77 3253   4.082  10.982   1.073 -1.5519 -0.9658  2.1956
    8CHTO   H78 3254   4.207  10.860   1.041  2.3067  2.2574 -1.7809
    8CHTO   C51 3255   4.416  10.986   1.116 -0.3922 -0.3345  0.0989
    8CHTO   H93 3256   4.438  10.886   1.153 -0.6404  0.0526  1.3009
    8CHTO   O30 3257   4.500  11.082   1.174  0.4961 -0.4503  0.1605
    8CHTO   C46 3258   4.519  11.044   1.329 -0.7350  0.0599  0.1854
    8CHTO   H88 3259   4.534  10.937   1.342  0.5484  0.1366 -0.6537
    8CHTO   C53 3260   4.645  11.124   1.381 -0.2439 -0.0497 -0.1839
    8CHTO   O72 3261   4.765  11.077   1.313  0.3823 -0.3512  0.0222
    8CHTO  H199 3262   4.793  11.005   1.368  1.1432  0.0191  0.1356
    8CHTO   O22 3263   4.422  11.004   0.974  0.8955  0.0095 -0.2024
    8CHTO   C31 3264   4.533  10.949   0.893 -0.8925  0.0416  0.0881
    8CHTO   H59 3265   4.541  11.010   0.801  2.1623  0.1546  0.3630
    8CHTO   C29 3266   4.669  10.964   0.969  0.8593  1.0609 -0.1198
    8CHTO   H57 3267   4.662  10.922   1.071  0.0632  1.5664  0.0364
    8CHTO   O21 3268   4.687  11.100   0.984 -0.1465 -0.5904  0.2572
    8CHTO   H37 3269   4.747  11.118   1.053 -1.7851  0.3588  1.4645
    8CHTO   C27 3270   4.784  10.894   0.893  0.8452 -0.0649  0.4062
    8CHTO   H55 3271   4.785  10.943   0.795 -1.1682 -0.4164  0.1899
    8CHTO    N5 3272   4.913  10.905   0.960  0.4089  0.2142 -0.0471
    8CHTO   H43 3273   4.989  10.941   0.892 -1.6916  1.6810 -1.6932
    8CHTO   H44 3274   4.966  10.824   1.009 -0.1557  0.4565  0.9858
    8CHTO   C25 3275   4.751  10.747   0.865  0.8198  0.0556  0.4947
    8CHTO   H53 3276   4.729  10.685   0.953 -0.8059 -0.8301 -0.5124
    8CHTO   O17 3277   4.621  10.738   0.793 -0.3739  0.3744  0.1615
    8CHTO   C32 3278   4.504  10.800   0.847 -0.4193  0.4215 -0.0775
    8CHTO   H60 3279   4.479  10.745   0.938  0.6997  1.1054  0.6543
    8CHTO   C36 3280   4.394  10.782   0.742  0.6055  0.1090  0.4142
    8CHTO   O25 3281   4.357  10.644   0.728 -0.1328 -0.0761  0.9043
    8CHTO   H40 3282   4.309  10.637   0.648  1.5503  1.1980 -0.2443
    8CHTO   O15 3283   4.869  10.667   0.767  0.2752 -0.0822  0.0610
    8CHTO   C19 3284   4.906  10.667   0.625 -0.5294  0.3684 -0.3987
    8CHTO   H47 3285   4.828  10.600   0.584  0.8122 -1.2353 -0.3667
    8CHTO   C20 3286   4.899  10.802   0.551 -0.5617 -0.3621  0.9797
    8CHTO   H48 3287   4.964  10.880   0.592 -0.8768  0.5342 -0.2123
    8CHTO   O19 3288   4.765  10.857   0.570 -0.3042 -0.3866 -0.4797
    8CHTO   H35 3289   4.766  10.948   0.593  0.0349  0.8323 -4.8710
    8CHTO   C21 3290   4.921  10.777   0.398 -0.1614  0.0841 -0.8865
    8CHTO   H49 3291   4.836  10.722   0.357  0.4622 -0.7113 -1.1370
    8CHTO    N4 3292   4.928  10.911   0.329 -0.2362  0.4227 -0.4679
    8CHTO   H41 3293   4.957  10.898   0.226  1.9019 -0.1302  0.1829
    8CHTO   H42 3294   4.825  10.942   0.340  0.1303  1.4050  0.3039
    8CHTO   C22 3295   5.054  10.692   0.380 -0.5593 -0.0272 -0.0286
    8CHTO   H50 3296   5.136  10.757   0.410 -1.2038  0.3467  0.9563
    8CHTO   O14 3297   5.058  10.568   0.459  0.8084  0.5371 -0.0659
    8CHTO   C23 3298   5.032  10.587   0.600  0.0588  1.0068 -0.2055
    8CHTO   H51 3299   5.124  10.634   0.638  0.2709  0.6176 -0.2271
    8CHTO   C34 3300   5.017  10.451   0.667  0.0735  0.2074 -0.4513
    8CHTO   O23 3301   5.137  10.371   0.662 -0.0135  0.3404  0.2172
    8CHTO   H38 3302   5.160  10.337   0.746  0.2014  2.2253  0.9492
    8CHTO   O16 3303   5.066  10.656   0.241  0.2758 -0.5990  0.3604
    8CHTO   C24 3304   5.208  10.578   0.211 -0.1889 -0.2121  0.0146
    8CHTO   H52 3305   5.255  10.538   0.301  0.7110 -0.6683 -0.6416
    8CHTO   C26 3306   5.311  10.679   0.145 -0.2629  0.3812  1.0435
    8CHTO   H54 3307   5.274  10.708   0.044  0.1427 -1.0458  0.4704
    8CHTO   O20 3308   5.328  10.800   0.222  0.6051 -0.4013  0.5172
    8CHTO   H36 3309   5.269  10.870   0.200 -1.0892 -1.2073  2.3736
    8CHTO   C30 3310   5.459  10.598   0.135  0.1682  0.4161  0.0306
    8CHTO   H58 3311   5.502  10.562   0.229  1.6747 -0.2639 -0.8984
    8CHTO    N6 3312   5.568  10.686   0.089 -0.2035  0.0051 -0.9825
    8CHTO   H45 3313   5.590  10.760   0.164  0.3945 -0.0383 -1.1143
    8CHTO   H46 3314   5.660  10.640   0.058  0.7926  1.5099 -0.3022
    8CHTO   C33 3315   5.428  10.478   0.042 -0.4160  0.2580 -0.9078
    8CHTO   H61 3316   5.394  10.509  -0.058  5.1723  0.4229 -2.9238
    8CHTO   O18 3317   5.324  10.409   0.110  0.6593 -0.2033 -0.4962
    8CHTO   C28 3318   5.190  10.460   0.118 -0.4185 -0.2908  0.1012
    8CHTO   H56 3319   5.147  10.495   0.024 -0.4043  0.6563  0.4407
    8CHTO   C35 3320   5.110  10.340   0.176  0.4012 -0.2680  0.2701
    8CHTO   O24 3321   4.983  10.372   0.227  0.4051 -0.1421 -0.2356
    8CHTO   H39 3322   4.965  10.311   0.297 -0.5093  1.0080  0.5457
    8CHTO    O9 3323   5.544  10.390   0.015 -0.1866 -0.0665  0.7363
    8CHTO   C13 3324   5.527  10.280  -0.096  0.8872 -0.4545  0.5916
    8CHTO   H26 3325   5.435  10.296  -0.156 -0.2390 -1.0850  2.1069
    8CHTO   C11 3326   5.516  10.146  -0.022 -0.4353  0.4317  0.2968
    8CHTO   H24 3327   5.424  10.152   0.038 -1.4424 -1.1344 -1.0486
    8CHTO    O8 3328   5.626  10.131   0.068 -0.8883  0.1238 -0.3464
    8CHTO    H3 3329   5.602  10.159   0.154 -0.8844 -0.7286 -0.0626
    8CHTO    C9 3330   5.515  10.032  -0.129  0.2472 -0.1881  0.3216
    8CHTO   H22 3331   5.440  10.071  -0.199  1.5343 -1.7963 -2.0174
    8CHTO    N2 3332   5.453   9.902  -0.086 -0.5266 -0.7139  0.0516
    8CHTO   H10 3333   5.461   9.893   0.021  2.5622  1.4228  0.0677
    8CHTO   H11 3334   5.490   9.815  -0.138  0.4492  1.1080 -2.4134
    8CHTO    C7 3335   5.658  10.030  -0.205  0.4505  0.3313  0.4961
    8CHTO   H20 3336   5.629  10.019  -0.312 -0.9945  1.7683  0.7153
    8CHTO    O4 3337   5.729  10.157  -0.174  0.9957 -0.6433  0.3708
    8CHTO   C14 3338   5.650  10.272  -0.195 -0.1996 -0.3331  0.3584
    8CHTO   H27 3339   5.615  10.264  -0.300  1.7683  0.0631 -0.3529
    8CHTO   C18 3340   5.744  10.395  -0.191  0.1860  0.0804 -0.1308
    8CHTO   O13 3341   5.805  10.411  -0.319 -0.1313 -0.1511 -0.6432
    8CHTO    H7 3342   5.894  10.382  -0.310 -0.3789 -1.0642 -1.0134
    8CHTO    O2 3343   5.763   9.899  -0.160  0.4344  0.1233 -0.2049
    8CHTO    C1 3344   5.885   9.937  -0.092 -0.3058  0.1853  0.5076
    8CHTO   H14 3345   5.869  10.030  -0.034 -3.6030 -0.6940  1.1249
    8CHTO    C2 3346   6.018   9.947  -0.182  0.2043 -0.4571 -0.1152
    8CHTO   H15 3347   6.004   9.870  -0.260  2.1269  0.5815 -1.5145
    8CHTO    O6 3348   6.020  10.073  -0.249  0.4739  0.8222 -0.4001
    8CHTO    H1 3349   6.045  10.135  -0.183 -1.8082  1.9917 -0.6113
    8CHTO    C3 3350   6.161   9.931  -0.094  0.2266 -0.0933 -0.6276
    8CHTO   H16 3351   6.170  10.029  -0.045 -0.4180 -0.2752 -0.1284
    8CHTO    N1 3352   6.280   9.912  -0.186  0.1324  0.0388 -0.4596
    8CHTO    H8 3353   6.375   9.909  -0.134 -0.1176  0.6842  0.0486
    8CHTO    H9 3354   6.284   9.996  -0.255  1.5738  0.3401 -0.0352
    8CHTO    C4 3355   6.148   9.824   0.018 -0.4266  0.4794  0.2686
    8CHTO   H17 3356   6.145   9.727  -0.031  0.3578  0.2329  0.6953
    8CHTO    O1 3357   6.028   9.854   0.081 -0.2590  0.2583 -0.1049
    8CHTO    C5 3358   5.903   9.831   0.013  0.0544  0.5741  0.9364
    8CHTO   H18 3359   5.906   9.732  -0.031 -0.5843  0.8559  0.2587
    8CHTO   C16 3360   5.786   9.833   0.113 -0.0179 -0.2143 -0.6754
    8CHTO   O11 3361   5.809   9.743   0.221 -0.2230 -0.0829  0.1802
    8CHTO    H5 3362   5.725   9.726   0.260  0.3859 -0.4351  1.3604
    8CHTO    O3 3363   6.245   9.842   0.124 -0.5259 -0.3801 -0.5757
    8CHTO    C6 3364   6.285   9.725   0.199  0.3179 -0.1495 -0.2728
    8CHTO   H19 3365   6.205   9.651   0.195 -0.5320  0.6527  1.5101
    8CHTO    C8 3366   6.411   9.667   0.127  0.2333  0.3385  0.1402
    8CHTO   H21 3367   6.481   9.745   0.096  0.4584  1.0194  2.3059
    8CHTO    O7 3368   6.361   9.613   0.006 -0.0097  0.3815  0.0774
    8CHTO    H2 3369   6.408   9.630  -0.073  1.1470 -0.2960  0.6008
    8CHTO   C12 3370   6.488   9.551   0.210 -0.2603 -0.0502 -0.4477
    8CHTO   H25 3371   6.413   9.470   0.211  1.1880 -1.4457 -1.4311
    8CHTO    N3 3372   6.602   9.501   0.137 -0.6266 -0.3165 -0.1303
    8CHTO   H12 3373   6.668   9.575   0.096 -1.4605  0.6085  0.1847
    8CHTO   H13 3374   6.578   9.430   0.059 -1.7801  0.6144 -0.6347
    8CHTO   C15 3375   6.513   9.610   0.355  0.3113  0.2730  0.1742
    8CHTO   H28 3376   6.581   9.695   0.350  1.1533 -0.4730 -2.0374
    8CHTO   O10 3377   6.554   9.499   0.444 -0.6434 -0.2308  0.2156
    8CHTO    H4 3378   6.541   9.521   0.535  1.9835  2.3084  0.0450
    8CHTO    O5 3379   6.385   9.656   0.415 -0.8465 -0.1810 -0.4101
    8CHTO   C10 3380   6.308   9.760   0.350  0.0695 -0.2501 -0.5838
    8CHTO   H23 3381   6.371   9.850   0.351 -0.0470 -0.1670 -0.7122
    8CHTO   C17 3382   6.176   9.781   0.431  0.5812  0.1916 -0.5152
    8CHTO   O12 3383   6.111   9.902   0.412  0.3357  0.0190  0.0379
    8CHTO    H6 3384   6.035   9.900   0.466  0.9885 -0.9141  0.9405
    9CHTO  H203 3385   7.573   4.627   1.317  1.5901  1.9406 -1.3629
    9CHTO   O82 3386   7.584   4.561   1.252 -0.0187 -0.0539  0.3478
    9CHTO  C123 3387   7.680   4.599   1.156  0.9581  0.0949  0.7124
    9CHTO  H227 3388   7.639   4.573   1.057  0.6816  0.5182  0.7128
    9CHTO   O77 3389   7.679   4.742   1.155 -0.2403 -0.1868  0.0099
    9CHTO  C118 3390   7.757   4.800   1.049 -0.2610  0.0613  0.2630
    9CHTO  H222 3391   7.726   4.756   0.953  1.4637  0.7726 -0.6437
    9CHTO  C125 3392   7.725   4.955   1.048  0.3011  0.4855 -0.1248
    9CHTO   O84 3393   7.589   4.982   1.029  0.4618 -0.3490  0.0140
    9CHTO  H205 3394   7.579   5.040   0.956  0.1833  0.8309  0.9827
    9CHTO  C114 3395   7.904   4.771   1.076 -0.2709  0.2200 -0.0214
    9CHTO  H218 3396   7.921   4.806   1.178 -1.7619 -2.4730  1.2056
    9CHTO  C116 3397   7.933   4.618   1.084  0.3764 -0.2990  0.4590
    9CHTO  H220 3398   7.924   4.567   0.986  0.0052  1.0279 -0.2064
    9CHTO   O79 3399   8.072   4.602   1.131  0.5645 -0.1642  0.0202
    9CHTO  H201 3400   8.136   4.627   1.066 -2.1525 -0.4126 -2.8923
    9CHTO  C120 3401   7.829   4.547   1.180  0.4245  0.0122  0.6088
    9CHTO  H224 3402   7.856   4.578   1.284 -0.7422 -2.2328  1.6297
    9CHTO   N21 3403   7.834   4.397   1.166 -0.2255 -0.2204  0.0529
    9CHTO  H211 3404   7.812   4.353   1.263 -3.0184 -0.2392 -0.5522
    9CHTO  H212 3405   7.920   4.360   1.113 -0.7186 -0.0972 -0.8439
    9CHTO   O75 3406   7.971   4.840   0.972 -0.2477  0.9141  0.4081
    9CHTO  C112 3407   7.944   4.816   0.802  0.2141  0.1934  0.1921
    9CHTO  H216 3408   7.835   4.812   0.790  0.1572  2.3416 -0.2277
    9CHTO   O73 3409   8.006   4.688   0.766 -0.5354 -0.2833 -0.3586
    9CHTO  C113 3410   7.964   4.646   0.636 -0.5237 -1.2780 -0.1853
    9CHTO  H217 3411   7.855   4.628   0.643 -0.9081  0.5394 -1.1750
    9CHTO  C124 3412   8.019   4.506   0.606 -0.1918 -1.0706  0.5395
    9CHTO   O83 3413   8.159   4.503   0.641 -0.0272  0.1004  0.3422
    9CHTO  H204 3414   8.198   4.441   0.699 -2.9170 -2.4717 -0.3258
    9CHTO  C109 3415   8.008   4.746   0.521  0.3204 -0.3816  0.2459
    9CHTO  H213 3416   8.114   4.725   0.501 -0.3597 -0.8033 -3.2862
    9CHTO  C110 3417   7.977   4.898   0.559  0.1618 -0.2531  0.5191
    9CHTO  H214 3418   7.869   4.910   0.551  0.2421  0.2273  0.1367
    9CHTO   O78 3419   8.057   4.979   0.473  0.1723 -0.7641  0.2949
    9CHTO  H200 3420   8.019   5.064   0.477  0.0813 -0.7507 -0.7073
    9CHTO  C111 3421   8.005   4.930   0.710 -0.0993 -0.3923 -0.0265
    9CHTO  H215 3422   8.113   4.934   0.728 -0.1806  0.3198  0.3097
    9CHTO   N19 3423   7.957   5.070   0.749 -0.3474  0.6243 -0.2111
    9CHTO  H207 3424   7.957   5.079   0.857 -0.1963  0.9502 -0.2399
    9CHTO  H208 3425   7.859   5.090   0.709 -1.1745 -1.6173  0.5577
    9CHTO   O74 3426   7.929   4.717   0.397  0.1216  0.4915 -0.3348
    9CHTO  C115 3427   8.023   4.619   0.287 -0.5323  0.0781 -0.4231
    9CHTO  H219 3428   8.122   4.600   0.328 -1.0488 -1.4615  0.1397
    9CHTO   O76 3429   7.957   4.475   0.279 -0.1866  0.2326 -0.0584
    9CHTO  C122 3430   7.980   4.386   0.167  0.8449 -0.4293  0.4502
    9CHTO  H226 3431   7.893   4.319   0.168  1.0522 -0.7028  0.3648
    9CHTO  C126 3432   8.102   4.294   0.214 -0.2105 -0.6763 -0.1778
    9CHTO   O85 3433   8.209   4.358   0.283 -0.0488 -0.5958  0.1312
    9CHTO  H206 3434   8.266   4.406   0.226  1.1528 -1.6885  0.3790
    9CHTO  C121 3435   7.998   4.452   0.024  0.8096  0.0954  0.8357
    9CHTO  H225 3436   8.109   4.451   0.011  0.6317  0.1715 -0.6682
    9CHTO   O81 3437   7.933   4.366  -0.068  0.1258 -0.1795  0.0758
    9CHTO  H202 3438   7.983   4.293  -0.099 -1.7632 -0.8002 -1.5898
    9CHTO  C119 3439   7.946   4.604   0.037  0.3403  0.2305  0.4126
    9CHTO  H223 3440   7.962   4.650  -0.061  1.0015  0.6831  0.7305
    9CHTO  C117 3441   8.026   4.692   0.145  0.2922  0.7803  0.0359
    9CHTO  H221 3442   7.990   4.792   0.169  0.6245  0.8849  0.0959
    9CHTO   N20 3443   8.168   4.713   0.094  0.1384 -0.4576  0.4258
    9CHTO  H209 3444   8.174   4.732  -0.012 -0.5234  0.2470  0.5118
    9CHTO  H210 3445   8.244   4.660   0.148 -0.4688 -3.8194 -1.8216
    9CHTO   O80 3446   7.783   4.618   0.049 -0.3864  0.1677 -0.3843
    9CHTO  C103 3447   7.708   4.736  -0.017 -0.5592  0.3982 -0.2304
    9CHTO  H190 3448   7.607   4.741   0.024 -0.5355  1.8255 -0.3229
    9CHTO  C101 3449   7.769   4.883  -0.034 -0.0051 -0.2637  0.4525
    9CHTO  H188 3450   7.869   4.886  -0.077  0.1973  1.4032  0.9813
    9CHTO   O68 3451   7.792   4.945   0.117 -0.0508  0.4682 -0.0923
    9CHTO  H168 3452   7.830   5.030   0.111 -0.3530  0.5320 -1.2099
    9CHTO   C99 3453   7.675   4.977  -0.132 -0.7488  0.4358 -0.5992
    9CHTO  H186 3454   7.588   5.014  -0.074 -0.7476  0.0289 -0.3360
    9CHTO   N17 3455   7.742   5.111  -0.163 -0.1622 -0.0337  0.1480
    9CHTO  H174 3456   7.814   5.105  -0.243 -0.2300  0.4841  0.0485
    9CHTO  H175 3457   7.673   5.194  -0.170 -1.9387 -1.3583  1.3002
    9CHTO   C97 3458   7.611   4.909  -0.256 -0.0851  0.4228 -0.0531
    9CHTO  H184 3459   7.675   4.918  -0.345 -0.1374 -1.6680 -0.3068
    9CHTO   O64 3460   7.579   4.772  -0.234 -0.4011 -0.1036 -0.5049
    9CHTO  C104 3461   7.689   4.692  -0.172 -0.3137  0.3558 -0.5588
    9CHTO  H191 3462   7.780   4.713  -0.228  1.5372 -2.2011  1.3389
    9CHTO  C108 3463   7.652   4.547  -0.200 -0.4590 -0.0142  0.4492
    9CHTO   O71 3464   7.542   4.515  -0.119  0.1845  0.0072 -0.3798
    9CHTO  H171 3465   7.515   4.426  -0.133 -0.3962  0.1305 -0.0806
    9CHTO   O62 3466   7.489   4.979  -0.286  0.1213  0.0492 -0.0103
    9CHTO   C91 3467   7.422   4.971  -0.409  0.2669  0.5453  0.0598
    9CHTO  H178 3468   7.469   4.889  -0.463 -1.4185 -0.6891  0.4140
    9CHTO   C92 3469   7.458   5.105  -0.495 -0.3297  0.0046 -0.5950
    9CHTO  H179 3470   7.565   5.129  -0.487 -0.2276 -0.8570  0.8840
    9CHTO   O66 3471   7.435   5.070  -0.637 -0.1074  0.1689 -0.0065
    9CHTO  H166 3472   7.453   5.137  -0.700  2.2277 -1.4612 -1.1766
    9CHTO   C93 3473   7.367   5.230  -0.449  0.3954 -0.1047 -0.3747
    9CHTO  H180 3474   7.344   5.285  -0.541 -0.1076  1.1204  0.4690
    9CHTO   N16 3475   7.435   5.316  -0.351 -0.3404  0.4477 -0.6714
    9CHTO  H172 3476   7.392   5.411  -0.323  1.6363  1.4691 -0.9894
    9CHTO  H173 3477   7.443   5.270  -0.253 -1.6647  0.2682 -0.6434
    9CHTO   C94 3478   7.228   5.183  -0.392  0.7169  0.0539  0.5794
    9CHTO  H181 3479   7.234   5.154  -0.286 -2.7823 -0.7427  0.6057
    9CHTO   O61 3480   7.188   5.060  -0.452 -0.3235  0.0924  0.0789
    9CHTO   C95 3481   7.264   4.952  -0.403 -0.0661  0.3257  0.0971
    9CHTO  H182 3482   7.234   4.934  -0.300  1.9685 -1.2654  0.4471
    9CHTO  C106 3483   7.221   4.825  -0.480  0.2215 -0.1144  0.3225
    9CHTO   O69 3484   7.084   4.786  -0.449 -0.4536  0.5202  0.3902
    9CHTO  H169 3485   7.065   4.773  -0.359  1.2317 -1.5911  0.5059
    9CHTO   O63 3486   7.110   5.287  -0.404 -0.4719 -0.2851  0.1748
    9CHTO   C96 3487   6.977   5.262  -0.341  0.3740  1.0330  0.0498
    9CHTO  H183 3488   7.000   5.189  -0.263  0.5848  0.9246 -0.1111
    9CHTO   C98 3489   6.866   5.203  -0.442 -0.6095 -0.6727 -0.3260
    9CHTO  H185 3490   6.887   5.249  -0.540  2.4238 -0.8907  0.1703
    9CHTO   O67 3491   6.896   5.063  -0.455  0.2463 -0.5064 -0.3359
    9CHTO  H167 3492   6.858   5.009  -0.389 -1.2135 -1.5634 -1.9951
    9CHTO  C102 3493   6.716   5.232  -0.398 -0.1720 -0.3820 -0.0305
    9CHTO  H189 3494   6.698   5.173  -0.307  0.1596 -0.7566 -0.2048
    9CHTO   N18 3495   6.612   5.185  -0.501  0.3846  0.2913 -0.3763
    9CHTO  H176 3496   6.630   5.255  -0.582  1.4011  0.9572  0.4195
    9CHTO  H177 3497   6.517   5.200  -0.452 -0.3285 -0.3615 -1.5501
    9CHTO  C105 3498   6.698   5.380  -0.353  0.6725  0.0160 -0.0913
    9CHTO  H192 3499   6.659   5.439  -0.436 -0.1511 -0.9037 -0.3793
    9CHTO   O65 3500   6.822   5.450  -0.329  0.0880  0.5290 -0.1390
    9CHTO  C100 3501   6.930   5.386  -0.260  0.3902  0.0104 -0.1920
    9CHTO  H187 3502   7.010   5.460  -0.246  3.1209 -3.0953  1.1529
    9CHTO  C107 3503   6.897   5.331  -0.118 -0.1708 -0.1032 -0.4931
    9CHTO   O70 3504   6.944   5.421  -0.023 -0.0434 -0.2388 -0.9238
    9CHTO  H170 3505   7.021   5.385   0.016  0.7016  2.2699  0.0233
    9CHTO   O57 3506   6.588   5.370  -0.216  0.0886  0.0795  0.0176
    9CHTO   C85 3507   6.489   5.473  -0.211 -0.3216 -0.0242  0.3812
    9CHTO  H157 3508   6.442   5.487  -0.310 -0.7280 -2.1531  0.2510
    9CHTO   C83 3509   6.571   5.602  -0.176  0.0817 -0.3744  1.0419
    9CHTO  H155 3510   6.639   5.625  -0.257 -1.6195 -0.4127 -0.4389
    9CHTO   O56 3511   6.650   5.572  -0.059  0.4833 -0.3522 -0.0870
    9CHTO  H135 3512   6.719   5.635  -0.061  2.1393 -2.1235 -0.5061
    9CHTO   C81 3513   6.472   5.722  -0.158  0.4331 -0.2457  0.3114
    9CHTO  H153 3514   6.416   5.741  -0.250 -0.2761  3.3165  1.4152
    9CHTO   N14 3515   6.551   5.843  -0.132 -0.8227  0.1744  0.2722
    9CHTO  H141 3516   6.601   5.874  -0.221  1.1103 -3.4698  0.0247
    9CHTO  H142 3517   6.626   5.838  -0.055  1.4275  0.4705 -1.8269
    9CHTO   C79 3518   6.371   5.684  -0.044  0.2221  0.4431  0.0623
    9CHTO  H151 3519   6.303   5.768  -0.034  0.9690  1.0298  0.3056
    9CHTO   O52 3520   6.290   5.568  -0.077 -0.3335 -0.5632  0.2207
    9CHTO   C86 3521   6.380   5.454  -0.097  0.2520 -0.0013 -0.3995
    9CHTO  H158 3522   6.423   5.431   0.002  0.4883 -0.7224 -0.6647
    9CHTO   C90 3523   6.290   5.330  -0.129 -0.2657  0.2826 -0.6201
    9CHTO   O60 3524   6.215   5.294  -0.020 -0.3257 -0.5448  0.2503
    9CHTO  H138 3525   6.206   5.201  -0.023 -3.6104 -0.2634 -0.1098
    9CHTO   O50 3526   6.445   5.675   0.082  0.5808  0.4788 -0.1538
    9CHTO   C73 3527   6.393   5.683   0.215  0.1480  0.2922  0.3989
    9CHTO  H145 3528   6.292   5.640   0.223 -0.4485  1.4471 -0.7122
    9CHTO   C74 3529   6.386   5.833   0.254 -0.5023  0.4203  0.5791
    9CHTO  H146 3530   6.318   5.885   0.185  2.1275  2.8837 -0.2637
    9CHTO   O54 3531   6.325   5.841   0.383  0.0854 -0.6344  0.6594
    9CHTO  H133 3532   6.290   5.926   0.403 -0.2890 -0.9292  1.2607
    9CHTO   C75 3533   6.529   5.909   0.258  0.7942  0.0682  0.0798
    9CHTO  H147 3534   6.572   5.916   0.157 -1.4089  0.3300 -0.8474
    9CHTO   N13 3535   6.522   6.048   0.297  0.0594  0.4304 -0.3883
    9CHTO  H139 3536   6.619   6.094   0.302 -0.0045  0.5575 -0.3343
    9CHTO  H140 3537   6.482   6.097   0.209  0.6674  1.9610  0.1642
    9CHTO   C76 3538   6.631   5.814   0.342  0.0312 -0.0796  0.0730
    9CHTO  H148 3539   6.622   5.824   0.451  0.9130  0.7475  0.0734
    9CHTO   O49 3540   6.626   5.667   0.314 -0.2428  0.7556 -0.5877
    9CHTO   C77 3541   6.491   5.610   0.315 -0.7021 -0.5209 -0.4836
    9CHTO  H149 3542   6.453   5.618   0.417 -0.4610  1.0403 -0.4984
    9CHTO   C88 3543   6.508   5.457   0.287 -0.0642 -0.0272  0.8314
    9CHTO   O58 3544   6.380   5.387   0.297 -0.0306 -0.0443  0.4920
    9CHTO  H136 3545   6.393   5.295   0.309 -2.6057 -0.9202 -2.6407
    9CHTO   O51 3546   6.786   5.839   0.303  0.3146 -0.0701 -0.1654
    9CHTO   C78 3547   6.886   5.793   0.414 -0.4973 -0.2140 -1.0928
    9CHTO  H150 3548   6.842   5.723   0.487 -0.7309 -2.1855 -3.0683
    9CHTO   C80 3549   6.945   5.912   0.491 -0.4298  0.1138 -0.2876
    9CHTO  H152 3550   6.998   5.982   0.422 -1.9191  2.3671  0.7921
    9CHTO   O55 3551   6.836   5.981   0.545 -1.0728  0.4527 -0.3906
    9CHTO  H134 3552   6.884   6.053   0.582  0.6260 -0.7443 -0.2183
    9CHTO   C84 3553   7.046   5.856   0.597 -0.0295 -0.5155 -0.3983
    9CHTO  H156 3554   7.004   5.769   0.648 -2.4909  0.8080 -0.0636
    9CHTO   N15 3555   7.092   5.963   0.687  0.5822  0.4451 -0.0332
    9CHTO  H143 3556   7.007   5.991   0.746  0.1234  1.3999 -1.1354
    9CHTO  H144 3557   7.173   5.933   0.751  1.8989  0.7708 -1.5012
    9CHTO   C87 3558   7.158   5.779   0.521 -0.1452  0.3909  0.7034
    9CHTO  H159 3559   7.198   5.851   0.449 -0.3400  1.8410  2.0122
    9CHTO   O53 3560   7.082   5.646   0.431 -0.4564 -0.1687 -0.1767
    9CHTO   C82 3561   6.997   5.712   0.345  0.8207 -0.5781  0.3767
    9CHTO  H154 3562   7.043   5.779   0.272  0.7658  0.0723  0.9333
    9CHTO   C89 3563   6.929   5.601   0.263  0.5153 -0.0054  0.1726
    9CHTO   O59 3564   6.857   5.508   0.340 -0.3310 -0.2400 -0.0958
    9CHTO  H137 3565   6.795   5.470   0.282 -0.1348  0.4604 -0.7741
    9CHTO   O45 3566   7.270   5.720   0.611 -0.0257  0.4676  0.9528
    9CHTO   C67 3567   7.354   5.611   0.569 -0.4433  0.2675 -0.2018
    9CHTO  H124 3568   7.289   5.547   0.510 -0.8189 -0.4246  0.9609
    9CHTO   C65 3569   7.474   5.659   0.484  0.7095 -0.1834  0.1432
    9CHTO  H122 3570   7.484   5.767   0.490  0.4438 -0.2319  1.6619
    9CHTO   O44 3571   7.448   5.626   0.342  0.3009  0.4346 -0.9441
    9CHTO  H102 3572   7.495   5.550   0.313 -2.0630 -2.1630  1.6403
    9CHTO   C63 3573   7.617   5.612   0.541 -0.3344 -0.8364 -0.2372
    9CHTO  H120 3574   7.638   5.667   0.633 -0.1280  0.4905 -1.0600
    9CHTO   N11 3575   7.744   5.655   0.468  0.7228 -0.3450  0.4352
    9CHTO  H108 3576   7.736   5.758   0.437  0.5393 -0.5868 -0.3379
    9CHTO  H109 3577   7.831   5.639   0.527  1.4802 -0.3105 -0.6667
    9CHTO   C61 3578   7.613   5.455   0.571  0.3128  0.5366 -0.8137
    9CHTO  H118 3579   7.694   5.435   0.643 -1.7303  0.1840  1.4501
    9CHTO   O40 3580   7.488   5.415   0.635  0.3796  0.2683 -0.5995
    9CHTO   C68 3581   7.409   5.523   0.686 -0.6280  0.2553  0.2960
    9CHTO  H125 3582   7.475   5.572   0.760  2.3345 -1.7427 -0.9473
    9CHTO   C72 3583   7.291   5.462   0.768 -0.4513  0.8639  0.4094
    9CHTO   O48 3584   7.203   5.369   0.696 -0.4494 -0.2091  0.4763
    9CHTO  H105 3585   7.123   5.355   0.743 -1.2939 -3.7015 -1.8000
    9CHTO   O38 3586   7.629   5.370   0.453  0.7624 -0.3992  0.1120
    9CHTO   C55 3587   7.559   5.253   0.434 -0.5220 -0.0137  0.3258
    9CHTO  H112 3588   7.452   5.273   0.449 -0.7698 -1.1618  0.1337
    9CHTO   C56 3589   7.610   5.134   0.536 -1.2130  0.7088  0.1785
    9CHTO  H113 3590   7.714   5.118   0.502 -2.0856 -3.3561 -0.7675
    9CHTO   O42 3591   7.618   5.181   0.670  0.4964  0.2371 -0.1850
    9CHTO  H100 3592   7.549   5.151   0.725  0.8828 -0.6618 -0.1649
    9CHTO   C57 3593   7.522   5.003   0.524 -0.0749  0.3023  0.2567
    9CHTO  H114 3594   7.421   5.033   0.550  0.1916  0.9894  0.4847
    9CHTO   N10 3595   7.568   4.894   0.613  0.0380 -0.0035  0.2592
    9CHTO  H106 3596   7.531   4.908   0.714  1.0122 -2.2749  0.9702
    9CHTO  H107 3597   7.676   4.899   0.619 -0.1072  2.8231  1.0903
    9CHTO   C58 3598   7.527   4.970   0.373 -0.3636 -0.0822  0.2398
    9CHTO  H115 3599   7.616   4.908   0.350 -0.2894  0.1184 -0.0206
    9CHTO   O37 3600   7.506   5.080   0.283  0.0918  0.4103 -0.0540
    9CHTO   C59 3601   7.586   5.197   0.293 -0.1926 -0.1228  0.0826
    9CHTO  H116 3602   7.691   5.177   0.270  0.0310 -1.9802  2.5348
    9CHTO   C70 3603   7.555   5.300   0.189 -0.2422 -0.6973 -0.0833
    9CHTO   O46 3604   7.514   5.252   0.059  0.0400 -0.1942 -0.1516
    9CHTO  H103 3605   7.517   5.322  -0.003 -0.9328 -1.7852 -2.0414
    9CHTO   O39 3606   7.402   4.881   0.337  0.0519  0.3758 -0.6590
    9CHTO   C60 3607   7.437   4.765   0.260 -0.4958 -0.2280  0.4421
    9CHTO  H117 3608   7.537   4.776   0.218 -0.7924  2.1780  0.2878
    9CHTO   C62 3609   7.454   4.642   0.359  0.0956  0.2795  0.2733
    9CHTO  H119 3610   7.534   4.672   0.430  0.4425  0.8060 -0.3295
    9CHTO   O43 3611   7.325   4.641   0.426 -0.8041 -0.4217 -0.3776
    9CHTO  H101 3612   7.259   4.597   0.375 -0.3553 -0.4224 -0.9651
    9CHTO   C66 3613   7.481   4.506   0.273  0.2528 -0.0315 -0.6366
    9CHTO  H123 3614   7.572   4.518   0.214 -0.3265 -1.2276 -1.8197
    9CHTO   N12 3615   7.497   4.393   0.360  0.6560  0.4849 -0.0750
    9CHTO  H110 3616   7.501   4.295   0.316 -0.8783 -0.1096  1.0475
    9CHTO  H111 3617   7.419   4.398   0.435 -1.5101 -1.6033 -2.1097
    9CHTO   C69 3618   7.372   4.475   0.168 -0.3947  0.1539 -0.6770
    9CHTO  H126 3619   7.275   4.447   0.214  0.5628 -0.8916  0.7445
    9CHTO   O41 3620   7.356   4.595   0.075 -0.2805  0.2512  0.0182
    9CHTO   C64 3621   7.337   4.735   0.151  0.4077 -1.0076 -0.0844
    9CHTO  H121 3622   7.235   4.731   0.195  0.1566  1.5625 -0.3166
    9CHTO   C71 3623   7.332   4.852   0.057 -0.2269 -0.5500  0.0697
    9CHTO   O47 3624   7.231   4.858  -0.048  0.4917  0.0571 -0.5498
    9CHTO  H104 3625   7.243   4.946  -0.079 -0.0723  0.6722  0.9264
    9CHTO   O34 3626   7.419   4.331   0.079  0.1107 -0.7250 -0.4801
    9CHTO   C49 3627   7.389   4.202  -0.016  0.4229  0.3315 -0.2877
    9CHTO   H91 3628   7.378   4.237  -0.118 -1.6659 -2.1327 -0.9446
    9CHTO   C47 3629   7.267   4.121   0.031  0.4371 -0.1151  0.2495
    9CHTO   H89 3630   7.244   4.051  -0.052  2.2286  0.8809 -1.1448
    9CHTO   O33 3631   7.159   4.217   0.052  0.6053  0.7657  0.2008
    9CHTO   H70 3632   7.146   4.232   0.144  1.1712  0.8048  0.2758
    9CHTO   C45 3633   7.283   4.027   0.167 -0.1698  0.0134 -0.3588
    9CHTO   H87 3634   7.252   4.093   0.249 -0.0748  1.6620 -1.6298
    9CHTO    N8 3635   7.191   3.912   0.162 -0.0390  0.5787 -0.3087
    9CHTO   H75 3636   7.111   3.944   0.098  1.3636  1.8698 -1.4682
    9CHTO   H76 3637   7.249   3.828   0.127  0.1361  1.4863 -2.2444
    9CHTO   C43 3638   7.441   4.014   0.200  0.1642  0.2381 -0.2690
    9CHTO   H85 3639   7.474   4.101   0.256 -0.0865 -0.7402  1.4244
    9CHTO   O29 3640   7.522   4.000   0.076 -0.3153  0.5558 -0.1924
    9CHTO   C50 3641   7.514   4.113  -0.018  0.3810 -0.1384  0.2662
    9CHTO   H92 3642   7.597   4.184  -0.010  0.5025 -0.0064 -1.8564
    9CHTO   C54 3643   7.522   4.048  -0.158  0.2713  0.7109  0.3306
    9CHTO   O36 3644   7.561   4.145  -0.256  0.0364 -0.1757  0.1928
    9CHTO   H72 3645   7.498   4.138  -0.325  1.0390  0.0833 -0.7606
    9CHTO   O27 3646   7.466   3.910   0.297 -0.1703 -0.4619 -0.1729
    9CHTO   C37 3647   7.526   3.915   0.427  0.1069  0.4482 -0.2560
    9CHTO   H79 3648   7.549   3.812   0.459  1.2940  0.4880 -0.9901
    9CHTO   C38 3649   7.666   3.983   0.422  1.1177 -0.7163 -0.3337
    9CHTO   H80 3650   7.652   4.079   0.371 -0.1959 -0.4905  0.4226
    9CHTO   O31 3651   7.760   3.901   0.349  0.6021 -0.0801  0.1842
    9CHTO   H68 3652   7.840   3.950   0.342 -0.6329  2.1205  0.8260
    9CHTO   C39 3653   7.714   4.009   0.568  0.2355  0.6466 -0.8968
    9CHTO   H81 3654   7.730   3.914   0.619  1.3397  1.7055  0.8109
    9CHTO    N7 3655   7.843   4.085   0.578 -0.5783 -0.0794 -0.0044
    9CHTO   H73 3656   7.925   4.030   0.533 -0.1092  1.1089 -0.6174
    9CHTO   H74 3657   7.833   4.175   0.520 -1.2875 -0.4029 -0.3922
    9CHTO   C40 3658   7.599   4.082   0.643 -0.5987 -0.4401  0.0438
    9CHTO   H82 3659   7.568   4.173   0.590 -0.2543  0.0404  0.6604
    9CHTO   O26 3660   7.499   3.990   0.652  0.4272  0.4977 -0.0845
    9CHTO   C41 3661   7.427   3.971   0.526  0.8549 -0.8273 -1.1991
    9CHTO   H83 3662   7.384   4.063   0.483  2.3560 -0.0949 -1.1349
    9CHTO   C52 3663   7.307   3.868   0.547 -0.2636  0.1390  0.2585
    9CHTO   O35 3664   7.205   3.919   0.597  0.3204  0.0283  0.6138
    9CHTO   H71 3665   7.147   3.959   0.535  2.2409  0.1697 -1.1460
    9CHTO   O28 3666   7.622   4.132   0.771 -0.0619 -0.3650 -0.4478
    9CHTO   C42 3667   7.531   4.233   0.835  0.6165  0.2145  0.3446
    9CHTO   H84 3668   7.568   4.252   0.935 -0.7187  1.4062  0.6278
    9CHTO   C44 3669   7.389   4.180   0.853  0.1231  0.3539 -0.0779
    9CHTO   H86 3670   7.346   4.160   0.755 -0.6483 -0.0251  0.3285
    9CHTO   O32 3671   7.397   4.055   0.927 -0.2058 -0.0204 -0.1375
    9CHTO   H69 3672   7.313   4.014   0.929 -0.2812  0.1562  0.8690
    9CHTO   C48 3673   7.290   4.279   0.937 -0.1644  0.5368  0.3295
    9CHTO   H90 3674   7.332   4.296   1.036 -0.3298  4.0229 -0.1340
    9CHTO    N9 3675   7.144   4.231   0.952 -0.2259 -0.2435 -0.6911
    9CHTO   H77 3676   7.141   4.138   1.007  3.2617  0.7321  1.3046
    9CHTO   H78 3677   7.105   4.212   0.853  1.2792 -3.1028 -0.7966
    9CHTO   C51 3678   7.291   4.425   0.865  0.2681 -0.4409 -0.1463
    9CHTO   H93 3679   7.247   4.412   0.766  1.3285 -0.4600 -0.6245
    9CHTO   O30 3680   7.427   4.480   0.861  0.1188 -0.3235 -0.7265
    9CHTO   C46 3681   7.522   4.371   0.767 -0.1844 -0.1375  0.1567
    9CHTO   H88 3682   7.471   4.361   0.671 -1.1379  0.8652  0.5413
    9CHTO   C53 3683   7.655   4.446   0.745  0.6646 -0.1800  0.5158
    9CHTO   O72 3684   7.639   4.544   0.643 -0.1132 -0.2722  0.2666
    9CHTO  H199 3685   7.705   4.545   0.576  0.2699 -0.1682  0.6493
    9CHTO   O22 3686   7.225   4.534   0.937 -0.2840  0.3003  0.1296
    9CHTO   C31 3687   7.188   4.660   0.874 -0.3554 -0.2124  0.5947
    9CHTO   H59 3688   7.109   4.700   0.941  0.9475 -2.7039  3.7166
    9CHTO   C29 3689   7.299   4.765   0.869 -0.0721 -0.0589  0.0539
    9CHTO   H57 3690   7.378   4.742   0.795 -0.1083  0.3469 -0.1142
    9CHTO   O21 3691   7.366   4.770   1.000 -0.1367 -0.1673 -0.0975
    9CHTO   H37 3692   7.371   4.860   1.027 -1.5993 -0.3404  0.7721
    9CHTO   C27 3693   7.230   4.897   0.821 -0.0708 -0.6266  0.7009
    9CHTO   H55 3694   7.142   4.913   0.886  0.4897  3.8580  0.4716
    9CHTO    N5 3695   7.316   5.015   0.834 -0.0905  0.7516  0.0873
    9CHTO   H43 3696   7.378   5.002   0.921  2.0470  0.3637 -1.4534
    9CHTO   H44 3697   7.243   5.091   0.858 -1.2194 -0.0580 -0.7027
    9CHTO   C25 3698   7.174   4.881   0.678 -0.4689 -0.1668 -0.5709
    9CHTO   H53 3699   7.249   4.875   0.597  0.0298 -0.2202 -0.1088
    9CHTO   O17 3700   7.087   4.769   0.674 -0.1679 -0.2768 -0.8103
    9CHTO   C32 3701   7.126   4.643   0.725  0.1769  0.1552  0.5877
    9CHTO   H60 3702   7.207   4.608   0.662  0.0402 -3.4480  2.2636
    9CHTO   C36 3703   7.002   4.556   0.726 -0.3879 -0.4484 -0.1358
    9CHTO   O25 3704   6.933   4.540   0.600 -0.1664 -0.0463 -0.0923
    9CHTO   H40 3705   6.876   4.611   0.578  0.3605  0.0179 -1.2640
    9CHTO   O15 3706   7.078   5.003   0.649  0.6699  0.2336  0.7199
    9CHTO   C19 3707   7.013   5.066   0.528 -0.4713  0.4147  0.0037
    9CHTO   H47 3708   6.967   5.160   0.561 -0.3633  0.3346  0.3884
    9CHTO   C20 3709   7.114   5.097   0.409 -0.1569  0.2937  0.5430
    9CHTO   H48 3710   7.173   5.007   0.384 -0.4600  0.0572  0.6859
    9CHTO   O19 3711   7.206   5.194   0.462 -0.2557 -0.0427  0.4862
    9CHTO   H35 3712   7.186   5.275   0.420  0.7146 -1.5853 -3.0995
    9CHTO   C21 3713   7.044   5.147   0.274 -0.1545 -0.4439 -0.3569
    9CHTO   H49 3714   7.018   5.251   0.290  0.5162 -0.1759 -0.9988
    9CHTO    N4 3715   7.146   5.159   0.160  0.3313 -0.4433 -0.0659
    9CHTO   H41 3716   7.165   5.059   0.124  2.0097 -0.8049  1.7457
    9CHTO   H42 3717   7.239   5.200   0.195  0.1512 -0.4544  0.4393
    9CHTO   C22 3718   6.935   5.048   0.234 -0.1355 -0.3975  0.2046
    9CHTO   H50 3719   6.982   4.954   0.208 -0.7249 -0.5912 -0.1928
    9CHTO   O14 3720   6.846   5.034   0.342  0.1250  0.4635 -0.1314
    9CHTO   C23 3721   6.898   4.979   0.463 -0.9656  0.4771 -0.3972
    9CHTO   H51 3722   6.927   4.874   0.446  0.0498  0.7162 -0.1837
    9CHTO   C34 3723   6.780   4.961   0.559  0.3170 -0.1709 -0.0465
    9CHTO   O23 3724   6.785   4.843   0.639  0.0241  0.2868  0.4194
    9CHTO   H38 3725   6.762   4.846   0.730 -1.0445  0.3132  0.1536
    9CHTO   O16 3726   6.845   5.098   0.128  0.0000  0.0155  0.0125
    9CHTO   C24 3727   6.748   4.984   0.045 -0.0422 -0.1107  0.2939
    9CHTO   H52 3728   6.741   4.891   0.101 -2.7629 -0.1578 -0.0801
    9CHTO   C26 3729   6.793   4.958  -0.103  0.3095 -0.0620 -0.5640
    9CHTO   H54 3730   6.777   5.049  -0.165 -2.1231  0.1582  0.3246
    9CHTO   O20 3731   6.931   4.927  -0.101 -0.2117  0.5123 -0.1164
    9CHTO   H36 3732   6.990   4.999  -0.089  0.0996 -0.1165  2.4850
    9CHTO   C30 3733   6.698   4.850  -0.167 -0.2990  0.5343 -0.1272
    9CHTO   H58 3734   6.702   4.751  -0.118 -3.2476 -0.1291 -1.0892
    9CHTO    N6 3735   6.734   4.820  -0.309  0.0452  0.4157 -0.1794
    9CHTO   H45 3736   6.681   4.884  -0.378  1.6618  1.0677 -0.8500
    9CHTO   H46 3737   6.717   4.717  -0.336  0.5918  0.8370 -2.2212
    9CHTO   C33 3738   6.547   4.898  -0.152  0.6318 -0.5253 -0.1584
    9CHTO   H61 3739   6.526   4.987  -0.214  1.1257  0.3063  0.8472
    9CHTO   O18 3740   6.516   4.933  -0.016 -0.2795  0.1969  0.4934
    9CHTO   C28 3741   6.602   5.039   0.033 -0.8050  0.3899  0.3977
    9CHTO   H56 3742   6.605   5.109  -0.050 -0.3690 -1.5321 -1.2442
    9CHTO   C35 3743   6.564   5.100   0.163 -0.0472 -0.3185  0.0697
    9CHTO   O24 3744   6.433   5.152   0.162  0.1568  0.2857  0.8246
    9CHTO   H39 3745   6.402   5.168   0.248  1.6888 -2.3987  1.9341
    9CHTO    O9 3746   6.460   4.802  -0.196 -0.2980  0.5379 -0.0552
    9CHTO   C13 3747   6.308   4.861  -0.275  0.8062 -0.7494  0.3110
    9CHTO   H26 3748   6.338   4.934  -0.354  1.1663 -0.9099  0.2985
    9CHTO   C11 3749   6.209   4.931  -0.166 -0.6214 -0.3272 -0.4879
    9CHTO   H24 3750   6.267   5.020  -0.136  0.0273 -0.9488  0.1285
    9CHTO    O8 3751   6.199   4.853  -0.048 -0.2272  0.2419 -0.2939
    9CHTO    H3 3752   6.272   4.854   0.011 -1.6927  1.2321  1.5321
    9CHTO    C9 3753   6.071   4.963  -0.230  0.1529  0.5842 -0.2177
    9CHTO   H22 3754   6.087   5.036  -0.311  0.9722  0.9230  0.2359
    9CHTO    N2 3755   5.984   5.046  -0.145 -0.4631 -0.7136  0.7405
    9CHTO   H10 3756   5.906   5.094  -0.201  0.9097 -0.5509 -1.0794
    9CHTO   H11 3757   5.965   5.000  -0.049  2.7669  0.6604  2.1151
    9CHTO    C7 3758   6.016   4.827  -0.279 -0.4334  0.0964 -0.3834
    9CHTO   H20 3759   5.920   4.855  -0.326 -0.4565 -1.5446 -1.3468
    9CHTO    O4 3760   6.103   4.759  -0.369  0.1916 -0.1372 -0.3520
    9CHTO   C14 3761   6.241   4.733  -0.339 -0.4754  0.1938 -0.6200
    9CHTO   H27 3762   6.281   4.710  -0.440  0.2701 -2.0141  0.1603
    9CHTO   C18 3763   6.259   4.603  -0.258  0.3128 -0.6192 -0.5685
    9CHTO   O13 3764   6.212   4.489  -0.339 -0.0896 -0.1295 -0.6219
    9CHTO    H7 3765   6.256   4.485  -0.421 -0.6511 -1.1279 -0.8855
    9CHTO    O2 3766   5.975   4.714  -0.138  0.4500 -0.6529 -0.2393
    9CHTO    C1 3767   5.842   4.648  -0.139  0.3395 -0.4174 -0.0673
    9CHTO   H14 3768   5.847   4.559  -0.073  1.1894  0.7974  1.5429
    9CHTO    C2 3769   5.780   4.601  -0.273  0.7997 -0.1650  0.1312
    9CHTO   H15 3770   5.767   4.693  -0.332 -1.7552 -0.4457  0.2146
    9CHTO    O6 3771   5.872   4.504  -0.329 -0.1369  0.1088  0.1363
    9CHTO    H1 3772   5.907   4.537  -0.410  0.9059 -1.6538 -0.1646
    9CHTO    C3 3773   5.632   4.537  -0.250  0.2952 -0.6514  0.5788
    9CHTO   H16 3774   5.641   4.456  -0.177  0.3781 -0.0056  1.2922
    9CHTO    N1 3775   5.572   4.486  -0.372  0.0554  0.1732 -0.7575
    9CHTO    H8 3776   5.554   4.568  -0.440 -0.3795 -0.3682 -1.2887
    9CHTO    H9 3777   5.478   4.439  -0.348 -0.0575  0.5683 -0.4161
    9CHTO    C4 3778   5.549   4.647  -0.179  0.1271 -0.7356 -0.6797
    9CHTO   H17 3779   5.547   4.735  -0.244 -0.8096 -0.6389 -0.5341
    9CHTO    O1 3780   5.603   4.683  -0.055 -0.4115  0.2146 -0.1750
    9CHTO    C5 3781   5.734   4.739  -0.065  0.0709  0.2462 -1.0444
    9CHTO   H18 3782   5.733   4.835  -0.116 -0.1764  0.9750  0.3134
    9CHTO   C16 3783   5.767   4.768   0.087  0.1280  0.5101  0.7766
    9CHTO   O11 3784   5.879   4.859   0.096 -0.3750  0.5056 -0.5818
    9CHTO    H5 3785   5.903   4.856   0.186 -1.3780  2.1047 -0.2407
    9CHTO    O3 3786   5.411   4.615  -0.163  0.1935 -0.2941 -0.1468
    9CHTO    C6 3787   5.319   4.734  -0.154 -0.0867  0.2604  0.1764
    9CHTO   H19 3788   5.368   4.831  -0.155  1.9687 -0.7114  2.1615
    9CHTO    C8 3789   5.234   4.723  -0.289  0.4894 -0.1175 -0.5959
    9CHTO   H21 3790   5.191   4.623  -0.295 -1.2270  0.4327  1.8311
    9CHTO    O7 3791   5.323   4.749  -0.395  0.0661 -0.1192  0.2632
    9CHTO    H2 3792   5.374   4.672  -0.413  1.2263  0.8623 -0.7210
    9CHTO   C12 3793   5.119   4.825  -0.291  0.3968 -1.0695 -0.4393
    9CHTO   H25 3794   5.162   4.926  -0.276  0.3030 -1.0678 -0.1861
    9CHTO    N3 3795   5.036   4.814  -0.420  0.0538 -0.2190  0.0014
    9CHTO   H12 3796   5.004   4.713  -0.439  0.0697 -0.3278  0.5552
    9CHTO   H13 3797   5.067   4.873  -0.505 -1.9837  1.6863  0.5191
    9CHTO   C15 3798   5.030   4.791  -0.167  0.6848 -0.2182  0.9700
    9CHTO   H28 3799   4.990   4.690  -0.165 -0.4133  0.1969  0.2475
    9CHTO   O10 3800   4.929   4.902  -0.140  0.1801 -0.5363  0.7500
    9CHTO    H4 3801   4.840   4.873  -0.137 -0.0462 -0.3402 -2.7748
    9CHTO    O5 3802   5.099   4.801  -0.042 -0.4481 -0.6452  0.2252
    9CHTO   C10 3803   5.223   4.723  -0.029 -0.0804 -0.6019  0.7244
    9CHTO   H23 3804   5.196   4.619  -0.014  1.2255 -0.8134  1.6838
    9CHTO   C17 3805   5.292   4.761   0.103  0.4231  0.1585  0.8666
    9CHTO   O12 3806   5.371   4.885   0.105 -0.4164  0.7477  0.4667
    9CHTO    H6 3807   5.417   4.903   0.026 -1.1377  0.6863  0.0260
   10CHTO  H203 3808   4.364   7.240   0.063 -0.6436 -0.1952 -0.6071
   10CHTO   O82 3809   4.367   7.331   0.086 -0.1530 -0.2543 -0.4291
   10CHTO  C123 3810   4.255   7.390   0.024 -0.0746 -0.2970  0.4818
   10CHTO  H227 3811   4.254   7.352  -0.080 -1.5818  1.5353 -0.1931
   10CHTO   O77 3812   4.146   7.333   0.100  0.2116  0.6304 -0.5114
   10CHTO  C118 3813   4.015   7.373   0.054 -0.3329  0.1196 -0.6072
   10CHTO  H222 3814   4.008   7.349  -0.053 -0.6691 -0.8930 -0.3717
   10CHTO  C125 3815   3.907   7.295   0.140 -0.0343  0.0749 -0.4128
   10CHTO   O84 3816   3.909   7.153   0.132 -0.2144 -0.1794 -0.0971
   10CHTO  H205 3817   3.935   7.126   0.047  1.1295  1.4425 -0.2302
   10CHTO  C114 3818   4.008   7.525   0.077  0.6245 -0.1450  0.0494
   10CHTO  H218 3819   4.038   7.548   0.179 -0.4699  0.3707  0.2663
   10CHTO  C116 3820   4.118   7.598  -0.007 -0.3950 -0.6489 -0.0382
   10CHTO  H220 3821   4.105   7.584  -0.117  0.3268 -1.2645 -0.0478
   10CHTO   O79 3822   4.096   7.742   0.006 -0.0390  0.5532 -0.0825
   10CHTO  H201 3823   4.172   7.790  -0.020  0.7965 -0.2907  0.7593
   10CHTO  C120 3824   4.261   7.546   0.034 -0.0123  0.8312  0.5257
   10CHTO  H224 3825   4.282   7.586   0.136  0.0189 -1.7892  1.5773
   10CHTO   N21 3826   4.364   7.612  -0.057  0.0925 -0.0118 -0.0388
   10CHTO  H211 3827   4.402   7.702  -0.011 -1.6877  1.0901 -0.6903
   10CHTO  H212 3828   4.451   7.552  -0.083  1.4421  1.4277  1.0367
   10CHTO   O75 3829   3.873   7.566   0.037  0.1212 -0.1038  0.5607
   10CHTO  C112 3830   3.817   7.678   0.144  0.2924  0.5205  0.8830
   10CHTO  H216 3831   3.902   7.741   0.175 -0.0193  1.0750  0.5978
   10CHTO   O73 3832   3.761   7.610   0.259  0.5128  0.0583 -0.1058
   10CHTO  C113 3833   3.731   7.701   0.361  1.1720 -0.0586  0.3036
   10CHTO  H217 3834   3.823   7.763   0.368  0.8917  0.6714 -2.0802
   10CHTO  C124 3835   3.708   7.623   0.489 -0.1570 -0.2675  0.0620
   10CHTO   O83 3836   3.624   7.511   0.472  0.1529  0.1379 -0.3783
   10CHTO  H204 3837   3.595   7.482   0.556  1.9594 -0.6862 -0.0273
   10CHTO  C109 3838   3.615   7.786   0.312 -0.1252  0.0627  0.0347
   10CHTO  H213 3839   3.524   7.725   0.308 -0.4108  0.4947 -0.2299
   10CHTO  C110 3840   3.642   7.863   0.185 -0.1060 -0.3023 -0.7590
   10CHTO  H214 3841   3.720   7.935   0.206  1.8615 -2.7427  0.4628
   10CHTO   O78 3842   3.521   7.932   0.147  0.0891 -0.7406  0.3460
   10CHTO  H200 3843   3.482   7.882   0.077  0.6886  0.4893 -0.8972
   10CHTO  C111 3844   3.704   7.767   0.082 -0.5234  0.6348 -0.0311
   10CHTO  H215 3845   3.628   7.698   0.043  1.3975 -1.1561 -0.7188
   10CHTO   N19 3846   3.759   7.845  -0.034  0.2987  0.1490  0.2055
   10CHTO  H207 3847   3.686   7.903  -0.088  2.3993  3.2485  0.5762
   10CHTO  H208 3848   3.788   7.769  -0.105  1.7464 -1.2434  2.2159
   10CHTO   O74 3849   3.596   7.884   0.416 -0.3719  0.7291 -0.1472
   10CHTO  C115 3850   3.432   7.938   0.445  0.2262 -0.1291  0.3677
   10CHTO  H219 3851   3.399   8.006   0.366  0.4415 -0.7885 -0.2873
   10CHTO   O76 3852   3.332   7.819   0.440  0.1566  0.0355  0.5149
   10CHTO  C122 3853   3.337   7.731   0.555 -0.4286  0.3075  0.7000
   10CHTO  H226 3854   3.411   7.652   0.544 -0.5846 -0.0885  2.4248
   10CHTO  C126 3855   3.197   7.658   0.563  0.3808  0.7386 -0.2978
   10CHTO   O85 3856   3.213   7.539   0.639 -0.0184  0.2042  0.1179
   10CHTO  H206 3857   3.138   7.486   0.624  0.0133 -0.1127  1.0536
   10CHTO  C121 3858   3.365   7.795   0.695  0.0494 -0.4877  0.4225
   10CHTO  H225 3859   3.298   7.743   0.766 -0.6488 -0.5821 -0.2907
   10CHTO   O81 3860   3.500   7.774   0.736  0.9950  0.0521  0.0041
   10CHTO  H202 3861   3.504   7.688   0.774 -2.7853  0.8500  2.5279
   10CHTO  C119 3862   3.331   7.941   0.687  0.0816 -0.8395 -0.2533
   10CHTO  H223 3863   3.226   7.948   0.660 -0.3476 -1.0584  1.2953
   10CHTO  C117 3864   3.424   8.011   0.583 -0.3849  0.0902  0.1755
   10CHTO  H221 3865   3.528   8.014   0.614 -1.0666  0.6769  2.4802
   10CHTO   N20 3866   3.382   8.154   0.564 -0.1535 -0.3334 -0.0247
   10CHTO  H209 3867   3.311   8.156   0.482  1.6267 -0.0514 -1.6005
   10CHTO  H210 3868   3.344   8.206   0.651 -0.7046 -2.5622  1.0799
   10CHTO   O80 3869   3.330   8.017   0.836  0.5454 -0.3171 -0.2571
   10CHTO  C103 3870   3.198   8.059   0.914 -0.0979  0.3128  0.6927
   10CHTO  H190 3871   3.134   8.098   0.835 -0.8838 -2.7437 -0.2110
   10CHTO  C101 3872   3.121   7.943   0.979 -0.3343 -0.0564 -0.3640
   10CHTO  H188 3873   3.188   7.879   1.037 -0.1819  0.0043 -0.4741
   10CHTO   O68 3874   3.064   7.858   0.852  0.1300  0.3369  0.5530
   10CHTO  H168 3875   2.982   7.824   0.883 -0.9243  2.7347  0.4524
   10CHTO   C99 3876   3.006   8.009   1.061 -0.1003 -0.0115 -0.0692
   10CHTO  H186 3877   2.937   8.054   0.986  1.0361 -1.6850 -2.1512
   10CHTO   N17 3878   2.925   7.915   1.133 -0.4168  0.4324 -0.1502
   10CHTO  H174 3879   2.849   7.972   1.185 -3.0375 -1.7749 -1.4649
   10CHTO  H175 3880   2.889   7.836   1.069  1.1828 -0.7083  0.3164
   10CHTO   C97 3881   3.059   8.126   1.149 -0.4188 -0.2034  0.2139
   10CHTO  H184 3882   3.121   8.077   1.225  0.9480  2.7448  1.0437
   10CHTO   O64 3883   3.129   8.229   1.076  0.6853  0.5313 -0.2245
   10CHTO  C104 3884   3.243   8.176   1.006 -0.2042 -0.3025  0.0164
   10CHTO  H191 3885   3.310   8.139   1.084  2.4739  0.1783 -1.9730
   10CHTO  C108 3886   3.316   8.286   0.934  0.0860  0.9388  0.6037
   10CHTO   O71 3887   3.361   8.390   1.025  0.2579 -0.0480  0.0223
   10CHTO  H171 3888   3.298   8.412   1.090  1.2263  2.1979  0.2692
   10CHTO   O62 3889   2.962   8.208   1.213  0.0412 -0.3564  0.0327
   10CHTO   C91 3890   2.916   8.181   1.347  0.2441 -0.3030 -0.1738
   10CHTO  H178 3891   2.908   8.073   1.361 -1.5800 -0.0625  0.8106
   10CHTO   C92 3892   2.772   8.240   1.364  0.7963 -1.1350 -0.3583
   10CHTO  H179 3893   2.779   8.343   1.328 -4.3396 -0.3705  0.4429
   10CHTO   O66 3894   2.693   8.171   1.264  1.1338 -0.2118 -0.4893
   10CHTO  H166 3895   2.605   8.158   1.294  0.6698  1.5030 -1.0180
   10CHTO   C93 3896   2.713   8.225   1.514 -0.5403  0.0333 -0.4618
   10CHTO  H180 3897   2.696   8.119   1.538  0.3002  0.4475  2.1597
   10CHTO   N16 3898   2.586   8.283   1.536 -0.3150 -0.6933  0.0272
   10CHTO  H172 3899   2.548   8.282   1.636 -2.0053  0.6581 -0.5774
   10CHTO  H173 3900   2.582   8.378   1.484  0.2948 -1.2845 -1.1228
   10CHTO   C94 3901   2.816   8.278   1.621  0.0587 -1.3684  0.1280
   10CHTO  H181 3902   2.822   8.387   1.623 -0.7235 -1.2848 -1.1663
   10CHTO   O61 3903   2.951   8.227   1.595  0.0717  0.2286  0.6675
   10CHTO   C95 3904   3.008   8.250   1.462 -0.6407  0.3229  0.5371
   10CHTO  H182 3905   3.003   8.357   1.441 -3.4969  0.4619  1.6898
   10CHTO  C106 3906   3.153   8.197   1.472 -0.2361  0.2851 -0.5854
   10CHTO   O69 3907   3.248   8.288   1.531 -0.3080 -0.6251  0.1889
   10CHTO  H169 3908   3.260   8.365   1.479 -0.5597  0.5828  1.8758
   10CHTO   O63 3909   2.750   8.229   1.775  0.3045  0.3478  0.1593
   10CHTO   C96 3910   2.814   8.124   1.849  0.1817  0.7268  0.2698
   10CHTO  H183 3911   2.911   8.107   1.801  0.0234  4.1149 -1.4626
   10CHTO   C98 3912   2.727   7.985   1.857 -0.2386  0.5017  0.1864
   10CHTO  H185 3913   2.626   8.002   1.895  0.3943  1.7287  1.3719
   10CHTO   O67 3914   2.715   7.943   1.716  0.4620 -0.5835  0.9702
   10CHTO  H167 3915   2.793   7.961   1.667 -0.5811 -1.4901 -1.0958
   10CHTO  C102 3916   2.808   7.878   1.957  0.2089 -0.1763  0.5280
   10CHTO  H189 3917   2.908   7.863   1.915  1.4210  0.7526  3.0224
   10CHTO   N18 3918   2.740   7.747   1.956  0.0677 -0.3052  0.3192
   10CHTO  H176 3919   2.790   7.678   2.023  1.3421  1.5264  1.2933
   10CHTO  H177 3920   2.634   7.760   1.974  0.1181 -0.3166  0.6395
   10CHTO  C105 3921   2.819   7.951   2.091  0.2583 -0.5935 -0.3215
   10CHTO  H192 3922   2.719   7.982   2.122  0.2982 -0.9971  0.2334
   10CHTO   O65 3923   2.897   8.070   2.072  0.1821  0.1075  0.0721
   10CHTO  C100 3924   2.847   8.177   1.992  0.2296 -0.1944  0.0070
   10CHTO  H187 3925   2.753   8.198   2.045 -0.2973  0.5707 -1.2133
   10CHTO  C107 3926   2.941   8.296   1.982  0.4402  0.1801  0.1761
   10CHTO   O70 3927   3.078   8.275   1.961 -0.3089 -0.2973 -0.1757
   10CHTO  H170 3928   3.126   8.339   2.010  1.8873  0.6667 -3.4396
   10CHTO   O57 3929   2.882   7.854   2.203 -0.3815  0.5320  0.8712
   10CHTO   C85 3930   2.822   7.858   2.338  0.9179 -0.0792  0.7932
   10CHTO  H157 3931   2.712   7.849   2.331  0.6883  2.4485  0.6682
   10CHTO   C83 3932   2.856   8.000   2.408 -0.4851  0.0485 -0.3964
   10CHTO  H155 3933   2.827   8.086   2.348 -0.2779 -0.0391 -0.6240
   10CHTO   O56 3934   2.998   8.027   2.420 -0.3448 -0.1049 -0.0645
   10CHTO  H135 3935   3.036   7.964   2.478 -2.3030 -1.7500 -0.5124
   10CHTO   C81 3936   2.780   8.005   2.542  0.0402  0.0455 -0.9915
   10CHTO  H153 3937   2.674   7.990   2.521  0.1497 -3.4712  0.6314
   10CHTO   N14 3938   2.785   8.134   2.614 -0.2569 -0.3207  0.5493
   10CHTO  H141 3939   2.884   8.157   2.647  1.0386 -2.3025 -1.7354
   10CHTO  H142 3940   2.730   8.221   2.588 -1.3469 -1.7611 -2.1327
   10CHTO   C79 3941   2.829   7.891   2.630  0.2315  0.0778 -0.0884
   10CHTO  H151 3942   2.771   7.894   2.722 -1.1034  0.0393 -0.9231
   10CHTO   O52 3943   2.818   7.758   2.567 -0.1372 -0.2685 -0.1968
   10CHTO   C86 3944   2.883   7.747   2.434 -0.6146 -0.2463  0.6623
   10CHTO  H158 3945   2.990   7.767   2.457 -0.4173  0.7051 -0.9983
   10CHTO   C90 3946   2.860   7.605   2.376 -0.3744  0.5007  0.0746
   10CHTO   O60 3947   2.888   7.504   2.466 -0.6154 -0.1155 -0.5122
   10CHTO  H138 3948   2.866   7.422   2.426 -0.1584 -1.1112  1.2407
   10CHTO   O50 3949   2.964   7.903   2.674  0.1354 -0.5676  0.1322
   10CHTO   C73 3950   3.052   7.866   2.784  0.0883 -0.7662 -0.4790
   10CHTO  H145 3951   3.028   7.765   2.820 -0.2727 -0.1996  0.9200
   10CHTO   C74 3952   3.023   7.968   2.909 -0.0306 -0.3180  0.0479
   10CHTO  H146 3953   2.914   7.961   2.920 -0.1382 -0.9303 -1.3012
   10CHTO   O54 3954   3.089   7.920   3.029 -0.5894 -0.5143  0.6479
   10CHTO  H133 3955   3.087   7.982   3.100 -1.0691 -0.3770  0.5156
   10CHTO   C75 3956   3.067   8.116   2.869  0.3513 -0.1510 -0.4739
   10CHTO  H147 3957   3.016   8.147   2.777 -1.9356 -0.9401  0.4888
   10CHTO   N13 3958   3.026   8.208   2.978  0.3997  0.6736  0.2431
   10CHTO  H139 3959   2.920   8.191   2.983  0.4400 -0.6067 -2.4568
   10CHTO  H140 3960   3.038   8.306   2.933 -3.1878 -0.0194 -2.4138
   10CHTO   C76 3961   3.218   8.106   2.825 -1.0389 -0.1990  0.2794
   10CHTO  H148 3962   3.271   8.070   2.914  1.4198 -0.1667 -1.1238
   10CHTO   O49 3963   3.244   8.009   2.720 -0.6598 -0.5362  0.5316
   10CHTO   C77 3964   3.206   7.870   2.745  0.5213 -0.4034 -0.2049
   10CHTO  H149 3965   3.272   7.823   2.818 -1.2113 -1.3469  0.7884
   10CHTO   C88 3966   3.236   7.774   2.630  0.0424 -0.3156 -0.7558
   10CHTO   O58 3967   3.377   7.762   2.596  0.0627  0.1963 -0.1676
   10CHTO  H136 3968   3.395   7.842   2.550 -1.3154 -0.1723 -1.3848
   10CHTO   O51 3969   3.273   8.253   2.767  0.2126 -0.0058  0.3193
   10CHTO   C78 3970   3.426   8.282   2.746 -0.2269  0.4785  0.3063
   10CHTO  H150 3971   3.480   8.185   2.755  0.8022  0.9046 -1.1441
   10CHTO   C80 3972   3.485   8.375   2.846 -0.0725  0.3087  0.1717
   10CHTO  H152 3973   3.431   8.472   2.840 -0.0478  0.2609 -1.1915
   10CHTO   O55 3974   3.471   8.311   2.979 -0.1823  0.8247  0.0307
   10CHTO  H134 3975   3.531   8.346   3.042 -0.7874  2.7810 -0.4556
   10CHTO   C84 3976   3.641   8.411   2.824 -0.2854 -0.6389 -0.0422
   10CHTO  H156 3977   3.690   8.317   2.848 -0.8571 -1.0807 -0.5834
   10CHTO   N15 3978   3.699   8.509   2.922  0.3001  0.6097 -0.3796
   10CHTO  H143 3979   3.745   8.590   2.869  1.4232  1.1631  1.3991
   10CHTO  H144 3980   3.625   8.549   2.987 -1.1874 -0.9624 -1.0572
   10CHTO   C87 3981   3.655   8.461   2.678 -0.0681  0.1969  0.4472
   10CHTO  H159 3982   3.618   8.563   2.668 -1.1820 -0.3880 -1.7777
   10CHTO   O53 3983   3.589   8.356   2.581 -0.4035 -0.4628 -0.2529
   10CHTO   C82 3984   3.448   8.337   2.599  0.3305 -0.2025 -0.4712
   10CHTO  H154 3985   3.408   8.438   2.599 -0.7327 -0.6155  0.9717
   10CHTO   C89 3986   3.388   8.247   2.487 -0.3687 -0.4259 -0.2699
   10CHTO   O59 3987   3.446   8.117   2.480  0.5528 -0.0882 -0.2519
   10CHTO  H137 3988   3.451   8.068   2.559  1.6500  0.6909  0.1761
   10CHTO   O45 3989   3.821   8.452   2.634  0.3799 -0.2229 -0.3653
   10CHTO   C67 3990   3.871   8.522   2.520  0.0421  0.6184  0.0691
   10CHTO  H124 3991   3.823   8.477   2.434 -0.3979  1.0607  0.0856
   10CHTO   C65 3992   3.850   8.675   2.519  0.1383 -0.6061 -1.0350
   10CHTO  H122 3993   3.742   8.684   2.535 -0.0501  0.6765 -2.9349
   10CHTO   O44 3994   3.876   8.725   2.386 -0.3431 -0.0114 -0.2659
   10CHTO  H102 3995   3.818   8.689   2.322  0.3571  1.1070 -1.5291
   10CHTO   C63 3996   3.930   8.740   2.643 -0.2395  1.0285 -0.3998
   10CHTO  H120 3997   3.880   8.705   2.734  1.8358 -0.8087  0.0733
   10CHTO   N11 3998   3.900   8.887   2.657  0.3996  0.0941  0.4354
   10CHTO  H108 3999   3.917   8.936   2.563  3.0886 -1.2406  0.1799
   10CHTO  H109 4000   3.948   8.942   2.736  1.1371 -0.6285  0.4936
   10CHTO   C61 4001   4.081   8.688   2.642 -0.3716 -0.0684  0.5203
   10CHTO  H118 4002   4.117   8.706   2.745 -0.8290 -0.0418  0.6782
   10CHTO   O40 4003   4.106   8.551   2.617  0.3123 -0.3280  0.0956
   10CHTO   C68 4004   4.028   8.480   2.515 -0.1219 -0.0159 -0.2699
   10CHTO  H125 4005   4.023   8.371   2.535 -0.2450  0.0892  0.2794
   10CHTO   C72 4006   4.077   8.503   2.374 -0.4054  1.1393  0.5431
   10CHTO   O48 4007   4.036   8.407   2.267 -0.2111 -0.5563  0.0989
   10CHTO  H105 4008   4.080   8.325   2.257  0.1658 -0.5332  1.4199
   10CHTO   O38 4009   4.154   8.751   2.538 -0.1178 -0.0497 -0.1389
   10CHTO   C55 4010   4.255   8.854   2.558  0.4785  0.1436  0.3459
   10CHTO  H112 4011   4.350   8.808   2.529  0.2769 -0.8234  1.1883
   10CHTO   C56 4012   4.261   8.920   2.704 -0.3383 -1.0848 -0.2078
   10CHTO  H113 4013   4.163   8.953   2.741 -0.6461  0.2598 -2.1682
   10CHTO   O42 4014   4.316   8.823   2.799 -0.3126 -0.0211  0.0778
   10CHTO  H100 4015   4.249   8.773   2.841 -0.2138 -1.9823 -2.0398
   10CHTO   C57 4016   4.365   9.043   2.690  0.6996  0.1799  0.3011
   10CHTO  H114 4017   4.462   8.998   2.666  1.0244  1.4915 -0.8943
   10CHTO   N10 4018   4.377   9.119   2.816 -0.1772  0.3112  0.1196
   10CHTO  H106 4019   4.372   9.055   2.903 -2.6256  0.9842  0.5091
   10CHTO  H107 4020   4.470   9.175   2.814 -1.9285  3.2925 -0.4138
   10CHTO   C58 4021   4.327   9.134   2.571  0.1826  0.0604  0.3061
   10CHTO  H115 4022   4.236   9.193   2.596 -0.4700 -0.3807 -1.0084
   10CHTO   O37 4023   4.323   9.064   2.448  0.6584 -0.0653 -0.6772
   10CHTO   C59 4024   4.218   8.965   2.452 -0.1912 -0.6193 -0.2977
   10CHTO  H116 4025   4.124   9.014   2.477  0.2289 -0.4410  0.9696
   10CHTO   C70 4026   4.210   8.905   2.309  0.3507 -0.2103  0.2353
   10CHTO   O46 4027   4.199   9.001   2.208  0.3585  0.2559 -0.5496
   10CHTO  H103 4028   4.172   8.961   2.128 -0.9911  0.5433 -0.2458
   10CHTO   O39 4029   4.449   9.245   2.541  0.1940 -0.7147  0.3652
   10CHTO   C60 4030   4.401   9.382   2.521 -0.3379 -0.4889  0.3588
   10CHTO  H117 4031   4.293   9.389   2.528 -0.2934  3.0205 -1.4487
   10CHTO   C62 4032   4.466   9.477   2.625  0.0057  0.0140 -0.4712
   10CHTO  H119 4033   4.453   9.433   2.726  0.7621  0.8009 -0.0188
   10CHTO   O43 4034   4.606   9.474   2.593 -0.2836  0.3411  0.0282
   10CHTO  H101 4035   4.654   9.511   2.664  1.0305 -0.8796 -0.1709
   10CHTO   C66 4036   4.414   9.621   2.618 -0.9257  0.1416  0.0876
   10CHTO  H123 4037   4.308   9.622   2.643 -0.9395  0.9999  0.0092
   10CHTO   N12 4038   4.473   9.710   2.718  0.2433  0.5062 -0.9094
   10CHTO  H110 4039   4.452   9.815   2.700 -1.0053  0.4160 -0.0886
   10CHTO  H111 4040   4.580   9.696   2.721  0.1015 -0.8524 -1.6302
   10CHTO   C69 4041   4.444   9.684   2.477 -0.1262  0.4737 -0.0591
   10CHTO  H126 4042   4.554   9.685   2.463 -0.0723 -1.2420  0.1477
   10CHTO   O41 4043   4.380   9.589   2.358 -0.0506 -0.1566  0.3718
   10CHTO   C64 4044   4.441   9.436   2.375 -0.7616 -0.3046  0.2808
   10CHTO  H121 4045   4.551   9.427   2.369 -0.5534  1.1227  1.5538
   10CHTO   C71 4046   4.374   9.360   2.258  0.3409 -0.4641 -0.5107
   10CHTO   O47 4047   4.421   9.227   2.233 -0.8989  0.0791  0.0524
   10CHTO  H104 4048   4.408   9.171   2.307  1.8810  1.3992  1.6222
   10CHTO   O34 4049   4.384   9.837   2.461  0.2155 -0.1831 -0.2710
   10CHTO   C49 4050   4.241   9.902   2.438  0.1310 -0.4362  0.0264
   10CHTO   H91 4051   4.257  10.004   2.472  1.7304 -0.7655  0.2780
   10CHTO   C47 4052   4.123   9.841   2.516 -0.5718  0.3476 -0.0674
   10CHTO   H89 4053   4.149   9.852   2.623  2.0246 -2.5992 -0.3123
   10CHTO   O33 4054   4.126   9.700   2.484  0.2583  0.2015  0.1863
   10CHTO   H70 4055   4.086   9.676   2.403  1.7751  1.7814 -1.0791
   10CHTO   C45 4056   3.980   9.900   2.470 -0.2278  0.5247 -0.0866
   10CHTO   H87 4057   3.926   9.814   2.428 -3.7269  3.0905 -1.1034
   10CHTO    N8 4058   3.910   9.954   2.587  0.0658  0.0456  0.5992
   10CHTO   H75 4059   3.894  10.060   2.579 -0.9568 -0.0895  0.8257
   10CHTO   H76 4060   3.814   9.907   2.603 -0.7486  0.7791 -1.9001
   10CHTO   C43 4061   4.001  10.001   2.348  0.2006  0.0631  0.7378
   10CHTO   H85 4062   3.898  10.017   2.315  0.4079  1.3126  0.6474
   10CHTO   O29 4063   4.087   9.950   2.238 -0.0382 -0.4001 -0.2827
   10CHTO   C50 4064   4.217   9.905   2.283  0.8540 -0.0241 -0.8326
   10CHTO   H92 4065   4.221   9.802   2.244 -1.7226  0.1522 -1.6911
   10CHTO   C54 4066   4.332   9.975   2.201  0.1564  0.1394  0.9107
   10CHTO   O36 4067   4.464   9.906   2.201 -0.6675  0.8007 -0.0665
   10CHTO   H72 4068   4.527   9.971   2.177 -0.1183  0.7761  1.2926
   10CHTO   O27 4069   4.053  10.134   2.392  0.4308  0.8381 -0.8152
   10CHTO   C37 4070   4.082  10.252   2.310  0.2149  0.5366  0.0787
   10CHTO   H79 4071   4.140  10.230   2.220  0.3190  0.4211  0.1740
   10CHTO   C38 4072   3.946  10.308   2.257  1.0152  0.6914  0.5440
   10CHTO   H80 4073   3.870  10.314   2.337  1.6375  0.8232  1.1219
   10CHTO   O31 4074   3.895  10.216   2.160  0.1010  0.5123  0.3045
   10CHTO   H68 4075   3.814  10.245   2.124 -1.6920 -3.6747  0.7096
   10CHTO   C39 4076   3.963  10.451   2.186  1.1566 -0.8599  0.2682
   10CHTO   H81 4077   4.009  10.440   2.088 -0.0704 -0.0593 -0.4110
   10CHTO    N7 4078   3.827  10.513   2.148  0.3687 -0.3709  0.2294
   10CHTO   H73 4079   3.749  10.446   2.182 -0.6479  0.1523 -1.0434
   10CHTO   H74 4080   3.814  10.615   2.181 -0.8678 -0.9810  1.7123
   10CHTO   C40 4081   4.055  10.550   2.268  0.1403 -0.4700  0.3035
   10CHTO   H82 4082   4.004  10.611   2.343  0.4509  2.1518 -1.5514
   10CHTO   O26 4083   4.170  10.481   2.324  0.4829  0.0099  0.0358
   10CHTO   C41 4084   4.146  10.363   2.401 -0.5411  0.2001 -0.8774
   10CHTO   H83 4085   4.082  10.387   2.487  0.1052 -1.1062 -0.0103
   10CHTO   C52 4086   4.268  10.304   2.457  0.0261  0.2303  0.3608
   10CHTO   O35 4087   4.335  10.389   2.552 -0.3748 -0.1037  0.1200
   10CHTO   H71 4088   4.293  10.403   2.635  0.4652 -1.3013  0.7554
   10CHTO   O28 4089   4.114  10.643   2.179 -0.4173  0.3674  0.7162
   10CHTO   C42 4090   4.134  10.785   2.214 -0.6121 -0.2870  0.0012
   10CHTO   H84 4091   4.096  10.790   2.316  2.3150 -0.7668  1.1670
   10CHTO   C44 4092   4.057  10.881   2.125 -0.4340 -0.3092  0.3349
   10CHTO   H86 4093   4.076  10.853   2.021  0.8351  0.7771  0.2657
   10CHTO   O32 4094   3.914  10.872   2.150  0.1510  0.0567  0.1153
   10CHTO   H69 4095   3.874  10.957   2.148  2.1451  1.0080 -0.1166
   10CHTO   C48 4096   4.103  11.034   2.158  0.3127  0.3476  0.6403
   10CHTO   H90 4097   4.077  11.056   2.261 -0.5077 -0.4736  0.6227
   10CHTO    N9 4098   4.037  11.140   2.080 -0.0651  0.1665  0.3247
   10CHTO   H77 4099   4.070  11.138   1.977 -1.5832 -1.5860 -0.1662
   10CHTO   H78 4100   4.070  11.226   2.136  1.9625  0.2516 -0.9449
   10CHTO   C51 4101   4.261  11.043   2.143  0.3714  0.5970 -0.0140
   10CHTO   H93 4102   4.289  11.012   2.043  2.0112  0.3356  0.5220
   10CHTO   O30 4103   4.313  10.954   2.244 -0.4771  0.0682  0.5634
   10CHTO   C46 4104   4.290  10.810   2.223 -0.3783  0.6012  0.2745
   10CHTO   H88 4105   4.325  10.775   2.126 -2.8385 -1.7764  0.1910
   10CHTO   C53 4106   4.353  10.739   2.352 -1.3022  0.0899 -0.1761
   10CHTO   O72 4107   4.493  10.759   2.353  0.2969 -0.8417 -0.8645
   10CHTO  H199 4108   4.516  10.849   2.364 -0.0449 -0.6510 -1.6933
   10CHTO   O22 4109   4.315  11.171   2.188 -0.7013  0.3854  0.0114
   10CHTO   C31 4110   4.440  11.233   2.130  0.3559 -0.7492  0.6432
   10CHTO   H59 4111   4.453  11.327   2.188 -2.4140  0.3500 -0.4280
   10CHTO   C29 4112   4.568  11.147   2.143 -0.1121 -0.1454 -0.8089
   10CHTO   H57 4113   4.561  11.068   2.067 -0.2247 -1.7483  0.8411
   10CHTO   O21 4114   4.571  11.093   2.274  0.0672 -0.3198 -0.2265
   10CHTO   H37 4115   4.657  11.061   2.291  0.5684  1.8350  1.4657
   10CHTO   C27 4116   4.691  11.226   2.111  0.1051 -0.1308 -0.9097
   10CHTO   H55 4117   4.702  11.309   2.183 -1.7346 -0.5598 -0.0793
   10CHTO    N5 4118   4.814  11.140   2.117 -0.4787  0.7751 -0.4208
   10CHTO   H43 4119   4.840  11.074   2.199  0.4333  1.4737 -0.1429
   10CHTO   H44 4120   4.892  11.202   2.077 -2.3558  3.0422 -0.6565
   10CHTO   C25 4121   4.664  11.275   1.960 -1.1775  0.0872  0.3841
   10CHTO   H53 4122   4.665  11.178   1.907  2.3611  0.8181 -1.0396
   10CHTO   O17 4123   4.543  11.349   1.936  0.1734  0.4735 -0.4147
   10CHTO   C32 4124   4.427  11.279   1.978  0.2636 -0.4309 -0.4064
   10CHTO   H60 4125   4.415  11.191   1.915  0.2558 -1.4198  0.9527
   10CHTO   C36 4126   4.299  11.375   1.955  0.1300  1.0144  0.5720
   10CHTO   O25 4127   4.307  11.501   2.018 -0.4680 -0.1564  0.3339
   10CHTO   H40 4128   4.326  11.490   2.109 -1.5608  2.7902  0.9862
   10CHTO   O15 4129   4.771  11.370   1.910 -0.3437 -0.1010 -0.1624
   10CHTO   C19 4130   4.826  11.407   1.779 -0.4674 -0.0366 -0.4234
   10CHTO   H47 4131   4.757  11.360   1.707  0.3591 -2.7339  0.4680
   10CHTO   C20 4132   4.820  11.563   1.773  0.3864  0.3814  0.1250
   10CHTO   H48 4133   4.886  11.607   1.849  1.3990  0.1055 -0.5887
   10CHTO   O19 4134   4.684  11.595   1.789  0.9473  0.0418  0.0187
   10CHTO   H35 4135   4.683  11.611   1.881  2.3078  0.0054  0.0395
   10CHTO   C21 4136   4.872  11.613   1.628  0.7428  0.2951 -0.1868
   10CHTO   H49 4137   4.808  11.574   1.549  0.5131 -0.7066  0.4884
   10CHTO    N4 4138   4.870  11.764   1.625  0.5845  0.4378  0.4291
   10CHTO   H41 4139   4.852  11.788   1.521 -0.4946 -1.1490  0.2198
   10CHTO   H42 4140   4.793  11.809   1.685  0.6828  1.5123 -0.2542
   10CHTO   C22 4141   5.012  11.556   1.609  0.1400 -0.1614  0.1772
   10CHTO   H50 4142   5.076  11.594   1.689  0.9228  1.3400 -1.1205
   10CHTO   O14 4143   5.011  11.411   1.614 -0.2118 -0.0998  0.2010
   10CHTO   C23 4144   4.971  11.357   1.739  0.4164 -0.5223  0.4890
   10CHTO   H51 4145   5.048  11.386   1.813  0.7424 -0.6302  0.1950
   10CHTO   C34 4146   4.989  11.204   1.744 -0.2118  0.5804  0.3929
   10CHTO   O23 4147   4.892  11.154   1.645  0.3853 -0.3161 -0.6043
   10CHTO   H38 4148   4.938  11.119   1.570 -0.9183 -0.5208 -1.3331
   10CHTO   O16 4149   5.068  11.581   1.474 -0.3988  0.4844  0.1777
   10CHTO   C24 4150   5.227  11.580   1.488  0.0889  0.2370 -0.3702
   10CHTO   H52 4151   5.263  11.540   1.582  3.0981  1.8724 -0.7744
   10CHTO   C26 4152   5.278  11.720   1.464 -0.3835 -0.4957 -0.8160
   10CHTO   H54 4153   5.242  11.758   1.367 -1.0285  0.0518 -0.3664
   10CHTO   O20 4154   5.228  11.795   1.576  0.3059 -0.1403  0.2307
   10CHTO   H36 4155   5.288  11.787   1.648 -0.9877 -0.6190  1.2704
   10CHTO   C30 4156   5.430  11.720   1.452 -0.0134  0.2132 -0.4276
   10CHTO   H58 4157   5.475  11.693   1.549 -0.8268 -0.9166 -0.3599
   10CHTO    N6 4158   5.488  11.857   1.432 -0.1215  0.2539  0.0530
   10CHTO   H45 4159   5.450  11.935   1.497  0.3593 -0.1955  0.8773
   10CHTO   H46 4160   5.594  11.847   1.448 -0.2086  0.2148  0.6318
   10CHTO   C33 4161   5.485  11.608   1.357  0.1585  0.1926 -0.0467
   10CHTO   H61 4162   5.444  11.629   1.257 -0.8941  0.4211  0.4325
   10CHTO   O18 4163   5.427  11.483   1.387 -0.4489  0.5513 -1.1090
   10CHTO   C28 4164   5.286  11.483   1.380  0.0608 -0.4075  1.3146
   10CHTO   H56 4165   5.252  11.512   1.281 -0.3867 -2.0175  0.9894
   10CHTO   C35 4166   5.240  11.341   1.416  0.7212 -0.0347  0.4717
   10CHTO   O24 4167   5.273  11.246   1.316 -0.1412 -0.4739 -0.3355
   10CHTO   H39 4168   5.316  11.280   1.240  0.3477 -1.0502 -0.3242
   10CHTO    O9 4169   5.629  11.598   1.344 -0.4388 -0.2365  0.0630
   10CHTO   C13 4170   5.677  11.475   1.223 -1.6234 -0.2641 -0.6505
   10CHTO   H26 4171   5.603  11.456   1.142 -0.1079 -0.3335 -2.0342
   10CHTO   C11 4172   5.706  11.349   1.308  0.5083  0.2627  0.0205
   10CHTO   H24 4173   5.611  11.313   1.348 -0.7726  1.0798 -2.2149
   10CHTO    O8 4174   5.795  11.377   1.420 -0.1554 -0.2044 -0.5861
   10CHTO    H3 4175   5.756  11.336   1.495 -1.1885 -2.3667 -2.2288
   10CHTO    C9 4176   5.773  11.247   1.215  0.0359 -0.5231  0.1137
   10CHTO   H22 4177   5.709  11.239   1.126 -0.1770  1.0893  0.1002
   10CHTO    N2 4178   5.776  11.110   1.266  0.3578 -0.3185  0.2097
   10CHTO   H10 4179   5.819  11.028   1.209 -2.0617 -1.4511 -0.0491
   10CHTO   H11 4180   5.679  11.083   1.304  0.4603  1.0903  1.5077
   10CHTO    C7 4181   5.912  11.297   1.170  0.3154 -0.3125  0.5738
   10CHTO   H20 4182   5.931  11.226   1.087 -0.4513  0.6335 -0.4207
   10CHTO    O4 4183   5.900  11.429   1.108 -0.0458  0.4766 -0.2220
   10CHTO   C14 4184   5.810  11.532   1.156  0.2075 -0.6080  0.3418
   10CHTO   H27 4185   5.772  11.591   1.070  0.3470  2.1689  2.0973
   10CHTO   C18 4186   5.903  11.622   1.235  0.3871  0.1657 -0.3656
   10CHTO   O13 4187   5.990  11.695   1.148 -0.6406  0.1379 -0.0051
   10CHTO    H7 4188   5.942  11.732   1.076  0.8297 -1.6971 -1.9729
   10CHTO    O2 4189   6.024  11.293   1.288  0.0084  0.0680 -0.2747
   10CHTO    C1 4190   6.157  11.277   1.241  0.5557 -0.0703 -0.4365
   10CHTO   H14 4191   6.222  11.307   1.326 -0.5657  1.8825 -0.2342
   10CHTO    C2 4192   6.205  11.345   1.107 -0.8458 -0.1355  0.8372
   10CHTO   H15 4193   6.132  11.310   1.032  1.1916  0.3880 -1.4438
   10CHTO    O6 4194   6.211  11.486   1.129 -0.5476  0.0210  0.3480
   10CHTO    H1 4195   6.127  11.526   1.117  0.1787  1.6296  0.5093
   10CHTO    C3 4196   6.353  11.301   1.061 -0.1876  0.0442  0.1665
   10CHTO   H16 4197   6.423  11.338   1.137  2.0261 -1.5602 -1.0575
   10CHTO    N1 4198   6.397  11.370   0.935 -0.0099 -0.0293  0.0376
   10CHTO    H8 4199   6.349  11.320   0.852 -1.3015  1.1641  0.0546
   10CHTO    H9 4200   6.503  11.369   0.918 -0.3976 -1.0166 -2.5094
   10CHTO    C4 4201   6.370  11.149   1.058  0.2957 -0.3531  0.3357
   10CHTO   H17 4202   6.302  11.110   0.982  0.0105  2.0281 -0.6854
   10CHTO    O1 4203   6.328  11.100   1.190  0.2269  0.5625 -0.3441
   10CHTO    C5 4204   6.187  11.123   1.217  0.1802 -0.4799 -0.1717
   10CHTO   H18 4205   6.130  11.082   1.134  0.5633 -2.3808  0.4826
   10CHTO   C16 4206   6.163  11.046   1.341 -0.3432 -0.0818 -0.1976
   10CHTO   O11 4207   6.152  10.907   1.326  0.9093  0.4795 -0.4065
   10CHTO    H5 4208   6.156  10.880   1.236  0.7517 -1.6076  0.1688
   10CHTO    O3 4209   6.511  11.115   1.029 -0.9352 -0.3816 -0.0143
   10CHTO    C6 4210   6.546  10.973   1.022  0.3758 -0.5659  0.8402
   10CHTO   H19 4211   6.471  10.912   1.072 -0.8075  1.1860  1.2367
   10CHTO    C8 4212   6.577  10.923   0.874  0.1297  0.5926 -0.1760
   10CHTO   H21 4213   6.663  10.973   0.830  0.5035  1.8179  1.9047
   10CHTO    O7 4214   6.464  10.938   0.783  0.3226 -0.1754  0.1515
   10CHTO    H2 4215   6.405  10.865   0.788 -2.0184  1.7740  2.2474
   10CHTO   C12 4216   6.622  10.759   0.886 -0.0819 -0.3195  0.5929
   10CHTO   H25 4217   6.534  10.708   0.932 -1.4397 -0.0662 -1.6533
   10CHTO    N3 4218   6.636  10.689   0.751  0.0457 -0.6945  0.3442
   10CHTO   H12 4219   6.718  10.722   0.688 -0.4324  1.6648  0.9068
   10CHTO   H13 4220   6.546  10.671   0.694  1.1205 -0.7699 -1.3886
   10CHTO   C15 4221   6.749  10.744   0.980 -0.0694 -0.5270 -0.2135
   10CHTO   H28 4222   6.830  10.803   0.937 -1.1005  1.7492  0.8736
   10CHTO   O10 4223   6.783  10.606   1.023  0.0171 -0.0776  0.2491
   10CHTO    H4 4224   6.858  10.615   1.078 -1.3944 -0.2658  2.2471
   10CHTO    O5 4225   6.714  10.809   1.105 -0.1633 -0.2485  0.4723
   10CHTO   C10 4226   6.681  10.952   1.097 -0.9463  0.7900  0.0019
   10CHTO   H23 4227   6.760  11.011   1.050  1.7411 -0.4884  2.7320
   10CHTO   C17 4228   6.670  11.003   1.243 -0.5923 -0.0434 -0.3187
   10CHTO   O12 4229   6.795  10.967   1.318  0.4421  0.0493 -0.6195
   10CHTO    H6 4230   6.771  10.979   1.407 -0.7736 -2.8460 -0.4920
   11CHTO  H203 4231   6.456   5.632   0.737 -0.9115  0.2047 -2.0105
   11CHTO   O82 4232   6.384   5.679   0.774 -0.0215 -0.1701  0.3292
   11CHTO  C123 4233   6.407   5.819   0.759  0.5690  1.5314  0.2176
   11CHTO  H227 4234   6.441   5.833   0.656 -1.5065 -1.9207 -1.0226
   11CHTO   O77 4235   6.265   5.871   0.784 -0.5564 -0.8218  0.5609
   11CHTO  C118 4236   6.251   6.010   0.753 -0.1018  0.1272 -0.9012
   11CHTO  H222 4237   6.274   6.024   0.646  0.0179 -0.7464 -0.9953
   11CHTO  C125 4238   6.100   6.053   0.783  0.0635  0.1402 -0.3757
   11CHTO   O84 4239   6.004   5.974   0.713  0.1870 -0.5163  0.3931
   11CHTO  H205 4240   5.916   6.000   0.732 -0.6565 -2.2984 -0.9154
   11CHTO  C114 4241   6.361   6.092   0.830  0.1097  0.3671  0.5642
   11CHTO  H218 4242   6.353   6.084   0.939 -0.2978  0.2494  0.5294
   11CHTO  C116 4243   6.501   6.034   0.813 -0.5634  0.3506 -0.0140
   11CHTO  H220 4244   6.521   6.045   0.705  0.3406 -2.0194 -0.1101
   11CHTO   O79 4245   6.592   6.114   0.895 -0.3037 -0.3543  0.1165
   11CHTO  H201 4246   6.681   6.088   0.882 -0.1781 -0.3768  1.0083
   11CHTO  C120 4247   6.505   5.883   0.857 -0.2459 -0.0745 -0.3824
   11CHTO  H224 4248   6.481   5.876   0.965 -0.2714 -1.0924 -0.4427
   11CHTO   N21 4249   6.643   5.829   0.844 -0.5310  0.5198  0.0129
   11CHTO  H211 4250   6.696   5.848   0.936  0.2924  2.6123 -0.8568
   11CHTO  H212 4251   6.697   5.871   0.761 -2.5497 -0.8367 -2.0530
   11CHTO   O75 4252   6.328   6.225   0.785  0.1311  0.5709  0.0496
   11CHTO  C112 4253   6.274   6.330   0.914  0.1792 -0.5563  0.9428
   11CHTO  H216 4254   6.300   6.286   1.011 -0.4060 -1.5390  0.6534
   11CHTO   O73 4255   6.132   6.349   0.896 -0.0508  0.0507 -0.9123
   11CHTO  C113 4256   6.061   6.443   0.980  0.1852  0.3578 -0.0271
   11CHTO  H217 4257   6.068   6.410   1.085 -0.7791 -0.6585 -0.2676
   11CHTO  C124 4258   5.908   6.428   0.950  0.2815 -0.1449  0.5595
   11CHTO   O83 4259   5.854   6.306   1.002 -0.4100 -0.3137 -0.0563
   11CHTO  H204 4260   5.761   6.297   0.990 -0.6825  1.4971  0.4967
   11CHTO  C109 4261   6.118   6.585   0.959 -0.0360 -0.0017 -0.0600
   11CHTO  H213 4262   6.109   6.608   0.852  1.0813 -0.2101 -0.2075
   11CHTO  C110 4263   6.268   6.573   0.991  0.0672  0.8773 -0.0017
   11CHTO  H214 4264   6.276   6.545   1.096 -0.1749 -0.9658 -0.4530
   11CHTO   O78 4265   6.331   6.703   0.992 -0.1908  0.1972  0.3593
   11CHTO  H200 4266   6.285   6.765   1.046 -0.0375  0.5900  0.0438
   11CHTO  C111 4267   6.343   6.469   0.901 -0.8310 -0.0184 -0.1768
   11CHTO  H215 4268   6.333   6.503   0.797 -2.0371 -2.1065 -0.7866
   11CHTO   N19 4269   6.492   6.455   0.929 -0.0950  0.3392 -0.3742
   11CHTO  H207 4270   6.543   6.550   0.916 -1.9966  1.5651  0.8875
   11CHTO  H208 4271   6.543   6.386   0.864 -1.6477 -0.8672 -0.3297
   11CHTO   O74 4272   6.045   6.683   1.034 -0.7056 -0.2964 -0.7149
   11CHTO  C115 4273   5.973   6.793   0.940 -0.4305  0.1577  0.0713
   11CHTO  H219 4274   6.026   6.805   0.845 -2.1448 -0.6231 -1.0086
   11CHTO   O76 4275   5.821   6.740   0.903  0.3034 -0.2761  0.0446
   11CHTO  C122 4276   5.736   6.736   1.021  0.2009 -0.6087  0.2860
   11CHTO  H226 4277   5.757   6.643   1.075 -0.9478 -1.1828 -0.2217
   11CHTO  C126 4278   5.583   6.715   0.975  0.2490 -0.3281 -0.2595
   11CHTO   O85 4279   5.540   6.578   0.937 -0.0011 -0.4526  0.3401
   11CHTO  H206 4280   5.518   6.527   1.013 -0.5563  1.4014  1.4598
   11CHTO  C121 4281   5.746   6.858   1.123  0.3210  0.3010  0.1936
   11CHTO  H225 4282   5.648   6.892   1.164 -0.7501 -3.1452  0.6587
   11CHTO   O81 4283   5.815   6.814   1.238 -0.2020  0.2938  0.8347
   11CHTO  H202 4284   5.773   6.735   1.267  3.7930 -1.7205  1.4794
   11CHTO  C119 4285   5.828   6.969   1.056 -0.1614  0.3515 -1.1678
   11CHTO  H223 4286   5.781   6.998   0.962 -1.7240  0.9082 -0.2304
   11CHTO  C117 4287   5.974   6.928   1.018 -0.1223  0.0470  0.0805
   11CHTO  H221 4288   6.036   6.916   1.107  0.3969 -0.2717 -0.3234
   11CHTO   N20 4289   6.045   7.032   0.934  0.3904  0.0764 -0.4727
   11CHTO  H209 4290   6.144   7.000   0.907 -1.0240 -4.4975 -0.6937
   11CHTO  H210 4291   5.996   7.060   0.841  0.5250  1.2586 -0.1997
   11CHTO   O80 4292   5.817   7.115   1.138  0.5642  0.1928 -0.1959
   11CHTO  C103 4293   5.790   7.114   1.293  0.4334 -0.2770  0.0175
   11CHTO  H190 4294   5.760   7.015   1.327  0.4311 -0.7612 -1.3361
   11CHTO  C101 4295   5.907   7.155   1.386  0.0408  0.0682  1.0863
   11CHTO  H188 4296   5.944   7.252   1.353  0.4435 -0.9058 -1.4805
   11CHTO   O68 4297   6.019   7.044   1.385 -0.4027  0.5259  0.3849
   11CHTO  H168 4298   6.089   7.063   1.325  0.2869 -0.4086  0.8753
   11CHTO   C99 4299   5.856   7.177   1.534 -0.2100 -0.3580 -0.8786
   11CHTO  H186 4300   5.812   7.082   1.570  1.6100 -1.2429 -0.8993
   11CHTO   N17 4301   5.964   7.220   1.636  0.0961 -0.6173  0.1143
   11CHTO  H174 4302   6.058   7.168   1.626 -0.1258 -0.4710 -3.3372
   11CHTO  H175 4303   5.926   7.231   1.736  1.7706 -0.6406  0.7759
   11CHTO   C97 4304   5.737   7.280   1.530 -0.2939  0.5394 -0.0602
   11CHTO  H184 4305   5.777   7.374   1.489 -0.7422  1.0681  0.6993
   11CHTO   O64 4306   5.631   7.230   1.446  0.4676 -0.0327 -0.3022
   11CHTO  C104 4307   5.669   7.215   1.312  0.5429 -0.4658  0.2567
   11CHTO  H191 4308   5.694   7.308   1.262  1.2418 -1.4892 -1.3750
   11CHTO  C108 4309   5.541   7.160   1.240  0.2972 -0.4897 -0.9477
   11CHTO   O71 4310   5.527   7.224   1.117 -0.8101 -0.2683  0.3317
   11CHTO  H171 4311   5.451   7.279   1.116 -0.8398 -0.3188 -0.8014
   11CHTO   O62 4312   5.677   7.300   1.661  0.0620 -0.2563  0.7719
   11CHTO   C91 4313   5.578   7.397   1.677  0.2448 -0.0590 -0.2145
   11CHTO  H178 4314   5.510   7.381   1.593 -0.6411 -0.0765  0.4980
   11CHTO   C92 4315   5.626   7.545   1.665 -0.2933  0.5523  0.4520
   11CHTO  H179 4316   5.681   7.559   1.570 -0.7949  0.1913  0.1070
   11CHTO   O66 4317   5.511   7.629   1.654 -0.3200  0.2630 -0.2291
   11CHTO  H166 4318   5.529   7.720   1.668 -0.3434  0.0599  1.1430
   11CHTO   C93 4319   5.700   7.594   1.796  0.0714 -0.2384 -0.4633
   11CHTO  H180 4320   5.693   7.703   1.783 -1.8410 -0.4821 -1.6565
   11CHTO   N16 4321   5.845   7.550   1.804 -0.0889 -0.9188  0.4789
   11CHTO  H172 4322   5.870   7.534   1.908  1.1966 -0.6000  0.2228
   11CHTO  H173 4323   5.871   7.466   1.742 -0.4423 -0.5970 -0.1076
   11CHTO   C94 4324   5.615   7.558   1.931  0.9275 -0.1988  0.7935
   11CHTO  H181 4325   5.665   7.482   1.991  1.0872  0.2127  1.1829
   11CHTO   O61 4326   5.490   7.498   1.900 -0.1752  0.0527  0.5354
   11CHTO   C95 4327   5.492   7.382   1.809 -0.2625  0.2266 -0.0566
   11CHTO  H182 4328   5.540   7.301   1.864 -2.0918 -0.7783  0.0937
   11CHTO  C106 4329   5.348   7.324   1.771  0.6079 -0.5966 -0.2913
   11CHTO   O69 4330   5.361   7.204   1.696 -0.0205 -0.5161 -0.0454
   11CHTO  H169 4331   5.310   7.131   1.724  0.9038 -0.7494  1.0640
   11CHTO   O63 4332   5.584   7.691   2.000  0.9109  0.2084 -0.0953
   11CHTO   C96 4333   5.698   7.755   2.090  0.0884 -0.1686 -0.3156
   11CHTO  H183 4334   5.778   7.722   2.024 -2.2856 -2.8608 -1.9755
   11CHTO   C98 4335   5.717   7.691   2.235 -0.3619 -0.0838 -0.2758
   11CHTO  H185 4336   5.674   7.590   2.242 -2.1004  0.5258 -1.6513
   11CHTO   O67 4337   5.858   7.676   2.260 -0.2164 -0.3260  0.2520
   11CHTO  H167 4338   5.906   7.606   2.221 -1.9878 -2.5210  1.9092
   11CHTO  C102 4339   5.654   7.790   2.340 -0.3621  0.2395 -0.4337
   11CHTO  H189 4340   5.687   7.746   2.435 -0.2379  0.4807 -0.3664
   11CHTO   N18 4341   5.507   7.781   2.348  0.3521 -0.1256  0.0750
   11CHTO  H176 4342   5.462   7.710   2.281  1.3832  0.5292 -1.3320
   11CHTO  H177 4343   5.471   7.796   2.449 -0.6113  4.2413 -0.8097
   11CHTO  C105 4344   5.717   7.936   2.326  0.7407 -1.1314 -0.8368
   11CHTO  H192 4345   5.653   8.010   2.373 -0.0228 -3.2127  1.5006
   11CHTO   O65 4346   5.751   7.977   2.192  0.1722  0.3767  0.1620
   11CHTO  C100 4347   5.683   7.914   2.085  0.3451 -0.3306 -0.0662
   11CHTO  H187 4348   5.579   7.945   2.101  1.2339  2.2901  0.8937
   11CHTO  C107 4349   5.739   7.992   1.960  0.3781 -0.1942  0.5956
   11CHTO   O70 4350   5.673   7.952   1.843 -0.2958 -0.1405  0.3487
   11CHTO  H170 4351   5.710   7.994   1.768  1.0391 -1.4865  0.2197
   11CHTO   O57 4352   5.826   7.917   2.418 -0.0112 -0.7804  0.4132
   11CHTO   C85 4353   5.858   8.013   2.514  0.5468 -0.8071  0.5650
   11CHTO  H157 4354   5.765   8.033   2.572 -0.4615 -2.2236 -0.5508
   11CHTO   C83 4355   5.912   8.152   2.458 -0.3427 -0.3405 -0.1569
   11CHTO  H155 4356   5.832   8.188   2.393  0.7955  1.7080 -0.4684
   11CHTO   O56 4357   6.023   8.126   2.373  0.5203  0.4131 -0.7316
   11CHTO  H135 4358   6.096   8.102   2.427  0.2086  1.7214  0.3026
   11CHTO   C81 4359   5.926   8.255   2.568 -0.3192 -0.4349 -0.5363
   11CHTO  H153 4360   5.834   8.257   2.627  0.2524 -0.5881  0.3697
   11CHTO   N14 4361   5.944   8.400   2.518  0.1215  0.0210 -0.2207
   11CHTO  H141 4362   6.049   8.417   2.507 -0.1368  0.3931 -2.3928
   11CHTO  H142 4363   5.900   8.422   2.423 -0.1109 -0.1355 -0.1486
   11CHTO   C79 4364   6.040   8.209   2.668 -0.0017  0.4705 -0.6346
   11CHTO  H151 4365   6.038   8.280   2.752  0.2255  1.6151 -1.5853
   11CHTO   O52 4366   6.014   8.066   2.718 -0.8124 -0.2141  0.0186
   11CHTO   C86 4367   5.976   7.969   2.611  0.1443 -0.9158 -0.0738
   11CHTO  H158 4368   6.065   7.963   2.544 -0.4460  1.8059 -1.1778
   11CHTO   C90 4369   5.960   7.831   2.675 -0.7401  0.1328  0.2155
   11CHTO   O60 4370   6.080   7.790   2.741  0.1000 -0.1837  0.3597
   11CHTO  H138 4371   6.095   7.831   2.823  0.1191 -2.0293  1.3067
   11CHTO   O50 4372   6.169   8.211   2.603 -0.3169  0.0240 -0.4093
   11CHTO   C73 4373   6.307   8.223   2.648  0.0080  0.0407  0.3613
   11CHTO  H145 4374   6.323   8.153   2.731 -0.9827 -0.9553 -0.2791
   11CHTO   C74 4375   6.340   8.365   2.696  0.7607 -0.2702 -0.4034
   11CHTO  H146 4376   6.270   8.395   2.776  0.8333 -1.0775 -0.0293
   11CHTO   O54 4377   6.471   8.359   2.757 -0.5830 -0.7112  0.0115
   11CHTO  H133 4378   6.534   8.344   2.689 -0.3823  2.7146 -0.6348
   11CHTO   C75 4379   6.334   8.463   2.573  0.2606 -0.6345 -0.7283
   11CHTO  H147 4380   6.230   8.464   2.536 -0.3671  2.1490  0.9947
   11CHTO   N13 4381   6.368   8.601   2.615 -0.5559 -0.1764 -0.0966
   11CHTO  H139 4382   6.355   8.683   2.546  1.5037  1.1040  0.9861
   11CHTO  H140 4383   6.470   8.609   2.650 -0.3417  2.9199 -1.2401
   11CHTO   C76 4384   6.436   8.408   2.456  0.4629 -0.6426  0.5413
   11CHTO  H148 4385   6.534   8.410   2.504  0.5730  0.8730  0.2719
   11CHTO   O49 4386   6.402   8.269   2.415  0.2398 -0.2434  0.3223
   11CHTO   C77 4387   6.402   8.183   2.531 -0.4620  0.2566  0.0290
   11CHTO  H149 4388   6.504   8.182   2.568 -1.1903  0.6312  2.0880
   11CHTO   C88 4389   6.367   8.043   2.490 -0.1834  0.4077  0.0907
   11CHTO   O58 4390   6.421   7.932   2.591 -0.6830  0.2799 -0.7269
   11CHTO  H136 4391   6.426   7.846   2.554 -1.4751  0.0012 -0.2043
   11CHTO   O51 4392   6.437   8.473   2.327 -0.0639 -0.1044 -0.3138
   11CHTO   C78 4393   6.596   8.492   2.273  0.1774  0.0432  0.0519
   11CHTO  H150 4394   6.672   8.439   2.335 -0.7699 -0.2441  0.9786
   11CHTO   C80 4395   6.646   8.641   2.268 -0.6150  1.2519  0.0226
   11CHTO  H152 4396   6.568   8.707   2.227  0.0532  0.0986 -3.3100
   11CHTO   O55 4397   6.649   8.689   2.402 -0.0359  0.1391 -0.6248
   11CHTO  H134 4398   6.725   8.739   2.424  0.1885 -0.4690  0.0177
   11CHTO   C84 4399   6.773   8.664   2.175 -0.1116 -0.2016 -0.6343
   11CHTO  H156 4400   6.843   8.602   2.231 -0.8104 -1.6180 -1.3335
   11CHTO   N15 4401   6.809   8.807   2.165 -0.7029  0.3283  0.2630
   11CHTO  H143 4402   6.743   8.863   2.103 -3.0553 -0.7736  1.6718
   11CHTO  H144 4403   6.906   8.804   2.122 -0.6846 -0.1760  0.3284
   11CHTO   C87 4404   6.753   8.594   2.044  0.3236  0.5920 -0.4601
   11CHTO  H159 4405   6.662   8.635   1.999 -1.7431 -0.6612  2.4215
   11CHTO   O53 4406   6.727   8.432   2.076  0.1874  0.3520 -0.1708
   11CHTO   C82 4407   6.599   8.427   2.135  1.0901 -0.1335 -0.1811
   11CHTO  H154 4408   6.523   8.485   2.082  0.0952 -0.1471  1.2060
   11CHTO   C89 4409   6.543   8.281   2.147 -0.2787 -0.5653  0.4115
   11CHTO   O59 4410   6.503   8.225   2.024  0.3476 -0.1418 -0.0608
   11CHTO  H137 4411   6.425   8.263   1.989 -0.1118  1.6118  2.7280
   11CHTO   O45 4412   6.877   8.593   1.951  0.3956 -0.2883 -0.3701
   11CHTO   C67 4413   6.857   8.575   1.806 -0.4668 -0.0145  0.0409
   11CHTO  H124 4414   6.816   8.475   1.797 -0.0353 -0.2606  0.7390
   11CHTO   C65 4415   6.770   8.679   1.729  0.4469 -0.3824 -0.2098
   11CHTO  H122 4416   6.778   8.773   1.782 -1.1274  0.1423 -0.8684
   11CHTO   O44 4417   6.636   8.629   1.756  0.9517  0.2524  0.3381
   11CHTO  H102 4418   6.565   8.679   1.790 -0.0169 -0.7027 -0.2124
   11CHTO   C63 4419   6.818   8.722   1.585 -0.4161  0.3603 -0.2371
   11CHTO  H120 4420   6.905   8.786   1.600 -1.1903  1.4592 -0.4123
   11CHTO   N11 4421   6.720   8.803   1.515 -0.0904 -1.0247  0.4665
   11CHTO  H108 4422   6.771   8.844   1.431 -0.8547 -1.0777 -0.0288
   11CHTO  H109 4423   6.688   8.882   1.579 -0.5248 -1.0621  0.2957
   11CHTO   C61 4424   6.862   8.583   1.517  0.2918  0.3793  0.5228
   11CHTO  H118 4425   6.897   8.601   1.415  0.3597 -0.0526  0.4730
   11CHTO   O40 4426   6.977   8.516   1.589 -0.4777  0.0312  0.6555
   11CHTO   C68 4427   6.998   8.563   1.729  0.4309  0.1475 -0.0621
   11CHTO  H125 4428   7.051   8.661   1.724  0.0803  0.2538 -2.0942
   11CHTO   C72 4429   7.084   8.462   1.808  0.3051  0.3266  0.9040
   11CHTO   O48 4430   7.023   8.335   1.833  0.2671 -0.8870 -0.1612
   11CHTO  H105 4431   7.023   8.285   1.753 -0.0540 -1.3364  0.1224
   11CHTO   O38 4432   6.759   8.482   1.533 -0.7992  0.4136  0.8067
   11CHTO   C55 4433   6.727   8.378   1.434  0.4880  0.4910  0.1205
   11CHTO  H112 4434   6.815   8.332   1.387 -0.2905 -0.2767 -0.6070
   11CHTO   C56 4435   6.624   8.436   1.328 -0.0921  0.0181 -0.1337
   11CHTO  H113 4436   6.537   8.472   1.385  0.4841 -0.5635  1.1301
   11CHTO   O42 4437   6.679   8.547   1.268  0.0197 -0.2528  0.4887
   11CHTO  H100 4438   6.613   8.604   1.234  0.8328 -0.4958 -1.5309
   11CHTO   C57 4439   6.592   8.315   1.232 -0.0565 -0.4709 -0.2426
   11CHTO  H114 4440   6.687   8.275   1.195  0.4920  0.5669  0.0235
   11CHTO   N10 4441   6.510   8.362   1.112  0.1486  0.1689  1.5659
   11CHTO  H106 4442   6.464   8.449   1.156  0.5767 -0.5842  3.5498
   11CHTO  H107 4443   6.573   8.386   1.027 -1.3064 -0.5448  0.2710
   11CHTO   C58 4444   6.520   8.209   1.320  1.0213 -0.3213 -0.4979
   11CHTO  H115 4445   6.429   8.256   1.361  1.7991  1.1024 -0.3822
   11CHTO   O37 4446   6.605   8.157   1.423 -0.3521  0.1449 -1.5624
   11CHTO   C59 4447   6.663   8.261   1.511  0.5673 -0.5555 -0.7092
   11CHTO  H116 4448   6.589   8.301   1.580 -0.9384 -0.0647 -2.5666
   11CHTO   C70 4449   6.775   8.192   1.592 -0.2004 -0.0875 -0.5318
   11CHTO   O46 4450   6.732   8.099   1.694 -0.1489  0.7841 -0.0572
   11CHTO  H103 4451   6.791   8.093   1.766 -0.0210 -0.6145 -0.2577
   11CHTO   O39 4452   6.482   8.084   1.248 -0.1413 -0.5808 -0.1546
   11CHTO   C60 4453   6.349   8.033   1.270 -0.0395 -0.3605 -0.8549
   11CHTO  H117 4454   6.307   8.075   1.362  0.3666 -0.2749 -0.7116
   11CHTO   C62 4455   6.259   8.064   1.146 -0.0006 -0.4831 -0.4595
   11CHTO  H119 4456   6.244   8.173   1.133 -1.3526 -0.8387 -2.1132
   11CHTO   O43 4457   6.322   8.002   1.031  0.6181 -0.0905  0.0027
   11CHTO  H101 4458   6.352   7.914   1.047  0.4886 -0.4050 -1.4515
   11CHTO   C66 4459   6.103   8.009   1.169  0.1686 -0.1853 -0.3208
   11CHTO  H123 4460   6.078   8.046   1.269  0.0480  0.6675 -0.6637
   11CHTO   N12 4461   6.000   8.062   1.079 -0.4249  0.6941 -0.3319
   11CHTO  H110 4462   5.907   8.007   1.080 -1.5823  2.5996  2.0780
   11CHTO  H111 4463   6.000   8.163   1.039 -1.1462  0.9045  0.1927
   11CHTO   C69 4464   6.121   7.854   1.181  0.1775 -0.2938  0.4597
   11CHTO  H126 4465   6.160   7.806   1.089 -1.1148  1.7576 -1.2008
   11CHTO   O41 4466   6.225   7.813   1.307  0.1172 -0.1461  0.3341
   11CHTO   C64 4467   6.356   7.878   1.295 -0.5140  0.3193  0.2147
   11CHTO  H121 4468   6.383   7.835   1.196 -4.8753 -0.4925 -0.7345
   11CHTO   C71 4469   6.440   7.827   1.410 -0.3799  0.1758  0.2727
   11CHTO   O47 4470   6.473   7.688   1.395 -0.3193  0.2485  0.5975
   11CHTO  H104 4471   6.515   7.658   1.474  1.6598  2.9103  0.6642
   11CHTO   O34 4472   5.996   7.794   1.224  0.5436  0.7502 -0.1526
   11CHTO   C49 4473   5.858   7.749   1.314  0.0762  0.1550  0.8144
   11CHTO   H91 4474   5.899   7.746   1.415  1.6102  3.9810  0.3716
   11CHTO   C47 4475   5.809   7.618   1.248 -0.2949 -0.4752  0.4916
   11CHTO   H89 4476   5.732   7.580   1.320 -2.7192 -2.1638 -2.8223
   11CHTO   O33 4477   5.922   7.528   1.254  0.6521  0.0965  0.1318
   11CHTO   H70 4478   5.933   7.489   1.169 -0.1751 -0.2074  0.1623
   11CHTO   C45 4479   5.741   7.650   1.105 -0.5700  0.1497  0.0728
   11CHTO   H87 4480   5.817   7.696   1.040 -2.5946 -0.1253 -2.5980
   11CHTO    N8 4481   5.700   7.525   1.030  0.2610  0.0016 -0.7757
   11CHTO   H75 4482   5.663   7.441   1.088  0.2758  0.6424  0.1808
   11CHTO   H76 4483   5.791   7.477   0.996  0.1218 -0.1449 -0.9386
   11CHTO   C43 4484   5.616   7.755   1.125 -0.2142 -0.0212  0.1882
   11CHTO   H85 4485   5.578   7.779   1.026 -0.6474 -1.8254 -0.1099
   11CHTO   O29 4486   5.663   7.876   1.196  0.4173  0.2441 -0.7512
   11CHTO   C50 4487   5.752   7.866   1.310  0.6294  0.0497 -0.5744
   11CHTO   H92 4488   5.817   7.953   1.325  0.9157  0.2104 -2.5977
   11CHTO   C54 4489   5.663   7.872   1.435 -0.3597 -0.5325 -0.0153
   11CHTO   O36 4490   5.628   8.007   1.465 -0.0076 -0.4891  0.1690
   11CHTO   H72 4491   5.700   8.052   1.505 -1.0702 -0.2096  1.8088
   11CHTO   O27 4492   5.508   7.701   1.197  0.2724 -0.0091 -0.1556
   11CHTO   C37 4493   5.363   7.679   1.197 -0.2382  0.7966 -0.3033
   11CHTO   H79 4494   5.315   7.726   1.284 -0.4324 -0.4583  0.2814
   11CHTO   C38 4495   5.290   7.733   1.076  0.2947  0.2264  0.0389
   11CHTO   H80 4496   5.335   7.694   0.983 -0.1569 -3.1146  1.1492
   11CHTO   O31 4497   5.305   7.875   1.077  0.1847 -0.1900  0.4936
   11CHTO   H68 4498   5.393   7.894   1.102 -0.1396 -1.3656  2.6381
   11CHTO   C39 4499   5.134   7.687   1.084 -0.4219  0.3794  1.2665
   11CHTO   H81 4500   5.086   7.732   1.171 -2.1836  0.2218  0.3988
   11CHTO    N7 4501   5.048   7.738   0.969  0.7469  0.1240 -0.2962
   11CHTO   H73 4502   5.038   7.845   0.971 -1.5228 -0.0692 -0.2413
   11CHTO   H74 4503   4.954   7.686   0.962  0.7451  0.1292 -0.3106
   11CHTO   C40 4504   5.127   7.533   1.098 -0.0398  0.1472 -0.1247
   11CHTO   H82 4505   5.153   7.481   1.006  0.0760 -0.7853  0.4255
   11CHTO   O26 4506   5.202   7.483   1.206  0.4477 -0.5729 -0.0623
   11CHTO   C41 4507   5.346   7.525   1.209  0.2768 -0.0890  0.2622
   11CHTO   H83 4508   5.394   7.489   1.117  0.9395  0.2728  0.4676
   11CHTO   C52 4509   5.424   7.463   1.323  0.0508  0.0299  0.1296
   11CHTO   O35 4510   5.365   7.489   1.439  0.3996  0.0348 -0.5680
   11CHTO   H71 4511   5.405   7.443   1.510  1.7895  0.3544 -1.1140
   11CHTO   O28 4512   4.994   7.489   1.130  0.1169  0.2795  0.0324
   11CHTO   C42 4513   4.928   7.372   1.081 -0.7853  0.6629  0.1496
   11CHTO   H84 4514   4.996   7.322   1.012 -1.2288  1.8846 -1.2158
   11CHTO   C44 4515   4.797   7.404   0.998  0.0272  0.0916  0.2612
   11CHTO   H86 4516   4.730   7.456   1.065 -0.2559  1.3145 -0.9587
   11CHTO   O32 4517   4.839   7.487   0.888 -0.1649  0.0832  0.5157
   11CHTO   H69 4518   4.851   7.577   0.912 -0.1133  0.2476 -0.1145
   11CHTO   C48 4519   4.728   7.274   0.957 -0.8174  0.6573 -0.4000
   11CHTO   H90 4520   4.792   7.226   0.883 -1.5487 -0.5378 -0.2674
   11CHTO    N9 4521   4.600   7.306   0.884  0.1431  0.8684  0.2381
   11CHTO   H77 4522   4.551   7.219   0.841  0.5318  0.8801 -0.2215
   11CHTO   H78 4523   4.527   7.354   0.948 -0.4087 -0.9587  1.0192
   11CHTO   C51 4524   4.706   7.179   1.086 -0.0946  0.3844 -0.0035
   11CHTO   H93 4525   4.642   7.227   1.160  0.4304 -0.7722  1.2209
   11CHTO   O30 4526   4.837   7.154   1.139 -0.6623 -0.3240 -0.0144
   11CHTO   C46 4527   4.890   7.269   1.196  0.0743  0.3572  0.3521
   11CHTO   H88 4528   4.816   7.321   1.257 -0.3935 -0.9760  0.9181
   11CHTO   C53 4529   5.017   7.235   1.289  0.1991  0.3777 -0.2963
   11CHTO   O72 4530   5.132   7.182   1.222  0.7453 -0.2169  0.1917
   11CHTO  H199 4531   5.196   7.139   1.275 -0.1885 -1.5832  0.2461
   11CHTO   O22 4532   4.658   7.044   1.053  0.1030 -0.2905 -0.5694
   11CHTO   C31 4533   4.598   6.958   1.158  0.2511 -0.7148 -0.2418
   11CHTO   H59 4534   4.643   6.999   1.251  1.3243 -2.3798  0.0030
   11CHTO   C29 4535   4.439   6.972   1.167 -0.2181 -0.7228  0.2962
   11CHTO   H57 4536   4.403   6.984   1.064  0.2490 -1.5303  0.0326
   11CHTO   O21 4537   4.401   7.091   1.229 -0.6290 -0.4050  0.4935
   11CHTO   H37 4538   4.467   7.157   1.221 -1.8293  0.7523  0.1023
   11CHTO   C27 4539   4.364   6.842   1.233 -0.5131 -0.0455  0.7215
   11CHTO   H55 4540   4.354   6.861   1.341 -1.6209 -2.9379  1.1788
   11CHTO    N5 4541   4.228   6.818   1.178  0.0751 -0.0157  0.3452
   11CHTO   H43 4542   4.217   6.722   1.131 -0.1920  0.6548 -0.9979
   11CHTO   H44 4543   4.152   6.831   1.253  0.1061 -0.2010  0.4074
   11CHTO   C25 4544   4.452   6.708   1.220 -0.1367 -0.2598  0.4451
   11CHTO   H53 4545   4.441   6.667   1.118 -0.8091 -0.0301  0.4224
   11CHTO   O17 4546   4.590   6.733   1.240  0.0107  0.1532  0.2204
   11CHTO   C32 4547   4.653   6.813   1.139  0.7300  0.2804  0.4014
   11CHTO   H60 4548   4.642   6.778   1.037  3.1911 -3.0842  1.1941
   11CHTO   C36 4549   4.811   6.801   1.173 -0.2541  0.1057  0.0526
   11CHTO   O25 4550   4.895   6.863   1.074  0.2925  0.2448  0.0838
   11CHTO   H40 4551   4.938   6.943   1.097 -0.1245  0.2633  0.8338
   11CHTO   O15 4552   4.423   6.601   1.335 -0.6303  0.5087  0.4739
   11CHTO   C19 4553   4.352   6.485   1.386  0.2771 -0.7115 -0.1969
   11CHTO   H47 4554   4.393   6.470   1.487 -1.3375  0.9614  0.7388
   11CHTO   C20 4555   4.201   6.522   1.397 -0.6941 -0.4481  0.0739
   11CHTO   H48 4556   4.161   6.552   1.299  1.6994  2.9314  0.0542
   11CHTO   O19 4557   4.180   6.627   1.494 -0.0825  0.0233  0.2229
   11CHTO   H35 4558   4.089   6.650   1.491 -0.3903 -1.1858  0.3135
   11CHTO   C21 4559   4.118   6.393   1.447  0.5499  0.5517  0.2543
   11CHTO   H49 4560   4.155   6.367   1.546 -0.3854 -0.0860  0.4439
   11CHTO    N4 4561   3.971   6.419   1.455 -0.2982  0.0680  0.3270
   11CHTO   H41 4562   3.908   6.351   1.400 -0.1599  0.1601  0.0515
   11CHTO   H42 4563   3.954   6.519   1.420  0.1373  0.6139  1.6212
   11CHTO   C22 4564   4.152   6.282   1.336  0.5874 -0.2486 -0.2321
   11CHTO   H50 4565   4.132   6.322   1.236  1.2907  1.6395  0.3637
   11CHTO   O14 4566   4.288   6.250   1.348  0.3938  0.2735  0.5345
   11CHTO   C23 4567   4.384   6.352   1.300  0.2799 -0.1452 -0.2866
   11CHTO   H51 4568   4.362   6.366   1.193 -2.6342 -2.2854 -0.0263
   11CHTO   C34 4569   4.527   6.293   1.315  0.2400  0.5313  0.1703
   11CHTO   O23 4570   4.568   6.302   1.456  0.5639  0.6278  0.6607
   11CHTO   H38 4571   4.607   6.218   1.475 -1.1907 -0.2969  0.2793
   11CHTO   O16 4572   4.092   6.154   1.364 -0.4390  0.4332  0.2390
   11CHTO   C24 4573   4.083   6.066   1.231 -0.1117 -1.1793  0.2007
   11CHTO   H52 4574   4.148   6.103   1.152  2.6380 -0.6761  2.5742
   11CHTO   C26 4575   3.934   6.071   1.187  0.0499 -0.3656  0.7327
   11CHTO   H54 4576   3.872   6.033   1.270  0.7983 -1.1175  0.9627
   11CHTO   O20 4577   3.897   6.202   1.157 -0.2991 -0.1003  0.0749
   11CHTO   H36 4578   3.805   6.194   1.141 -0.5092  1.9377  0.1003
   11CHTO   C30 4579   3.917   5.982   1.063 -0.8692  0.8980 -0.0132
   11CHTO   H58 4580   3.960   6.027   0.973 -0.6824  0.0047 -0.3723
   11CHTO    N6 4581   3.769   5.970   1.035  0.2622  0.4467 -0.0693
   11CHTO   H45 4582   3.750   5.981   0.929 -0.3580  1.3648  0.1261
   11CHTO   H46 4583   3.739   5.872   1.069  0.0591 -0.0457 -1.5914
   11CHTO   C33 4584   3.984   5.841   1.074  0.6221  0.1399 -0.6250
   11CHTO   H61 4585   3.924   5.775   1.138 -0.0463  1.8969  0.6066
   11CHTO   O18 4586   4.116   5.848   1.138  0.1667  0.4341 -0.3394
   11CHTO   C28 4587   4.128   5.922   1.262  0.4358  0.2550  0.1770
   11CHTO   H56 4588   4.062   5.876   1.335  0.0216  1.7383  0.7352
   11CHTO   C35 4589   4.279   5.920   1.315 -0.3837 -0.2137  0.2763
   11CHTO   O24 4590   4.288   5.948   1.456  0.2520  0.3072 -0.3526
   11CHTO   H39 4591   4.228   6.014   1.484 -1.1467 -0.3022 -1.8647
   11CHTO    O9 4592   3.990   5.775   0.947 -0.1725 -0.6113 -0.8608
   11CHTO   C13 4593   4.096   5.854   0.822 -0.2007 -0.0193  0.1362
   11CHTO   H26 4594   4.145   5.942   0.868  1.0243 -0.8240  0.3923
   11CHTO   C11 4595   4.009   5.892   0.698 -0.1847  0.1839 -0.0043
   11CHTO   H24 4596   3.928   5.958   0.731 -1.1296 -0.9088 -0.0885
   11CHTO    O8 4597   3.944   5.770   0.656 -0.2561  0.0945 -0.2404
   11CHTO    H3 4598   3.876   5.784   0.592  0.6841  0.1546 -1.2502
   11CHTO    C9 4599   4.090   5.972   0.592 -0.7775  0.2371 -0.0707
   11CHTO   H22 4600   4.079   6.079   0.617  1.0663  1.0283 -2.4000
   11CHTO    N2 4601   4.029   5.969   0.451  0.4063 -0.7847  0.0570
   11CHTO   H10 4602   4.021   5.871   0.406 -1.5801 -2.0132  2.9802
   11CHTO   H11 4603   3.942   6.032   0.439  0.5172 -0.8807 -1.4323
   11CHTO    C7 4604   4.246   5.932   0.607 -0.3875  1.3253  0.3468
   11CHTO   H20 4605   4.274   5.983   0.702 -1.4854 -1.5186  2.2972
   11CHTO    O4 4606   4.261   5.791   0.632 -0.6683 -0.6848  0.1854
   11CHTO   C14 4607   4.221   5.763   0.770  0.4742  0.0576  0.3048
   11CHTO   H27 4608   4.308   5.782   0.835  0.1794 -1.7210  1.2743
   11CHTO   C18 4609   4.207   5.610   0.758  0.5733  0.1350  0.0076
   11CHTO   O13 4610   4.340   5.555   0.744  0.1717 -0.4733 -0.0822
   11CHTO    H7 4611   4.319   5.465   0.760 -0.9437  0.3191  3.2674
   11CHTO    O2 4612   4.336   5.971   0.472  0.0823  0.3488  0.0381
   11CHTO    C1 4613   4.411   6.095   0.492  0.5513  0.5704  0.1883
   11CHTO   H14 4614   4.466   6.079   0.587 -1.5904 -0.6665  1.2601
   11CHTO    C2 4615   4.332   6.231   0.508 -0.0761 -0.2797 -0.1648
   11CHTO   H15 4616   4.245   6.217   0.443 -0.5999 -2.0572  0.8749
   11CHTO    O6 4617   4.276   6.238   0.638 -0.0714 -0.1359  0.0513
   11CHTO    H1 4618   4.333   6.284   0.697 -1.1172  1.3498 -0.0817
   11CHTO    C3 4619   4.413   6.371   0.479 -0.2883 -0.1364  0.2204
   11CHTO   H16 4620   4.468   6.387   0.574  2.0626 -0.4157 -1.0477
   11CHTO    N1 4621   4.321   6.489   0.447 -0.3392  0.1346  0.0117
   11CHTO    H8 4622   4.312   6.525   0.345 -1.2096 -1.4179 -0.4890
   11CHTO    H9 4623   4.344   6.576   0.506  0.0513  1.5183 -2.1018
   11CHTO    C4 4624   4.522   6.349   0.369 -0.1327 -0.2108  0.8714
   11CHTO   H17 4625   4.477   6.342   0.270 -0.0694 -1.8157  0.9461
   11CHTO    O1 4626   4.600   6.230   0.392  0.6109  0.1381  0.5485
   11CHTO    C5 4627   4.516   6.110   0.380  0.4899  0.2786  0.2495
   11CHTO   H18 4628   4.468   6.118   0.282  0.0326 -0.6925  0.3907
   11CHTO   C16 4629   4.614   5.992   0.380  0.3164 -0.5410  0.2276
   11CHTO   O11 4630   4.701   5.984   0.494  0.0576 -0.1851 -0.9531
   11CHTO    H5 4631   4.723   6.072   0.519  1.1839 -0.5049 -0.7934
   11CHTO    O3 4632   4.622   6.454   0.363 -0.2055  0.1708  0.3619
   11CHTO    C6 4633   4.683   6.495   0.239  0.6495 -0.0946  0.0252
   11CHTO   H19 4634   4.687   6.422   0.158  1.5824 -2.5529  2.2261
   11CHTO    C8 4635   4.600   6.607   0.172 -0.6069  0.2983  0.3799
   11CHTO   H21 4636   4.581   6.684   0.246  0.3975  0.4233  0.5163
   11CHTO    O7 4637   4.477   6.539   0.136 -0.4012  0.0465 -0.0673
   11CHTO    H2 4638   4.427   6.606   0.094  1.5211  1.4551 -0.1765
   11CHTO   C12 4639   4.670   6.669   0.040 -0.2762 -0.1749  0.1513
   11CHTO   H25 4640   4.662   6.589  -0.036  0.2961 -0.8460  0.7902
   11CHTO    N3 4641   4.590   6.787  -0.005  0.2181 -0.4417  0.0135
   11CHTO   H12 4642   4.492   6.758  -0.038  0.5891  0.5913 -2.0530
   11CHTO   H13 4643   4.641   6.829  -0.090  0.1653 -0.0960  0.1503
   11CHTO   C15 4644   4.821   6.704   0.070 -0.3338 -0.7304  0.1356
   11CHTO   H28 4645   4.835   6.797   0.124  0.5934 -0.1380 -1.0959
   11CHTO   O10 4646   4.893   6.732  -0.057  0.5013  0.2022  0.1753
   11CHTO    H4 4647   4.845   6.790  -0.113  0.9289  0.7873  0.3990
   11CHTO    O5 4648   4.887   6.591   0.129  0.0761 -0.1295  0.7419
   11CHTO   C10 4649   4.831   6.553   0.254  0.3274 -0.3308  0.3699
   11CHTO   H23 4650   4.828   6.636   0.326  1.3975  0.1992 -0.1756
   11CHTO   C17 4651   4.936   6.450   0.301  0.3827  0.2704 -0.4337
   11CHTO   O12 4652   4.906   6.411   0.437  0.1585  0.4195 -0.1422
   11CHTO    H6 4653   4.986   6.438   0.478  2.0692 -1.1945 -2.6444
   12CHTO  H203 4654   5.307   2.809   2.485 -0.5554  0.5442  2.2628
   12CHTO   O82 4655   5.287   2.718   2.471 -0.0492  0.6824  0.5621
   12CHTO  C123 4656   5.303   2.637   2.584  0.1599  0.1015 -0.5806
   12CHTO  H227 4657   5.360   2.686   2.666  1.3884 -0.7725 -0.9027
   12CHTO   O77 4658   5.166   2.610   2.624 -0.6371  0.0867 -0.0192
   12CHTO  C118 4659   5.144   2.516   2.730  0.5321  0.4152  0.0766
   12CHTO  H222 4660   5.196   2.565   2.813  2.0372  1.2460 -1.3384
   12CHTO  C125 4661   4.983   2.516   2.751  0.0139 -0.2534 -0.2771
   12CHTO   O84 4662   4.935   2.637   2.818 -0.2697  0.3725  0.4028
   12CHTO  H205 4663   4.842   2.635   2.811 -0.2435 -2.1026  0.2900
   12CHTO  C114 4664   5.195   2.379   2.687 -0.4019 -0.6748  0.2591
   12CHTO  H218 4665   5.147   2.341   2.597  0.0030  1.0130 -0.6978
   12CHTO  C116 4666   5.350   2.394   2.657 -0.2722 -0.0366  0.7368
   12CHTO  H220 4667   5.397   2.418   2.755 -2.1100  2.5407  1.0461
   12CHTO   O79 4668   5.400   2.265   2.625  0.1494 -0.1310  0.2484
   12CHTO  H201 4669   5.479   2.274   2.576 -1.0520  0.9694 -1.5432
   12CHTO  C120 4670   5.378   2.501   2.545  0.2679  0.1658  0.2961
   12CHTO  H224 4671   5.327   2.462   2.454  0.4173  2.0563 -0.6380
   12CHTO   N21 4672   5.521   2.516   2.504 -0.2603  0.2096 -0.3229
   12CHTO  H211 4673   5.571   2.482   2.593 -2.1653 -0.1462  0.6409
   12CHTO  H212 4674   5.543   2.440   2.432 -0.6174 -1.4130  1.2505
   12CHTO   O75 4675   5.167   2.281   2.789  0.1763  0.0897  0.2965
   12CHTO  C112 4676   5.099   2.133   2.728 -0.0921  0.4900 -0.0025
   12CHTO  H216 4677   5.154   2.107   2.636 -1.3525  2.2127 -1.3010
   12CHTO   O73 4678   4.960   2.160   2.700 -0.1657  0.1890 -0.7716
   12CHTO  C113 4679   4.902   2.056   2.624 -0.8282  0.2608  0.3253
   12CHTO  H217 4680   4.964   2.042   2.533 -2.1645  0.2933 -0.6051
   12CHTO  C124 4681   4.768   2.107   2.571 -0.1946  0.0031 -0.1819
   12CHTO   O83 4682   4.780   2.214   2.481  0.3839  0.1182 -0.0756
   12CHTO  H204 4683   4.792   2.297   2.523  0.2072 -0.3999  0.9929
   12CHTO  C109 4684   4.892   1.923   2.710 -0.0320 -0.2715 -0.2981
   12CHTO  H213 4685   4.822   1.945   2.791 -1.2279 -2.1398 -0.7898
   12CHTO  C110 4686   5.038   1.888   2.766 -0.1266  0.6678 -0.2403
   12CHTO  H214 4687   5.102   1.866   2.680  0.6033 -0.7203  0.6412
   12CHTO   O78 4688   5.029   1.775   2.855  0.6765 -0.1033  0.4641
   12CHTO  H200 4689   5.104   1.721   2.837  1.1474  0.3407  1.0915
   12CHTO  C111 4690   5.112   2.010   2.832 -0.0309  0.6501 -0.3742
   12CHTO  H215 4691   5.056   2.038   2.922 -0.8715 -0.7311 -0.4597
   12CHTO   N19 4692   5.251   1.991   2.872 -0.2117 -0.3861 -0.4884
   12CHTO  H207 4693   5.296   1.901   2.832  0.8720  0.7587 -1.9071
   12CHTO  H208 4694   5.260   2.021   2.976  1.1088 -1.2111 -0.3425
   12CHTO   O74 4695   4.839   1.809   2.627 -0.1899  0.5197  0.0374
   12CHTO  C115 4696   4.710   1.742   2.694 -1.4221 -0.1812 -0.5646
   12CHTO  H219 4697   4.705   1.759   2.802  1.0757  0.1579 -0.4775
   12CHTO   O76 4698   4.584   1.802   2.647  0.5259 -0.5811  0.0653
   12CHTO  C122 4699   4.561   1.737   2.523  0.1005 -0.3350  0.3706
   12CHTO  H226 4700   4.651   1.746   2.462 -1.2780  0.8899 -1.5321
   12CHTO  C126 4701   4.454   1.825   2.447  0.2090 -0.0617  1.2197
   12CHTO   O85 4702   4.440   1.768   2.314  0.6501 -0.4421 -0.5582
   12CHTO  H206 4703   4.371   1.814   2.270 -0.8739  1.2062  3.3395
   12CHTO  C121 4704   4.516   1.583   2.545 -0.3767 -0.9246 -0.4119
   12CHTO  H225 4705   4.408   1.580   2.569 -0.1469  1.3878  1.0599
   12CHTO   O81 4706   4.547   1.513   2.427  0.2220  0.7122  0.0232
   12CHTO  H202 4707   4.560   1.424   2.455 -0.2441  0.7330  0.2979
   12CHTO  C119 4708   4.597   1.517   2.661 -0.0566  0.4323  0.6504
   12CHTO  H223 4709   4.545   1.543   2.753  0.4830  0.4823  0.9422
   12CHTO  C117 4710   4.733   1.582   2.679 -0.6477  0.6803  0.2695
   12CHTO  H221 4711   4.795   1.569   2.590 -0.7568 -0.2309  0.3198
   12CHTO   N20 4712   4.807   1.516   2.796  0.3309 -0.0091 -0.3984
   12CHTO  H209 4713   4.835   1.413   2.777  1.1675 -0.0759  1.0833
   12CHTO  H210 4714   4.887   1.581   2.828  0.4087  0.1294 -0.8787
   12CHTO   O80 4715   4.605   1.358   2.675 -0.0058 -0.3726  0.1023
   12CHTO  C103 4716   4.484   1.273   2.710  0.7181  0.1355  0.6544
   12CHTO  H190 4717   4.409   1.323   2.771  2.8827  1.4728  2.2472
   12CHTO  C101 4718   4.401   1.210   2.591  1.0874  0.4080 -0.0110
   12CHTO  H188 4719   4.473   1.152   2.532  0.3808  0.2092 -0.6790
   12CHTO   O68 4720   4.341   1.323   2.496 -0.1894  0.4117  0.4232
   12CHTO  H168 4721   4.311   1.398   2.544 -0.5552  1.2278 -1.0477
   12CHTO   C99 4722   4.281   1.116   2.648 -0.5479  0.4152 -0.3220
   12CHTO  H186 4723   4.214   1.183   2.706 -2.3402 -1.1626 -0.5289
   12CHTO   N17 4724   4.191   1.049   2.542 -0.3089 -0.5278  0.1291
   12CHTO  H174 4725   4.106   1.103   2.505 -0.3079  0.4950  1.5527
   12CHTO  H175 4726   4.226   0.960   2.492 -1.0938 -0.9116  0.2614
   12CHTO   C97 4727   4.331   1.007   2.754  0.4088 -0.3799 -0.1447
   12CHTO  H184 4728   4.373   0.920   2.702  0.8867 -1.1365  1.4514
   12CHTO   O64 4729   4.428   1.067   2.840 -0.2750 -0.6786 -0.5895
   12CHTO  C104 4730   4.538   1.154   2.797 -0.1661  0.5029 -1.0626
   12CHTO  H191 4731   4.608   1.098   2.735 -2.4969 -2.0810 -1.5045
   12CHTO  C108 4732   4.615   1.207   2.921  0.0883 -0.8666  0.0768
   12CHTO   O71 4733   4.535   1.311   2.987 -0.8018 -0.1453 -0.7585
   12CHTO  H171 4734   4.558   1.307   3.078 -0.3006 -0.0235 -0.8744
   12CHTO   O62 4735   4.224   0.963   2.837 -0.1732  0.1821 -0.4700
   12CHTO   C91 4736   4.231   0.829   2.893  0.2703  0.1639  1.0927
   12CHTO  H178 4737   4.327   0.786   2.867 -0.4549 -0.9490  0.1863
   12CHTO   C92 4738   4.130   0.743   2.821 -0.0306 -0.0540  0.2242
   12CHTO  H179 4739   4.031   0.782   2.848  0.4035 -0.4030  2.4260
   12CHTO   O66 4740   4.140   0.751   2.674 -0.7401 -0.5839  0.2284
   12CHTO  H166 4741   4.187   0.679   2.637  2.3254  2.2372 -1.6005
   12CHTO   C93 4742   4.149   0.586   2.866 -0.0374 -0.3241 -0.1700
   12CHTO  H180 4743   4.234   0.541   2.812  0.6357 -1.4279  1.7547
   12CHTO   N16 4744   4.042   0.501   2.819 -0.0663 -0.7805  0.6184
   12CHTO  H172 4745   3.949   0.536   2.860 -0.4534  0.2022 -1.0447
   12CHTO  H173 4746   4.063   0.400   2.850  5.6647  0.3889  1.0587
   12CHTO   C94 4747   4.174   0.568   3.023 -0.2296 -0.2980 -1.2748
   12CHTO  H181 4748   4.079   0.570   3.076 -0.0651  0.1259 -1.0009
   12CHTO   O61 4749   4.255   0.669   3.085 -0.4344 -0.0030 -0.4883
   12CHTO   C95 4750   4.212   0.801   3.047  0.2888 -0.8606  0.3776
   12CHTO  H182 4751   4.104   0.811   3.059  0.5288  2.6054  0.3074
   12CHTO  C106 4752   4.281   0.902   3.146  0.4612 -0.4950  1.4897
   12CHTO   O69 4753   4.248   1.043   3.118  0.0224 -0.2767  0.0711
   12CHTO  H169 4754   4.320   1.096   3.147 -0.6219  1.0571 -0.7876
   12CHTO   O63 4755   4.245   0.420   3.047 -0.1599  0.4792  0.8852
   12CHTO   C96 4756   4.294   0.404   3.187  0.4275 -0.3676  0.0248
   12CHTO  H183 4757   4.272   0.494   3.244 -1.8614 -1.2801  0.6466
   12CHTO   C98 4758   4.449   0.386   3.195 -0.5731 -0.8855  0.9153
   12CHTO  H185 4759   4.487   0.315   3.121  1.9865 -0.0928  1.4185
   12CHTO   O67 4760   4.504   0.513   3.160  0.6192 -0.0072  0.9038
   12CHTO  H167 4761   4.483   0.577   3.226 -0.3380  0.0954  0.4991
   12CHTO  C102 4762   4.504   0.344   3.341  0.1606  0.3400 -0.5199
   12CHTO  H189 4763   4.482   0.426   3.410  0.7947  0.7805 -0.8416
   12CHTO   N18 4764   4.651   0.326   3.343  0.0712  0.2441  0.0215
   12CHTO  H176 4765   4.678   0.284   3.439 -0.2973  0.7679  0.3563
   12CHTO  H177 4766   4.689   0.268   3.261  0.7065  0.5356  0.1102
   12CHTO  C105 4767   4.421   0.217   3.378  1.0532  0.2044 -0.3571
   12CHTO  H192 4768   4.429   0.147   3.295  1.1079 -0.3076  0.0767
   12CHTO   O65 4769   4.285   0.262   3.387  0.4354  0.3111  0.9195
   12CHTO  C100 4770   4.220   0.291   3.262 -0.3373 -0.9943  0.5820
   12CHTO  H187 4771   4.222   0.200   3.201 -0.8446 -1.3388  1.0702
   12CHTO  C107 4772   4.071   0.321   3.285 -0.0211 -0.2213  0.0655
   12CHTO   O70 4773   3.989   0.366   3.180 -1.0076  0.1084 -0.6196
   12CHTO  H170 4774   3.905   0.396   3.209 -1.2372 -0.2749 -0.8818
   12CHTO   O57 4775   4.472   0.137   3.537 -0.3157  0.0381 -0.2118
   12CHTO   C85 4776   4.439   0.200   3.667 -0.1598 -0.4853  0.1779
   12CHTO  H157 4777   4.341   0.251   3.657 -1.8662 -3.3690  1.8734
   12CHTO   C83 4778   4.553   0.310   3.705 -0.6247 -0.1796 -0.6949
   12CHTO  H155 4779   4.549   0.386   3.627 -1.6341 -1.1856 -1.6560
   12CHTO   O56 4780   4.688   0.252   3.719  0.4083  0.2155 -0.5428
   12CHTO  H135 4781   4.730   0.246   3.635  0.7862  0.8253 -0.4013
   12CHTO   C81 4782   4.508   0.369   3.841 -0.1348  0.4300  0.0853
   12CHTO  H153 4783   4.402   0.394   3.831 -0.3994 -1.0476 -0.9898
   12CHTO   N14 4784   4.581   0.494   3.867  0.0474 -0.0672 -0.3337
   12CHTO  H141 4785   4.519   0.577   3.895  2.1530  0.9258  1.5235
   12CHTO  H142 4786   4.660   0.468   3.935  0.5838  0.0993 -0.8794
   12CHTO   C79 4787   4.516   0.264   3.955  0.5476  0.8187  0.4675
   12CHTO  H151 4788   4.467   0.303   4.044 -1.1013 -1.2633  0.5121
   12CHTO   O52 4789   4.438   0.143   3.918  0.6440  0.3588  0.0228
   12CHTO   C86 4790   4.432   0.091   3.776 -0.7262  0.0839  0.1228
   12CHTO  H158 4791   4.523   0.029   3.760  1.0684  2.7945 -0.5311
   12CHTO   C90 4792   4.314  -0.004   3.752  0.2877  0.5805 -0.3636
   12CHTO   O60 4793   4.313  -0.079   3.631  0.7628  0.4017 -0.1138
   12CHTO  H138 4794   4.228  -0.120   3.627  0.4564  1.2258 -3.2850
   12CHTO   O50 4795   4.653   0.229   3.996  0.4041  0.1417  0.0166
   12CHTO   C73 4796   4.715   0.132   4.078 -0.4539  0.2759  0.0795
   12CHTO  H145 4797   4.650   0.048   4.105 -0.7509  0.8620  1.2301
   12CHTO   C74 4798   4.764   0.197   4.216  1.0382  0.6267  0.3280
   12CHTO  H146 4799   4.671   0.233   4.262  1.4734  0.6721  1.1868
   12CHTO   O54 4800   4.817   0.081   4.285 -0.3020 -0.5846  0.2852
   12CHTO  H133 4801   4.882   0.116   4.343  1.9152 -0.7947 -1.9730
   12CHTO   C75 4802   4.861   0.311   4.187  0.1367  0.2376 -0.0202
   12CHTO  H147 4803   4.809   0.389   4.130 -0.3852 -0.5490 -0.6331
   12CHTO   N13 4804   4.904   0.364   4.316  0.3797 -0.0407 -0.8229
   12CHTO  H139 4805   4.915   0.471   4.304  0.2373 -0.1972 -2.4922
   12CHTO  H140 4806   4.997   0.321   4.350 -0.4819 -1.4852 -0.2652
   12CHTO   C76 4807   4.987   0.252   4.099 -0.4526  0.0877  0.1579
   12CHTO  H148 4808   5.035   0.185   4.170 -2.0532 -0.0541  1.1390
   12CHTO   O49 4809   4.939   0.174   3.977 -0.1077  0.4085  0.0394
   12CHTO   C77 4810   4.847   0.070   4.011  0.1374 -0.4264  0.1316
   12CHTO  H149 4811   4.891  -0.007   4.074 -0.3672 -0.3833  0.5409
   12CHTO   C88 4812   4.808  -0.015   3.887 -0.8308 -0.3130  0.6915
   12CHTO   O58 4813   4.730  -0.148   3.926 -0.8636 -0.9235  0.4376
   12CHTO  H136 4814   4.641  -0.147   3.896  0.6473 -1.3552 -4.4764
   12CHTO   O51 4815   5.094   0.390   4.034 -0.0128 -0.4601  0.3387
   12CHTO   C78 4816   5.166   0.354   3.903 -0.4742 -0.0726 -0.0635
   12CHTO  H150 4817   5.118   0.275   3.841  0.5617 -0.2629 -0.6340
   12CHTO   C80 4818   5.315   0.312   3.932 -0.0562 -0.2572  0.0651
   12CHTO  H152 4819   5.360   0.385   4.002 -0.2487 -1.2729  1.2689
   12CHTO   O55 4820   5.308   0.192   4.009  0.1985 -0.1932 -0.5635
   12CHTO  H134 4821   5.348   0.112   3.979 -0.4860 -0.8096  0.1280
   12CHTO   C84 4822   5.403   0.296   3.801  0.6440 -0.5759 -0.3588
   12CHTO  H156 4823   5.375   0.200   3.756 -0.4824  0.4266 -1.8661
   12CHTO   N15 4824   5.552   0.295   3.853  0.5424  0.4852  0.1605
   12CHTO  H143 4825   5.624   0.281   3.775  3.1450  0.9650  2.4187
   12CHTO  H144 4826   5.572   0.391   3.895  2.4532  0.3631 -0.4138
   12CHTO   C87 4827   5.382   0.416   3.693  0.3473 -0.0108 -0.3583
   12CHTO  H159 4828   5.443   0.503   3.720  0.6452 -0.1631 -0.5367
   12CHTO   O53 4829   5.229   0.455   3.688  0.5773  0.0750  0.4102
   12CHTO   C82 4830   5.174   0.486   3.818 -0.1200 -0.2246  0.2657
   12CHTO  H154 4831   5.238   0.568   3.851  0.2793  0.0325 -1.1372
   12CHTO   C89 4832   5.022   0.541   3.812 -0.0037 -0.4796  0.4289
   12CHTO   O59 4833   4.923   0.454   3.755  0.5580  0.4044 -0.1904
   12CHTO  H137 4834   4.963   0.383   3.707 -0.4154 -0.2166 -0.0986
   12CHTO   O45 4835   5.415   0.366   3.533 -0.4131  0.5790  0.7447
   12CHTO   C67 4836   5.549   0.319   3.505 -1.3996 -0.2347  0.3680
   12CHTO  H124 4837   5.599   0.274   3.590  0.9769  0.3133 -0.7090
   12CHTO   C65 4838   5.550   0.210   3.390  0.9097  0.1057  0.5033
   12CHTO  H122 4839   5.459   0.150   3.384  0.2573  0.9894  1.4104
   12CHTO   O44 4840   5.651   0.113   3.410 -0.4850  0.2998 -0.9190
   12CHTO  H102 4841   5.618   0.042   3.461  0.3140  0.4112 -0.2360
   12CHTO   C63 4842   5.559   0.281   3.251  0.7045 -0.0477  0.4302
   12CHTO  H120 4843   5.480   0.356   3.245  2.4912  1.8278  0.0566
   12CHTO   N11 4844   5.519   0.201   3.129 -0.5325 -0.1923  0.0778
   12CHTO  H108 4845   5.438   0.246   3.076 -0.6098  1.1035  1.2934
   12CHTO  H109 4846   5.475   0.108   3.157 -2.2598  0.5939  0.0064
   12CHTO   C61 4847   5.695   0.353   3.243  0.0177 -0.3695  0.3154
   12CHTO  H118 4848   5.680   0.443   3.181  1.7359 -1.3925 -1.6231
   12CHTO   O40 4849   5.746   0.400   3.372  0.6489 -0.0620 -0.0467
   12CHTO   C68 4850   5.641   0.442   3.463  0.0238 -0.9887 -0.2371
   12CHTO  H125 4851   5.580   0.520   3.413 -0.8842 -1.4517  0.1522
   12CHTO   C72 4852   5.697   0.504   3.591 -0.1091 -0.4536  0.4238
   12CHTO   O48 4853   5.768   0.620   3.554 -0.2631 -0.2963 -0.3058
   12CHTO  H105 4854   5.723   0.693   3.592  0.1656  1.0185 -2.2156
   12CHTO   O38 4855   5.802   0.267   3.198  0.0010  0.1666  0.2073
   12CHTO   C55 4856   5.914   0.328   3.139  0.4618  0.0917 -0.2522
   12CHTO  H112 4857   5.920   0.432   3.173  0.4510 -0.2165  0.6958
   12CHTO   C56 4858   5.909   0.313   2.983 -0.1353  0.5026 -0.4408
   12CHTO  H113 4859   5.891   0.207   2.961  0.2888 -0.3014  2.7737
   12CHTO   O42 4860   5.795   0.381   2.922 -0.5096  0.0518  0.2183
   12CHTO  H100 4861   5.771   0.452   2.979 -0.0112  1.0122 -0.7397
   12CHTO   C57 4862   6.048   0.362   2.911 -0.2162 -0.5327 -0.0988
   12CHTO  H114 4863   6.052   0.470   2.919 -0.8708 -0.3260 -2.2798
   12CHTO   N10 4864   6.049   0.342   2.763 -0.0477 -0.1102  0.0960
   12CHTO  H106 4865   6.106   0.402   2.693 -1.6013 -0.9467 -1.9367
   12CHTO  H107 4866   6.050   0.241   2.726 -1.9123 -0.3786  0.7445
   12CHTO   C58 4867   6.165   0.292   2.979  0.6720  0.2250  0.9716
   12CHTO  H115 4868   6.159   0.187   2.944 -1.9770  0.6893 -0.0805
   12CHTO   O37 4869   6.160   0.309   3.123  0.5137  0.1996  0.3654
   12CHTO   C59 4870   6.045   0.255   3.193 -0.4000  0.7199  0.8730
   12CHTO  H116 4871   6.030   0.149   3.173  0.2625  0.7871 -0.0020
   12CHTO   C70 4872   6.074   0.285   3.345 -0.0908 -0.1638 -0.2379
   12CHTO   O46 4873   5.983   0.220   3.437 -0.4116 -0.8603  0.1795
   12CHTO  H103 4874   6.005   0.130   3.455 -3.1070 -1.3504  1.1756
   12CHTO   O39 4875   6.299   0.370   2.943 -0.6527 -0.3600  0.1783
   12CHTO   C60 4876   6.418   0.299   2.988  0.3700  0.5371  0.1039
   12CHTO  H117 4877   6.407   0.253   3.086 -0.8547  1.3276  0.3448
   12CHTO   C62 4878   6.451   0.190   2.881 -0.2729 -0.1870  0.4342
   12CHTO  H119 4879   6.367   0.118   2.881 -0.8450  0.4437  2.6289
   12CHTO   O43 4880   6.472   0.260   2.754  0.0168 -0.3335 -0.3362
   12CHTO  H101 4881   6.542   0.322   2.762  1.0220 -0.9958 -3.3528
   12CHTO   C66 4882   6.579   0.106   2.938 -0.7620  0.1871  0.3921
   12CHTO  H123 4883   6.551   0.057   3.031  0.8688  0.8456  1.2661
   12CHTO   N12 4884   6.611  -0.010   2.855 -0.8231  0.1896 -0.3706
   12CHTO  H110 4885   6.627  -0.097   2.917  1.1206 -0.4284 -1.6611
   12CHTO  H111 4886   6.705   0.010   2.804 -0.1179 -2.6773 -0.2971
   12CHTO   C69 4887   6.698   0.197   2.979  0.0411 -0.6363  0.1763
   12CHTO  H126 4888   6.758   0.213   2.887  0.1141  1.5424  0.5708
   12CHTO   O41 4889   6.646   0.354   3.041  0.2969 -1.3700 -0.2504
   12CHTO   C64 4890   6.520   0.408   3.002 -0.4962  0.1902  0.0959
   12CHTO  H121 4891   6.537   0.451   2.901  1.1030 -0.0807  0.2385
   12CHTO   C71 4892   6.474   0.516   3.102  0.0970  0.6585 -0.2712
   12CHTO   O47 4893   6.456   0.462   3.230  0.4578 -0.0610 -0.8573
   12CHTO  H104 4894   6.364   0.452   3.238  0.6538 -0.3533  1.4255
   12CHTO   O34 4895   6.796   0.109   3.093 -0.1691 -0.3707  0.3091
   12CHTO   C49 4896   6.786   0.129   3.254  0.5191  0.2387 -0.1558
   12CHTO   H91 4897   6.858   0.200   3.294  1.8503 -2.8956  3.3741
   12CHTO   C47 4898   6.830  -0.005   3.316 -0.4646  0.2625 -0.1591
   12CHTO   H89 4899   6.830   0.002   3.427 -0.3308 -0.7366 -0.0947
   12CHTO   O33 4900   6.960  -0.044   3.271  0.1312 -0.0950 -0.2943
   12CHTO   H70 4901   7.019   0.023   3.298  0.2177  0.0253 -0.7777
   12CHTO   C45 4902   6.716  -0.121   3.277  0.2594 -0.7843  0.0235
   12CHTO   H87 4903   6.701  -0.121   3.168  2.4718 -0.8505 -0.2977
   12CHTO    N8 4904   6.762  -0.251   3.319  0.2053  0.4343 -0.6305
   12CHTO   H75 4905   6.774  -0.258   3.426 -3.9746 -0.8478 -0.1323
   12CHTO   H76 4906   6.685  -0.323   3.293  1.9573 -1.8027  0.1465
   12CHTO   C43 4907   6.571  -0.075   3.331 -0.1806  0.5262  0.2934
   12CHTO   H85 4908   6.511  -0.149   3.278 -0.0846  1.1368 -0.6888
   12CHTO   O29 4909   6.533   0.059   3.296 -0.2174  0.5117 -1.0152
   12CHTO   C50 4910   6.639   0.162   3.304 -0.2886  0.1030  0.0902
   12CHTO   H92 4911   6.600   0.238   3.236  2.2102  1.7352  0.4020
   12CHTO   C54 4912   6.643   0.236   3.437 -0.0358  0.0300 -0.0736
   12CHTO   O36 4913   6.527   0.313   3.463  0.0188  0.5040 -0.5037
   12CHTO   H72 4914   6.541   0.405   3.449  3.5707  0.0224 -0.3875
   12CHTO   O27 4915   6.565  -0.086   3.476  0.1496 -0.0704 -0.7194
   12CHTO   C37 4916   6.453  -0.090   3.573 -0.3569 -0.4526 -0.4232
   12CHTO   H79 4917   6.488  -0.131   3.669 -0.1064  1.3659  0.2739
   12CHTO   C38 4918   6.391   0.039   3.608  0.3753  0.0366  0.0477
   12CHTO   H80 4919   6.370   0.093   3.515  0.5065 -1.4269 -0.8437
   12CHTO   O31 4920   6.492   0.107   3.698 -0.5794 -0.2876 -0.0197
   12CHTO   H68 4921   6.576   0.105   3.657  0.4190  2.2884  1.7855
   12CHTO   C39 4922   6.258   0.020   3.695  1.2812  0.6759  0.6354
   12CHTO   H81 4923   6.287  -0.025   3.789  0.0248 -2.6129 -0.4782
   12CHTO    N7 4924   6.181   0.146   3.723 -0.2283  0.0172 -0.0875
   12CHTO   H73 4925   6.103   0.118   3.792 -1.2976 -1.9773 -2.0355
   12CHTO   H74 4926   6.235   0.233   3.756  0.3812 -0.5808  0.5170
   12CHTO   C40 4927   6.161  -0.082   3.626  0.2108 -0.2665 -0.4502
   12CHTO   H82 4928   6.122  -0.048   3.530 -0.5984  1.8624  0.5939
   12CHTO   O26 4929   6.240  -0.200   3.609  0.6294 -0.0020 -0.0654
   12CHTO   C41 4930   6.350  -0.198   3.516 -0.3620 -0.5804  0.7090
   12CHTO   H83 4931   6.321  -0.169   3.414 -1.7014  0.2327  1.3037
   12CHTO   C52 4932   6.410  -0.338   3.517 -0.1911  0.8397  0.0125
   12CHTO   O35 4933   6.308  -0.440   3.457 -0.1777  0.3993 -0.5259
   12CHTO   H71 4934   6.354  -0.465   3.379  0.7044 -0.8171  0.3845
   12CHTO   O28 4935   6.050  -0.127   3.707 -0.1475  0.1254  0.4104
   12CHTO   C42 4936   5.932  -0.197   3.657  0.0462 -0.1295 -0.1144
   12CHTO   H84 4937   5.902  -0.250   3.747  1.7870 -0.6602  0.1889
   12CHTO   C44 4938   5.951  -0.303   3.545  0.4196  0.5951 -0.1295
   12CHTO   H86 4939   6.002  -0.253   3.463  2.6170  0.2970  1.0093
   12CHTO   O32 4940   6.033  -0.408   3.591  0.4597 -0.3805 -0.0625
   12CHTO   H69 4941   6.066  -0.450   3.513 -0.9850 -1.8164  0.0801
   12CHTO   C48 4942   5.809  -0.356   3.496 -0.1698  0.2681 -0.7481
   12CHTO   H90 4943   5.771  -0.419   3.576  0.4114 -1.0598 -1.4977
   12CHTO    N9 4944   5.823  -0.449   3.374  0.2708 -0.3250  0.2601
   12CHTO   H77 4945   5.916  -0.502   3.362  0.6237  0.4968 -0.7154
   12CHTO   H78 4946   5.779  -0.416   3.281  0.3040  1.7961  0.9617
   12CHTO   C51 4947   5.697  -0.252   3.491  0.6188 -0.1732 -0.4638
   12CHTO   H93 4948   5.710  -0.202   3.395 -0.6539  0.7007 -0.1849
   12CHTO   O30 4949   5.702  -0.160   3.599 -0.1553 -0.4790 -0.7925
   12CHTO   C46 4950   5.826  -0.102   3.625  1.3039  0.0259  0.1132
   12CHTO   H88 4951   5.850  -0.045   3.535 -1.9859  1.7710  0.2610
   12CHTO   C53 4952   5.812   0.004   3.734  0.2074 -0.4821 -0.0817
   12CHTO   O72 4953   5.747  -0.039   3.852 -0.0108 -0.0629 -0.0167
   12CHTO  H199 4954   5.794  -0.094   3.912 -0.1072  0.4172  0.5100
   12CHTO   O22 4955   5.568  -0.322   3.500  0.7838 -0.0112 -0.0388
   12CHTO   C31 4956   5.438  -0.252   3.478  0.2082 -0.2916  0.0386
   12CHTO   H59 4957   5.359  -0.326   3.503 -1.7462  0.7216 -2.8741
   12CHTO   C29 4958   5.405  -0.118   3.559  0.1501  0.2583 -1.1790
   12CHTO   H57 4959   5.482  -0.045   3.530  0.4475  1.2915  1.9832
   12CHTO   O21 4960   5.427  -0.141   3.702  0.0766  0.1498 -0.2340
   12CHTO   H37 4961   5.443  -0.064   3.753  1.2208  0.7500 -1.4596
   12CHTO   C27 4962   5.261  -0.068   3.527  0.5958 -0.4405  0.4134
   12CHTO   H55 4963   5.187  -0.134   3.576 -2.0104  1.2070 -1.1585
   12CHTO    N5 4964   5.241   0.064   3.583  0.1137  0.3315 -0.1541
   12CHTO   H43 4965   5.266   0.059   3.688  0.5495  0.8571 -0.2309
   12CHTO   H44 4966   5.289   0.139   3.522  0.3335 -1.0952 -1.7943
   12CHTO   C25 4967   5.240  -0.067   3.368  0.3328 -0.2133  0.4264
   12CHTO   H53 4968   5.296   0.018   3.326  0.3134  0.1099  1.0472
   12CHTO   O17 4969   5.278  -0.195   3.298 -0.6140  0.4923  0.1013
   12CHTO   C32 4970   5.415  -0.215   3.325  0.1902  0.3550  0.5950
   12CHTO   H60 4971   5.474  -0.125   3.306  1.6294 -0.9585 -1.3699
   12CHTO   C36 4972   5.474  -0.323   3.224  0.2899 -0.2583 -0.2274
   12CHTO   O25 4973   5.436  -0.457   3.257  0.2865  0.2902  0.7484
   12CHTO   H40 4974   5.504  -0.492   3.312 -0.2607  0.9653  1.8650
   12CHTO   O15 4975   5.108  -0.033   3.334  0.0318  0.6803  0.0611
   12CHTO   C19 4976   4.969   0.002   3.290  0.0145  0.0853 -0.2885
   12CHTO   H47 4977   4.968   0.112   3.290  1.2701  0.1093  0.0561
   12CHTO   C20 4978   4.948  -0.035   3.141  0.5118 -0.2782  0.2884
   12CHTO   H48 4979   4.961  -0.142   3.122  3.0382 -0.0501  0.5147
   12CHTO   O19 4980   5.046   0.049   3.081  0.1672  0.4390  0.1774
   12CHTO   H35 4981   5.132   0.012   3.082  0.3276  0.7649 -1.0070
   12CHTO   C21 4982   4.803   0.010   3.080 -0.4561 -0.7745 -0.5661
   12CHTO   H49 4983   4.799   0.119   3.075 -0.4814 -0.7253  0.5657
   12CHTO    N4 4984   4.777  -0.042   2.941  0.5056  0.5590 -0.1755
   12CHTO   H41 4985   4.744   0.038   2.877 -3.9462 -1.6566 -0.8868
   12CHTO   H42 4986   4.873  -0.077   2.909 -0.7818 -2.3638 -0.9694
   12CHTO   C22 4987   4.698  -0.037   3.183  0.2580 -0.2479 -0.6013
   12CHTO   H50 4988   4.700  -0.146   3.179  1.8899 -0.1962 -1.3187
   12CHTO   O14 4989   4.733   0.017   3.310  0.0350 -0.1174  0.1648
   12CHTO   C23 4990   4.848  -0.051   3.365 -0.2783  0.0365  0.0950
   12CHTO   H51 4991   4.833  -0.159   3.348  1.0385 -0.2013  0.4085
   12CHTO   C34 4992   4.835  -0.031   3.520  0.2911 -0.1512 -0.0514
   12CHTO   O23 4993   4.721  -0.101   3.568  0.1801 -0.4544 -0.4959
   12CHTO   H38 4994   4.732  -0.194   3.576  0.7237 -0.3889 -0.4254
   12CHTO   O16 4995   4.569   0.018   3.174 -0.3333 -0.5745  0.0505
   12CHTO   C24 4996   4.458  -0.069   3.104 -0.7533 -0.4244  0.1164
   12CHTO   H52 4997   4.502  -0.146   3.040 -0.6253 -0.4547  0.2424
   12CHTO   C26 4998   4.376   0.026   3.022 -0.9945  0.5540 -0.3206
   12CHTO   H54 4999   4.343   0.109   3.089 -2.9928  0.0919 -0.6981
   12CHTO   O20 5000   4.465   0.087   2.926  0.2287  0.5120 -0.4333
   12CHTO   H36 5001   4.481   0.025   2.858  1.6056 -1.2380  1.4270
   12CHTO   C30 5002   4.254  -0.037   2.961 -0.5305  0.3814  0.3681
   12CHTO   H58 5003   4.295  -0.100   2.881  0.7058 -0.1458  1.4154
   12CHTO    N6 5004   4.165   0.062   2.893  0.8722  0.2977  0.3812
   12CHTO   H45 5005   4.164   0.025   2.792 -1.8395  0.6970  0.2243
   12CHTO   H46 5006   4.063   0.053   2.925  0.2754  1.9206 -0.9865
   12CHTO   C33 5007   4.175  -0.133   3.064 -0.7843 -0.4866  0.8390
   12CHTO   H61 5008   4.128  -0.069   3.140 -0.1038  2.3167 -1.0325
   12CHTO   O18 5009   4.271  -0.218   3.129  0.0572 -0.0149 -0.4903
   12CHTO   C28 5010   4.365  -0.138   3.205 -0.0619 -0.1270 -0.1810
   12CHTO   H56 5011   4.313  -0.061   3.262 -1.0150 -1.1099  0.2913
   12CHTO   C35 5012   4.440  -0.222   3.312  0.4692 -0.0678  0.7982
   12CHTO   O24 5013   4.348  -0.286   3.404 -0.4103  0.1270  0.6328
   12CHTO   H39 5014   4.271  -0.239   3.429 -1.0196  0.1466 -1.1688
   12CHTO    O9 5015   4.066  -0.208   3.007  0.3073 -0.1237  0.2626
   12CHTO   C13 5016   4.108  -0.367   2.954 -0.0676 -0.8254  0.2535
   12CHTO   H26 5017   4.206  -0.360   2.903 -0.2982 -0.7667 -0.1781
   12CHTO   C11 5018   3.992  -0.409   2.854 -0.5840  0.4156  0.2502
   12CHTO   H24 5019   3.989  -0.343   2.765 -1.8383 -3.0224 -2.3844
   12CHTO    O8 5020   3.866  -0.394   2.922  0.3736  0.0495  0.4122
   12CHTO    H3 5021   3.787  -0.432   2.887  0.2902  0.0572  0.5897
   12CHTO    C9 5022   4.030  -0.550   2.812 -0.3652 -0.3032  1.0844
   12CHTO   H22 5023   4.131  -0.548   2.768 -0.6920  0.5865  0.3514
   12CHTO    N2 5024   3.947  -0.597   2.696 -0.4331  0.6605 -0.1885
   12CHTO   H10 5025   3.846  -0.607   2.732 -0.6891 -0.2859 -1.1510
   12CHTO   H11 5026   3.967  -0.698   2.664 -0.8976 -0.3060  2.5049
   12CHTO    C7 5027   4.027  -0.646   2.932 -0.0783  0.2395  0.1777
   12CHTO   H20 5028   4.066  -0.741   2.890 -1.1869 -0.3592  0.4882
   12CHTO    O4 5029   4.112  -0.605   3.041  0.2835 -0.1616 -0.1162
   12CHTO   C14 5030   4.117  -0.467   3.079  0.0077  0.1893  0.3516
   12CHTO   H27 5031   4.222  -0.458   3.116 -0.2094  1.1736  0.7288
   12CHTO   C18 5032   4.018  -0.439   3.201 -0.8271 -0.1542 -0.0880
   12CHTO   O13 5033   4.064  -0.329   3.279 -0.0275  0.3198  0.0760
   12CHTO    H7 5034   4.049  -0.251   3.229  1.7946  0.4728 -0.2888
   12CHTO    O2 5035   3.872  -0.674   2.992  0.4896  0.1435  1.1034
   12CHTO    C1 5036   3.871  -0.778   3.088 -0.2564  0.3733  0.2028
   12CHTO   H14 5037   3.929  -0.744   3.176  0.4948  0.1715 -0.2093
   12CHTO    C2 5038   3.918  -0.930   3.050 -0.3711 -0.7817  0.2889
   12CHTO   H15 5039   3.892  -0.957   2.946  0.5947 -0.4584 -0.0388
   12CHTO    O6 5040   4.064  -0.930   3.034  0.5962  0.0418  0.0926
   12CHTO    H1 5041   4.093  -0.849   2.995 -1.3472 -0.9891 -3.7485
   12CHTO    C3 5042   3.866  -1.042   3.154  0.6683 -0.8187 -0.4525
   12CHTO   H16 5043   3.932  -1.021   3.240 -2.3169 -0.5880  1.8568
   12CHTO    N1 5044   3.885  -1.182   3.110 -0.2955  0.5274  0.1563
   12CHTO    H8 5045   3.909  -1.251   3.190  0.2374  1.4097  0.7651
   12CHTO    H9 5046   3.800  -1.216   3.052  0.4185  1.1472 -1.2551
   12CHTO    C4 5047   3.719  -1.019   3.206  0.1732 -0.2615 -0.5687
   12CHTO   H17 5048   3.649  -1.053   3.130  0.7236 -1.2123 -0.6670
   12CHTO    O1 5049   3.707  -0.880   3.244  0.3998 -0.6179 -0.7811
   12CHTO    C5 5050   3.727  -0.786   3.139  0.3398 -0.4387 -0.0023
   12CHTO   H18 5051   3.669  -0.817   3.052 -2.2007  2.1944  0.6721
   12CHTO   C16 5052   3.665  -0.645   3.183 -0.3672  0.1954 -0.6458
   12CHTO   O11 5053   3.695  -0.588   3.308 -0.3389 -0.8829 -0.1516
   12CHTO    H5 5054   3.786  -0.569   3.323 -0.3057 -2.5724  1.8819
   12CHTO    O3 5055   3.697  -1.093   3.326  0.1726  0.0924 -0.5405
   12CHTO    C6 5056   3.552  -1.128   3.347  0.1767  0.3011  0.5658
   12CHTO   H19 5057   3.481  -1.079   3.281  1.0907  0.4725 -0.3065
   12CHTO    C8 5058   3.522  -1.282   3.329 -0.3347  0.4782  0.3446
   12CHTO   H21 5059   3.595  -1.334   3.391  0.1527  0.5755 -0.1453
   12CHTO    O7 5060   3.547  -1.320   3.192  0.1219  0.7749 -0.5205
   12CHTO    H2 5061   3.641  -1.327   3.185  0.3734  1.1607  1.8835
   12CHTO   C12 5062   3.374  -1.312   3.374  0.8477 -0.3111 -0.1083
   12CHTO   H25 5063   3.309  -1.266   3.296 -0.2496 -1.6969 -0.0177
   12CHTO    N3 5064   3.350  -1.456   3.357  0.3955 -0.3020  0.3304
   12CHTO   H12 5065   3.442  -1.508   3.336  0.4928 -0.3200  0.7831
   12CHTO   H13 5066   3.300  -1.503   3.441 -0.7166  2.3287  1.2141
   12CHTO   C15 5067   3.337  -1.245   3.511 -0.3164  0.3205 -0.0333
   12CHTO   H28 5068   3.376  -1.298   3.598  0.0751 -1.0415 -1.0121
   12CHTO   O10 5069   3.190  -1.241   3.534 -0.3499  0.5304 -0.6067
   12CHTO    H4 5070   3.157  -1.268   3.618  0.1249  0.5367 -0.4200
   12CHTO    O5 5071   3.381  -1.108   3.522 -0.3977  0.2419 -0.1808
   12CHTO   C10 5072   3.523  -1.085   3.492 -0.2955  0.1075  0.5090
   12CHTO   H23 5073   3.581  -1.144   3.563  1.9415  1.2733 -0.3187
   12CHTO   C17 5074   3.538  -0.939   3.530  0.2226 -0.2181 -0.1991
   12CHTO   O12 5075   3.446  -0.849   3.470 -0.2927 -0.0480 -0.7311
   12CHTO    H6 5076   3.478  -0.764   3.494 -1.1315  0.6552 -2.0476
   13CHTO  H203 5077   6.968   4.870   1.680 -0.6071  0.7267 -0.9519
   13CHTO   O82 5078   7.054   4.873   1.644  0.0122  0.0520  0.4052
   13CHTO  C123 5079   7.105   5.010   1.671 -0.8780  0.1957 -0.2295
   13CHTO  H227 5080   7.206   5.016   1.627 -0.9061  0.3618 -0.2711
   13CHTO   O77 5081   7.015   5.103   1.608  0.3038 -0.1741 -0.6308
   13CHTO  C118 5082   7.028   5.244   1.649  0.2449 -0.4002  1.0049
   13CHTO  H222 5083   7.116   5.288   1.599 -0.7511 -1.4410 -1.7641
   13CHTO  C125 5084   6.897   5.305   1.576  0.1447  0.0864 -0.8787
   13CHTO   O84 5085   6.917   5.448   1.572 -0.0178 -0.0826 -0.4457
   13CHTO  H205 5086   6.951   5.474   1.489 -1.7793 -0.9404 -1.4701
   13CHTO  C114 5087   7.018   5.257   1.802  0.0722 -0.1711  0.0798
   13CHTO  H218 5088   6.921   5.215   1.833 -0.9332 -0.0060 -2.7362
   13CHTO  C116 5089   7.141   5.175   1.864 -0.1864 -0.3705  0.1911
   13CHTO  H220 5090   7.239   5.210   1.825 -1.6700  2.1582 -1.4140
   13CHTO   O79 5091   7.136   5.205   2.007 -0.5372  0.5721 -0.2194
   13CHTO  H201 5092   7.217   5.185   2.049  0.9987  0.5723 -3.0117
   13CHTO  C120 5093   7.114   5.030   1.828  0.2984  0.2869 -0.0680
   13CHTO  H224 5094   7.022   4.998   1.881 -0.1550  0.2870 -0.8572
   13CHTO   N21 5095   7.228   4.947   1.883 -0.3398  0.1165 -0.0743
   13CHTO  H211 5096   7.194   4.847   1.904  2.1113 -0.9430 -0.9153
   13CHTO  H212 5097   7.299   4.932   1.802  0.2506 -3.1425  0.9760
   13CHTO   O75 5098   7.023   5.400   1.825 -0.5399  0.5285  0.9367
   13CHTO  C112 5099   6.901   5.447   1.907 -0.1740  0.3727  0.2800
   13CHTO  H216 5100   6.872   5.375   1.985 -0.6696  1.0619  0.7344
   13CHTO   O73 5101   6.789   5.464   1.816 -0.2474 -0.0145 -0.2730
   13CHTO  C113 5102   6.667   5.500   1.884  0.2473  0.4697 -0.0455
   13CHTO  H217 5103   6.653   5.422   1.962 -0.7778 -0.3944 -1.0729
   13CHTO  C124 5104   6.553   5.493   1.782  0.1394  0.4276 -0.0272
   13CHTO   O83 5105   6.535   5.367   1.731 -0.0135  0.7234 -0.1683
   13CHTO  H204 5106   6.459   5.337   1.777  0.3413  2.0240  1.2817
   13CHTO  C109 5107   6.676   5.639   1.941  0.6374 -0.3363  0.2737
   13CHTO  H213 5108   6.686   5.708   1.857 -0.1021 -1.0678 -0.4186
   13CHTO  C110 5109   6.806   5.650   2.025  0.6149 -0.7579  0.5046
   13CHTO  H214 5110   6.785   5.607   2.123  1.4192 -0.3931  0.8380
   13CHTO   O78 5111   6.820   5.793   2.037  0.0865  0.0720  0.0824
   13CHTO  H200 5112   6.755   5.834   2.092  0.1298 -2.2564  1.9567
   13CHTO  C111 5113   6.934   5.584   1.966  0.2085 -0.3895 -0.7238
   13CHTO  H215 5114   6.970   5.646   1.883 -1.6923 -1.2552 -2.2287
   13CHTO   N19 5115   7.046   5.577   2.065 -0.0289  0.7988  0.0609
   13CHTO  H207 5116   7.091   5.479   2.076 -1.9135  0.0162  1.0806
   13CHTO  H208 5117   7.119   5.648   2.030  0.7185 -0.2761 -0.6011
   13CHTO   O74 5118   6.561   5.671   2.019  0.4349 -0.4497 -0.5164
   13CHTO  C115 5119   6.503   5.819   1.967 -0.1426 -0.4290 -0.2928
   13CHTO  H219 5120   6.582   5.892   1.948  0.3673 -0.5523  1.2733
   13CHTO   O76 5121   6.428   5.810   1.847  0.7060 -0.0484  0.8329
   13CHTO  C122 5122   6.346   5.917   1.796 -1.2027 -0.0992  0.6572
   13CHTO  H226 5123   6.300   5.887   1.702  0.5861 -2.3889  0.4722
   13CHTO  C126 5124   6.426   6.050   1.768 -0.5422  0.2631 -0.1618
   13CHTO   O85 5125   6.351   6.171   1.758 -0.0082 -0.1287 -0.2400
   13CHTO  H206 5126   6.393   6.229   1.697 -1.3264  0.2988 -0.7620
   13CHTO  C121 5127   6.235   5.943   1.905 -0.7302  0.4606  0.1514
   13CHTO  H225 5128   6.171   6.028   1.874 -0.2763  0.9194  0.4577
   13CHTO   O81 5129   6.146   5.834   1.928 -0.1751 -0.0856  0.0667
   13CHTO  H202 5130   6.100   5.800   1.853  1.9328 -2.4539 -0.2254
   13CHTO  C119 5131   6.307   5.987   2.048  0.3008  1.0136 -0.3866
   13CHTO  H223 5132   6.353   6.083   2.026 -1.6500  1.9562 -0.4176
   13CHTO  C117 5133   6.410   5.872   2.087 -0.2984  0.2902  0.4118
   13CHTO  H221 5134   6.355   5.786   2.125 -0.3306 -0.0788 -0.4629
   13CHTO   N20 5135   6.501   5.910   2.200  0.1628 -0.1639 -0.3615
   13CHTO  H209 5136   6.570   5.984   2.165 -1.1485  1.4829  0.4522
   13CHTO  H210 5137   6.443   5.940   2.287 -0.0643  0.7183 -0.8110
   13CHTO   O80 5138   6.200   6.037   2.176 -0.1680 -0.0195 -0.1902
   13CHTO  C103 5139   6.079   6.143   2.156  0.2794 -0.2832  0.0493
   13CHTO  H190 5140   6.065   6.191   2.252  1.2847  1.2328 -0.5418
   13CHTO  C101 5141   6.099   6.255   2.057  0.1452 -0.4064 -0.3805
   13CHTO  H188 5142   6.132   6.205   1.966 -0.0686 -0.4378 -0.4404
   13CHTO   O68 5143   6.204   6.343   2.106  0.0408 -0.5205 -0.5436
   13CHTO  H168 5144   6.237   6.396   2.036 -2.1111  1.3664 -0.1924
   13CHTO   C99 5145   5.973   6.337   2.025 -0.7473  0.2485  0.4521
   13CHTO  H186 5146   5.944   6.410   2.104  2.0558  2.2699 -0.2950
   13CHTO   N17 5147   5.983   6.432   1.909 -0.0587 -0.0155  0.0064
   13CHTO  H174 5148   5.899   6.498   1.895 -0.7470 -0.5707  1.4210
   13CHTO  H175 5149   6.075   6.488   1.913 -0.8746  1.3062  0.2227
   13CHTO   C97 5150   5.850   6.244   2.009 -0.3925  0.5937 -0.6779
   13CHTO  H184 5151   5.853   6.207   1.906 -0.7275  2.6312 -1.4441
   13CHTO   O64 5152   5.834   6.133   2.106 -0.2252  0.3165  0.1105
   13CHTO  C104 5153   5.951   6.051   2.130  0.0729  0.6464  0.6746
   13CHTO  H191 5154   5.967   5.991   2.040 -0.8528  3.0573 -1.1484
   13CHTO  C108 5155   5.920   5.955   2.246  0.1621  0.1337 -0.2008
   13CHTO   O71 5156   5.984   5.830   2.232 -0.3309  0.1997 -0.0793
   13CHTO  H171 5157   5.956   5.774   2.302  1.0091 -0.8079 -0.3261
   13CHTO   O62 5158   5.727   6.318   2.032 -0.3736 -0.0638  0.5792
   13CHTO   C91 5159   5.602   6.259   1.995 -0.5087 -0.5934  0.6212
   13CHTO  H178 5160   5.620   6.155   1.968 -0.2265 -0.2345 -0.5991
   13CHTO   C92 5161   5.541   6.333   1.868  0.3032 -0.0669 -0.0889
   13CHTO  H179 5162   5.525   6.441   1.885 -0.8074 -0.2420  0.0116
   13CHTO   O66 5163   5.639   6.331   1.768 -0.3265  0.3476  0.0138
   13CHTO  H166 5164   5.680   6.416   1.773 -1.6793  1.2506 -2.9334
   13CHTO   C93 5165   5.410   6.266   1.815 -0.0895  0.1568  0.3411
   13CHTO  H180 5166   5.433   6.164   1.780  1.4621  0.9480 -0.9941
   13CHTO   N16 5167   5.344   6.338   1.695 -0.0511  0.2406 -0.1066
   13CHTO  H172 5168   5.408   6.403   1.636  0.1141 -0.1145 -0.3202
   13CHTO  H173 5169   5.251   6.381   1.729 -0.9007 -2.2037  0.7345
   13CHTO   C94 5170   5.304   6.255   1.932 -0.2231  1.1032  0.0675
   13CHTO  H181 5171   5.257   6.351   1.955 -3.0242  0.0556 -1.0977
   13CHTO   O61 5172   5.362   6.194   2.048 -0.2281  0.0411 -0.3401
   13CHTO   C95 5173   5.481   6.256   2.103  0.2503 -0.1880  0.2900
   13CHTO  H182 5174   5.464   6.359   2.136  1.1576 -0.1107  0.5172
   13CHTO  C106 5175   5.530   6.183   2.232  0.1239 -0.3335 -0.3824
   13CHTO   O69 5176   5.424   6.186   2.322  0.3166 -0.1359  0.3806
   13CHTO  H169 5177   5.457   6.216   2.405  0.0872  1.3802 -0.0732
   13CHTO   O63 5178   5.182   6.153   1.885 -0.3056 -0.2429 -0.2094
   13CHTO   C96 5179   5.031   6.184   1.911  0.8242  0.3615 -0.6859
   13CHTO  H183 5180   4.967   6.107   1.868  0.8745  0.7319 -1.4140
   13CHTO   C98 5181   4.969   6.322   1.876 -0.1268 -0.0254  0.0172
   13CHTO  H185 5182   5.033   6.400   1.919  0.6876 -0.6757 -0.0146
   13CHTO   O67 5183   4.973   6.349   1.735 -0.3166  0.4745  0.1552
   13CHTO  H167 5184   4.967   6.440   1.714  0.2993  0.3496 -0.6322
   13CHTO  C102 5185   4.812   6.345   1.923 -0.4418  0.4464 -0.5949
   13CHTO  H189 5186   4.750   6.276   1.865 -1.5042 -1.4286  2.6185
   13CHTO   N18 5187   4.759   6.479   1.893 -0.4063 -0.1975 -0.6018
   13CHTO  H176 5188   4.731   6.504   1.792 -0.4662 -1.1714 -0.8266
   13CHTO  H177 5189   4.669   6.494   1.951 -0.2936 -0.6156 -0.3155
   13CHTO  C105 5190   4.807   6.296   2.074 -0.3654 -0.4149  0.2542
   13CHTO  H192 5191   4.864   6.364   2.139 -0.6468  0.1339 -0.0700
   13CHTO   O65 5192   4.862   6.166   2.093 -0.4118 -0.0804  0.0498
   13CHTO  C100 5193   5.005   6.163   2.060  0.1035  0.1351  0.1130
   13CHTO  H187 5194   5.049   6.246   2.118  0.1026  0.1980  0.0233
   13CHTO  C107 5195   5.047   6.033   2.125  0.5132  0.4113  0.0279
   13CHTO   O70 5196   5.186   6.010   2.115  0.5065 -0.0162 -0.7067
   13CHTO  H170 5197   5.228   6.054   2.187  0.5207 -1.6688  0.3422
   13CHTO   O57 5198   4.648   6.295   2.131  0.0176 -0.5873  0.1162
   13CHTO   C85 5199   4.540   6.221   2.066  0.0058  0.2666  0.0183
   13CHTO  H157 5200   4.589   6.176   1.976  1.4693  0.5494  0.6505
   13CHTO   C83 5201   4.426   6.310   2.010 -0.0057 -0.2302  0.2004
   13CHTO  H155 5202   4.462   6.386   1.940 -0.6691 -0.0765  0.0220
   13CHTO   O56 5203   4.366   6.384   2.117  0.0897 -0.2486 -0.2892
   13CHTO  H135 5204   4.280   6.351   2.133  0.2843 -0.7768 -0.3059
   13CHTO   C81 5205   4.311   6.237   1.930  0.2706 -0.7283 -0.1822
   13CHTO  H153 5206   4.353   6.189   1.842  0.8729 -2.4674  1.0168
   13CHTO   N14 5207   4.207   6.328   1.871 -0.6130  0.3844  0.0784
   13CHTO  H141 5208   4.259   6.405   1.816 -1.1662  1.0465  0.4762
   13CHTO  H142 5209   4.146   6.276   1.800  0.0299 -0.5359  0.1891
   13CHTO   C79 5210   4.248   6.124   2.023 -0.1507 -0.5314 -0.0680
   13CHTO  H151 5211   4.202   6.051   1.957 -0.5907  0.7162 -1.1555
   13CHTO   O52 5212   4.359   6.041   2.081  0.0408 -0.5848  0.5177
   13CHTO   C86 5213   4.467   6.110   2.152 -0.3474 -0.3894  0.2393
   13CHTO  H158 5214   4.413   6.158   2.236 -0.0701  0.4225 -0.0396
   13CHTO   C90 5215   4.556   6.001   2.220 -0.3094 -0.4037  0.0327
   13CHTO   O60 5216   4.625   5.925   2.117  0.3049  0.3500  0.2041
   13CHTO  H138 5217   4.696   5.970   2.075 -0.0843  0.8590  0.0944
   13CHTO   O50 5218   4.164   6.159   2.136  0.5296  0.3413 -0.4193
   13CHTO   C73 5219   4.026   6.140   2.182 -0.0980 -0.4278  0.4051
   13CHTO  H145 5220   3.961   6.089   2.110 -1.0638  2.3568 -0.7408
   13CHTO   C74 5221   3.954   6.283   2.207  0.3241 -0.1966  0.1969
   13CHTO  H146 5222   3.964   6.342   2.115  0.6847  3.4522  2.4343
   13CHTO   O54 5223   3.812   6.251   2.222 -0.2778 -0.0361 -0.1520
   13CHTO  H133 5224   3.791   6.161   2.209 -2.1491  0.4628 -0.7427
   13CHTO   C75 5225   4.018   6.359   2.330 -0.3360  0.3830  0.2712
   13CHTO  H147 5226   4.123   6.380   2.307 -0.0712  0.3928  1.4487
   13CHTO   N13 5227   3.949   6.487   2.350 -0.3034 -0.1227 -0.4634
   13CHTO  H139 5228   3.916   6.552   2.270 -1.8092  1.6880  1.6022
   13CHTO  H140 5229   4.010   6.547   2.417 -0.7562 -1.1633  0.8973
   13CHTO   C76 5230   4.013   6.254   2.453  0.0546  0.2352  0.0986
   13CHTO  H148 5231   3.911   6.217   2.462 -0.3515  0.8380 -1.8449
   13CHTO   O49 5232   4.093   6.132   2.427 -0.5769  0.4267  0.1285
   13CHTO   C77 5233   4.034   6.064   2.317  0.4259  0.0172 -0.3505
   13CHTO  H149 5234   3.934   6.028   2.342  0.7462 -1.7441 -1.5194
   13CHTO   C88 5235   4.107   5.929   2.309 -0.2843  0.5409  0.1394
   13CHTO   O58 5236   4.071   5.844   2.174 -0.5805 -0.1602 -0.1398
   13CHTO  H136 5237   4.143   5.785   2.165 -0.3067 -0.1249  1.6690
   13CHTO   O51 5238   4.080   6.326   2.601 -0.4696 -0.5447  0.0195
   13CHTO   C78 5239   4.252   6.319   2.625 -0.0765  0.4787  0.0783
   13CHTO  H150 5240   4.278   6.380   2.714 -0.9554 -0.1120  0.7573
   13CHTO   C80 5241   4.325   6.375   2.501  0.5031  0.4710 -0.0830
   13CHTO  H152 5242   4.317   6.300   2.419 -1.4264 -0.2047  0.6891
   13CHTO   O55 5243   4.262   6.501   2.470  0.1895  0.6517  0.0212
   13CHTO  H134 5244   4.270   6.566   2.537  2.2146  0.2415  0.2205
   13CHTO   C84 5245   4.479   6.374   2.530 -0.0340 -0.4830 -0.3058
   13CHTO  H156 5246   4.489   6.429   2.623 -0.5166 -2.0245  0.6749
   13CHTO   N15 5247   4.560   6.447   2.431 -0.0595 -0.0152 -0.3577
   13CHTO  H143 5248   4.654   6.404   2.403 -1.2094 -2.2862 -0.7974
   13CHTO  H144 5249   4.561   6.554   2.437 -4.0604 -0.1212  4.4124
   13CHTO   C87 5250   4.527   6.231   2.558 -0.6441 -0.0330 -0.4785
   13CHTO  H159 5251   4.517   6.169   2.469 -0.9080 -2.5319  1.2462
   13CHTO   O53 5252   4.440   6.176   2.679  0.3161  0.0600  0.1808
   13CHTO   C82 5253   4.297   6.174   2.657  0.0528 -0.4840 -0.8698
   13CHTO  H154 5254   4.267   6.100   2.583  0.7117 -0.1049 -1.5279
   13CHTO   C89 5255   4.226   6.135   2.796  0.9191 -0.0127  0.0359
   13CHTO   O59 5256   4.084   6.113   2.786  0.1351  0.2685  0.3068
   13CHTO  H137 5257   4.053   6.146   2.868  0.4085  2.1765 -0.3299
   13CHTO   O45 5258   4.676   6.238   2.604 -0.3686  0.0533 -0.4446
   13CHTO   C67 5259   4.738   6.107   2.619  0.8626 -0.0971  0.8878
   13CHTO  H124 5260   4.674   6.024   2.589  0.0034  0.0479  2.2462
   13CHTO   C65 5261   4.868   6.109   2.532 -0.1041 -0.5412 -0.3464
   13CHTO  H122 5262   4.835   6.157   2.440 -0.5689 -1.5028 -0.6941
   13CHTO   O44 5263   4.917   5.975   2.509 -0.0986 -0.1638 -0.3979
   13CHTO  H102 5264   4.890   5.938   2.427  0.8758 -0.8943 -0.3999
   13CHTO   C63 5265   4.970   6.202   2.608  0.4012  0.0984  0.2853
   13CHTO  H120 5266   4.920   6.299   2.617 -1.6790 -0.9719  0.6187
   13CHTO   N11 5267   5.096   6.232   2.520  0.0656 -0.5931  0.1933
   13CHTO  H108 5268   5.187   6.180   2.540  1.7980  0.9903 -3.3110
   13CHTO  H109 5269   5.111   6.336   2.500  1.6880 -1.0170 -0.8132
   13CHTO   C61 5270   5.009   6.145   2.750  0.3453 -0.4218 -0.2216
   13CHTO  H118 5271   5.071   6.227   2.789  0.5863 -0.5542 -0.3229
   13CHTO   O40 5272   4.885   6.144   2.831 -0.3548  0.2049  0.1659
   13CHTO   C68 5273   4.768   6.069   2.772  0.3914  0.9090 -0.4181
   13CHTO  H125 5274   4.686   6.089   2.844  0.4713  0.3214 -0.1618
   13CHTO   C72 5275   4.797   5.915   2.784  0.3130 -0.8139 -0.2041
   13CHTO   O48 5276   4.688   5.829   2.741  0.0921 -0.1018 -0.0181
   13CHTO  H105 5277   4.706   5.742   2.771 -2.1870 -0.9818 -1.1515
   13CHTO   O38 5278   5.081   6.017   2.757  0.5445  0.0549 -0.0395
   13CHTO   C55 5279   5.186   6.001   2.857  0.2562  0.0622 -0.2064
   13CHTO  H112 5280   5.201   5.893   2.869  0.1985  0.2997  2.2899
   13CHTO   C56 5281   5.144   6.063   3.000  0.3905 -0.6986  1.2722
   13CHTO  H113 5282   5.109   6.167   2.993  1.5684 -0.4308 -1.2082
   13CHTO   O42 5283   5.035   5.989   3.049  0.0807 -0.1805 -0.1185
   13CHTO  H100 5284   5.029   6.003   3.141  0.1622 -1.2004  0.0432
   13CHTO   C57 5285   5.271   6.055   3.096 -0.3057  0.5074  0.1126
   13CHTO  H114 5286   5.284   5.951   3.125 -0.0515  0.3696 -0.4880
   13CHTO   N10 5287   5.245   6.123   3.223 -0.5804  0.3880 -0.1634
   13CHTO  H106 5288   5.164   6.193   3.208  0.5759  1.7849 -0.0643
   13CHTO  H107 5289   5.328   6.185   3.254  0.5588 -0.2639 -1.8431
   13CHTO   C58 5290   5.400   6.109   3.029  0.0730 -0.4677  0.4652
   13CHTO  H115 5291   5.382   6.215   3.001  1.2602  0.3515  2.6865
   13CHTO   O37 5292   5.421   6.039   2.903  0.3396 -0.1638 -0.2283
   13CHTO   C59 5293   5.322   6.046   2.801 -0.0012 -0.5624 -0.6269
   13CHTO  H116 5294   5.317   6.150   2.769 -2.2552  0.8624  3.8606
   13CHTO   C70 5295   5.366   5.948   2.686 -0.4747 -0.2116  0.1875
   13CHTO   O46 5296   5.434   6.010   2.577  0.3704 -0.6440 -0.0424
   13CHTO  H103 5297   5.444   5.950   2.505  2.4372  1.0906 -1.2482
   13CHTO   O39 5298   5.521   6.087   3.106  0.0099 -0.0016 -0.3881
   13CHTO   C60 5299   5.612   6.196   3.096 -0.0617 -0.0381 -0.5513
   13CHTO  H117 5300   5.589   6.258   3.009  0.7868 -0.2686 -0.9466
   13CHTO   C62 5301   5.608   6.281   3.221  0.5118  0.1724 -0.5484
   13CHTO  H119 5302   5.503   6.318   3.231  0.2585 -0.2490 -1.5973
   13CHTO   O43 5303   5.644   6.212   3.341 -0.1332  0.2977  0.1114
   13CHTO  H101 5304   5.572   6.201   3.401  1.3053  0.2315  1.8793
   13CHTO   C66 5305   5.692   6.418   3.192 -0.3824 -0.1795 -0.5005
   13CHTO  H123 5306   5.646   6.460   3.102 -2.5278 -0.3474  0.4898
   13CHTO   N12 5307   5.672   6.524   3.298 -0.6381 -0.0527 -0.2814
   13CHTO  H110 5308   5.579   6.511   3.352 -0.6840  0.2774 -0.2770
   13CHTO  H111 5309   5.676   6.627   3.265  2.5124 -0.2825 -0.7416
   13CHTO   C69 5310   5.839   6.391   3.163  0.2001  0.0615 -0.2536
   13CHTO  H126 5311   5.884   6.352   3.258  1.0906  0.7291 -0.3986
   13CHTO   O41 5312   5.857   6.283   3.045 -0.0420 -0.3763  0.1279
   13CHTO   C64 5313   5.752   6.147   3.076  0.3825 -0.5075  0.0054
   13CHTO  H121 5314   5.794   6.105   3.170 -0.4710  1.5853  1.3422
   13CHTO   C71 5315   5.759   6.049   2.954  0.3022  0.2662  0.4378
   13CHTO   O47 5316   5.889   5.991   2.954  0.1902  0.0887  0.3209
   13CHTO  H104 5317   5.912   5.956   3.038  1.1894  1.4333  0.6228
   13CHTO   O34 5318   5.912   6.522   3.129  0.2967 -0.1784 -0.0449
   13CHTO   C49 5319   6.073   6.508   3.117 -0.5619  0.0556 -0.4023
   13CHTO   H91 5320   6.090   6.400   3.108 -1.2955 -0.0680 -0.3649
   13CHTO   C47 5321   6.135   6.552   3.253 -0.2850 -0.5029  0.5233
   13CHTO   H89 5322   6.237   6.509   3.247 -1.6017 -3.5601 -1.0021
   13CHTO   O33 5323   6.069   6.495   3.361 -0.2737 -0.0925  0.6605
   13CHTO   H70 5324   6.078   6.402   3.375  1.1563  0.3229  2.7648
   13CHTO   C45 5325   6.129   6.716   3.273  0.4526 -0.3087  0.1059
   13CHTO   H87 5326   6.048   6.740   3.344 -2.3394  0.0980 -3.0811
   13CHTO    N8 5327   6.256   6.772   3.328 -0.4359 -0.0421 -1.0160
   13CHTO   H75 5328   6.271   6.872   3.292  2.4457 -0.4870 -1.1743
   13CHTO   H76 5329   6.250   6.765   3.436 -0.2854  0.4048 -0.9769
   13CHTO   C43 5330   6.077   6.787   3.138  0.2578 -0.3026  0.1215
   13CHTO   H85 5331   5.970   6.767   3.134  0.1919 -0.5502  2.4524
   13CHTO   O29 5332   6.146   6.740   3.024  0.2373  0.2620  0.0494
   13CHTO   C50 5333   6.144   6.598   3.003  0.1946 -0.3428  0.3185
   13CHTO   H92 5334   6.090   6.570   2.911 -1.5348  0.0291  1.2044
   13CHTO   C54 5335   6.290   6.552   2.985  0.4107  0.1133 -0.3931
   13CHTO   O36 5336   6.350   6.611   2.868  0.1046 -0.3331  0.0155
   13CHTO   H72 5337   6.443   6.598   2.872  0.1873  0.1165 -0.5470
   13CHTO   O27 5338   6.089   6.933   3.144  0.1443 -0.6541  0.0567
   13CHTO   C37 5339   5.968   7.016   3.167  0.5793 -0.5763  0.0635
   13CHTO   H79 5340   5.895   6.961   3.106  0.7647  2.7059 -3.2478
   13CHTO   C38 5341   5.913   7.036   3.312  0.5014  0.0214  0.1744
   13CHTO   H80 5342   6.000   7.067   3.373  0.1404 -0.2526  0.8310
   13CHTO   O31 5343   5.857   6.914   3.351  0.1565  0.7978  0.1539
   13CHTO   H68 5344   5.921   6.845   3.341 -1.1301 -0.3441 -0.4325
   13CHTO   C39 5345   5.799   7.152   3.317  0.5543  0.1804  0.0211
   13CHTO   H81 5346   5.714   7.122   3.257  0.1221 -1.1388  1.2528
   13CHTO    N7 5347   5.752   7.179   3.457  0.2522 -0.0348  0.7852
   13CHTO   H73 5348   5.745   7.283   3.485 -0.0010 -0.3434  1.8994
   13CHTO   H74 5349   5.673   7.111   3.486 -0.3277 -0.2396 -1.1654
   13CHTO   C40 5350   5.862   7.285   3.251  0.1722  0.3843  0.0206
   13CHTO   H82 5351   5.954   7.312   3.303 -0.0316  2.1592 -0.5197
   13CHTO   O26 5352   5.886   7.250   3.116 -0.1466  0.0080 -0.0582
   13CHTO   C41 5353   5.998   7.158   3.103  0.3949  0.2632  0.5369
   13CHTO   H83 5354   6.096   7.190   3.143  2.4595 -2.1826 -2.2888
   13CHTO   C52 5355   6.024   7.151   2.948 -0.4605  0.5605 -0.1016
   13CHTO   O35 5356   6.053   7.252   2.896 -0.3272 -0.7152  0.7117
   13CHTO   H71 5357   6.127   7.235   2.841 -1.1656 -0.2410 -0.5866
   13CHTO   O28 5358   5.763   7.395   3.248 -0.4973  0.6327  0.2476
   13CHTO   C42 5359   5.802   7.515   3.175  0.7716  0.5235 -0.2552
   13CHTO   H84 5360   5.885   7.491   3.109  0.6021  0.4535 -0.4453
   13CHTO   C44 5361   5.850   7.624   3.272 -1.1759  0.1496 -0.1062
   13CHTO   H86 5362   5.789   7.630   3.363  1.3212  0.7653  1.5897
   13CHTO   O32 5363   5.978   7.580   3.320  0.1810  0.4528 -0.0138
   13CHTO   H69 5364   6.020   7.643   3.377  1.8260 -2.7680  2.5337
   13CHTO   C48 5365   5.870   7.767   3.213  0.1325 -0.0742  0.8041
   13CHTO   H90 5366   5.950   7.763   3.139 -1.9126  0.4007 -1.5276
   13CHTO    N9 5367   5.919   7.871   3.314 -0.6591  0.4303  0.1959
   13CHTO   H77 5368   5.976   7.951   3.269 -0.3101 -0.0072 -0.1487
   13CHTO   H78 5369   5.961   7.831   3.405 -1.3857  1.8530  1.1685
   13CHTO   C51 5370   5.740   7.808   3.133  0.1615  0.1275  0.7645
   13CHTO   H93 5371   5.663   7.828   3.207  0.8989 -1.1374  1.8912
   13CHTO   O30 5372   5.706   7.703   3.043  0.4370  0.0531  0.2570
   13CHTO   C46 5373   5.676   7.561   3.094 -0.0988 -0.1311 -0.4272
   13CHTO   H88 5374   5.587   7.566   3.157  0.2180  0.7545 -0.0425
   13CHTO   C53 5375   5.637   7.478   2.976  0.3212  0.9966  0.6916
   13CHTO   O72 5376   5.758   7.438   2.910  0.5020 -0.0953 -0.3154
   13CHTO  H199 5377   5.764   7.475   2.824 -1.2884 -1.3556 -1.0053
   13CHTO   O22 5378   5.762   7.924   3.054  0.1408  0.0977 -0.2566
   13CHTO   C31 5379   5.654   8.013   3.015  0.0881  0.2041 -0.5050
   13CHTO   H59 5380   5.697   8.087   2.944 -0.8259  1.0356 -0.2112
   13CHTO   C29 5381   5.539   7.938   2.945  0.2109 -0.0769  0.4077
   13CHTO   H57 5382   5.515   7.850   3.005  0.6571  1.4653  2.9282
   13CHTO   O21 5383   5.601   7.890   2.826  0.0768  0.3447 -0.1992
   13CHTO   H37 5384   5.586   7.798   2.821 -1.6576  0.4494  2.3403
   13CHTO   C27 5385   5.405   8.020   2.927 -0.0974 -0.0554  0.4824
   13CHTO   H55 5386   5.428   8.102   2.857 -0.0786 -1.3825 -1.0896
   13CHTO    N5 5387   5.299   7.935   2.866  0.2354 -0.7135 -0.6507
   13CHTO   H43 5388   5.224   7.994   2.815 -0.4320 -0.7715  0.2557
   13CHTO   H44 5389   5.250   7.873   2.939 -0.0069 -0.4789 -0.6125
   13CHTO   C25 5390   5.367   8.077   3.068 -0.1747 -0.1089 -0.1721
   13CHTO   H53 5391   5.345   7.997   3.140 -2.6324  0.5957 -0.0794
   13CHTO   O17 5392   5.476   8.162   3.121 -0.1214  0.1931 -0.2378
   13CHTO   C32 5393   5.602   8.095   3.142 -0.9976  0.3252  0.1374
   13CHTO   H60 5394   5.590   8.029   3.227  0.3726 -0.0137  0.0804
   13CHTO   C36 5395   5.705   8.203   3.182 -0.3953 -0.3642 -0.2503
   13CHTO   O25 5396   5.666   8.288   3.298 -0.7743 -0.1518  0.0399
   13CHTO   H40 5397   5.620   8.362   3.262 -1.5203  0.1458  1.5857
   13CHTO   O15 5398   5.241   8.160   3.068 -0.3637 -0.1043  0.1556
   13CHTO   C19 5399   5.148   8.266   3.035 -0.5512 -0.1393  0.1455
   13CHTO   H47 5400   5.122   8.309   3.133 -0.4599  0.5925 -0.1458
   13CHTO   C20 5401   5.204   8.376   2.939 -0.5972  0.0699  0.8132
   13CHTO   H48 5402   5.245   8.334   2.846 -1.5328 -2.2313  1.4182
   13CHTO   O19 5403   5.314   8.437   3.009  0.0745  0.3395  0.3387
   13CHTO   H35 5404   5.388   8.386   3.034 -0.5527 -0.6431  0.2449
   13CHTO   C21 5405   5.099   8.481   2.899  0.7781 -0.2663 -0.4939
   13CHTO   H49 5406   5.066   8.532   2.989 -3.8744 -1.4552 -1.4210
   13CHTO    N4 5407   5.145   8.586   2.807  0.2611  1.0920  0.5564
   13CHTO   H41 5408   5.209   8.551   2.727 -0.8283 -3.6716  1.6350
   13CHTO   H42 5409   5.195   8.664   2.863 -1.7450  0.6869  2.9606
   13CHTO   C22 5410   4.969   8.411   2.854 -0.2727  0.2151 -0.8653
   13CHTO   H50 5411   4.965   8.376   2.750  0.1537 -1.3635 -0.3675
   13CHTO   O14 5412   4.927   8.311   2.953  0.3389  0.1822 -0.3514
   13CHTO   C23 5413   5.019   8.207   2.978 -0.2482 -0.2571  0.1392
   13CHTO   H51 5414   5.041   8.144   2.891  0.1560  1.7899 -1.2646
   13CHTO   C34 5415   4.951   8.119   3.088  0.1423 -0.3515 -0.6407
   13CHTO   O23 5416   5.013   7.993   3.111 -0.1222 -0.2411 -0.4036
   13CHTO   H38 5417   4.985   7.983   3.200  0.8764 -1.5362 -0.2175
   13CHTO   O16 5418   4.862   8.507   2.852 -0.1787 -0.7364 -0.5230
   13CHTO   C24 5419   4.704   8.451   2.861  0.5433  0.5516  0.3414
   13CHTO   H52 5420   4.698   8.361   2.923  0.5254 -0.8711 -1.6752
   13CHTO   C26 5421   4.647   8.422   2.719  0.2007  0.0809 -0.3307
   13CHTO   H54 5422   4.656   8.512   2.655  2.3709  0.2336  0.1380
   13CHTO   O20 5423   4.726   8.321   2.650  0.1999 -0.0646  0.2227
   13CHTO   H36 5424   4.811   8.357   2.631 -0.7954  2.3173  0.1049
   13CHTO   C30 5425   4.500   8.376   2.735 -0.7103 -0.0823 -0.3754
   13CHTO   H58 5426   4.488   8.286   2.797  0.5036  0.1084  0.1420
   13CHTO    N6 5427   4.436   8.351   2.605  0.2750  0.2027  0.0393
   13CHTO   H45 5428   4.341   8.305   2.628  0.9157 -2.0416 -1.5647
   13CHTO   H46 5429   4.417   8.441   2.548 -1.1525 -0.0014  0.1846
   13CHTO   C33 5430   4.420   8.490   2.810 -0.6672  0.0487  0.1580
   13CHTO   H61 5431   4.431   8.583   2.752 -1.2659  0.3330  0.4985
   13CHTO   O18 5432   4.482   8.510   2.937 -0.1424  0.4826 -0.3003
   13CHTO   C28 5433   4.616   8.556   2.928  0.0515 -0.2179  0.1004
   13CHTO   H56 5434   4.625   8.650   2.873  0.2167  1.6886  3.2375
   13CHTO   C35 5435   4.653   8.584   3.073  0.0361  0.1414  0.2581
   13CHTO   O24 5436   4.576   8.696   3.116  0.2593 -0.2624  0.4225
   13CHTO   H39 5437   4.496   8.663   3.154 -0.5865  0.7956 -0.3963
   13CHTO    O9 5438   4.277   8.469   2.826  0.1373 -0.5364 -0.2846
   13CHTO   C13 5439   4.235   8.368   2.911 -0.2544  0.2985 -0.0980
   13CHTO   H26 5440   4.321   8.298   2.923 -0.4057  0.3490  1.2457
   13CHTO   C11 5441   4.106   8.293   2.854  0.6382 -0.3722 -0.5071
   13CHTO   H24 5442   4.131   8.260   2.753 -1.4970 -0.6869 -0.9583
   13CHTO    O8 5443   3.998   8.388   2.841 -0.3637  0.1993  0.4848
   13CHTO    H3 5444   3.946   8.397   2.919 -0.2219  0.5369  0.5413
   13CHTO    C9 5445   4.074   8.172   2.948 -0.0308 -0.4162  0.0075
   13CHTO   H22 5446   4.167   8.112   2.944  1.7078  1.9821  2.0592
   13CHTO    N2 5447   3.973   8.091   2.890  0.2582  0.4678 -0.1127
   13CHTO   H10 5448   3.974   8.116   2.785  1.5993 -1.2529 -0.5238
   13CHTO   H11 5449   3.872   8.111   2.923 -0.3930  1.3376 -2.5208
   13CHTO    C7 5450   4.040   8.220   3.094 -0.3211  1.0086  0.1102
   13CHTO   H20 5451   4.104   8.152   3.154 -0.9045 -1.5740 -2.0393
   13CHTO    O4 5452   4.071   8.357   3.109 -0.4118 -0.2991  0.0224
   13CHTO   C14 5453   4.193   8.414   3.060 -0.1379 -0.4841  0.4843
   13CHTO   H27 5454   4.270   8.379   3.131  0.1238  0.1056  0.4958
   13CHTO   C18 5455   4.178   8.563   3.077  0.9003 -0.4298 -0.0949
   13CHTO   O13 5456   4.171   8.593   3.213  0.0655  0.2138 -0.6333
   13CHTO    H7 5457   4.176   8.686   3.224 -1.0246  0.0713  1.2102
   13CHTO    O2 5458   3.877   8.187   3.156  0.0052 -0.4838 -0.0613
   13CHTO    C1 5459   3.878   8.192   3.299  0.0040  0.1937 -0.4855
   13CHTO   H14 5460   3.965   8.247   3.342  0.4576  0.0357 -1.1923
   13CHTO    C2 5461   3.872   8.049   3.359  0.2793 -0.5630  0.3620
   13CHTO   H15 5462   3.778   8.003   3.326  0.3829 -0.3055 -0.2841
   13CHTO    O6 5463   3.976   7.969   3.300  0.1228  0.5024 -0.1323
   13CHTO    H1 5464   4.058   8.015   3.295  1.1385 -1.1793  0.5352
   13CHTO    C3 5465   3.873   8.056   3.521 -0.1620  0.1223  0.4241
   13CHTO   H16 5466   3.972   8.083   3.562 -0.4214 -2.9921  3.3530
   13CHTO    N1 5467   3.841   7.916   3.578  0.0298 -0.0973 -0.2565
   13CHTO    H8 5468   3.925   7.851   3.567  0.3632  0.2736  0.1107
   13CHTO    H9 5469   3.741   7.876   3.564  0.9210 -3.3132  2.1874
   13CHTO    C4 5470   3.767   8.164   3.575 -1.0937 -0.4369 -0.2819
   13CHTO   H17 5471   3.664   8.127   3.573 -1.4335  0.5216 -0.9277
   13CHTO    O1 5472   3.767   8.286   3.498 -0.0905  0.4212  0.1277
   13CHTO    C5 5473   3.757   8.272   3.356  0.1370 -1.0951  0.3223
   13CHTO   H18 5474   3.665   8.218   3.334 -1.1194  0.7123  1.0646
   13CHTO   C16 5475   3.743   8.426   3.305  0.3543  0.1740  0.0131
   13CHTO   O11 5476   3.868   8.493   3.343 -0.6403  0.4514  0.0873
   13CHTO    H5 5477   3.843   8.581   3.365 -2.8701 -0.5258  1.7778
   13CHTO    O3 5478   3.794   8.214   3.709  0.2294 -0.4700  0.3038
   13CHTO    C6 5479   3.680   8.268   3.780 -0.1960 -0.5899  0.1525
   13CHTO   H19 5480   3.600   8.291   3.710  2.4056 -1.9125 -3.4747
   13CHTO    C8 5481   3.645   8.160   3.888  0.3043 -0.1421  0.6664
   13CHTO   H21 5482   3.738   8.136   3.939  0.3641  1.7746  1.4953
   13CHTO    O7 5483   3.586   8.047   3.821 -0.0092  0.2509  0.3175
   13CHTO    H2 5484   3.546   7.990   3.884  0.6973 -0.5148  0.0756
   13CHTO   C12 5485   3.544   8.220   4.002  0.7221  0.3258  0.5677
   13CHTO   H25 5486   3.441   8.224   3.961  0.2272 -0.8682  1.6592
   13CHTO    N3 5487   3.541   8.122   4.115  0.8570 -0.1935  0.0034
   13CHTO   H12 5488   3.636   8.116   4.165  1.5720 -1.1945 -1.4502
   13CHTO   H13 5489   3.517   8.027   4.070 -0.5775  0.5149 -0.7939
   13CHTO   C15 5490   3.588   8.359   4.045 -0.1466  0.2158  0.7870
   13CHTO   H28 5491   3.669   8.352   4.119  0.0543  1.0002  0.6481
   13CHTO   O10 5492   3.474   8.432   4.107  0.1589  0.4882 -0.0188
   13CHTO    H4 5493   3.480   8.417   4.199 -0.2887 -0.0111 -0.0648
   13CHTO    O5 5494   3.622   8.444   3.934 -0.1365  0.1248  0.2927
   13CHTO   C10 5495   3.720   8.394   3.849  0.0051 -0.1351  0.5714
   13CHTO   H23 5496   3.798   8.357   3.916 -0.7034 -1.6533  0.5763
   13CHTO   C17 5497   3.779   8.505   3.756  0.4418  0.6889 -0.3470
   13CHTO   O12 5498   3.679   8.550   3.665 -0.1053 -0.7243  0.4435
   13CHTO    H6 5499   3.693   8.640   3.645  0.6219 -0.9240  0.0382
   14CHTO  H203 5500   5.983   5.506   0.119  1.2945  0.2474  0.7449
   14CHTO   O82 5501   5.942   5.440   0.066 -0.0252  1.0934  0.6931
   14CHTO  C123 5502   5.892   5.493  -0.059 -0.4542 -0.2187  0.1956
   14CHTO  H227 5503   5.975   5.516  -0.127 -0.0817  1.4378  1.1704
   14CHTO   O77 5504   5.813   5.391  -0.129 -0.0201  0.1505  0.1087
   14CHTO  C118 5505   5.750   5.423  -0.248  0.2316 -0.0969  0.6964
   14CHTO  H222 5506   5.818   5.462  -0.325 -0.8501 -1.2660 -0.8930
   14CHTO  C125 5507   5.684   5.288  -0.306 -0.5119  0.0692 -0.3324
   14CHTO   O84 5508   5.777   5.208  -0.381  0.0303  0.0741 -0.6233
   14CHTO  H205 5509   5.754   5.118  -0.369  1.0379 -0.0540  0.5152
   14CHTO  C114 5510   5.647   5.528  -0.205  0.4891  0.3926 -0.1053
   14CHTO  H218 5511   5.579   5.480  -0.135  2.4355  0.3156  1.7743
   14CHTO  C116 5512   5.706   5.657  -0.149  0.1352  0.4418  0.1029
   14CHTO  H220 5513   5.770   5.705  -0.226  0.6955  0.3920  0.5374
   14CHTO   O79 5514   5.607   5.756  -0.109  0.7214  0.2902 -0.1678
   14CHTO  H201 5515   5.598   5.753  -0.016  0.7568  2.7240 -0.0316
   14CHTO  C120 5516   5.808   5.619  -0.031 -0.1396 -0.1733 -0.1517
   14CHTO  H224 5517   5.749   5.605   0.063 -0.4158  1.9109  0.0099
   14CHTO   N21 5518   5.900   5.731  -0.005  0.0357 -0.0122  0.0772
   14CHTO  H211 5519   5.846   5.823  -0.020 -2.2996 -1.3577 -0.1188
   14CHTO  H212 5520   5.934   5.731   0.098 -0.2396  0.1096  0.1710
   14CHTO   O75 5521   5.580   5.556  -0.332  0.0702 -0.0168 -0.9874
   14CHTO  C112 5522   5.414   5.577  -0.306  0.3007 -0.0450  0.0145
   14CHTO  H216 5523   5.407   5.628  -0.209  2.4216  0.5170 -0.1083
   14CHTO   O73 5524   5.360   5.442  -0.307  0.3626 -0.4035  0.0940
   14CHTO  C113 5525   5.217   5.430  -0.310 -0.6232  1.0432 -0.2213
   14CHTO  H217 5526   5.165   5.456  -0.216 -3.0825 -2.1089 -0.6063
   14CHTO  C124 5527   5.184   5.278  -0.339 -0.3462 -0.2516  0.0001
   14CHTO   O83 5528   5.229   5.197  -0.228  0.1497  0.1641 -0.1730
   14CHTO  H204 5529   5.319   5.220  -0.225  0.0716  0.2820  1.6613
   14CHTO  C109 5530   5.156   5.512  -0.419  0.4675  0.5808  0.5262
   14CHTO  H213 5531   5.187   5.466  -0.514  0.4527  1.3540  0.1440
   14CHTO  C110 5532   5.201   5.662  -0.409  0.3573  0.9444 -0.0176
   14CHTO  H214 5533   5.168   5.705  -0.314 -3.2541 -1.4501 -0.0687
   14CHTO   O78 5534   5.133   5.740  -0.506 -0.5602  0.4821 -0.2042
   14CHTO  H200 5535   5.177   5.738  -0.589 -0.1390  1.0766  0.0016
   14CHTO  C111 5536   5.356   5.663  -0.424 -0.0720 -0.1834 -0.4613
   14CHTO  H215 5537   5.377   5.615  -0.521 -1.1568 -2.1980  0.2728
   14CHTO   N19 5538   5.412   5.801  -0.434 -0.4713 -0.2113 -0.1185
   14CHTO  H207 5539   5.373   5.864  -0.357  1.6053  1.7156 -0.5830
   14CHTO  H208 5540   5.373   5.828  -0.531 -0.0542  2.6910  0.4971
   14CHTO   O74 5541   5.006   5.516  -0.414  0.2938  0.1376 -0.4678
   14CHTO  C115 5542   4.936   5.475  -0.536 -0.4091 -0.0938 -0.4333
   14CHTO  H219 5543   5.010   5.457  -0.614  0.7752 -2.7682  1.2222
   14CHTO   O76 5544   4.863   5.322  -0.517 -0.1988  0.0144  0.3358
   14CHTO  C122 5545   4.754   5.341  -0.429 -0.0921  0.0580  0.4713
   14CHTO  H226 5546   4.807   5.374  -0.339  1.9124 -0.6863 -0.4000
   14CHTO  C126 5547   4.684   5.204  -0.389  0.1816  0.3014  0.9355
   14CHTO   O85 5548   4.776   5.101  -0.333 -0.2821 -0.2914 -0.2164
   14CHTO  H206 5549   4.829   5.052  -0.393  0.9411  1.5678 -0.7115
   14CHTO  C121 5550   4.652   5.451  -0.477  0.5549  0.4746  0.6096
   14CHTO  H225 5551   4.562   5.390  -0.499  1.9721 -1.0568 -1.0553
   14CHTO   O81 5552   4.638   5.540  -0.366 -0.0171  0.4729 -0.1813
   14CHTO  H202 5553   4.547   5.546  -0.344 -0.5593  0.8245 -2.3995
   14CHTO  C119 5554   4.685   5.529  -0.601 -0.5415  0.2848  0.3217
   14CHTO  H223 5555   4.688   5.452  -0.678 -0.7998  0.4994  0.0985
   14CHTO  C117 5556   4.832   5.588  -0.586  0.1557  0.3873 -1.0611
   14CHTO  H221 5557   4.838   5.659  -0.504 -0.2722 -0.6644 -0.1002
   14CHTO   N20 5558   4.870   5.666  -0.703  0.2271 -0.2286 -0.0358
   14CHTO  H209 5559   4.794   5.678  -0.779  1.0087  0.3679 -0.7351
   14CHTO  H210 5560   4.968   5.656  -0.748 -0.4444  0.2631 -1.6437
   14CHTO   O80 5561   4.554   5.623  -0.651  0.0167  0.4102  0.1909
   14CHTO  C103 5562   4.457   5.569  -0.772 -0.9847  0.1621 -0.6386
   14CHTO  H190 5563   4.513   5.542  -0.862  1.4465 -0.3066  0.9751
   14CHTO  C101 5564   4.381   5.435  -0.747  0.0580 -0.1095 -0.6787
   14CHTO  H188 5565   4.356   5.431  -0.641  2.2354 -0.9045 -0.1704
   14CHTO   O68 5566   4.507   5.319  -0.765  0.5804 -0.3773  0.2427
   14CHTO  H168 5567   4.569   5.333  -0.696 -1.4352 -0.9590  2.2457
   14CHTO   C99 5568   4.248   5.407  -0.831 -0.3800  0.0038 -0.2095
   14CHTO  H186 5569   4.286   5.379  -0.932  1.5300  1.0380  0.1770
   14CHTO   N17 5570   4.167   5.294  -0.779  0.1887 -0.3891  0.1133
   14CHTO  H174 5571   4.199   5.209  -0.837  2.3804 -0.3373  1.1863
   14CHTO  H175 5572   4.064   5.323  -0.788 -0.2635 -1.7065  0.8899
   14CHTO   C97 5573   4.164   5.538  -0.853 -1.0127  0.0117  0.0968
   14CHTO  H184 5574   4.117   5.562  -0.756 -1.2018  0.8079 -0.1878
   14CHTO   O64 5575   4.253   5.646  -0.893  0.0560 -0.0542  0.7223
   14CHTO  C104 5576   4.354   5.689  -0.802  0.2480 -0.1784  0.5277
   14CHTO  H191 5577   4.316   5.731  -0.709  1.9015  0.6577  0.8491
   14CHTO  C108 5578   4.419   5.806  -0.877 -0.4459  0.2880 -0.2550
   14CHTO   O71 5579   4.480   5.763  -0.998  0.3802 -0.0242 -0.4824
   14CHTO  H171 5580   4.470   5.824  -1.068 -1.2201 -0.7065 -0.8753
   14CHTO   O62 5581   4.055   5.521  -0.950 -0.1740  0.3987  0.6520
   14CHTO   C91 5582   3.920   5.504  -0.904  0.0315 -0.8210  0.4667
   14CHTO  H178 5583   3.912   5.405  -0.859  0.7823 -1.2778 -0.3784
   14CHTO   C92 5584   3.829   5.504  -1.035  0.4696 -0.6454  0.3492
   14CHTO  H179 5585   3.858   5.425  -1.107 -1.1006  0.2500 -1.2792
   14CHTO   O66 5586   3.696   5.460  -1.002 -0.1319  0.2107 -0.9408
   14CHTO  H166 5587   3.644   5.441  -1.078 -0.5782 -1.2469 -0.3106
   14CHTO   C93 5588   3.819   5.653  -1.097 -0.1048 -0.3348  0.1894
   14CHTO  H180 5589   3.727   5.648  -1.157 -0.0265  3.3992 -0.3410
   14CHTO   N16 5590   3.922   5.681  -1.203 -0.4596 -0.0550  0.1304
   14CHTO  H172 5591   3.964   5.779  -1.187  1.5982 -0.8824  0.0000
   14CHTO  H173 5592   3.996   5.605  -1.224 -0.8932 -0.5562  0.4028
   14CHTO   C94 5593   3.806   5.766  -0.974  0.1674 -0.7343 -0.3930
   14CHTO  H181 5594   3.900   5.819  -0.956 -0.4552  0.4184 -0.4850
   14CHTO   O61 5595   3.760   5.701  -0.858 -0.5015  0.5433 -0.1946
   14CHTO   C95 5596   3.874   5.626  -0.802  0.9187  0.3841  0.0895
   14CHTO  H182 5597   3.957   5.695  -0.788  1.2406  0.0988 -0.4385
   14CHTO  C106 5598   3.834   5.575  -0.663  0.1791 -0.3806  0.1190
   14CHTO   O69 5599   3.731   5.480  -0.669  0.0603  0.0826  0.0826
   14CHTO  H169 5600   3.735   5.421  -0.597 -1.0006 -0.4914 -0.3157
   14CHTO   O63 5601   3.691   5.873  -1.009 -0.1831 -0.1475 -0.1034
   14CHTO   C96 5602   3.706   6.018  -0.921 -0.0249 -0.1339  0.3684
   14CHTO  H183 5603   3.781   6.001  -0.844  1.6389  0.4842 -1.0722
   14CHTO   C98 5604   3.571   6.065  -0.861 -0.1687 -0.5863 -0.2185
   14CHTO  H185 5605   3.492   6.060  -0.937  2.0118 -1.2832 -2.4776
   14CHTO   O67 5606   3.537   5.960  -0.773 -0.3024  1.0984 -0.6306
   14CHTO  H167 5607   3.575   5.981  -0.689 -0.1543 -0.3285 -0.3293
   14CHTO  C102 5608   3.579   6.211  -0.789  0.1126  0.0784 -0.4638
   14CHTO  H189 5609   3.640   6.196  -0.699 -0.7275  1.2092  0.3056
   14CHTO   N18 5610   3.443   6.263  -0.743 -0.2563  0.3773 -0.2838
   14CHTO  H176 5611   3.402   6.328  -0.819 -3.7655 -1.3870 -0.0109
   14CHTO  H177 5612   3.383   6.174  -0.744 -1.6926  1.3132  1.1258
   14CHTO  C105 5613   3.661   6.304  -0.877 -0.4748  0.2558  0.2295
   14CHTO  H192 5614   3.597   6.339  -0.958  1.4186 -2.6452 -2.6232
   14CHTO   O65 5615   3.784   6.251  -0.939 -0.0030  0.0968  0.3840
   14CHTO  C100 5616   3.771   6.126  -1.009 -0.4212  0.0571  0.9075
   14CHTO  H187 5617   3.710   6.150  -1.098 -0.3201  1.7564  1.2793
   14CHTO  C107 5618   3.915   6.089  -1.069 -0.2064  0.5327 -0.6116
   14CHTO   O70 5619   4.009   6.069  -0.972  0.1171 -0.7923 -0.1154
   14CHTO  H170 5620   4.048   6.151  -0.946 -1.8367  0.9253 -2.3765
   14CHTO   O57 5621   3.688   6.432  -0.772  0.3751  0.1303  0.2573
   14CHTO   C85 5622   3.683   6.565  -0.820  0.0005  0.0196  0.6980
   14CHTO  H157 5623   3.589   6.570  -0.878 -0.5842  0.9861  1.7271
   14CHTO   C83 5624   3.801   6.588  -0.923 -0.2672  0.0475  0.6673
   14CHTO  H155 5625   3.799   6.520  -1.009 -1.3139  0.5307  0.2987
   14CHTO   O56 5626   3.926   6.548  -0.858  0.4250 -0.2769  0.7554
   14CHTO  H135 5627   3.974   6.627  -0.841  0.8953 -0.3538 -0.1623
   14CHTO   C81 5628   3.793   6.740  -0.964 -0.4466  0.1400  0.0544
   14CHTO  H153 5629   3.698   6.757  -1.014  0.5256 -0.5936 -2.1119
   14CHTO   N14 5630   3.891   6.773  -1.067 -0.8183 -0.1986  0.2378
   14CHTO  H141 5631   3.965   6.840  -1.028  0.5018 -0.5007 -1.6653
   14CHTO  H142 5632   3.940   6.688  -1.111  0.3827  0.3577  0.4648
   14CHTO   C79 5633   3.813   6.840  -0.840  0.0194  0.4801  0.1834
   14CHTO  H151 5634   3.795   6.941  -0.875 -0.4801  1.0700  2.0996
   14CHTO   O52 5635   3.700   6.814  -0.753  0.6649 -0.2613 -0.4187
   14CHTO   C86 5636   3.689   6.678  -0.708 -0.8460 -0.2817 -0.0126
   14CHTO  H158 5637   3.782   6.656  -0.653  0.3233  1.6779 -1.1606
   14CHTO   C90 5638   3.575   6.652  -0.609 -0.2594 -0.4741  0.0229
   14CHTO   O60 5639   3.443   6.685  -0.655  0.7191 -0.2552 -0.1489
   14CHTO  H138 5640   3.447   6.685  -0.749  4.5984 -0.7656 -0.0831
   14CHTO   O50 5641   3.943   6.820  -0.778  0.3032  0.1331 -0.1512
   14CHTO   C73 5642   4.024   6.887  -0.685 -0.0347 -0.1146  0.1170
   14CHTO  H145 5643   3.975   6.893  -0.586  1.2859  0.3984  0.7423
   14CHTO   C74 5644   4.054   7.033  -0.736  0.3921 -0.1250 -0.1343
   14CHTO  H146 5645   3.950   7.069  -0.745  0.0863 -0.8832  0.3159
   14CHTO   O54 5646   4.123   7.102  -0.630  0.5462 -0.0391 -0.1410
   14CHTO  H133 5647   4.139   7.193  -0.646 -2.1013  0.5170  0.0379
   14CHTO   C75 5648   4.123   7.031  -0.872  0.6237 -0.1100 -0.2932
   14CHTO  H147 5649   4.063   6.971  -0.942  0.6207  0.7391 -1.0288
   14CHTO   N13 5650   4.146   7.164  -0.926 -0.2579 -0.5560  0.2608
   14CHTO  H139 5651   4.209   7.154  -1.013  0.2931 -2.2315  0.8393
   14CHTO  H140 5652   4.050   7.206  -0.954 -0.4317 -1.3030 -0.2652
   14CHTO   C76 5653   4.260   6.941  -0.855 -0.7267 -0.5616 -0.1046
   14CHTO  H148 5654   4.332   6.994  -0.793  0.5036  0.2446 -2.2193
   14CHTO   O49 5655   4.231   6.809  -0.797 -0.3065 -0.4227 -0.1031
   14CHTO   C77 5656   4.166   6.819  -0.671  0.4350 -0.0060  0.1469
   14CHTO  H149 5657   4.222   6.880  -0.600 -0.0446  0.5698  0.0355
   14CHTO   C88 5658   4.148   6.680  -0.612 -0.6600 -0.0562 -0.4497
   14CHTO   O58 5659   4.283   6.625  -0.556  0.1431  0.0498 -0.1892
   14CHTO  H136 5660   4.261   6.568  -0.485  0.7771 -0.2420 -0.2341
   14CHTO   O51 5661   4.313   6.904  -0.986 -0.5545 -0.0099  0.3360
   14CHTO   C78 5662   4.470   6.907  -1.006 -0.0011  0.0964 -0.5036
   14CHTO  H150 5663   4.515   6.926  -0.906 -1.6207  3.6622 -0.3865
   14CHTO   C80 5664   4.511   7.013  -1.113  0.1932 -0.1579  0.2267
   14CHTO  H152 5665   4.452   6.996  -1.205  0.7770 -2.8330  0.2913
   14CHTO   O55 5666   4.464   7.140  -1.070  0.1022 -0.0789 -0.0067
   14CHTO  H134 5667   4.480   7.208  -1.134  0.4296  0.8921  1.0858
   14CHTO   C84 5668   4.671   7.019  -1.137  0.1936  0.0017  0.4983
   14CHTO  H156 5669   4.723   7.057  -1.050  2.0135 -1.0408 -0.1160
   14CHTO   N15 5670   4.714   7.110  -1.245  0.6562 -0.4445  0.5433
   14CHTO  H143 5671   4.697   7.083  -1.347 -1.9234  2.4555  0.1201
   14CHTO  H144 5672   4.659   7.201  -1.226 -1.1141 -1.3127 -0.3028
   14CHTO   C87 5673   4.724   6.876  -1.163 -0.5940  0.4603 -0.6431
   14CHTO  H159 5674   4.704   6.830  -1.260 -3.2945  1.6417 -0.6811
   14CHTO   O53 5675   4.657   6.767  -1.055 -0.0880 -0.1742 -0.4092
   14CHTO   C82 5676   4.514   6.772  -1.059  0.0223  0.0988 -0.1419
   14CHTO  H154 5677   4.474   6.755  -1.159  1.0426 -5.0526  0.1677
   14CHTO   C89 5678   4.454   6.661  -0.962 -0.3302  0.8670 -0.4754
   14CHTO   O59 5679   4.483   6.528  -1.015  0.2255 -0.2135 -0.1281
   14CHTO  H137 5680   4.421   6.463  -0.988 -0.3771 -0.1699 -1.3999
   14CHTO   O45 5681   4.904   6.886  -1.146 -0.1248 -0.0948 -0.7428
   14CHTO   C67 5682   4.968   6.758  -1.138  0.6158  0.3030  0.8591
   14CHTO  H124 5683   4.905   6.673  -1.110  0.5240  1.2973  3.8931
   14CHTO   C65 5684   5.028   6.722  -1.278 -0.2712 -0.3303 -0.9755
   14CHTO  H122 5685   4.944   6.735  -1.346 -2.3229 -3.2370  0.8986
   14CHTO   O44 5686   5.075   6.582  -1.283 -0.0445  0.4325 -0.2396
   14CHTO  H102 5687   5.067   6.530  -1.205 -4.1491  0.6801 -0.4026
   14CHTO   C63 5688   5.143   6.822  -1.315  0.0945 -0.1792  0.3052
   14CHTO  H120 5689   5.104   6.924  -1.318  0.2949 -0.0233  2.5920
   14CHTO   N11 5690   5.190   6.811  -1.458  0.2957 -0.2963 -0.2023
   14CHTO  H108 5691   5.234   6.903  -1.491  2.1193 -0.5829  1.3195
   14CHTO  H109 5692   5.255   6.727  -1.471  0.2764 -0.4460  0.6332
   14CHTO   C61 5693   5.257   6.816  -1.204 -0.5696 -0.4902 -0.6489
   14CHTO  H118 5694   5.339   6.888  -1.222 -1.9107  1.1346 -0.3188
   14CHTO   O40 5695   5.207   6.849  -1.075 -0.0474 -0.4498  0.1005
   14CHTO   C68 5696   5.088   6.774  -1.031 -0.7902  0.7373  0.9824
   14CHTO  H125 5697   5.040   6.826  -0.945  0.1557  0.1900  1.8469
   14CHTO   C72 5698   5.127   6.633  -0.976 -0.9071  0.3961 -0.1964
   14CHTO   O48 5699   5.217   6.640  -0.863  0.0042 -0.0572 -0.3151
   14CHTO  H105 5700   5.167   6.601  -0.794  0.4447 -2.0160 -1.0556
   14CHTO   O38 5701   5.321   6.684  -1.195  0.8010  0.0895  0.2762
   14CHTO   C55 5702   5.442   6.667  -1.269  0.1579  0.3467 -0.4075
   14CHTO  H112 5703   5.469   6.752  -1.334  0.9691 -0.7588 -1.5527
   14CHTO   C56 5704   5.438   6.527  -1.354  0.1690  0.2519  0.2674
   14CHTO  H113 5705   5.425   6.449  -1.277 -1.7346  0.4720  0.1899
   14CHTO   O42 5706   5.327   6.523  -1.437 -0.1647 -0.6908  0.1671
   14CHTO  H100 5707   5.350   6.532  -1.528 -1.7468 -1.9231 -0.3806
   14CHTO   C57 5708   5.581   6.517  -1.436 -0.0086  0.4188  0.3408
   14CHTO  H114 5709   5.593   6.602  -1.503  1.7132  0.9827  1.3329
   14CHTO   N10 5710   5.599   6.400  -1.521 -0.0776  0.0706  0.4827
   14CHTO  H106 5711   5.645   6.313  -1.478 -1.1407 -0.5486  0.3826
   14CHTO  H107 5712   5.664   6.438  -1.598 -2.4349  0.6141 -1.2874
   14CHTO   C58 5713   5.696   6.520  -1.333  0.3589 -0.1332  0.2371
   14CHTO  H115 5714   5.690   6.429  -1.270  0.6465  0.6908  1.4772
   14CHTO   O37 5715   5.680   6.636  -1.250 -0.6713  0.8225  0.3927
   14CHTO   C59 5716   5.560   6.653  -1.172  0.7623  0.2002  0.3227
   14CHTO  H116 5717   5.540   6.569  -1.105 -0.9229  0.3972  0.0786
   14CHTO   C70 5718   5.568   6.776  -1.081 -0.5757  0.2723  0.3140
   14CHTO   O46 5719   5.570   6.893  -1.157 -0.2266  0.2075  0.0469
   14CHTO  H103 5720   5.586   6.968  -1.104 -2.2433  0.3466  0.5233
   14CHTO   O39 5721   5.853   6.533  -1.408  0.2901 -0.4082  0.0870
   14CHTO   C60 5722   5.960   6.494  -1.320  0.0718 -0.0699  0.1039
   14CHTO  H117 5723   5.946   6.536  -1.221  1.0154  0.3858  0.0544
   14CHTO   C62 5724   5.969   6.334  -1.310  0.7251  0.5252 -0.2224
   14CHTO  H119 5725   5.872   6.316  -1.258 -0.1843 -2.2640 -2.7945
   14CHTO   O43 5726   5.963   6.281  -1.441 -0.2199 -0.5663 -0.4237
   14CHTO  H101 5727   6.047   6.293  -1.481  0.5487 -1.6480  0.8524
   14CHTO   C66 5728   6.090   6.283  -1.224 -0.6654 -0.0129  0.3052
   14CHTO  H123 5729   6.078   6.311  -1.119 -2.8884 -1.0692  0.3715
   14CHTO   N12 5730   6.108   6.140  -1.220 -1.1081  0.7288 -0.6380
   14CHTO  H110 5731   6.148   6.112  -1.316  0.5659  0.9135 -0.0149
   14CHTO  H111 5732   6.022   6.082  -1.189  0.3905 -1.2865 -0.1243
   14CHTO   C69 5733   6.219   6.350  -1.284  0.0193  0.4001  0.2170
   14CHTO  H126 5734   6.241   6.325  -1.390 -1.7000 -0.6920  0.0940
   14CHTO   O41 5735   6.182   6.510  -1.288  0.4297 -0.2121 -0.4995
   14CHTO   C64 5736   6.094   6.551  -1.367  0.2696  0.2922  0.1473
   14CHTO  H121 5737   6.116   6.519  -1.471  2.2423  3.4355 -0.4828
   14CHTO   C71 5738   6.094   6.703  -1.366  0.1712 -0.0547 -0.3748
   14CHTO   O47 5739   6.212   6.765  -1.426 -0.0198  0.0697 -0.4732
   14CHTO  H104 5740   6.290   6.737  -1.383 -1.0698 -1.9508  0.1699
   14CHTO   O34 5741   6.368   6.344  -1.177 -0.3586  0.1671 -0.8055
   14CHTO   C49 5742   6.512   6.408  -1.224  0.2521  0.5861  0.7555
   14CHTO   H91 5743   6.543   6.348  -1.309 -0.8635 -2.1556  2.2154
   14CHTO   C47 5744   6.613   6.386  -1.109 -0.7693  0.1298 -0.0344
   14CHTO   H89 5745   6.715   6.420  -1.138  0.0662 -0.6771  1.8896
   14CHTO   O33 5746   6.636   6.247  -1.087 -0.5761  0.3032  0.2708
   14CHTO   H70 5747   6.561   6.212  -1.042 -0.2186 -0.5645  0.2033
   14CHTO   C45 5748   6.569   6.468  -0.976  1.1494 -0.0317 -0.2583
   14CHTO   H87 5749   6.504   6.406  -0.913 -0.4358  1.3858 -0.4826
   14CHTO    N8 5750   6.689   6.510  -0.900  0.3184 -0.0688 -0.7761
   14CHTO   H75 5751   6.741   6.593  -0.946 -0.8117  1.4468  0.6483
   14CHTO   H76 5752   6.759   6.429  -0.884  0.1175  0.1013  1.0403
   14CHTO   C43 5753   6.463   6.588  -1.019 -0.9200 -0.0320  0.1737
   14CHTO   H85 5754   6.367   6.537  -1.032 -0.1029 -1.9035  1.3566
   14CHTO   O29 5755   6.505   6.650  -1.144 -0.3814 -0.0304  0.2732
   14CHTO   C50 5756   6.502   6.555  -1.254  0.1570 -0.0434  0.1606
   14CHTO   H92 5757   6.410   6.582  -1.308 -0.1481 -2.6014 -0.6743
   14CHTO   C54 5758   6.609   6.589  -1.367  0.2692 -0.4610 -0.0134
   14CHTO   O36 5759   6.610   6.728  -1.415  0.0251 -0.2159  0.1893
   14CHTO   H72 5760   6.662   6.732  -1.493 -1.7581  1.1186 -0.9777
   14CHTO   O27 5761   6.434   6.673  -0.910 -0.3790  0.3955  0.4312
   14CHTO   C37 5762   6.348   6.776  -0.866  0.2844  0.8051 -0.0662
   14CHTO   H79 5763   6.402   6.871  -0.855  0.2372  0.6357  1.9024
   14CHTO   C38 5764   6.223   6.783  -0.956 -0.8956 -0.2497  0.0722
   14CHTO   H80 5765   6.193   6.680  -0.980 -2.8119  0.4999 -0.8792
   14CHTO   O31 5766   6.264   6.838  -1.082  0.6492  0.0850 -1.1829
   14CHTO   H68 5767   6.319   6.778  -1.129  0.2234 -0.4430 -1.0185
   14CHTO   C39 5768   6.097   6.859  -0.899 -0.1190 -0.1183 -0.7607
   14CHTO   H81 5769   6.113   6.966  -0.912 -1.5470  0.6148  2.8242
   14CHTO    N7 5770   5.966   6.837  -0.969 -0.2410 -0.2280 -0.7404
   14CHTO   H73 5771   5.939   6.916  -1.037 -2.6567 -0.7889 -0.4673
   14CHTO   H74 5772   5.974   6.741  -1.017 -0.3834 -0.4256 -0.3652
   14CHTO   C40 5773   6.074   6.825  -0.743  0.3446 -0.3584 -0.0838
   14CHTO   H82 5774   6.028   6.726  -0.737  0.8824 -0.6038  0.0689
   14CHTO   O26 5775   6.200   6.830  -0.671 -0.3360 -0.2080  0.0546
   14CHTO   C41 5776   6.303   6.736  -0.722  0.6042  0.3344  0.1907
   14CHTO   H83 5777   6.263   6.634  -0.712 -0.2969  1.0565  4.5916
   14CHTO   C52 5778   6.423   6.747  -0.632  0.3949 -0.3513  0.0821
   14CHTO   O35 5779   6.501   6.634  -0.638 -0.1001  0.1393  0.0339
   14CHTO   H71 5780   6.563   6.640  -0.568 -2.8657  2.3748  2.4296
   14CHTO   O28 5781   5.987   6.920  -0.676  0.3585 -0.6010  0.4818
   14CHTO   C42 5782   5.864   6.903  -0.598 -0.4034 -0.0370  0.0011
   14CHTO   H84 5783   5.864   6.992  -0.537 -0.7226 -2.2249  3.3118
   14CHTO   C44 5784   5.846   6.783  -0.497  0.1128  0.3272 -0.0326
   14CHTO   H86 5785   5.842   6.689  -0.553 -1.3634 -0.0595  0.6835
   14CHTO   O32 5786   5.964   6.784  -0.405  0.5558  0.2250 -0.5685
   14CHTO   H69 5787   6.034   6.737  -0.446  0.5208 -0.3432  0.0255
   14CHTO   C48 5788   5.709   6.795  -0.415 -0.4456 -0.4461  0.4277
   14CHTO   H90 5789   5.704   6.883  -0.351 -0.8120 -1.8564  2.3819
   14CHTO    N9 5790   5.698   6.680  -0.328  0.4753  0.0715 -0.0012
   14CHTO   H77 5791   5.786   6.677  -0.266  0.2298 -1.0037  0.3038
   14CHTO   H78 5792   5.606   6.686  -0.271  0.7385 -1.3415  0.5957
   14CHTO   C51 5793   5.594   6.809  -0.524 -0.1557 -0.1470 -0.0475
   14CHTO   H93 5794   5.599   6.716  -0.580  2.4441 -0.2715  0.3108
   14CHTO   O30 5795   5.618   6.921  -0.609  0.2381 -0.3557  0.4503
   14CHTO   C46 5796   5.740   6.920  -0.687  1.0585 -0.0013 -0.5820
   14CHTO   H88 5797   5.728   6.833  -0.751 -1.9152  1.2215 -1.7567
   14CHTO   C53 5798   5.754   7.061  -0.756 -0.1685  0.0174  0.1802
   14CHTO   O72 5799   5.647   7.070  -0.861  0.1318  0.3946  0.0781
   14CHTO  H199 5800   5.630   6.985  -0.898  1.0196 -0.3709  1.3870
   14CHTO   O22 5801   5.460   6.828  -0.469 -0.2178 -0.5625 -0.4801
   14CHTO   C31 5802   5.337   6.784  -0.543  0.1994  0.5930 -0.1603
   14CHTO   H59 5803   5.368   6.727  -0.633 -0.2233  0.7088 -0.3822
   14CHTO   C29 5804   5.240   6.689  -0.460  0.8295 -0.3847  0.5242
   14CHTO   H57 5805   5.230   6.742  -0.364 -0.2451  1.3789 -0.5376
   14CHTO   O21 5806   5.307   6.561  -0.449  0.1825  0.2928 -0.0627
   14CHTO   H37 5807   5.253   6.508  -0.392 -0.2078  1.2762  0.5009
   14CHTO   C27 5808   5.093   6.681  -0.531  0.2267 -0.4154  0.3280
   14CHTO   H55 5809   5.104   6.617  -0.620 -0.7730  0.4347 -0.4130
   14CHTO    N5 5810   4.994   6.621  -0.444 -0.0902 -0.7441 -0.0993
   14CHTO   H43 5811   4.905   6.608  -0.504 -0.1874 -3.3860  0.5667
   14CHTO   H44 5812   4.966   6.684  -0.360  2.5691  0.4807 -0.0832
   14CHTO   C25 5813   5.032   6.818  -0.576  0.3900 -1.4074 -0.8673
   14CHTO   H53 5814   4.990   6.878  -0.493  1.2321 -0.5547 -1.0585
   14CHTO   O17 5815   5.136   6.885  -0.651  0.3256  0.3136 -0.1857
   14CHTO   C32 5816   5.263   6.905  -0.591  0.2781 -0.2029 -0.6907
   14CHTO   H60 5817   5.238   6.962  -0.501 -1.2313 -2.3632  0.3066
   14CHTO   C36 5818   5.340   6.984  -0.702 -0.3727  0.2451 -0.6297
   14CHTO   O25 5819   5.376   6.904  -0.818 -0.4186 -0.7738 -0.1732
   14CHTO   H40 5820   5.422   6.956  -0.881  0.5952 -0.0378  1.1512
   14CHTO   O15 5821   4.895   6.810  -0.682 -0.0866 -0.2359  0.3077
   14CHTO   C19 5822   4.786   6.905  -0.681  0.4482  0.4106 -0.2718
   14CHTO   H47 5823   4.729   6.870  -0.768 -2.7514  0.7476  1.6135
   14CHTO   C20 5824   4.689   6.902  -0.559  0.0280  0.9672 -0.0741
   14CHTO   H48 5825   4.741   6.913  -0.463  0.5731  0.0253 -0.2480
   14CHTO   O19 5826   4.633   6.769  -0.551 -0.0288  0.5576 -0.2155
   14CHTO   H35 5827   4.624   6.724  -0.469  3.1641  0.2222  0.0226
   14CHTO   C21 5828   4.569   7.002  -0.582 -0.4216 -0.7496  0.2878
   14CHTO   H49 5829   4.504   6.970  -0.663  0.7378 -1.9921 -0.1816
   14CHTO    N4 5830   4.478   7.010  -0.469 -0.5254 -0.4506 -0.2866
   14CHTO   H41 5831   4.478   6.922  -0.406 -2.2653 -0.0192  0.3422
   14CHTO   H42 5832   4.378   7.031  -0.502 -0.2193  0.8773 -0.3979
   14CHTO   C22 5833   4.612   7.141  -0.632  0.0673 -0.1406  0.2612
   14CHTO   H50 5834   4.658   7.205  -0.557 -0.2079  1.2405 -0.7431
   14CHTO   O14 5835   4.707   7.130  -0.741  0.1731 -0.1453 -0.3490
   14CHTO   C23 5836   4.822   7.051  -0.709  0.4862  0.0430 -0.3540
   14CHTO   H51 5837   4.880   7.094  -0.625  0.2693  0.7999 -0.5854
   14CHTO   C34 5838   4.917   7.053  -0.831 -0.2142  0.3509 -0.0222
   14CHTO   O23 5839   4.965   7.187  -0.853  0.4669  0.4857 -0.0535
   14CHTO   H38 5840   4.906   7.237  -0.907  0.8679  0.5572 -0.4264
   14CHTO   O16 5841   4.492   7.207  -0.683  0.8098  0.2036  0.1108
   14CHTO   C24 5842   4.486   7.382  -0.710  0.4122  0.1803 -0.3851
   14CHTO   H52 5843   4.407   7.411  -0.779 -2.2301 -3.8088  0.8236
   14CHTO   C26 5844   4.619   7.423  -0.772  0.7056  0.0772 -0.1098
   14CHTO   H54 5845   4.696   7.397  -0.697  0.9147  0.7504 -0.0820
   14CHTO   O20 5846   4.641   7.363  -0.897 -0.0312 -0.3794 -0.1097
   14CHTO   H36 5847   4.606   7.276  -0.895  0.3218 -0.5643 -1.5444
   14CHTO   C30 5848   4.632   7.581  -0.783  0.7756 -0.3978 -0.0402
   14CHTO   H58 5849   4.578   7.612  -0.874  1.9931 -3.8482 -2.0340
   14CHTO    N6 5850   4.773   7.630  -0.813 -0.2355 -0.2521 -1.1367
   14CHTO   H45 5851   4.809   7.731  -0.825  3.0229 -1.3153 -0.5883
   14CHTO   H46 5852   4.852   7.557  -0.823 -0.6200 -0.6743 -1.1290
   14CHTO   C33 5853   4.576   7.649  -0.658  0.1121  0.0931 -0.1107
   14CHTO   H61 5854   4.651   7.639  -0.579  1.8161 -2.9610 -2.0368
   14CHTO   O18 5855   4.450   7.595  -0.611 -0.3910 -0.5801 -0.2219
   14CHTO   C28 5856   4.461   7.456  -0.582 -0.4125  0.9211  0.3322
   14CHTO   H56 5857   4.542   7.440  -0.511 -0.2431  1.0507  0.1719
   14CHTO   C35 5858   4.326   7.405  -0.526  0.2455 -0.1427 -0.6198
   14CHTO   O24 5859   4.273   7.491  -0.424 -0.0312 -0.1952 -0.0937
   14CHTO   H39 5860   4.186   7.524  -0.436 -0.9910 -2.4860  0.2946
   14CHTO    O9 5861   4.559   7.795  -0.683 -0.3739 -0.3988 -0.1135
   14CHTO   C13 5862   4.537   7.882  -0.561  0.3921  0.3378 -0.1541
   14CHTO   H26 5863   4.513   7.817  -0.474  0.2196 -1.8101 -1.7809
   14CHTO   C11 5864   4.434   7.998  -0.580 -0.2002 -0.1526 -0.4812
   14CHTO   H24 5865   4.335   7.951  -0.579 -0.1314 -0.3015  1.7579
   14CHTO    O8 5866   4.444   8.049  -0.716  0.5175 -0.3547  0.0696
   14CHTO    H3 5867   4.402   7.989  -0.775  1.3408 -0.7593 -0.1048
   14CHTO    C9 5868   4.438   8.097  -0.463  0.2356 -0.1954  0.0671
   14CHTO   H22 5869   4.414   8.038  -0.373  1.2151 -0.4796  0.1483
   14CHTO    N2 5870   4.323   8.185  -0.470  0.0106 -0.6802 -0.9866
   14CHTO   H10 5871   4.348   8.284  -0.505  1.7253 -1.1246 -1.0173
   14CHTO   H11 5872   4.242   8.147  -0.530 -0.7919 -0.8251  0.1490
   14CHTO    C7 5873   4.583   8.161  -0.454 -0.1121  0.4884 -0.0932
   14CHTO   H20 5874   4.582   8.217  -0.358 -0.6491 -0.7573  0.6331
   14CHTO    O4 5875   4.680   8.066  -0.441 -0.0481  0.1351 -0.3666
   14CHTO   C14 5876   4.678   7.945  -0.521 -0.3953  0.7634  0.0466
   14CHTO   H27 5877   4.734   7.875  -0.455 -1.5215 -0.5870 -0.4050
   14CHTO   C18 5878   4.767   7.972  -0.644 -0.3255 -0.6041  0.1754
   14CHTO   O13 5879   4.910   7.969  -0.639  0.4685  0.0314  0.6894
   14CHTO    H7 5880   4.955   8.044  -0.606  0.9995 -0.8626  2.0549
   14CHTO    O2 5881   4.625   8.269  -0.577 -0.1658 -0.0532 -0.0559
   14CHTO    C1 5882   4.696   8.392  -0.527  0.8282 -0.8264 -0.1747
   14CHTO   H14 5883   4.727   8.451  -0.615 -0.8697  1.6847  0.8353
   14CHTO    C2 5884   4.829   8.357  -0.447 -0.2143 -0.7240  0.0832
   14CHTO   H15 5885   4.793   8.300  -0.361 -1.3561 -1.9423 -1.1731
   14CHTO    O6 5886   4.919   8.283  -0.531  0.6502  0.3462  0.4434
   14CHTO    H1 5887   4.990   8.247  -0.480  0.6691 -0.8454 -0.4051
   14CHTO    C3 5888   4.896   8.490  -0.390 -0.4859  0.0105  0.7620
   14CHTO   H16 5889   4.933   8.543  -0.479  0.2008 -0.7806  0.5643
   14CHTO    N1 5890   5.018   8.455  -0.305 -0.7817  0.6509 -0.1721
   14CHTO    H8 5891   5.070   8.369  -0.344 -2.4878 -0.4799  0.0009
   14CHTO    H9 5892   5.088   8.538  -0.307 -0.0261  0.0545  1.3847
   14CHTO    C4 5893   4.794   8.586  -0.318 -0.3550 -0.7689 -1.2682
   14CHTO   H17 5894   4.778   8.555  -0.215 -3.8983  1.6529 -0.9888
   14CHTO    O1 5895   4.671   8.603  -0.387 -0.4551 -0.1580 -0.2851
   14CHTO    C5 5896   4.606   8.486  -0.435 -0.7620  0.4369  0.3836
   14CHTO   H18 5897   4.576   8.431  -0.346 -0.9786  0.8391  0.5620
   14CHTO   C16 5898   4.482   8.547  -0.509  0.7717  0.2413 -0.3373
   14CHTO   O11 5899   4.418   8.640  -0.426  0.4386  0.3915  0.2288
   14CHTO    H5 5900   4.351   8.679  -0.478 -1.3535  0.8163  2.7688
   14CHTO    O3 5901   4.850   8.721  -0.321  0.0548  0.2973  0.0726
   14CHTO    C6 5902   4.768   8.827  -0.249 -0.7442 -0.0762  0.3809
   14CHTO   H19 5903   4.660   8.817  -0.236 -0.8818 -1.8977 -1.7727
   14CHTO    C8 5904   4.844   8.849  -0.112  0.3849 -0.6481  1.0747
   14CHTO   H21 5905   4.949   8.861  -0.139  0.3175  1.6703  1.7258
   14CHTO    O7 5906   4.818   8.730  -0.046  0.1057 -0.3689 -0.1532
   14CHTO    H2 5907   4.887   8.711   0.015 -0.4925 -0.0145  0.6452
   14CHTO   C12 5908   4.798   8.985  -0.041  0.0162  0.2578 -1.0322
   14CHTO   H25 5909   4.692   8.979  -0.008  0.1140  2.5891 -0.2480
   14CHTO    N3 5910   4.869   8.999   0.082  0.2721  0.3007  0.1912
   14CHTO   H12 5911   4.832   9.080   0.143  0.2360  0.8037 -0.4938
   14CHTO   H13 5912   4.972   9.012   0.053 -0.0964  0.7460 -0.9617
   14CHTO   C15 5913   4.811   9.106  -0.145 -0.1843 -0.2598  0.1220
   14CHTO   H28 5914   4.916   9.115  -0.173 -0.2709 -0.1484 -0.1711
   14CHTO   O10 5915   4.751   9.236  -0.113  0.1336  0.4132  0.0864
   14CHTO    H4 5916   4.819   9.296  -0.093  1.5694 -2.0774  3.2194
   14CHTO    O5 5917   4.730   9.080  -0.260  0.7081 -0.2645 -0.3035
   14CHTO   C10 5918   4.787   8.962  -0.325  0.0917 -0.3344 -0.0244
   14CHTO   H23 5919   4.892   8.982  -0.344  0.5180 -1.2764  1.2435
   14CHTO   C17 5920   4.716   8.945  -0.463 -0.2777  0.1942  0.1200
   14CHTO   O12 5921   4.571   8.948  -0.448 -0.0887 -0.2807 -0.4078
   14CHTO    H6 5922   4.551   9.027  -0.402 -2.4516  0.3718 -2.4675
   15CHTO  H203 5923   6.209   5.534   2.360  1.1940  1.0866 -0.5940
   15CHTO   O82 5924   6.117   5.536   2.341  1.0426  0.3785  0.0186
   15CHTO  C123 5925   6.100   5.463   2.218  0.3810  0.3012 -0.0551
   15CHTO  H227 5926   6.100   5.353   2.230  1.0505 -0.0639 -3.1407
   15CHTO   O77 5927   5.956   5.505   2.192 -0.2669  0.3128  0.0932
   15CHTO  C118 5928   5.904   5.456   2.067 -0.2995  0.1912  0.2569
   15CHTO  H222 5929   5.888   5.347   2.069 -0.2553  0.1204 -2.1558
   15CHTO  C125 5930   5.759   5.520   2.049  0.1043  0.1432 -0.3593
   15CHTO   O84 5931   5.664   5.459   2.139 -0.1782 -0.2975 -0.0747
   15CHTO  H205 5932   5.584   5.451   2.092 -0.9251  1.2342  0.8873
   15CHTO  C114 5933   5.999   5.498   1.953  0.4340  0.0695 -0.0582
   15CHTO  H218 5934   6.009   5.605   1.936  0.3040 -0.1060 -1.2813
   15CHTO  C116 5935   6.147   5.450   1.971  0.5315  0.1703 -0.3011
   15CHTO  H220 5936   6.149   5.339   1.966 -2.0125  0.0471  0.4598
   15CHTO   O79 5937   6.225   5.496   1.862 -0.1876  0.8193 -0.0247
   15CHTO  H201 5938   6.218   5.446   1.783  2.1688  0.1216  0.1779
   15CHTO  C120 5939   6.199   5.503   2.106 -0.7747  0.5322 -0.4942
   15CHTO  H224 5940   6.214   5.612   2.094 -0.7524  0.5618 -0.2043
   15CHTO   N21 5941   6.334   5.442   2.140 -0.0516 -0.0731 -0.0018
   15CHTO  H211 5942   6.338   5.339   2.110  1.4393  0.7688 -2.8137
   15CHTO  H212 5943   6.413   5.513   2.118 -0.4921  0.5911  0.5072
   15CHTO   O75 5944   5.928   5.446   1.840 -0.7343 -0.0508  0.5634
   15CHTO  C112 5945   5.978   5.287   1.789 -0.2325  1.1819  0.6569
   15CHTO  H216 5946   5.998   5.227   1.879 -1.6098  2.5251  1.8801
   15CHTO   O73 5947   6.093   5.293   1.700 -0.0684 -0.8111 -0.0017
   15CHTO  C113 5948   6.152   5.178   1.644  0.2537 -0.2859 -0.5048
   15CHTO  H217 5949   6.209   5.128   1.725 -0.6303  0.8672  0.8368
   15CHTO  C124 5950   6.255   5.235   1.545 -0.1593 -0.0235 -0.2744
   15CHTO   O83 5951   6.377   5.168   1.541  0.0487 -0.1698  0.3178
   15CHTO  H204 5952   6.404   5.157   1.452 -0.2957  0.3548  0.1443
   15CHTO  C109 5953   6.042   5.082   1.580  0.0156 -0.3440 -0.3176
   15CHTO  H213 5954   6.004   5.132   1.489 -1.4824 -1.8595 -0.5419
   15CHTO  C110 5955   5.911   5.071   1.669  0.0771 -0.1153 -0.2241
   15CHTO  H214 5956   5.928   5.013   1.760  0.3655  0.4181  0.0637
   15CHTO   O78 5957   5.806   5.003   1.592  0.2268 -0.5153  0.1965
   15CHTO  H200 5958   5.721   5.011   1.632 -0.4411 -0.6651 -1.1464
   15CHTO  C111 5959   5.862   5.213   1.714 -0.0798 -0.3027 -0.1861
   15CHTO  H215 5960   5.837   5.270   1.623 -3.2395 -1.4977 -0.1236
   15CHTO   N19 5961   5.736   5.207   1.795 -0.4913  0.0617  0.2727
   15CHTO  H207 5962   5.660   5.260   1.739 -0.5966 -1.0487 -0.6530
   15CHTO  H208 5963   5.712   5.105   1.822  2.7587 -1.7266 -3.1613
   15CHTO   O74 5964   6.111   4.964   1.537 -0.5202  0.6096  0.1808
   15CHTO  C115 5965   6.049   4.903   1.421  0.7074  0.6020  0.6094
   15CHTO  H219 5966   5.956   4.952   1.392 -0.1148  0.4602  2.9872
   15CHTO   O76 5967   6.135   4.917   1.303 -0.1840 -0.0861  0.6626
   15CHTO  C122 5968   6.267   4.856   1.324 -0.2180  0.7207 -0.1808
   15CHTO  H226 5969   6.318   4.903   1.408 -2.3152  2.3664  0.1853
   15CHTO  C126 5970   6.345   4.884   1.196 -0.1401  0.2692 -0.7123
   15CHTO   O85 5971   6.464   4.811   1.206 -0.2166 -0.4560 -0.3009
   15CHTO  H206 5972   6.528   4.852   1.152 -0.0029 -1.0782 -0.5292
   15CHTO  C121 5973   6.260   4.697   1.358  0.1878 -0.2694  0.6905
   15CHTO  H225 5974   6.309   4.647   1.272  0.8938 -1.0493  1.5374
   15CHTO   O81 5975   6.332   4.663   1.481 -0.6001  0.0593  0.1445
   15CHTO  H202 5976   6.366   4.735   1.530  0.3393 -1.1055  1.2161
   15CHTO  C119 5977   6.108   4.658   1.362  0.3116 -0.1956  0.0754
   15CHTO  H223 5978   6.064   4.681   1.264  0.9102 -1.4827 -0.5127
   15CHTO  C117 5979   6.032   4.751   1.463  0.6453 -0.4061 -0.1508
   15CHTO  H221 5980   6.072   4.749   1.565  0.5402 -1.5931 -0.1252
   15CHTO   N20 5981   5.893   4.714   1.479  0.0241  0.2859 -0.2689
   15CHTO  H209 5982   5.843   4.780   1.549 -1.3604 -0.8040 -0.1995
   15CHTO  H210 5983   5.852   4.716   1.379  1.8116  0.3754 -1.0196
   15CHTO   O80 5984   6.071   4.489   1.375  0.0672  0.1072  0.5122
   15CHTO  C103 5985   6.035   4.394   1.233  0.3185 -0.3596 -0.2801
   15CHTO  H190 5986   5.993   4.299   1.266 -0.4629  1.5339  4.5857
   15CHTO  C101 5987   5.920   4.450   1.135 -0.9068 -0.3819 -0.5023
   15CHTO  H188 5988   5.955   4.536   1.078 -1.1118  0.0895  0.0858
   15CHTO   O68 5989   5.800   4.510   1.216 -0.2513 -0.3232  0.4937
   15CHTO  H168 5990   5.763   4.443   1.271 -1.3059  0.2042  0.4348
   15CHTO   C99 5991   5.871   4.330   1.044 -0.2554  0.7810  0.1602
   15CHTO  H186 5992   5.825   4.251   1.107  0.5695 -0.0750 -0.3009
   15CHTO   N17 5993   5.771   4.370   0.940 -0.0462 -0.0093 -0.1621
   15CHTO  H174 5994   5.756   4.476   0.926  0.3377 -0.3719 -3.6750
   15CHTO  H175 5995   5.805   4.331   0.845 -0.2767 -0.3433 -0.1087
   15CHTO   C97 5996   5.999   4.271   0.974  0.4187  0.2682  0.2808
   15CHTO  H184 5997   6.027   4.334   0.888 -0.0387 -0.0124 -0.0811
   15CHTO   O64 5998   6.112   4.249   1.070 -0.1034  0.0614  0.7986
   15CHTO  C104 5999   6.157   4.364   1.146 -0.2541 -0.2052 -0.5201
   15CHTO  H191 6000   6.175   4.449   1.080  0.6017 -0.2058 -0.2963
   15CHTO  C108 6001   6.286   4.346   1.230 -0.5896  0.2349 -0.2212
   15CHTO   O71 6002   6.385   4.285   1.154 -0.8238 -0.5271 -0.7027
   15CHTO  H171 6003   6.441   4.353   1.120 -1.7469  0.6722  0.1291
   15CHTO   O62 6004   5.971   4.131   0.937 -0.0477  0.7341  0.1595
   15CHTO   C91 6005   6.052   4.068   0.838  0.3643  0.1674 -0.6631
   15CHTO  H178 6006   6.107   4.144   0.782 -1.4866  0.7193 -1.7417
   15CHTO   C92 6007   5.964   3.994   0.734  0.2100  0.2578 -0.1117
   15CHTO  H179 6008   5.875   4.053   0.706  0.9896  0.0820 -3.0812
   15CHTO   O66 6009   6.044   3.984   0.615 -0.2672 -0.4806  0.0896
   15CHTO  H166 6010   5.980   3.956   0.552 -0.5393  2.3395 -0.9542
   15CHTO   C93 6011   5.922   3.846   0.769 -0.5537  0.8160 -0.1001
   15CHTO  H180 6012   5.896   3.797   0.674  0.9515 -2.9177  1.2999
   15CHTO   N16 6013   5.800   3.842   0.849 -0.2275  0.2179  0.0882
   15CHTO  H172 6014   5.821   3.891   0.943  2.0359 -0.3484 -0.0772
   15CHTO  H173 6015   5.773   3.739   0.863  2.4506 -0.4663  0.4722
   15CHTO   C94 6016   6.043   3.767   0.827  0.0556 -0.0226 -0.6904
   15CHTO  H181 6017   6.026   3.740   0.931 -1.1761 -0.4012 -0.9869
   15CHTO   O61 6018   6.163   3.838   0.815  0.1976 -0.2818  0.1454
   15CHTO   C95 6019   6.153   3.963   0.887 -0.2470 -0.2775 -0.9227
   15CHTO  H182 6020   6.125   3.938   0.990  1.5741 -0.0950 -0.3627
   15CHTO  C106 6021   6.300   4.025   0.901  0.4872 -0.3564 -0.2774
   15CHTO   O69 6022   6.340   4.057   0.766  0.1914  0.2520  0.0758
   15CHTO  H169 6023   6.381   3.983   0.725  1.1244  0.3078  0.8884
   15CHTO   O63 6024   6.072   3.628   0.757 -0.2932 -0.2665  0.2954
   15CHTO   C96 6025   6.141   3.535   0.852 -0.0609  0.9700 -0.3183
   15CHTO  H183 6026   6.151   3.583   0.949  2.0590 -0.8006  0.3587
   15CHTO   C98 6027   6.273   3.496   0.799  0.5941 -0.0458 -0.2726
   15CHTO  H185 6028   6.255   3.469   0.694  0.4029 -1.4748  0.1175
   15CHTO   O67 6029   6.352   3.619   0.795 -0.0715 -1.0814 -0.3603
   15CHTO  H167 6030   6.436   3.607   0.755  1.0051  1.2401  1.1151
   15CHTO  C102 6031   6.339   3.377   0.878 -0.0354  0.2848 -0.0717
   15CHTO  H189 6032   6.362   3.423   0.975 -1.5346  2.0520 -0.5118
   15CHTO   N18 6033   6.468   3.318   0.835 -0.4117  0.3299 -0.0704
   15CHTO  H176 6034   6.469   3.270   0.739  0.9888 -1.1797  0.6890
   15CHTO  H177 6035   6.547   3.391   0.837 -1.3650  1.3704  0.2097
   15CHTO  C105 6036   6.234   3.259   0.877 -0.0361 -0.4532  0.6664
   15CHTO  H192 6037   6.209   3.235   0.773  2.1023 -0.0986  0.0500
   15CHTO   O65 6038   6.116   3.299   0.945  0.3370  0.2873 -0.3254
   15CHTO  C100 6039   6.044   3.404   0.884 -0.3889  0.6535 -0.3684
   15CHTO  H187 6040   6.002   3.369   0.789 -2.7613 -1.7400  1.4845
   15CHTO  C107 6041   5.917   3.433   0.976  0.3372  0.5984 -0.0579
   15CHTO   O70 6042   5.823   3.522   0.918 -0.2574  0.3872 -0.3973
   15CHTO  H170 6043   5.762   3.476   0.863  1.0447 -1.4316 -0.3582
   15CHTO   O57 6044   6.294   3.110   0.960  0.0656  0.3948 -0.2321
   15CHTO   C85 6045   6.195   3.020   1.012  0.3531  1.0033 -0.3619
   15CHTO  H157 6046   6.123   3.075   1.076  0.7940  0.6358  0.4511
   15CHTO   C83 6047   6.264   2.925   1.123  0.3370  0.2271  0.3545
   15CHTO  H155 6048   6.307   2.984   1.204  0.5815  0.0097  0.3824
   15CHTO   O56 6049   6.372   2.849   1.067 -0.4827 -0.7156  0.1455
   15CHTO  H135 6050   6.452   2.871   1.111 -0.0783  0.3118 -1.0635
   15CHTO   C81 6051   6.153   2.837   1.187  0.6533  0.1514 -1.3875
   15CHTO  H153 6052   6.069   2.899   1.218 -0.3235 -1.0627 -1.5750
   15CHTO   N14 6053   6.197   2.767   1.317 -0.3293 -0.3345  0.2835
   15CHTO  H141 6054   6.206   2.826   1.406 -0.4674 -1.4211  1.0389
   15CHTO  H142 6055   6.141   2.678   1.338 -0.3710 -0.6494 -1.1036
   15CHTO   C79 6056   6.096   2.739   1.077  0.6769 -0.9374  0.2758
   15CHTO  H151 6057   6.013   2.685   1.122  1.6678 -1.1945  1.8256
   15CHTO   O52 6058   6.041   2.811   0.960  0.2204  0.2494  0.2343
   15CHTO   C86 6059   6.117   2.929   0.907  0.1767 -0.9475  0.1364
   15CHTO  H158 6060   6.191   2.881   0.840 -0.4281 -1.9483  0.1713
   15CHTO   C90 6061   6.022   3.013   0.818 -0.1746  0.1307  0.2065
   15CHTO   O60 6062   5.908   3.052   0.900  0.0835  0.0173  0.0349
   15CHTO  H138 6063   5.856   3.116   0.856 -0.7164 -2.8615 -3.3717
   15CHTO   O50 6064   6.191   2.637   1.035  0.5554  0.2811 -0.0176
   15CHTO   C73 6065   6.185   2.497   0.998 -0.4642 -0.5288  0.2985
   15CHTO  H145 6066   6.101   2.485   0.928  1.3765  0.2569 -2.1231
   15CHTO   C74 6067   6.164   2.409   1.128 -0.1587  0.1500  0.1921
   15CHTO  H146 6068   6.077   2.447   1.183 -0.5763  0.8850 -0.9548
   15CHTO   O54 6069   6.121   2.273   1.096 -0.2970  0.3338 -0.5520
   15CHTO  H133 6070   6.182   2.218   1.050  0.1508 -0.2878  0.7676
   15CHTO   C75 6071   6.296   2.415   1.217 -1.2393  0.1491 -0.7962
   15CHTO  H147 6072   6.307   2.520   1.247  1.4615 -0.9699  2.4937
   15CHTO   N13 6073   6.295   2.347   1.350  0.4399 -0.1303  0.0353
   15CHTO  H139 6074   6.369   2.269   1.365 -0.1777 -0.7768 -0.2158
   15CHTO  H140 6075   6.194   2.313   1.368 -0.0044  1.0076 -0.2861
   15CHTO   C76 6076   6.418   2.367   1.133 -0.2226  0.0042  0.2148
   15CHTO  H148 6077   6.401   2.264   1.099  1.0896  0.1629 -0.9357
   15CHTO   O49 6078   6.432   2.453   1.011  0.2503  0.2455 -0.3126
   15CHTO   C77 6079   6.316   2.450   0.925  0.0041  0.1700 -0.2805
   15CHTO  H149 6080   6.300   2.355   0.876  0.9560  1.2412 -2.7511
   15CHTO   C88 6081   6.354   2.542   0.806  0.0861 -0.1412 -0.3907
   15CHTO   O58 6082   6.232   2.580   0.714  0.0048 -0.1588 -0.5638
   15CHTO  H136 6083   6.267   2.645   0.657  0.9154  0.1647  0.3603
   15CHTO   O51 6084   6.555   2.387   1.209  0.7182 -0.2114  0.0019
   15CHTO   C78 6085   6.670   2.285   1.158  0.3466  0.2996  0.2456
   15CHTO  H150 6086   6.644   2.227   1.066  0.1853 -2.4483  1.9638
   15CHTO   C80 6087   6.698   2.185   1.274 -0.3845  0.8126  0.1888
   15CHTO  H152 6088   6.702   2.254   1.361  0.6490  2.9034 -1.4717
   15CHTO   O55 6089   6.579   2.103   1.291  0.0969 -0.2416 -0.0970
   15CHTO  H134 6090   6.600   2.016   1.263 -1.3638 -1.2724  1.8287
   15CHTO   C84 6091   6.837   2.100   1.243  0.5672 -0.2741  0.2180
   15CHTO  H156 6092   6.811   2.040   1.155  1.5525 -0.0248 -0.2527
   15CHTO   N15 6093   6.877   1.997   1.348 -0.4796 -0.4923  0.1191
   15CHTO  H143 6094   6.885   2.042   1.444  0.9070 -0.2113 -0.1270
   15CHTO  H144 6095   6.799   1.923   1.348  0.0231 -1.0211  1.0774
   15CHTO   C87 6096   6.949   2.201   1.213 -0.9565  0.2657  0.6503
   15CHTO  H159 6097   6.955   2.272   1.295 -2.6773  0.2639  0.7876
   15CHTO   O53 6098   6.909   2.275   1.097 -0.1171 -0.4781 -0.0749
   15CHTO   C82 6099   6.802   2.357   1.126  0.3651 -0.5363  0.2358
   15CHTO  H154 6100   6.817   2.417   1.215 -0.6335  2.3656 -1.4784
   15CHTO   C89 6101   6.785   2.450   1.006 -0.0753  0.0107  0.3066
   15CHTO   O59 6102   6.896   2.544   0.994  0.0846  0.5645 -0.6102
   15CHTO  H137 6103   6.971   2.505   0.954 -1.8437 -1.3833 -2.4612
   15CHTO   O45 6104   7.094   2.139   1.169 -0.2049 -0.0436  0.6931
   15CHTO   C67 6105   7.208   2.226   1.185 -1.0651  0.2182  0.0378
   15CHTO  H124 6106   7.175   2.323   1.220 -0.5820 -0.1069  1.4462
   15CHTO   C65 6107   7.311   2.163   1.292 -0.6227 -0.6069  0.0892
   15CHTO  H122 6108   7.321   2.055   1.281 -0.1545 -0.3916 -1.7482
   15CHTO   O44 6109   7.257   2.186   1.423  0.1270  1.1633  0.3858
   15CHTO  H102 6110   7.304   2.139   1.489 -0.2053 -0.6871 -0.6555
   15CHTO   C63 6111   7.463   2.207   1.262 -0.3277  0.1801 -0.2581
   15CHTO  H120 6112   7.506   2.148   1.181  1.6764  0.6508  0.4282
   15CHTO   N11 6113   7.557   2.182   1.370 -0.2754  0.2328 -0.0901
   15CHTO  H108 6114   7.506   2.150   1.458  0.4493 -4.2522 -1.2178
   15CHTO  H109 6115   7.595   2.280   1.391 -3.2534  1.5438 -0.6103
   15CHTO   C61 6116   7.460   2.348   1.190 -0.4837 -0.2579  0.1426
   15CHTO  H118 6117   7.565   2.368   1.165 -0.5109 -0.0783  0.1722
   15CHTO   O40 6118   7.384   2.345   1.061  0.3681  0.1118  0.0908
   15CHTO   C68 6119   7.282   2.242   1.043  0.0232  1.3528 -0.4421
   15CHTO  H125 6120   7.326   2.142   1.023  1.0855  1.4423  1.3371
   15CHTO   C72 6121   7.185   2.270   0.929 -0.0829 -0.0640  0.4587
   15CHTO   O48 6122   7.252   2.318   0.809  0.6475  0.3797  0.4486
   15CHTO  H105 6123   7.324   2.261   0.789 -1.5304 -2.0270 -0.8755
   15CHTO   O38 6124   7.417   2.459   1.271 -0.8281  0.8895  0.0199
   15CHTO   C55 6125   7.423   2.596   1.228 -0.3576 -0.7840 -0.0577
   15CHTO  H112 6126   7.402   2.599   1.120  2.2722 -1.3982 -0.6185
   15CHTO   C56 6127   7.560   2.672   1.265 -0.7633 -0.4785 -0.2669
   15CHTO  H113 6128   7.584   2.662   1.372 -2.8280  3.1498  0.6315
   15CHTO   O42 6129   7.671   2.613   1.190  0.7826  0.0160  0.2056
   15CHTO  H100 6130   7.635   2.535   1.152 -0.5768  1.0378 -0.6525
   15CHTO   C57 6131   7.537   2.823   1.237  0.7215 -0.2585 -0.3058
   15CHTO  H114 6132   7.516   2.831   1.131 -0.2615 -0.2806 -0.1138
   15CHTO   N10 6133   7.652   2.915   1.268 -0.2123  0.1922 -0.5496
   15CHTO  H106 6134   7.673   2.939   1.371 -1.3535 -1.6790  0.1434
   15CHTO  H107 6135   7.649   3.006   1.210  1.8611  1.1009  0.6994
   15CHTO   C58 6136   7.416   2.881   1.311  0.6062 -0.6925 -0.4320
   15CHTO  H115 6137   7.435   2.885   1.420  1.3556  0.5662 -0.6068
   15CHTO   O37 6138   7.306   2.803   1.286 -0.4892  0.6978 -0.5951
   15CHTO   C59 6139   7.307   2.664   1.302 -0.1055 -0.1265 -0.2539
   15CHTO  H116 6140   7.305   2.630   1.406  1.8971  0.0094 -0.1558
   15CHTO   C70 6141   7.174   2.605   1.261 -0.0881  0.1053  0.0260
   15CHTO   O46 6142   7.153   2.633   1.123 -0.1544 -0.3562 -0.0102
   15CHTO  H103 6143   7.087   2.699   1.116 -2.5670 -2.5630  0.9625
   15CHTO   O39 6144   7.370   3.042   1.244 -0.5918 -0.0669 -0.2530
   15CHTO   C60 6145   7.302   3.040   1.113 -0.2321 -0.0036 -0.4609
   15CHTO  H117 6146   7.346   2.960   1.053  2.1653  0.0749  1.1359
   15CHTO   C62 6147   7.150   3.016   1.127 -0.0985 -1.0959 -0.4457
   15CHTO  H119 6148   7.134   2.933   1.200  2.3239 -0.5891  0.7122
   15CHTO   O43 6149   7.086   3.129   1.185  0.2429 -0.1012  0.1241
   15CHTO  H101 6150   7.090   3.195   1.119  1.8826 -0.3281 -0.0336
   15CHTO   C66 6151   7.099   2.978   0.983 -0.4791  0.1351  0.3847
   15CHTO  H123 6152   7.173   2.907   0.947  0.9994  1.3951  0.8773
   15CHTO   N12 6153   6.962   2.923   0.980 -0.2280 -0.5644 -0.0762
   15CHTO  H110 6154   6.932   2.918   0.877  1.8391  2.5726 -0.9190
   15CHTO  H111 6155   6.939   2.840   1.045 -0.0478 -0.1736  0.4935
   15CHTO   C69 6156   7.114   3.103   0.891  0.0218 -0.0056 -0.0275
   15CHTO  H126 6157   7.045   3.185   0.922  3.6238  2.6433  1.2667
   15CHTO   O41 6158   7.256   3.158   0.892  0.2177 -0.5935 -0.5760
   15CHTO   C64 6159   7.324   3.176   1.032  0.3649  0.0862  0.2512
   15CHTO  H121 6160   7.266   3.255   1.085  1.0466  0.7192  0.0661
   15CHTO   C71 6161   7.481   3.214   1.011  0.3331  0.2339 -0.6665
   15CHTO   O47 6162   7.554   3.121   0.931 -0.1701 -0.1421  0.6344
   15CHTO  H104 6163   7.510   3.038   0.925 -0.2300 -0.1036  0.5509
   15CHTO   O34 6164   7.081   3.054   0.735 -0.0332 -0.5081  0.2601
   15CHTO   C49 6165   6.997   3.126   0.595 -0.1206  0.7672 -0.6019
   15CHTO   H91 6166   7.001   3.046   0.521 -1.5310  0.0283  0.1035
   15CHTO   C47 6167   7.073   3.250   0.549  0.0521  0.0326  0.4124
   15CHTO   H89 6168   7.033   3.302   0.459  0.2747  1.4129  1.0977
   15CHTO   O33 6169   7.206   3.201   0.520 -0.5296  0.8132  0.1549
   15CHTO   H70 6170   7.208   3.160   0.435  0.0468  2.0304 -0.4299
   15CHTO   C45 6171   7.073   3.363   0.659  0.4576  0.2852 -0.0549
   15CHTO   H87 6172   7.101   3.330   0.760  0.3032 -0.6734 -0.3252
   15CHTO    N8 6173   7.160   3.474   0.628  0.0635 -0.5981  0.1725
   15CHTO   H75 6174   7.122   3.525   0.540  0.2342 -0.7664  0.0004
   15CHTO   H76 6175   7.257   3.436   0.598  0.6519  1.2202 -0.3310
   15CHTO   C43 6176   6.919   3.406   0.678  0.2593  1.0207  0.5182
   15CHTO   H85 6177   6.912   3.478   0.760 -4.0601  0.9816  0.3043
   15CHTO   O29 6178   6.841   3.289   0.705 -0.3804  0.0050 -0.2365
   15CHTO   C50 6179   6.848   3.170   0.618 -0.2364 -0.6353 -0.6763
   15CHTO   H92 6180   6.794   3.085   0.663 -0.7283 -0.0982 -0.2374
   15CHTO   C54 6181   6.786   3.180   0.481  0.0775 -0.2035 -0.2007
   15CHTO   O36 6182   6.773   3.046   0.428 -0.2284  0.0580  0.4053
   15CHTO   H72 6183   6.748   2.984   0.495 -2.1892  1.0598  0.6290
   15CHTO   O27 6184   6.870   3.480   0.565  0.2168 -0.1316  0.1756
   15CHTO   C37 6185   6.783   3.558   0.472 -0.3990  0.2877  0.7362
   15CHTO   H79 6186   6.731   3.488   0.405  0.9536 -1.7230  1.7142
   15CHTO   C38 6187   6.677   3.640   0.541  0.8733  1.1960 -0.5565
   15CHTO   H80 6188   6.726   3.722   0.596 -0.4994  3.4280 -2.5241
   15CHTO   O31 6189   6.603   3.545   0.631  0.2167 -0.1941 -0.0004
   15CHTO   H68 6190   6.542   3.590   0.687 -0.1117  0.2179 -0.6773
   15CHTO   C39 6191   6.584   3.707   0.435 -0.6623 -0.4898  0.3150
   15CHTO   H81 6192   6.529   3.630   0.381  0.7937 -1.5315  0.2901
   15CHTO    N7 6193   6.492   3.805   0.504 -0.1263  0.2339 -0.0702
   15CHTO   H73 6194   6.428   3.755   0.576 -0.2668  2.6602  1.5506
   15CHTO   H74 6195   6.428   3.869   0.446 -0.4602  1.4089  1.5492
   15CHTO   C40 6196   6.656   3.790   0.328  0.2588 -0.2095  0.6998
   15CHTO   H82 6197   6.680   3.890   0.364 -1.0057  1.1543 -2.0461
   15CHTO   O26 6198   6.767   3.718   0.280 -0.7942  0.3944 -0.8317
   15CHTO   C41 6199   6.857   3.663   0.384 -0.1332 -0.0600  0.5873
   15CHTO   H83 6200   6.894   3.745   0.447  2.8226  0.2827 -1.4494
   15CHTO   C52 6201   6.980   3.611   0.306  0.2534 -0.2923 -0.3181
   15CHTO   O35 6202   6.951   3.479   0.219 -0.3847  0.2260 -0.3645
   15CHTO   H71 6203   6.937   3.408   0.278 -0.0788 -1.7239 -2.5876
   15CHTO   O28 6204   6.573   3.809   0.209  0.2456 -0.3528 -0.5970
   15CHTO   C42 6205   6.571   3.930   0.125  0.1692  0.1803  0.0703
   15CHTO   H84 6206   6.534   3.900   0.027  1.4655  0.2070 -0.4363
   15CHTO   C44 6207   6.705   4.010   0.101  0.3377 -0.1046 -0.1156
   15CHTO   H86 6208   6.761   4.016   0.194 -2.4840  0.0556  1.6233
   15CHTO   O32 6209   6.789   3.919   0.021  0.1600 -0.1932  0.3085
   15CHTO   H69 6210   6.842   3.858   0.067 -1.7083 -1.5328  0.7517
   15CHTO   C48 6211   6.691   4.148   0.029  0.4401  1.0742  0.2386
   15CHTO   H90 6212   6.659   4.124  -0.073  3.2819 -0.8550 -0.2689
   15CHTO    N9 6213   6.810   4.226   0.027 -0.3053 -0.5999  0.2903
   15CHTO   H77 6214   6.813   4.318  -0.031  1.2284 -0.3772  0.6928
   15CHTO   H78 6215   6.896   4.160   0.020 -1.1596 -1.6792 -0.1822
   15CHTO   C51 6216   6.575   4.233   0.088 -0.0177  0.4036 -0.1014
   15CHTO   H93 6217   6.605   4.262   0.188 -2.1846 -0.8758  0.9635
   15CHTO   O30 6218   6.458   4.152   0.090 -0.0996  0.2685  0.1506
   15CHTO   C46 6219   6.469   4.034   0.183  0.7203  0.2985 -0.2203
   15CHTO   H88 6220   6.514   4.078   0.271 -0.8100 -0.1618  0.8025
   15CHTO   C53 6221   6.330   3.982   0.192 -0.2588 -0.0857 -0.7038
   15CHTO   O72 6222   6.250   4.074   0.270  0.3925 -0.2869 -0.1465
   15CHTO  H199 6223   6.158   4.058   0.264  0.5419 -1.5016  0.6128
   15CHTO   O22 6224   6.546   4.349   0.010  0.0607  0.1531 -0.0045
   15CHTO   C31 6225   6.464   4.463   0.048  0.5243  0.4375  0.1702
   15CHTO   H59 6226   6.453   4.529  -0.040 -1.4137  0.6775  0.5593
   15CHTO   C29 6227   6.317   4.426   0.082  0.5707  0.6075  0.2920
   15CHTO   H57 6228   6.322   4.355   0.166  1.1094  1.1350  0.7135
   15CHTO   O21 6229   6.267   4.357  -0.032 -0.3675  0.0824 -0.1747
   15CHTO   H37 6230   6.221   4.398  -0.102  0.0646  0.7138 -0.0934
   15CHTO   C27 6231   6.229   4.551   0.127  0.2328  0.1245 -0.7206
   15CHTO   H55 6232   6.200   4.612   0.040 -0.4067  0.1748 -0.4758
   15CHTO    N5 6233   6.102   4.511   0.200  0.0249  0.1960 -0.5822
   15CHTO   H43 6234   6.031   4.460   0.137  0.5290  1.3228 -2.0862
   15CHTO   H44 6235   6.061   4.603   0.238 -1.5819  0.1759 -2.2052
   15CHTO   C25 6236   6.312   4.645   0.220 -0.1091  0.0037 -0.0408
   15CHTO   H53 6237   6.314   4.598   0.319 -2.2170 -0.1282 -0.0392
   15CHTO   O17 6238   6.450   4.667   0.167  0.1712 -0.2551 -0.3737
   15CHTO   C32 6239   6.529   4.551   0.152  0.0744 -0.0295  0.2711
   15CHTO   H60 6240   6.542   4.490   0.242  0.6425 -0.8923 -0.3875
   15CHTO   C36 6241   6.665   4.596   0.099  0.7981 -0.0974 -0.9796
   15CHTO   O25 6242   6.745   4.642   0.208 -0.2629 -0.3836 -0.4969
   15CHTO   H40 6243   6.829   4.602   0.196 -0.8742 -1.8654  0.1236
   15CHTO   O15 6244   6.226   4.790   0.256 -0.3781 -0.0356  0.2183
   15CHTO   C19 6245   6.243   4.925   0.308 -0.0320  0.1997  0.0933
   15CHTO   H47 6246   6.327   4.960   0.246  1.2533 -0.7006  1.3114
   15CHTO   C20 6247   6.118   5.018   0.294  0.1914 -0.2516 -0.3144
   15CHTO   H48 6248   6.030   4.972   0.341 -0.2441 -0.9166 -1.7448
   15CHTO   O19 6249   6.097   5.044   0.159 -0.4028 -0.3024 -0.0619
   15CHTO   H35 6250   6.161   5.106   0.128  0.3561 -0.9140  0.2674
   15CHTO   C21 6251   6.144   5.154   0.380  0.1444 -0.0485  0.1382
   15CHTO   H49 6252   6.218   5.209   0.323 -0.6978  0.5564 -0.3836
   15CHTO    N4 6253   6.024   5.234   0.373 -0.0957  0.1782 -0.3226
   15CHTO   H41 6254   5.931   5.186   0.397 -1.8059  3.6541  0.2847
   15CHTO   H42 6255   6.017   5.275   0.273  0.8959  3.0431  0.7230
   15CHTO   C22 6256   6.192   5.130   0.527 -0.0594  0.0298  0.4282
   15CHTO   H50 6257   6.112   5.074   0.575 -0.0480 -0.0379  0.3672
   15CHTO   O14 6258   6.315   5.052   0.511  0.3777  0.4568 -0.5644
   15CHTO   C23 6259   6.298   4.923   0.451 -0.4888 -0.1461 -0.0116
   15CHTO   H51 6260   6.236   4.864   0.520 -0.3606  1.8092  1.7979
   15CHTO   C34 6261   6.431   4.846   0.464  0.4183 -0.4666  0.1737
   15CHTO   O23 6262   6.477   4.843   0.596 -0.1257  0.2830  0.5013
   15CHTO   H38 6263   6.565   4.812   0.609 -0.2211 -1.2576 -2.2926
   15CHTO   O16 6264   6.226   5.250   0.591 -0.8607 -0.2148 -0.0420
   15CHTO   C24 6265   6.296   5.231   0.739  0.5803 -0.4187 -1.0129
   15CHTO   H52 6266   6.315   5.127   0.766 -3.0270 -0.5751  1.2058
   15CHTO   C26 6267   6.203   5.297   0.841 -0.5550  0.0133  0.8212
   15CHTO   H54 6268   6.176   5.397   0.803  2.2378  0.0152 -1.3543
   15CHTO   O20 6269   6.090   5.211   0.859 -0.6609  0.1310 -0.0314
   15CHTO   H36 6270   6.051   5.184   0.778 -0.1164 -1.0013  0.0793
   15CHTO   C30 6271   6.269   5.302   0.981  0.4344  0.0367  0.6649
   15CHTO   H58 6272   6.289   5.201   1.019  0.0114 -0.4396 -0.3697
   15CHTO    N6 6273   6.185   5.368   1.081 -0.5571 -0.2770 -0.9999
   15CHTO   H45 6274   6.229   5.374   1.180  0.4688  2.2730 -1.5616
   15CHTO   H46 6275   6.083   5.334   1.087 -1.1041  1.7479  2.6335
   15CHTO   C33 6276   6.403   5.375   0.968 -0.8165 -0.5748 -0.9470
   15CHTO   H61 6277   6.390   5.480   0.938  1.9778  0.4001  1.0587
   15CHTO   O18 6278   6.479   5.311   0.868  0.2652  0.3921  0.5189
   15CHTO   C28 6279   6.424   5.310   0.738  0.0330  0.7470  0.1912
   15CHTO   H56 6280   6.406   5.413   0.706 -0.3931  0.5078 -0.3507
   15CHTO   C35 6281   6.534   5.238   0.661  0.6049  0.7262 -0.2656
   15CHTO   O24 6282   6.644   5.320   0.632  0.5348  0.0553 -0.4314
   15CHTO   H39 6283   6.621   5.408   0.610  0.3101  0.0409 -0.2651
   15CHTO    O9 6284   6.477   5.382   1.089  0.8142  0.1662 -0.3368
   15CHTO   C13 6285   6.615   5.490   1.081 -0.3023 -0.0745  0.4545
   15CHTO   H26 6286   6.569   5.589   1.058  0.0997 -0.6202 -2.9279
   15CHTO   C11 6287   6.717   5.448   0.964  0.2619  0.0122 -0.0161
   15CHTO   H24 6288   6.660   5.472   0.873 -0.5343  0.4821  0.5956
   15CHTO    O8 6289   6.745   5.305   0.957 -0.1256 -0.2888 -0.2733
   15CHTO    H3 6290   6.797   5.295   0.880 -1.0449  2.5981 -1.3293
   15CHTO    C9 6291   6.850   5.523   0.984  0.3395 -0.8494  0.2686
   15CHTO   H22 6292   6.820   5.628   1.001 -2.2305 -1.3992 -0.8100
   15CHTO    N2 6293   6.948   5.534   0.867 -0.1665  0.3820 -0.0849
   15CHTO   H10 6294   7.052   5.545   0.892  0.4503 -1.5099 -1.6875
   15CHTO   H11 6295   6.940   5.468   0.782 -1.9240  0.7273 -0.2018
   15CHTO    C7 6296   6.921   5.478   1.121  0.3822 -0.3022  1.3490
   15CHTO   H20 6297   6.964   5.573   1.157  1.1926 -0.0683 -0.1797
   15CHTO    O4 6298   6.827   5.435   1.217  0.3415  0.3357  0.1789
   15CHTO   C14 6299   6.698   5.498   1.219  0.5856 -0.4720  0.4392
   15CHTO   H27 6300   6.709   5.606   1.242  0.2760 -0.8246  2.2942
   15CHTO   C18 6301   6.604   5.438   1.333 -0.0294  0.0422 -0.1927
   15CHTO   O13 6302   6.624   5.491   1.458 -0.2214  0.3363  0.0038
   15CHTO    H7 6303   6.556   5.457   1.513 -1.1900 -0.1943 -1.4671
   15CHTO    O2 6304   7.038   5.353   1.095 -0.5189 -0.0026 -0.1762
   15CHTO    C1 6305   7.112   5.318   1.215 -0.1316  0.1996  0.1933
   15CHTO   H14 6306   7.065   5.354   1.309 -0.7296  0.2743 -0.1289
   15CHTO    C2 6307   7.262   5.370   1.202 -0.2736 -0.1805 -0.0894
   15CHTO   H15 6308   7.316   5.330   1.114 -0.0807  4.1185 -2.0236
   15CHTO    O6 6309   7.260   5.511   1.193  0.0322  0.3813 -0.0247
   15CHTO    H1 6310   7.220   5.535   1.111  0.2386  0.3160 -0.1461
   15CHTO    C3 6311   7.345   5.308   1.331  0.3671 -0.4216 -0.3062
   15CHTO   H16 6312   7.306   5.348   1.426  2.5409  1.6502 -0.2325
   15CHTO    N1 6313   7.489   5.353   1.310 -0.9895  0.4362  0.1112
   15CHTO    H8 6314   7.547   5.269   1.274 -1.9594  0.8839 -2.6555
   15CHTO    H9 6315   7.531   5.412   1.390 -0.7880 -0.4472  0.6633
   15CHTO    C4 6316   7.329   5.152   1.328 -0.9163  0.2225  0.0387
   15CHTO   H17 6317   7.390   5.118   1.245  0.6603  1.0012  0.8608
   15CHTO    O1 6318   7.193   5.113   1.327 -0.1164  0.0839 -0.1081
   15CHTO    C5 6319   7.111   5.159   1.212 -0.5861  0.8030 -0.4571
   15CHTO   H18 6320   7.146   5.124   1.115 -0.5404  2.0654 -0.9074
   15CHTO   C16 6321   6.980   5.088   1.251 -0.2370  0.0632 -0.0213
   15CHTO   O11 6322   6.882   5.115   1.151 -0.4760  0.0227 -0.1423
   15CHTO    H5 6323   6.870   5.208   1.143  0.9081  0.2304  0.0579
   15CHTO    O3 6324   7.371   5.084   1.451 -0.0552  0.7611 -0.5986
   15CHTO    C6 6325   7.503   5.020   1.458  0.2964 -0.0364  0.4244
   15CHTO   H19 6326   7.570   5.031   1.373  1.0182  1.2274  1.1456
   15CHTO    C8 6327   7.572   5.071   1.588  0.3786  0.0033  0.2933
   15CHTO   H21 6328   7.507   5.061   1.675  1.5963  2.2962  1.5295
   15CHTO    O7 6329   7.604   5.217   1.576  0.2068  0.1248 -0.1974
   15CHTO    H2 6330   7.561   5.267   1.644 -0.0075 -0.7103  0.2862
   15CHTO   C12 6331   7.703   4.980   1.615  0.0626 -0.3505 -0.5206
   15CHTO   H25 6332   7.764   4.999   1.524 -1.3281 -2.8026 -2.0251
   15CHTO    N3 6333   7.777   5.019   1.741  0.6506  0.0983  0.1393
   15CHTO   H12 6334   7.852   4.943   1.755 -1.3016 -1.7868  0.6249
   15CHTO   H13 6335   7.838   5.106   1.721 -1.3958  1.1923 -1.6067
   15CHTO   C15 6336   7.661   4.828   1.616 -0.2350  0.7989  0.0728
   15CHTO   H28 6337   7.603   4.808   1.706 -1.5058 -0.8521 -1.0732
   15CHTO   O10 6338   7.784   4.742   1.613 -0.3871  0.0909  0.6044
   15CHTO    H4 6339   7.763   4.651   1.610  0.7744 -0.1982  0.9681
   15CHTO    O5 6340   7.594   4.789   1.495 -0.0972 -0.5648 -0.2573
   15CHTO   C10 6341   7.478   4.874   1.474  0.8365  0.2295 -0.5118
   15CHTO   H23 6342   7.409   4.857   1.557 -0.9226 -1.4222 -2.2455
   15CHTO   C17 6343   7.423   4.802   1.347 -0.0453  0.3130 -0.2617
   15CHTO   O12 6344   7.329   4.868   1.264  0.1252  0.8550  0.0322
   15CHTO    H6 6345   7.264   4.808   1.233  0.0487  0.9027  0.1016
   16CHTO  H203 6346   5.356   5.350   0.562 -1.0310  0.5511 -0.0480
   16CHTO   O82 6347   5.448   5.364   0.575 -0.8616 -0.3125 -0.2702
   16CHTO  C123 6348   5.487   5.286   0.691  0.1026 -0.0071  0.4886
   16CHTO  H227 6349   5.403   5.274   0.762 -0.9098  0.1343 -0.6686
   16CHTO   O77 6350   5.524   5.160   0.621 -0.0122  0.7287 -0.3838
   16CHTO  C118 6351   5.552   5.053   0.710 -0.6667 -0.1820  0.0324
   16CHTO  H222 6352   5.468   5.042   0.780  0.5826  0.8268  1.7182
   16CHTO  C125 6353   5.558   4.913   0.624  0.1847  0.3013 -0.2218
   16CHTO   O84 6354   5.656   4.906   0.527 -0.3080  0.0443  0.0526
   16CHTO  H205 6355   5.666   4.822   0.486 -3.8972 -1.1325  1.4318
   16CHTO  C114 6356   5.681   5.085   0.784 -0.7837  0.1996 -0.4867
   16CHTO  H218 6357   5.762   5.104   0.713 -0.3467  0.8483  0.1679
   16CHTO  C116 6358   5.678   5.224   0.858  0.5424  0.1187 -0.5633
   16CHTO  H220 6359   5.609   5.227   0.945  1.3094 -4.9306  0.3654
   16CHTO   O79 6360   5.807   5.251   0.909 -0.3176 -0.2305  0.6396
   16CHTO  H201 6361   5.816   5.202   0.988 -1.9162 -0.3762  0.7587
   16CHTO  C120 6362   5.619   5.338   0.764 -0.1252 -0.1067  0.4329
   16CHTO  H224 6363   5.701   5.346   0.690 -1.2333 -3.4860 -1.2737
   16CHTO   N21 6364   5.597   5.466   0.833  0.3088 -0.4796 -0.1909
   16CHTO  H211 6365   5.673   5.495   0.904 -0.9203 -1.2436  1.4512
   16CHTO  H212 6366   5.497   5.488   0.866  1.1305  6.4369 -1.5299
   16CHTO   O75 6367   5.698   4.964   0.873  0.2470 -0.2789  0.3280
   16CHTO  C112 6368   5.852   4.919   0.841  0.1433 -0.4399 -0.3528
   16CHTO  H216 6369   5.917   5.004   0.814  2.0457 -1.4015  1.0863
   16CHTO   O73 6370   5.848   4.823   0.735 -0.3500 -0.5202 -0.3602
   16CHTO  C113 6371   5.975   4.783   0.688 -0.1789 -0.1860  0.3363
   16CHTO  H217 6372   6.043   4.865   0.656 -0.5306  0.6420  1.6640
   16CHTO  C124 6373   5.954   4.694   0.571  0.4764 -0.2012 -0.4931
   16CHTO   O83 6374   5.896   4.749   0.455  0.0270 -0.8051 -0.0269
   16CHTO  H204 6375   5.845   4.683   0.415 -0.4738  0.1728 -1.0237
   16CHTO  C109 6376   6.056   4.707   0.797 -0.3771 -0.3084  0.0998
   16CHTO  H213 6377   6.012   4.607   0.805  1.6579 -1.2285  0.0134
   16CHTO  C110 6378   6.056   4.793   0.930 -0.7485  0.6609 -0.9406
   16CHTO  H214 6379   6.120   4.880   0.915  2.2383 -1.3780 -0.4996
   16CHTO   O78 6380   6.109   4.713   1.035  0.0922  0.3725 -0.2455
   16CHTO  H200 6381   6.193   4.677   1.011  1.2100  2.1725  0.8058
   16CHTO  C111 6382   5.915   4.856   0.965  0.6857  0.0999 -0.1725
   16CHTO  H215 6383   5.849   4.775   0.997  0.2761  0.0062 -1.2524
   16CHTO   N19 6384   5.919   4.957   1.077  0.3837  0.0706  0.6986
   16CHTO  H207 6385   5.981   5.040   1.044 -0.1589  0.7604  1.3811
   16CHTO  H208 6386   5.962   4.936   1.174  1.1816  0.2815  0.3994
   16CHTO   O74 6387   6.194   4.682   0.758 -0.3133  0.1246  0.2057
   16CHTO  C115 6388   6.252   4.547   0.797  0.6104 -0.0165  1.0322
   16CHTO  H219 6389   6.229   4.527   0.902  2.9020  2.0517  1.9854
   16CHTO   O76 6390   6.188   4.425   0.713 -0.5981  0.7733 -0.6271
   16CHTO  C122 6391   6.238   4.404   0.579 -0.0696 -0.6050 -0.1832
   16CHTO  H226 6392   6.227   4.492   0.516  2.7356  1.1701  1.7124
   16CHTO  C126 6393   6.145   4.298   0.512 -0.2356 -0.0201  1.1046
   16CHTO   O85 6394   6.015   4.337   0.508 -0.2135 -0.5995  0.2389
   16CHTO  H206 6395   5.971   4.255   0.495  0.1086 -0.8755  0.8621
   16CHTO  C121 6396   6.391   4.375   0.570  0.6333  0.2450 -0.5167
   16CHTO  H225 6397   6.411   4.268   0.549  0.3660 -0.0880  0.8843
   16CHTO   O81 6398   6.457   4.439   0.462  0.0789  0.0285 -0.6808
   16CHTO  H202 6399   6.534   4.489   0.481 -0.8104  1.2649 -0.3403
   16CHTO  C119 6400   6.456   4.414   0.701  0.1440 -0.2044 -0.2143
   16CHTO  H223 6401   6.432   4.336   0.773  3.2300 -2.0553 -1.1295
   16CHTO  C117 6402   6.406   4.545   0.766 -0.3015  0.5557 -0.1401
   16CHTO  H221 6403   6.414   4.633   0.702 -0.4410  0.1372 -0.7358
   16CHTO   N20 6404   6.484   4.588   0.884  0.5410  0.2057  0.2373
   16CHTO  H209 6405   6.578   4.625   0.845 -0.0361 -0.0150 -1.3994
   16CHTO  H210 6406   6.436   4.662   0.946 -1.5721  0.5537 -1.7125
   16CHTO   O80 6407   6.618   4.396   0.688 -0.4081  0.5886 -0.7296
   16CHTO  C103 6408   6.678   4.248   0.675  0.4359 -0.5726 -0.4211
   16CHTO  H190 6409   6.595   4.179   0.690 -0.2121  0.3212  0.1292
   16CHTO  C101 6410   6.759   4.208   0.549 -0.1798 -0.2216 -0.1354
   16CHTO  H188 6411   6.834   4.282   0.525 -0.9597 -0.2027 -2.6253
   16CHTO   O68 6412   6.650   4.194   0.435 -0.0548 -0.0609 -0.1655
   16CHTO  H168 6413   6.618   4.278   0.409  1.2259  0.7419  0.7760
   16CHTO   C99 6414   6.829   4.065   0.569  0.9932  0.5652 -0.2241
   16CHTO  H186 6415   6.747   3.991   0.558 -0.6001  2.2251  0.0920
   16CHTO   N17 6416   6.919   4.016   0.458 -0.2567  0.2250  0.0104
   16CHTO  H174 6417   6.960   4.099   0.401  2.5937 -1.0495  0.1365
   16CHTO  H175 6418   6.998   3.951   0.493  0.4666  0.4397 -1.1907
   16CHTO   C97 6419   6.896   4.046   0.707  0.1617  0.5385  0.1184
   16CHTO  H184 6420   6.999   4.086   0.707  0.3966 -0.0571 -1.3373
   16CHTO   O64 6421   6.814   4.104   0.810 -0.2633 -0.3807 -0.0016
   16CHTO  C104 6422   6.771   4.234   0.796  0.5610 -0.7876 -0.0893
   16CHTO  H191 6423   6.855   4.303   0.790  0.1684 -0.1171  1.9487
   16CHTO  C108 6424   6.704   4.277   0.925  0.1613  0.1476  0.0284
   16CHTO   O71 6425   6.811   4.326   1.005  0.7193  0.0382  0.5639
   16CHTO  H171 6426   6.873   4.258   1.025 -0.7427 -1.2497  0.8852
   16CHTO   O62 6427   6.899   3.906   0.749 -0.5396 -0.4950  0.4883
   16CHTO   C91 6428   6.914   3.855   0.885  0.3318  0.1665  0.0496
   16CHTO  H178 6429   6.926   3.943   0.949  0.9850 -1.1113  1.6882
   16CHTO   C92 6430   7.047   3.772   0.878  0.6168  0.1547  0.3993
   16CHTO  H179 6431   7.050   3.708   0.788  2.1815  1.0517 -0.2102
   16CHTO   O66 6432   7.159   3.871   0.863  0.0446 -0.1836 -0.1918
   16CHTO  H166 6433   7.167   3.903   0.776 -0.2513 -0.6315 -0.3858
   16CHTO   C93 6434   7.069   3.685   1.012  0.3402  0.0801  0.5214
   16CHTO  H180 6435   7.105   3.756   1.088  1.6772  0.8151 -0.7642
   16CHTO   N16 6436   7.182   3.593   0.997  0.3338 -0.3970 -0.2812
   16CHTO  H172 6437   7.154   3.524   0.919 -2.0500  1.0815 -0.7906
   16CHTO  H173 6438   7.195   3.548   1.094 -2.0441  0.1251  0.3045
   16CHTO   C94 6439   6.939   3.612   1.058 -0.2633  0.2008  0.3991
   16CHTO  H181 6440   6.918   3.526   0.994 -0.1493  2.2224 -2.4260
   16CHTO   O61 6441   6.830   3.704   1.050  0.2075  0.1451 -0.1363
   16CHTO   C95 6442   6.800   3.761   0.922 -0.2225 -0.1448  0.2797
   16CHTO  H182 6443   6.797   3.680   0.849 -1.8225 -0.3938  0.5910
   16CHTO  C106 6444   6.656   3.833   0.930 -0.3853 -0.0689 -0.3946
   16CHTO   O69 6445   6.615   3.875   0.800  0.1726 -0.9704  0.2190
   16CHTO  H169 6446   6.559   3.803   0.776  0.0223 -0.7207 -0.2037
   16CHTO   O63 6447   6.961   3.578   1.213  0.1141  0.4163  0.3738
   16CHTO   C96 6448   6.852   3.507   1.288  0.1549 -0.4130 -0.1793
   16CHTO  H183 6449   6.896   3.459   1.375  3.1463  2.2092 -0.2003
   16CHTO   C98 6450   6.769   3.401   1.212  0.1273  0.1922  0.1639
   16CHTO  H185 6451   6.747   3.441   1.112  0.6571 -0.2238 -0.1234
   16CHTO   O67 6452   6.857   3.289   1.191 -0.2883 -0.3932  0.8792
   16CHTO  H167 6453   6.949   3.307   1.189 -0.2871 -0.4663 -0.0002
   16CHTO  C102 6454   6.630   3.356   1.289  0.6740 -0.5448  1.0533
   16CHTO  H189 6455   6.663   3.304   1.380  1.6481 -1.5221  0.1582
   16CHTO   N18 6456   6.543   3.265   1.212  0.4631  0.3408  0.4099
   16CHTO  H176 6457   6.451   3.252   1.267 -0.3567  2.1229 -0.5129
   16CHTO  H177 6458   6.534   3.316   1.118  0.9174 -0.6300 -0.1716
   16CHTO  C105 6459   6.565   3.489   1.320 -0.0093 -0.6673 -0.4584
   16CHTO  H192 6460   6.572   3.549   1.230  0.4839 -0.8150 -0.5181
   16CHTO   O65 6461   6.651   3.554   1.423 -0.1612  0.0982  0.2829
   16CHTO  C100 6462   6.762   3.620   1.357 -0.4632  0.4308  0.2950
   16CHTO  H187 6463   6.726   3.698   1.288  0.8993  0.7996 -0.0030
   16CHTO  C107 6464   6.837   3.698   1.466 -0.4401  0.2217  0.1067
   16CHTO   O70 6465   6.774   3.826   1.487  0.1394 -0.3187  0.0527
   16CHTO  H170 6466   6.770   3.841   1.580  0.5213  1.4694 -0.1988
   16CHTO   O57 6467   6.410   3.486   1.365  0.4000 -0.0611  0.3331
   16CHTO   C85 6468   6.321   3.571   1.299  0.1137 -0.1744  0.2568
   16CHTO  H157 6469   6.359   3.579   1.195 -0.4746 -2.0282 -0.1125
   16CHTO   C83 6470   6.323   3.718   1.343  0.0568 -0.0348  0.1497
   16CHTO  H155 6471   6.425   3.754   1.340  0.5722 -1.4130  0.9051
   16CHTO   O56 6472   6.288   3.722   1.480  0.8554  0.1887 -0.9144
   16CHTO  H135 6473   6.365   3.705   1.531  0.7943  2.9519  0.1913
   16CHTO   C81 6474   6.234   3.805   1.252 -0.4059  0.0797  0.1208
   16CHTO  H153 6475   6.276   3.805   1.152 -1.4053  0.7201 -0.3058
   16CHTO   N14 6476   6.251   3.945   1.292  0.6237 -0.2710 -0.5484
   16CHTO  H141 6477   6.351   3.979   1.276  0.3186  1.9330  1.7176
   16CHTO  H142 6478   6.184   4.009   1.240  1.9322  0.7607 -0.9866
   16CHTO   C79 6479   6.084   3.746   1.248 -0.5670 -0.1761 -0.2183
   16CHTO  H151 6480   6.038   3.783   1.156  0.0425  0.3260 -0.3254
   16CHTO   O52 6481   6.090   3.603   1.211 -0.6268  0.0213  0.0602
   16CHTO   C86 6482   6.168   3.519   1.301 -0.4903  0.2718 -0.5136
   16CHTO  H158 6483   6.126   3.530   1.403 -0.7780 -1.9246 -0.3609
   16CHTO   C90 6484   6.161   3.362   1.273  0.4554 -0.6873  0.1602
   16CHTO   O60 6485   6.024   3.322   1.275 -0.2503  0.1256 -0.3242
   16CHTO  H138 6486   6.027   3.236   1.312 -0.4325 -0.2705 -1.2317
   16CHTO   O50 6487   6.003   3.777   1.363  0.4747  0.3015  0.0587
   16CHTO   C73 6488   5.868   3.745   1.408  0.3263 -0.4039 -0.0341
   16CHTO  H145 6489   5.855   3.640   1.438  1.5656  0.0132  2.0729
   16CHTO   C74 6490   5.753   3.777   1.298  0.4220 -0.0567  0.5534
   16CHTO  H146 6491   5.773   3.723   1.204 -1.4080  0.8211 -0.3661
   16CHTO   O54 6492   5.626   3.728   1.338 -0.0294  0.1845  0.2247
   16CHTO  H133 6493   5.630   3.644   1.379 -2.3491 -1.0174 -1.8749
   16CHTO   C75 6494   5.745   3.936   1.274  0.3994 -0.1692  0.1447
   16CHTO  H147 6495   5.838   3.976   1.231  0.1242 -0.3675 -0.6511
   16CHTO   N13 6496   5.642   3.977   1.171  0.1185  0.6634  0.0601
   16CHTO  H139 6497   5.615   3.911   1.089  0.6426  0.4664  0.0396
   16CHTO  H140 6498   5.677   4.068   1.124 -0.0828  0.8582  0.2880
   16CHTO   C76 6499   5.709   4.009   1.409  0.0272  0.5614 -0.0906
   16CHTO  H148 6500   5.606   3.980   1.432 -0.1405  0.1776 -1.3204
   16CHTO   O49 6501   5.808   3.965   1.510 -0.2242 -0.2515  0.4415
   16CHTO   C77 6502   5.816   3.822   1.536 -0.0424  0.2674  0.0213
   16CHTO  H149 6503   5.720   3.781   1.569  0.3341 -0.5697  0.0784
   16CHTO   C88 6504   5.907   3.792   1.652  0.4954  0.3636 -0.1150
   16CHTO   O58 6505   6.041   3.871   1.652 -0.1368  0.1479 -0.0847
   16CHTO  H136 6506   6.117   3.818   1.639 -0.0196 -0.0703  1.3927
   16CHTO   O51 6507   5.723   4.170   1.394 -0.2938  0.4456 -0.2171
   16CHTO   C78 6508   5.653   4.259   1.511 -0.4901 -0.5404 -0.5197
   16CHTO  H150 6509   5.599   4.191   1.580 -0.7841 -0.0305 -0.2452
   16CHTO   C80 6510   5.550   4.355   1.451 -0.0453  0.2152  0.7149
   16CHTO  H152 6511   5.604   4.433   1.395 -0.0583 -0.2967 -0.0257
   16CHTO   O55 6512   5.476   4.283   1.355 -0.1248  0.1565  0.4283
   16CHTO  H134 6513   5.428   4.352   1.313  1.3136  0.9695  0.0950
   16CHTO   C84 6514   5.484   4.421   1.577  0.8018  0.1845  0.3408
   16CHTO  H156 6515   5.428   4.350   1.639  0.7526 -0.1080 -0.0322
   16CHTO   N15 6516   5.373   4.519   1.536 -0.7864  0.3096 -0.3972
   16CHTO  H143 6517   5.402   4.617   1.567  0.0667  0.0490 -0.3730
   16CHTO  H144 6518   5.359   4.511   1.430 -2.0081  0.5764 -0.2703
   16CHTO   C87 6519   5.590   4.492   1.662  0.5981  0.0487 -0.2263
   16CHTO  H159 6520   5.629   4.579   1.609  0.3215 -0.8190 -1.8892
   16CHTO   O53 6521   5.705   4.407   1.691  0.0908 -0.0131  0.1944
   16CHTO   C82 6522   5.764   4.343   1.581 -0.6491  0.4673 -0.0086
   16CHTO  H154 6523   5.810   4.415   1.513  0.2713 -3.0552 -3.3231
   16CHTO   C89 6524   5.884   4.251   1.627  0.1038 -0.4060 -0.2231
   16CHTO   O59 6525   5.968   4.228   1.519 -0.0681 -0.1651 -0.0575
   16CHTO  H137 6526   5.921   4.200   1.443  1.1561  0.8255 -1.1994
   16CHTO   O45 6527   5.536   4.534   1.819  0.0562 -0.0279  0.2367
   16CHTO   C67 6528   5.632   4.614   1.890 -0.3910  0.1655  0.5890
   16CHTO  H124 6529   5.719   4.627   1.826  0.1497 -0.4990  1.1754
   16CHTO   C65 6530   5.577   4.753   1.918 -0.5534 -0.2021 -1.2271
   16CHTO  H122 6531   5.469   4.738   1.928 -0.3182 -0.5498  1.2125
   16CHTO   O44 6532   5.594   4.828   1.798  0.0697  0.3173 -0.2417
   16CHTO  H102 6533   5.667   4.887   1.807 -1.0871  1.6702  0.5152
   16CHTO   C63 6534   5.624   4.807   2.062  0.0170 -0.2127  0.1026
   16CHTO  H120 6535   5.563   4.753   2.135 -1.6927 -1.2217 -2.0157
   16CHTO   N11 6536   5.593   4.950   2.090 -0.2318  0.0526 -0.2881
   16CHTO  H108 6537   5.592   4.977   2.194  0.3992  0.5357 -0.4021
   16CHTO  H109 6538   5.492   4.965   2.058 -0.6678  1.9274  1.7900
   16CHTO   C61 6539   5.773   4.751   2.096  0.3671 -0.8016  0.3156
   16CHTO  H118 6540   5.798   4.789   2.196 -0.8900 -2.0815  1.1320
   16CHTO   O40 6541   5.785   4.617   2.101 -0.1240  0.7327  0.6861
   16CHTO   C68 6542   5.687   4.538   2.024  0.0682 -0.9877 -0.1438
   16CHTO  H125 6543   5.595   4.520   2.083  1.1623  2.3285  2.6941
   16CHTO   C72 6544   5.749   4.402   1.985 -0.1678 -0.1717  0.0221
   16CHTO   O48 6545   5.785   4.328   2.102 -0.4507 -0.3974 -0.0656
   16CHTO  H105 6546   5.876   4.302   2.103 -0.4711 -0.4805 -0.3512
   16CHTO   O38 6547   5.863   4.789   1.987  0.1027 -0.2520 -0.4337
   16CHTO   C55 6548   6.007   4.778   2.014 -0.3824  0.7765  0.2884
   16CHTO  H112 6549   6.044   4.710   2.092  1.2171 -1.0149 -1.9657
   16CHTO   C56 6550   6.051   4.926   2.041  0.4611  0.2757 -0.2145
   16CHTO  H113 6551   6.023   4.984   1.952  1.0045 -1.4160 -1.4985
   16CHTO   O42 6552   5.983   4.980   2.162  0.4598 -0.3254 -0.0852
   16CHTO  H100 6553   5.988   5.073   2.168 -2.8206 -0.2925  4.6108
   16CHTO   C57 6554   6.210   4.930   2.047  0.1251 -0.0215  0.4446
   16CHTO  H114 6555   6.242   4.874   2.135 -0.3730 -2.7559 -1.0639
   16CHTO   N10 6556   6.261   5.066   2.055  0.3596 -0.7951 -0.4187
   16CHTO  H106 6557   6.252   5.104   2.155  1.3715  0.9986 -0.9665
   16CHTO  H107 6558   6.194   5.121   1.990  0.4461  0.7143  0.7604
   16CHTO   C58 6559   6.269   4.864   1.921  0.4040  0.3868  0.3403
   16CHTO  H115 6560   6.239   4.922   1.832 -1.1381  0.0302  0.6015
   16CHTO   O37 6561   6.228   4.729   1.909 -0.2591  0.2877  0.0969
   16CHTO   C59 6562   6.085   4.731   1.884  0.2801 -0.0943  0.3439
   16CHTO  H116 6563   6.063   4.795   1.798 -1.1535 -1.6954 -0.5459
   16CHTO   C70 6564   6.030   4.596   1.829  0.3476 -0.3573  0.3458
   16CHTO   O46 6565   6.085   4.527   1.715 -0.0092  0.2327 -0.8994
   16CHTO  H103 6566   6.062   4.436   1.719 -0.0516  0.3273  2.0668
   16CHTO   O39 6567   6.432   4.847   1.934 -0.0986  0.2589 -0.3295
   16CHTO   C60 6568   6.481   4.788   1.808 -0.3901 -0.6979  0.6208
   16CHTO  H117 6569   6.395   4.757   1.749  0.1820 -0.5334 -0.3123
   16CHTO   C62 6570   6.546   4.905   1.726 -0.0940 -0.4417  0.6038
   16CHTO  H119 6571   6.469   4.985   1.724  1.9255  1.5458  0.7844
   16CHTO   O43 6572   6.654   4.961   1.798  0.5657 -0.9769  0.0330
   16CHTO  H101 6573   6.617   5.017   1.863 -1.4505  0.0800 -1.9537
   16CHTO   C66 6574   6.583   4.845   1.583  0.3450  0.3924 -0.0593
   16CHTO  H123 6575   6.487   4.824   1.535  0.5277  4.2545 -2.3251
   16CHTO   N12 6576   6.641   4.959   1.502 -0.3521 -0.0322 -0.3637
   16CHTO  H110 6577   6.725   4.998   1.558 -0.2776 -2.4375  1.2838
   16CHTO  H111 6578   6.678   4.933   1.404 -0.3880 -0.3074 -0.3049
   16CHTO   C69 6579   6.674   4.719   1.588  0.1914  0.2876  0.2151
   16CHTO  H126 6580   6.779   4.740   1.617  1.0510 -1.1990 -1.7130
   16CHTO   O41 6581   6.612   4.599   1.689  0.0439  0.0880 -0.2526
   16CHTO   C64 6582   6.572   4.666   1.830 -0.8466 -0.3567  0.5326
   16CHTO  H121 6583   6.666   4.699   1.878  1.4122 -0.9707 -3.2350
   16CHTO   C71 6584   6.499   4.552   1.910 -0.5199  0.1950 -0.0097
   16CHTO   O47 6585   6.482   4.578   2.049  0.6879 -0.1560  0.0741
   16CHTO  H104 6586   6.391   4.590   2.071  1.3293  2.8296  1.3541
   16CHTO   O34 6587   6.680   4.660   1.459  0.6711 -0.1289  0.0183
   16CHTO   C49 6588   6.789   4.572   1.371 -0.1042 -0.2123 -0.1491
   16CHTO   H91 6589   6.806   4.633   1.282  1.1490 -0.3830 -0.0397
   16CHTO   C47 6590   6.731   4.425   1.342  0.2929  0.0409 -0.9497
   16CHTO   H89 6591   6.798   4.370   1.272  0.5284 -0.6348 -0.2074
   16CHTO   O33 6592   6.599   4.437   1.279 -0.0021 -0.6708  0.4666
   16CHTO   H70 6593   6.608   4.508   1.218  0.8165 -1.1340  0.0401
   16CHTO   C45 6594   6.725   4.339   1.484  0.5669  0.3892 -0.3643
   16CHTO   H87 6595   6.649   4.384   1.550  1.0171 -1.3067  1.3713
   16CHTO    N8 6596   6.676   4.198   1.464 -0.2681  0.3305  0.2491
   16CHTO   H75 6597   6.617   4.166   1.549  1.1741 -1.9935  0.4363
   16CHTO   H76 6598   6.621   4.182   1.373  0.1609  1.7165 -0.2574
   16CHTO   C43 6599   6.866   4.349   1.564 -0.3537  0.0564  0.9744
   16CHTO   H85 6600   6.850   4.318   1.667 -1.5683  0.2779  0.8634
   16CHTO   O29 6601   6.923   4.480   1.561  0.1953 -0.1755  0.7206
   16CHTO   C50 6602   6.926   4.568   1.448 -0.3849  0.0265  0.8518
   16CHTO   H92 6603   6.954   4.672   1.469 -0.2493 -0.2934  2.2898
   16CHTO   C54 6604   7.046   4.545   1.350  0.2276  0.6160  0.5764
   16CHTO   O36 6605   7.038   4.429   1.270 -0.0597  0.6402  0.2052
   16CHTO   H72 6606   6.988   4.453   1.194 -0.9223  4.2515  1.8169
   16CHTO   O27 6607   6.963   4.254   1.508  0.3271  0.3482  0.1646
   16CHTO   C37 6608   7.064   4.163   1.562 -0.2665 -0.4037  0.2816
   16CHTO   H79 6609   7.165   4.199   1.540 -0.4940  0.7727  1.1530
   16CHTO   C38 6610   7.054   4.142   1.713 -0.0615  0.1353  0.4751
   16CHTO   H80 6611   6.952   4.111   1.742  0.2494  0.8286  2.4033
   16CHTO   O31 6612   7.091   4.268   1.774  0.0221 -0.0157 -0.0690
   16CHTO   H68 6613   7.012   4.319   1.768  0.0551 -0.0268 -0.6066
   16CHTO   C39 6614   7.157   4.024   1.757 -0.1822  0.5418  0.0923
   16CHTO   H81 6615   7.257   4.067   1.754  1.2025 -2.6105 -0.3377
   16CHTO    N7 6616   7.138   3.984   1.897  0.6455  0.6848 -0.1182
   16CHTO   H73 6617   7.045   3.936   1.921 -0.4270  1.7642 -2.0222
   16CHTO   H74 6618   7.225   3.927   1.926  0.8218  0.5404 -0.9033
   16CHTO   C40 6619   7.155   3.900   1.655  0.0260  0.4953  1.4309
   16CHTO   H82 6620   7.071   3.832   1.672 -0.7423  1.8235  3.1549
   16CHTO   O26 6621   7.158   3.944   1.517 -0.3707 -0.4231 -0.3457
   16CHTO   C41 6622   7.044   4.027   1.482 -0.0680 -0.0668 -0.9243
   16CHTO   H83 6623   6.949   3.985   1.519 -0.0374 -1.2714 -2.1744
   16CHTO   C52 6624   7.042   4.045   1.327 -0.0599 -0.0381  0.3554
   16CHTO   O35 6625   6.913   3.999   1.251 -0.2918  0.0560  0.0018
   16CHTO   H71 6626   6.910   3.906   1.248 -0.3507  0.0221  0.8262
   16CHTO   O28 6627   7.276   3.831   1.665 -0.4184 -0.0382  0.5162
   16CHTO   C42 6628   7.276   3.687   1.643 -0.0447  0.0563  0.4494
   16CHTO   H84 6629   7.380   3.658   1.658 -0.0773  0.1302  0.8047
   16CHTO   C44 6630   7.240   3.640   1.499 -0.1846 -1.1816  0.1400
   16CHTO   H86 6631   7.135   3.663   1.479 -0.3782 -0.7701  1.6044
   16CHTO   O32 6632   7.311   3.733   1.411 -0.7180  0.2646 -0.0164
   16CHTO   H69 6633   7.286   3.722   1.321 -1.9331 -0.0191  0.3458
   16CHTO   C48 6634   7.279   3.488   1.475 -0.0071  0.4165 -0.3754
   16CHTO   H90 6635   7.386   3.484   1.495 -0.2909 -0.5762  1.1038
   16CHTO    N9 6636   7.248   3.438   1.338  0.4691  0.4361 -0.0391
   16CHTO   H77 6637   7.340   3.442   1.282  1.0815 -2.4653  0.7128
   16CHTO   H78 6638   7.220   3.334   1.341  1.9443  0.0507  1.0117
   16CHTO   C51 6639   7.185   3.407   1.579 -0.1614  0.1088  0.1590
   16CHTO   H93 6640   7.081   3.425   1.553 -0.1875 -1.0369 -0.5455
   16CHTO   O30 6641   7.215   3.453   1.712  1.0554 -0.1224 -0.1029
   16CHTO   C46 6642   7.190   3.600   1.738  0.4360  0.5085 -1.1398
   16CHTO   H88 6643   7.083   3.619   1.726  0.7069  2.2599 -0.8544
   16CHTO   C53 6644   7.228   3.627   1.882  0.3972 -0.3453 -0.2806
   16CHTO   O72 6645   7.360   3.572   1.908  0.0350 -0.7105  0.3105
   16CHTO  H199 6646   7.425   3.635   1.932 -0.1557 -0.6056  0.5550
   16CHTO   O22 6647   7.210   3.259   1.583  0.3478 -0.0655  0.0068
   16CHTO   C31 6648   7.099   3.170   1.626 -0.4624 -0.4113  0.5528
   16CHTO   H59 6649   7.036   3.228   1.697  1.1284  1.2834  0.6415
   16CHTO   C29 6650   7.013   3.118   1.513 -0.6209  0.0616  0.6476
   16CHTO   H57 6651   7.083   3.084   1.436  0.2076 -0.2832  1.5402
   16CHTO   O21 6652   6.955   3.241   1.457  0.4441  0.2311 -0.3856
   16CHTO   H37 6653   6.890   3.221   1.393  1.6018 -1.2878 -1.1471
   16CHTO   C27 6654   6.910   3.007   1.547  0.4728  0.3149  0.7621
   16CHTO   H55 6655   6.835   3.049   1.616 -0.8013 -1.2955  0.3763
   16CHTO    N5 6656   6.847   2.959   1.422  0.2238  0.2463 -0.7200
   16CHTO   H43 6657   6.745   2.996   1.421  0.1966  0.3618  1.8086
   16CHTO   H44 6658   6.904   2.987   1.334 -2.1344 -1.3595 -2.8309
   16CHTO   C25 6659   6.992   2.897   1.625 -1.7722 -0.2582  0.2247
   16CHTO   H53 6660   7.071   2.868   1.555  0.0030  1.9518  1.2497
   16CHTO   O17 6661   7.067   2.956   1.734 -0.3100 -0.3095 -0.2858
   16CHTO   C32 6662   7.165   3.056   1.702  0.2563  0.0642  0.1257
   16CHTO   H60 6663   7.247   3.014   1.643  0.5551  0.6057  0.1514
   16CHTO   C36 6664   7.225   3.111   1.833 -0.3643 -0.0339 -0.1585
   16CHTO   O25 6665   7.317   3.023   1.890  0.1764 -0.3281 -0.1600
   16CHTO   H40 6666   7.372   2.978   1.829  1.1384  0.1917  0.3096
   16CHTO   O15 6667   6.912   2.789   1.671  0.1104 -0.2996  0.3604
   16CHTO   C19 6668   6.797   2.762   1.761  0.1612  0.5397 -0.0975
   16CHTO   H47 6669   6.801   2.658   1.798  1.9585  0.8499  0.6349
   16CHTO   C20 6670   6.803   2.857   1.884  0.5575  0.7384 -0.5952
   16CHTO   H48 6671   6.796   2.962   1.852  2.0840  1.4940  1.3706
   16CHTO   O19 6672   6.922   2.839   1.963  0.5560  0.2165 -0.5288
   16CHTO   H35 6673   6.928   2.887   2.043 -0.6075  0.5912 -0.6648
   16CHTO   C21 6674   6.674   2.836   1.976  0.7628 -0.3314  0.1799
   16CHTO   H49 6675   6.682   2.742   2.030  1.8959 -0.8213 -0.8249
   16CHTO    N4 6676   6.657   2.940   2.082  0.3790 -0.1347 -0.1831
   16CHTO   H41 6677   6.745   2.956   2.142  0.1184 -2.5328  0.8822
   16CHTO   H42 6678   6.577   2.911   2.149 -0.0646  0.7286 -0.3281
   16CHTO   C22 6679   6.548   2.847   1.889  0.2854 -0.0925  0.7702
   16CHTO   H50 6680   6.530   2.946   1.846  0.4742  0.0621  1.0378
   16CHTO   O14 6681   6.555   2.758   1.782 -0.3013  1.3933 -0.4202
   16CHTO   C23 6682   6.660   2.778   1.683 -0.1968  0.6306  0.1560
   16CHTO   H51 6683   6.650   2.873   1.630  0.3597 -0.6406 -2.2914
   16CHTO   C34 6684   6.639   2.663   1.581  0.1117 -0.1412 -0.2523
   16CHTO   O23 6685   6.517   2.672   1.511 -0.3104 -0.0633 -0.0709
   16CHTO   H38 6686   6.447   2.627   1.554  1.0892 -0.6974  1.5607
   16CHTO   O16 6687   6.430   2.809   1.967  0.2141 -0.3249  0.1919
   16CHTO   C24 6688   6.281   2.865   1.914 -0.3038 -0.7902 -0.1302
   16CHTO   H52 6689   6.284   2.904   1.812  0.1627 -2.8696 -0.9347
   16CHTO   C26 6690   6.244   2.979   2.012 -0.6851 -0.7668 -0.3644
   16CHTO   H54 6691   6.229   2.936   2.113 -1.6552  2.4166  0.9129
   16CHTO   O20 6692   6.349   3.079   2.007  0.0241 -0.0426 -0.2615
   16CHTO   H36 6693   6.414   3.053   2.070 -1.1582 -2.4065  0.0428
   16CHTO   C30 6694   6.107   3.032   1.972  0.0351 -0.8915 -0.0744
   16CHTO   H58 6695   6.106   3.075   1.871 -1.3382 -1.0026 -0.1205
   16CHTO    N6 6696   6.067   3.155   2.047  0.4104  0.6262  0.2848
   16CHTO   H45 6697   5.959   3.166   2.043  0.4552  0.3208 -2.2356
   16CHTO   H46 6698   6.101   3.135   2.148 -1.2732  2.0590  1.1700
   16CHTO   C33 6699   6.002   2.914   1.976 -0.6097 -0.8490  0.1303
   16CHTO   H61 6700   6.004   2.866   2.075 -1.3320 -1.1500 -0.0017
   16CHTO   O18 6701   6.046   2.809   1.889 -0.8191  0.7105  0.2510
   16CHTO   C28 6702   6.173   2.751   1.914  0.0081 -0.1088  0.7294
   16CHTO   H56 6703   6.180   2.696   2.008 -0.3182  0.4009  1.0497
   16CHTO   C35 6704   6.201   2.652   1.807  0.3748  0.3407 -0.0312
   16CHTO   O24 6705   6.322   2.577   1.840  0.0804 -0.4484 -0.3429
   16CHTO   H39 6706   6.300   2.486   1.840 -0.6161 -0.3380  2.4946
   16CHTO    O9 6707   5.865   2.949   1.955  0.5200 -0.1727  0.6281
   16CHTO   C13 6708   5.753   2.916   2.054  0.0438 -0.1997 -0.0131
   16CHTO   H26 6709   5.785   2.946   2.156 -1.1808 -0.9957  0.6260
   16CHTO   C11 6710   5.721   2.761   2.048 -0.0418 -0.3495 -0.2324
   16CHTO   H24 6711   5.791   2.707   2.114  0.3860  0.6963  0.1724
   16CHTO    O8 6712   5.723   2.715   1.912  0.2732  0.1761 -0.1848
   16CHTO    H3 6713   5.809   2.680   1.894  0.9014  1.1385  0.8732
   16CHTO    C9 6714   5.578   2.732   2.116 -0.3308 -0.4629 -0.4038
   16CHTO   H22 6715   5.578   2.778   2.216 -4.7211  1.6483 -1.2390
   16CHTO    N2 6716   5.562   2.587   2.145 -0.3836  0.7442  0.0376
   16CHTO   H10 6717   5.514   2.539   2.061 -2.6085  2.0013  0.5574
   16CHTO   H11 6718   5.495   2.583   2.229  0.2741  0.7842  0.5647
   16CHTO    C7 6719   5.467   2.810   2.040 -0.9350  0.8411  0.4927
   16CHTO   H20 6720   5.392   2.846   2.114  1.1571 -0.4436  3.3392
   16CHTO    O4 6721   5.514   2.923   1.975 -0.1410 -0.1140  0.4458
   16CHTO   C14 6722   5.618   3.001   2.029  0.6294 -0.3153 -0.0590
   16CHTO   H27 6723   5.583   3.032   2.130 -0.1503 -0.9892 -0.1143
   16CHTO   C18 6724   5.638   3.126   1.946  0.4022  0.2022 -0.0461
   16CHTO   O13 6725   5.716   3.227   2.008 -0.7750 -0.8841  0.2677
   16CHTO    H7 6726   5.689   3.312   1.981 -1.1844 -1.0828  0.0479
   16CHTO    O2 6727   5.396   2.706   1.921 -0.2634 -0.6829 -0.1110
   16CHTO    C1 6728   5.252   2.723   1.898 -0.0536  0.4875  0.5926
   16CHTO   H14 6729   5.222   2.654   1.817  0.0771  0.6234  0.4297
   16CHTO    C2 6730   5.202   2.864   1.860  0.8052 -0.2606  0.0769
   16CHTO   H15 6731   5.224   2.947   1.928  4.0877 -1.2222  0.2663
   16CHTO    O6 6732   5.278   2.899   1.741 -0.1942  0.1810  0.2126
   16CHTO    H1 6733   5.270   2.835   1.673 -2.4705 -0.2649  0.8510
   16CHTO    C3 6734   5.052   2.844   1.827  0.3749 -0.4696  0.3607
   16CHTO   H16 6735   5.025   2.782   1.740 -0.0351  1.6074 -1.0185
   16CHTO    N1 6736   4.995   2.983   1.785 -0.1475 -0.3358 -0.3188
   16CHTO    H8 6737   5.068   3.063   1.779  1.1893 -1.3904  1.3372
   16CHTO    H9 6738   4.931   3.008   1.867 -0.2815  0.3661 -0.6388
   16CHTO    C4 6739   4.964   2.776   1.941  0.2608  0.0596  0.3303
   16CHTO   H17 6740   4.956   2.845   2.025  1.5200  0.5153  0.0995
   16CHTO    O1 6741   5.027   2.660   1.988 -0.1270  0.5128  0.2151
   16CHTO    C5 6742   5.164   2.679   2.024  0.6724 -0.0156 -0.0229
   16CHTO   H18 6743   5.173   2.760   2.096  4.2544 -0.9447  0.6511
   16CHTO   C16 6744   5.211   2.550   2.093 -0.1008 -0.0949 -0.2780
   16CHTO   O11 6745   5.161   2.540   2.225  0.4406  0.1605 -0.3428
   16CHTO    H5 6746   5.229   2.565   2.284 -0.1070  0.2494  0.2650
   16CHTO    O3 6747   4.829   2.751   1.903  0.1579  1.3620  0.1300
   16CHTO    C6 6748   4.734   2.720   2.013  0.1286 -0.0211  0.4120
   16CHTO   H19 6749   4.779   2.682   2.105  0.1243 -0.3432  0.2805
   16CHTO    C8 6750   4.656   2.851   2.060 -1.0672  0.8185  0.2493
   16CHTO   H21 6751   4.623   2.903   1.969  0.4951  0.0014 -0.8056
   16CHTO    O7 6752   4.761   2.927   2.126  0.0201 -0.5753 -0.0914
   16CHTO    H2 6753   4.832   2.923   2.064  0.3168 -1.7291  0.2989
   16CHTO   C12 6754   4.540   2.816   2.160  0.2118  0.3033  0.4152
   16CHTO   H25 6755   4.586   2.782   2.255  0.3532  0.8380  0.5402
   16CHTO    N3 6756   4.462   2.944   2.198  0.0796  0.4860 -0.0424
   16CHTO   H12 6757   4.453   2.953   2.305 -0.2607 -2.6385  0.2561
   16CHTO   H13 6758   4.503   3.032   2.150  3.7526 -1.0776  0.0030
   16CHTO   C15 6759   4.448   2.708   2.099 -0.1689  0.6344 -0.0131
   16CHTO   H28 6760   4.387   2.750   2.019  0.8802 -0.6722 -1.5227
   16CHTO   O10 6761   4.360   2.630   2.213  0.3308 -0.2701  0.6419
   16CHTO    H4 6762   4.282   2.677   2.235  0.7681  1.1550 -0.7393
   16CHTO    O5 6763   4.531   2.597   2.065 -0.1236  0.0250  0.1256
   16CHTO   C10 6764   4.632   2.614   1.970  0.3505  0.1082 -0.3575
   16CHTO   H23 6765   4.575   2.649   1.884 -2.3995  1.1652  1.8078
   16CHTO   C17 6766   4.704   2.478   1.950  0.2927 -0.1525 -0.6157
   16CHTO   O12 6767   4.804   2.440   2.045  0.2459 -0.2780 -0.1553
   16CHTO    H6 6768   4.879   2.496   2.042  0.2829 -0.2816  0.5830
   17CHTO  H203 6769   4.762   5.344   1.151 -0.5801  0.7563 -1.5674
   17CHTO   O82 6770   4.788   5.430   1.177  0.8336 -0.0488 -0.2455
   17CHTO  C123 6771   4.685   5.523   1.135 -0.2240 -0.2905  0.3398
   17CHTO  H227 6772   4.586   5.481   1.159 -0.1576  0.5883  2.2109
   17CHTO   O77 6773   4.705   5.652   1.204 -0.5030  0.3231 -0.1866
   17CHTO  C118 6774   4.599   5.746   1.183 -0.2291 -1.0035  1.1572
   17CHTO  H222 6775   4.508   5.690   1.209  2.5848 -5.0069  2.8626
   17CHTO  C125 6776   4.621   5.865   1.287  0.4355 -0.2795 -1.1345
   17CHTO   O84 6777   4.610   5.809   1.422 -0.0390 -0.0784  0.3260
   17CHTO  H205 6778   4.524   5.773   1.434 -0.7927  0.7144 -2.2606
   17CHTO  C114 6779   4.604   5.791   1.039 -0.3255 -0.1086  0.0123
   17CHTO  H218 6780   4.703   5.830   1.017 -0.3979  0.4808  0.6994
   17CHTO  C116 6781   4.588   5.672   0.936  0.1782  0.4246 -0.2899
   17CHTO  H220 6782   4.485   5.632   0.933 -0.1639  0.7800  3.7541
   17CHTO   O79 6783   4.626   5.722   0.802  0.2805 -0.4125 -0.5162
   17CHTO  H201 6784   4.706   5.770   0.817 -1.1803  1.9198  0.0249
   17CHTO  C120 6785   4.683   5.554   0.978 -0.9357  1.0184 -0.3678
   17CHTO  H224 6786   4.784   5.597   0.960 -0.7630  1.9319  2.4243
   17CHTO   N21 6787   4.665   5.424   0.903 -0.3902 -0.1346 -0.5688
   17CHTO  H211 6788   4.669   5.341   0.973  0.4046 -0.5770 -1.1236
   17CHTO  H212 6789   4.762   5.410   0.855 -0.1051 -1.8532  0.4637
   17CHTO   O75 6790   4.502   5.895   1.026  0.2354 -0.3963  0.4937
   17CHTO  C112 6791   4.526   6.021   0.900 -0.0291  0.3414 -0.6816
   17CHTO  H216 6792   4.476   5.985   0.808 -1.7591 -0.3432  0.5058
   17CHTO   O73 6793   4.663   6.031   0.879  0.2102  0.5776  0.1714
   17CHTO  C113 6794   4.710   6.137   0.795 -0.1625  0.1578  0.3365
   17CHTO  H217 6795   4.650   6.128   0.702  1.0045 -0.5123 -0.3690
   17CHTO  C124 6796   4.861   6.114   0.774  0.3872 -0.0543 -0.4898
   17CHTO   O83 6797   4.904   5.978   0.738  0.2062  0.0102 -0.2488
   17CHTO  H204 6798   4.923   5.927   0.814  3.2438  1.0731 -0.2311
   17CHTO  C109 6799   4.674   6.275   0.852 -0.0996 -0.3125  0.3110
   17CHTO  H213 6800   4.719   6.282   0.953 -1.2850  0.6285  0.7868
   17CHTO  C110 6801   4.520   6.284   0.871 -0.3954 -0.0139  0.9828
   17CHTO  H214 6802   4.475   6.282   0.771 -0.1993  0.1652  0.8915
   17CHTO   O78 6803   4.500   6.409   0.934 -0.8857 -0.2828  0.0602
   17CHTO  H200 6804   4.408   6.422   0.951 -0.8063 -0.6561  0.8123
   17CHTO  C111 6805   4.477   6.161   0.957 -0.7016  0.4031 -1.1301
   17CHTO  H215 6806   4.519   6.174   1.058  0.3645  0.1370 -1.5356
   17CHTO   N19 6807   4.335   6.157   0.974  0.4462 -0.1651 -0.6741
   17CHTO  H207 6808   4.310   6.097   1.060 -2.6785 -0.0330 -1.4128
   17CHTO  H208 6809   4.289   6.124   0.882 -0.6964 -1.9640  0.5179
   17CHTO   O74 6810   4.734   6.380   0.763  0.3315  0.2269 -0.1393
   17CHTO  C115 6811   4.765   6.517   0.835  0.0279 -0.6759  0.0131
   17CHTO  H219 6812   4.678   6.560   0.885  1.1578 -0.1618  1.5875
   17CHTO   O76 6813   4.881   6.494   0.939 -0.0420  0.5489 -0.0549
   17CHTO  C122 6814   5.008   6.506   0.878 -0.3621  0.5869 -0.2209
   17CHTO  H226 6815   5.018   6.438   0.793 -0.0099  1.0435 -0.5443
   17CHTO  C126 6816   5.122   6.461   0.975 -0.1133 -0.1101 -0.0512
   17CHTO   O85 6817   5.095   6.329   1.010 -0.3388  0.0899 -0.1733
   17CHTO  H206 6818   5.122   6.265   0.947 -3.0900  0.0052 -1.3564
   17CHTO  C121 6819   5.034   6.654   0.824  0.8171  0.7603 -0.7564
   17CHTO  H225 6820   5.066   6.717   0.910  0.9956  1.1298 -1.0909
   17CHTO   O81 6821   5.127   6.647   0.717  0.1926 -0.2561  0.1392
   17CHTO  H202 6822   5.143   6.557   0.696 -0.5843 -0.8125  1.8069
   17CHTO  C119 6823   4.902   6.721   0.770  0.4919 -0.0727  0.1373
   17CHTO  H223 6824   4.859   6.767   0.859 -2.2811 -1.5416 -0.3917
   17CHTO  C117 6825   4.803   6.617   0.719  0.3099  1.1443 -0.0119
   17CHTO  H221 6826   4.844   6.554   0.641  0.2581  2.2960 -0.9972
   17CHTO   N20 6827   4.683   6.684   0.663  0.4348  0.1752  0.5884
   17CHTO  H209 6828   4.668   6.643   0.565  0.3814 -0.9614  1.0601
   17CHTO  H210 6829   4.594   6.689   0.725 -1.1972 -0.1452 -1.6502
   17CHTO   O80 6830   4.942   6.847   0.674  0.1440 -0.1575  0.3676
   17CHTO  C103 6831   4.995   6.980   0.732 -0.0669 -0.3602 -0.1375
   17CHTO  H190 6832   4.929   7.011   0.813 -0.6658 -1.2350 -0.2926
   17CHTO  C101 6833   5.138   6.989   0.791  0.1303  0.4530  0.2987
   17CHTO  H188 6834   5.201   6.945   0.714 -0.1257  1.3191 -0.4057
   17CHTO   O68 6835   5.160   6.923   0.921 -0.1802 -0.4624  0.1890
   17CHTO  H168 6836   5.126   6.983   0.985  0.6576 -0.1170  0.3074
   17CHTO   C99 6837   5.173   7.147   0.787  0.2986 -0.5145 -0.1406
   17CHTO  H186 6838   5.116   7.200   0.866  0.0768 -1.4422  0.3245
   17CHTO   N17 6839   5.315   7.182   0.821  0.2831 -0.3406 -0.3660
   17CHTO  H174 6840   5.384   7.162   0.740  1.2935  3.4746 -0.5401
   17CHTO  H175 6841   5.341   7.130   0.912 -1.0744  1.0551  0.8564
   17CHTO   C97 6842   5.127   7.221   0.660  0.6687 -0.2402 -0.7208
   17CHTO  H184 6843   5.194   7.193   0.577  0.5436  0.2149 -0.9751
   17CHTO   O64 6844   4.994   7.202   0.628  0.3031  0.1250 -0.3172
   17CHTO  C104 6845   4.954   7.071   0.606 -0.1785  0.2617 -0.0497
   17CHTO  H191 6846   5.010   7.041   0.517  1.1836 -0.3217  0.9965
   17CHTO  C108 6847   4.802   7.061   0.577  0.1786  0.2712  0.6018
   17CHTO   O71 6848   4.767   6.954   0.488  0.2837 -0.2306 -0.5090
   17CHTO  H171 6849   4.834   6.915   0.436  0.7284 -0.1654  0.0163
   17CHTO   O62 6850   5.129   7.363   0.689 -0.1014 -0.5728  0.1126
   17CHTO   C91 6851   5.138   7.451   0.573 -0.2023 -0.2366 -0.0616
   17CHTO  H178 6852   5.098   7.406   0.482 -1.3093  0.4973  0.0577
   17CHTO   C92 6853   5.293   7.482   0.543  0.0639 -0.1430  0.1538
   17CHTO  H179 6854   5.344   7.386   0.557  0.3917  0.0190  0.0965
   17CHTO   O66 6855   5.305   7.518   0.406 -0.2754 -0.6137 -0.2860
   17CHTO  H166 6856   5.383   7.474   0.378 -0.1866 -1.3092  1.0113
   17CHTO   C93 6857   5.363   7.596   0.626 -0.6129 -0.5162  0.1654
   17CHTO  H180 6858   5.456   7.626   0.575 -1.5156 -0.2385 -1.3424
   17CHTO   N16 6859   5.403   7.546   0.755  0.3713  0.1260  0.2593
   17CHTO  H172 6860   5.459   7.615   0.816  0.6175 -0.5670  0.8210
   17CHTO  H173 6861   5.321   7.493   0.800  2.1042 -3.5218 -0.7016
   17CHTO   C94 6862   5.267   7.721   0.640  0.2090 -0.3249  0.0701
   17CHTO  H181 6863   5.224   7.726   0.741  0.8890 -0.4763  0.3700
   17CHTO   O61 6864   5.151   7.707   0.557  0.9779  0.1410 -0.0092
   17CHTO   C95 6865   5.068   7.592   0.599  0.2540 -0.0006  0.4915
   17CHTO  H182 6866   5.050   7.598   0.707 -2.2838 -2.4145  0.2784
   17CHTO  C106 6867   4.933   7.598   0.531 -0.2193  0.5989 -0.6694
   17CHTO   O69 6868   4.951   7.595   0.389 -0.6073  0.3500 -0.4644
   17CHTO  H169 6869   4.965   7.681   0.354 -2.5021  0.4658 -1.0013
   17CHTO   O63 6870   5.358   7.861   0.622 -0.1472 -0.4992  0.4782
   17CHTO   C96 6871   5.318   7.976   0.737  0.5561  0.1093  0.2476
   17CHTO  H183 6872   5.293   7.921   0.828  1.9565 -2.1004 -0.6505
   17CHTO   C98 6873   5.193   8.058   0.692 -0.2312 -0.3541  0.0183
   17CHTO  H185 6874   5.212   8.077   0.585 -0.7308  2.3645  0.3778
   17CHTO   O67 6875   5.080   7.968   0.705 -0.2932 -0.5825 -0.1274
   17CHTO  H167 6876   5.001   8.017   0.690  0.4665  0.2050 -1.6544
   17CHTO  C102 6877   5.168   8.195   0.775  0.7534 -0.4792 -0.5079
   17CHTO  H189 6878   5.118   8.161   0.867 -0.4692  0.6291 -0.7562
   17CHTO   N18 6879   5.069   8.289   0.711  0.2711 -0.0336 -0.6850
   17CHTO  H176 6880   5.081   8.390   0.747 -3.3642  0.4591 -0.6861
   17CHTO  H177 6881   4.970   8.252   0.734  0.0521 -0.0231 -1.5794
   17CHTO  C105 6882   5.303   8.268   0.810  0.2275  0.2395  0.0442
   17CHTO  H192 6883   5.342   8.326   0.727 -0.3775  1.0469  0.3248
   17CHTO   O65 6884   5.403   8.174   0.852 -0.5808  0.2491  0.4388
   17CHTO  C100 6885   5.444   8.073   0.762  0.3675 -0.5219  0.3942
   17CHTO  H187 6886   5.480   8.118   0.668  0.8547 -1.1020  0.3060
   17CHTO  C107 6887   5.568   8.001   0.820  0.2051  0.0758 -0.1134
   17CHTO   O70 6888   5.695   8.070   0.796 -1.3145  0.3635 -0.0784
   17CHTO  H170 6889   5.761   8.006   0.774  0.9271  1.7610  2.2459
   17CHTO   O57 6890   5.265   8.358   0.931 -0.0201 -0.6003  0.1831
   17CHTO   C85 6891   5.352   8.454   0.993  0.1087  0.4458 -0.3318
   17CHTO  H157 6892   5.421   8.495   0.916 -0.4375  0.0079 -1.0718
   17CHTO   C83 6893   5.463   8.388   1.080  0.7258 -0.1864  0.2064
   17CHTO  H155 6894   5.531   8.327   1.020  3.0526 -0.4289  3.0187
   17CHTO   O56 6895   5.400   8.296   1.176  0.6100  0.0331  0.2109
   17CHTO  H135 6896   5.326   8.330   1.224  1.2775  0.1541  1.1619
   17CHTO   C81 6897   5.553   8.497   1.150 -0.1054  0.4722 -0.3688
   17CHTO  H153 6898   5.602   8.560   1.076 -0.7319  0.0686 -1.1325
   17CHTO   N14 6899   5.663   8.420   1.223  0.6995 -0.0347 -0.1741
   17CHTO  H141 6900   5.703   8.478   1.304  1.1944  1.6633 -1.6090
   17CHTO  H142 6901   5.743   8.401   1.154  0.3208 -1.3369 -0.2594
   17CHTO   C79 6902   5.468   8.593   1.235  0.2461 -1.0981 -0.6084
   17CHTO  H151 6903   5.534   8.676   1.260  0.5902 -1.6230  0.2490
   17CHTO   O52 6904   5.355   8.657   1.158  0.1659 -0.4686 -0.4415
   17CHTO   C86 6905   5.280   8.565   1.067 -0.8459  0.3683 -0.0152
   17CHTO  H158 6906   5.207   8.525   1.140 -1.5205  1.1931 -0.2178
   17CHTO   C90 6907   5.194   8.659   0.979  0.6622  0.1057  0.4629
   17CHTO   O60 6908   5.091   8.712   1.062  0.2331  0.1230 -0.0094
   17CHTO  H138 6909   5.024   8.757   1.014  0.4320 -1.1036 -1.4620
   17CHTO   O50 6910   5.413   8.540   1.349  0.3249 -0.6556 -0.1161
   17CHTO   C73 6911   5.356   8.566   1.479  0.3340 -0.6195 -0.2369
   17CHTO  H145 6912   5.344   8.674   1.495  1.0539 -0.7329  1.1370
   17CHTO   C74 6913   5.443   8.498   1.589  0.4583  0.2273  0.4756
   17CHTO  H146 6914   5.544   8.541   1.582  1.5516 -2.4118 -0.2618
   17CHTO   O54 6915   5.398   8.541   1.722 -0.3131 -0.2819  0.2510
   17CHTO  H133 6916   5.321   8.498   1.754 -0.6983  0.0386 -0.2517
   17CHTO   C75 6917   5.447   8.341   1.569 -0.1655  0.4940 -0.0091
   17CHTO  H147 6918   5.507   8.317   1.481  0.0635  0.9660  0.0176
   17CHTO   N13 6919   5.524   8.265   1.673  0.1148  0.2542 -0.0144
   17CHTO  H139 6920   5.537   8.167   1.630 -0.2789  1.0879 -2.1064
   17CHTO  H140 6921   5.462   8.276   1.761  1.8592  2.6018  0.9583
   17CHTO   C76 6922   5.297   8.285   1.546  0.0635 -0.2977 -0.3841
   17CHTO  H148 6923   5.250   8.290   1.644 -0.2825 -0.4673 -0.5421
   17CHTO   O49 6924   5.226   8.369   1.456 -0.5473  0.4659 -0.0446
   17CHTO   C77 6925   5.218   8.509   1.486  1.0952  0.6959  0.3611
   17CHTO  H149 6926   5.188   8.528   1.589  2.0454  2.4504  0.3334
   17CHTO   C88 6927   5.115   8.587   1.402  0.3249  0.4288  0.0552
   17CHTO   O58 6928   4.986   8.521   1.407 -0.4546  0.1011  0.3354
   17CHTO  H136 6929   4.921   8.550   1.347 -0.2022  2.2253  1.0462
   17CHTO   O51 6930   5.310   8.152   1.479  0.0767  0.3939 -0.0546
   17CHTO   C78 6931   5.185   8.061   1.506  0.2003  0.6515 -0.0899
   17CHTO  H150 6932   5.090   8.114   1.527 -1.2240 -2.0147  0.4801
   17CHTO   C80 6933   5.218   7.968   1.630  0.1254  0.4962  0.3354
   17CHTO  H152 6934   5.323   7.934   1.620 -0.4881 -1.0012 -1.3100
   17CHTO   O55 6935   5.205   8.052   1.740  0.1862 -0.0090  0.0278
   17CHTO  H134 6936   5.287   8.079   1.777 -1.5586  0.6935  3.6575
   17CHTO   C84 6937   5.129   7.835   1.634 -0.4549  1.3249  0.1197
   17CHTO  H156 6938   5.031   7.856   1.677 -0.5585 -0.2733  0.6891
   17CHTO   N15 6939   5.186   7.739   1.736 -0.0994 -1.0367  0.0731
   17CHTO  H143 6940   5.286   7.719   1.705 -0.5625 -3.0363 -0.2482
   17CHTO  H144 6941   5.178   7.790   1.829 -2.1173  0.4207 -0.8570
   17CHTO   C87 6942   5.134   7.771   1.494 -0.5214  0.2319  0.1493
   17CHTO  H159 6943   5.233   7.748   1.456 -0.9100 -0.7032 -0.3154
   17CHTO   O53 6944   5.069   7.875   1.400 -0.5867  0.6365  0.1307
   17CHTO   C82 6945   5.155   7.988   1.375 -0.1170 -0.2595  0.3358
   17CHTO  H154 6946   5.243   7.955   1.321 -1.5588  0.2541 -2.4299
   17CHTO   C89 6947   5.086   8.081   1.280 -0.3173 -0.0963 -0.6357
   17CHTO   O59 6948   5.063   8.028   1.151 -0.3806 -0.2642  0.7474
   17CHTO  H137 6949   4.971   8.011   1.153 -0.2814 -0.7299  1.5866
   17CHTO   O45 6950   5.045   7.629   1.482  0.4904 -0.0987  0.0791
   17CHTO   C67 6951   4.907   7.643   1.507  0.4514 -0.1254 -0.3108
   17CHTO  H124 6952   4.883   7.687   1.604 -3.3016  0.9019 -1.6199
   17CHTO   C65 6953   4.822   7.727   1.401  0.5767  0.0889  0.2185
   17CHTO  H122 6954   4.898   7.749   1.327  0.1920  0.1816 -0.1495
   17CHTO   O44 6955   4.783   7.850   1.471 -0.3954  0.1062  0.3772
   17CHTO  H102 6956   4.692   7.846   1.491 -0.8439  0.1607 -1.5228
   17CHTO   C63 6957   4.722   7.651   1.308 -0.4341  0.1681 -0.3238
   17CHTO  H120 6958   4.782   7.581   1.250  1.2691  1.0484  0.3213
   17CHTO   N11 6959   4.658   7.735   1.195 -0.2701  0.0111  0.1566
   17CHTO  H108 6960   4.559   7.701   1.172  0.1426 -0.1977 -1.3614
   17CHTO  H109 6961   4.650   7.836   1.229 -1.6768 -0.4598  1.2408
   17CHTO   C61 6962   4.629   7.565   1.409 -0.2347  0.4952  0.1574
   17CHTO  H118 6963   4.604   7.471   1.357  0.3662 -0.6693  1.9416
   17CHTO   O40 6964   4.692   7.520   1.530  0.2734  0.9228  0.4021
   17CHTO   C68 6965   4.842   7.499   1.517  0.6442  0.0511  0.2361
   17CHTO  H125 6966   4.860   7.437   1.427 -1.6036 -1.2853  0.6592
   17CHTO   C72 6967   4.893   7.421   1.641 -0.6841  0.2996  0.2455
   17CHTO   O48 6968   5.021   7.358   1.619 -0.1576 -0.0218 -0.2182
   17CHTO  H105 6969   5.021   7.300   1.545  1.2540  1.5063 -1.4455
   17CHTO   O38 6970   4.510   7.639   1.440 -0.6640 -0.3011  0.2779
   17CHTO   C55 6971   4.403   7.581   1.516 -0.1930  0.7497 -0.1183
   17CHTO  H112 6972   4.452   7.528   1.599  0.9505 -0.7589 -1.7188
   17CHTO   C56 6973   4.300   7.490   1.436  0.2727 -0.1571 -0.4351
   17CHTO  H113 6974   4.294   7.555   1.348  0.2989  0.3798 -0.0420
   17CHTO   O42 6975   4.361   7.373   1.391 -0.7754 -0.0661 -0.1785
   17CHTO  H100 6976   4.427   7.381   1.325 -2.1098  0.6567 -1.4174
   17CHTO   C57 6977   4.168   7.457   1.522  0.7351 -0.3926  1.3915
   17CHTO  H114 6978   4.199   7.378   1.591 -1.5673 -0.9781  1.7893
   17CHTO   N10 6979   4.056   7.414   1.435  0.7119 -0.3107 -0.4839
   17CHTO  H106 6980   3.995   7.495   1.399 -2.4766 -0.8082  3.4588
   17CHTO  H107 6981   3.994   7.352   1.498  0.3773  0.4708 -0.0464
   17CHTO   C58 6982   4.117   7.581   1.602 -0.3366 -0.2499  0.1245
   17CHTO  H115 6983   4.093   7.666   1.535  1.0955 -0.0736 -0.1861
   17CHTO   O37 6984   4.230   7.641   1.672 -0.1869  0.6346 -0.0816
   17CHTO   C59 6985   4.324   7.698   1.586 -0.3238 -0.6307  0.0952
   17CHTO  H116 6986   4.274   7.760   1.511 -2.3301 -1.4543  0.7112
   17CHTO   C70 6987   4.415   7.775   1.673  0.1165  0.8724  0.1904
   17CHTO   O46 6988   4.482   7.884   1.603 -0.2200 -0.0175  0.2510
   17CHTO  H103 6989   4.573   7.888   1.627  0.2891  0.8794 -1.6835
   17CHTO   O39 6990   4.016   7.554   1.711 -0.4198  0.0837 -0.1968
   17CHTO   C60 6991   3.930   7.658   1.755 -0.8418 -0.0514  0.0929
   17CHTO  H117 6992   3.974   7.753   1.726  0.7776 -0.4674  1.1401
   17CHTO   C62 6993   3.785   7.651   1.688 -0.3777 -0.2055 -0.3448
   17CHTO  H119 6994   3.800   7.659   1.578  0.4187  4.1715 -0.0064
   17CHTO   O43 6995   3.739   7.515   1.702  0.0559 -0.1118  0.0531
   17CHTO  H101 6996   3.787   7.449   1.657  0.8938  0.5518 -0.0466
   17CHTO   C66 6997   3.678   7.770   1.740  0.1932  0.5730  0.3362
   17CHTO  H123 6998   3.723   7.864   1.709 -1.0241  0.0311 -3.2338
   17CHTO   N12 6999   3.545   7.764   1.683  0.3180  0.2853  0.1649
   17CHTO  H110 7000   3.488   7.842   1.731  1.6296  1.4867 -0.1687
   17CHTO  H111 7001   3.543   7.769   1.575 -4.1321  0.1543  0.1553
   17CHTO   C69 7002   3.679   7.768   1.897 -0.0340 -0.5360 -0.4584
   17CHTO  H126 7003   3.613   7.687   1.935 -2.0506  1.0417 -0.5070
   17CHTO   O41 7004   3.824   7.763   1.958 -0.0600  0.3021  0.1182
   17CHTO   C64 7005   3.915   7.653   1.910  0.1900  0.0031 -0.6965
   17CHTO  H121 7006   3.863   7.559   1.939  1.3109 -1.2502 -2.6795
   17CHTO   C71 7007   4.047   7.656   1.991  0.2171 -1.3438  0.3693
   17CHTO   O47 7008   4.028   7.614   2.126  0.6149  0.4366 -0.1669
   17CHTO  H104 7009   4.112   7.596   2.164  0.2858 -1.2196 -0.1767
   17CHTO   O34 7010   3.611   7.891   1.944  0.7418  0.6880 -0.0910
   17CHTO   C49 7011   3.533   7.982   2.020 -0.2867  0.6082  0.5410
   17CHTO   H91 7012   3.602   8.061   2.050  1.2121 -0.7028  0.5825
   17CHTO   C47 7013   3.474   7.920   2.147  0.7097 -0.1462  0.4158
   17CHTO   H89 7014   3.436   8.002   2.212 -0.5756  0.7554 -1.4133
   17CHTO   O33 7015   3.575   7.851   2.221  0.3686  0.1896 -0.8628
   17CHTO   H70 7016   3.554   7.826   2.309  0.8461 -1.3138 -1.1585
   17CHTO   C45 7017   3.351   7.815   2.111  0.5644  0.5102 -0.2489
   17CHTO   H87 7018   3.400   7.717   2.119  1.1240  0.8016 -0.0116
   17CHTO    N8 7019   3.250   7.816   2.218  0.2471 -0.2318 -0.1601
   17CHTO   H75 7020   3.214   7.917   2.234  0.0753 -0.2166 -0.6297
   17CHTO   H76 7021   3.297   7.782   2.309 -0.2850 -2.3196 -0.6541
   17CHTO   C43 7022   3.290   7.841   1.962 -0.2679 -0.5790  0.8284
   17CHTO   H85 7023   3.369   7.796   1.902  0.8994  0.4031  1.6017
   17CHTO   O29 7024   3.286   7.985   1.937  0.7865 -0.0919  0.6402
   17CHTO   C50 7025   3.416   8.042   1.931 -0.0881  0.0599  1.1559
   17CHTO   H92 7026   3.458   8.046   1.830 -1.5962 -0.4376  0.4917
   17CHTO   C54 7027   3.397   8.193   1.957  0.1480  0.0575  0.4582
   17CHTO   O36 7028   3.340   8.218   2.086 -0.4702 -0.1686 -0.1893
   17CHTO   H72 7029   3.287   8.295   2.074  3.8099  2.7228 -1.6978
   17CHTO   O27 7030   3.173   7.766   1.931 -0.0853  0.2743 -0.8838
   17CHTO   C37 7031   3.117   7.680   1.828 -0.4532 -1.0062  0.0675
   17CHTO   H79 7032   3.010   7.662   1.844 -0.5856 -0.2147  0.0967
   17CHTO   C38 7033   3.126   7.738   1.681 -0.3263  0.3081  0.3038
   17CHTO   H80 7034   3.228   7.769   1.657  0.4317 -1.9861  0.4681
   17CHTO   O31 7035   3.046   7.857   1.693  0.3786  0.2830  0.2598
   17CHTO   H68 7036   3.083   7.932   1.651  0.4903 -0.3104 -0.7298
   17CHTO   C39 7037   3.072   7.631   1.580  0.6480  0.3676 -0.2102
   17CHTO   H81 7038   2.968   7.622   1.608  1.1902 -2.9466  0.9927
   17CHTO    N7 7039   3.092   7.671   1.439  0.0692 -0.3530  0.0410
   17CHTO   H73 7040   3.020   7.620   1.376  0.2921 -1.1883  0.4611
   17CHTO   H74 7041   3.194   7.645   1.413 -0.2714  0.0107 -1.7541
   17CHTO   C40 7042   3.134   7.491   1.604 -0.2637 -0.2654 -0.1365
   17CHTO   H82 7043   3.237   7.479   1.570 -0.4873 -2.9841  0.0314
   17CHTO   O26 7044   3.116   7.453   1.742  0.4115 -0.4227  0.5501
   17CHTO   C41 7045   3.185   7.542   1.832  0.2619  0.0656  0.1853
   17CHTO   H83 7046   3.291   7.550   1.806  0.5799  1.5324  1.8370
   17CHTO   C52 7047   3.189   7.488   1.971 -0.2407  0.2067 -0.1830
   17CHTO   O35 7048   3.241   7.342   2.000 -0.3529 -0.2996  0.0410
   17CHTO   H71 7049   3.190   7.312   2.072 -1.4451  2.2946  0.3940
   17CHTO   O28 7050   3.055   7.390   1.533 -0.5557 -0.2450 -0.4200
   17CHTO   C42 7051   3.118   7.255   1.499  0.9509 -0.4989 -0.0315
   17CHTO   H84 7052   3.034   7.189   1.476  0.4446  0.3080 -0.5282
   17CHTO   C44 7053   3.202   7.180   1.610 -0.3888  0.4149 -0.7055
   17CHTO   H86 7054   3.274   7.251   1.651  1.1459 -1.6652  0.2954
   17CHTO   O32 7055   3.116   7.147   1.717  0.5805 -0.1234 -0.0254
   17CHTO   H69 7056   3.076   7.221   1.759 -1.8141 -0.5900 -1.3518
   17CHTO   C48 7057   3.282   7.057   1.559  0.0823  0.2900 -0.0281
   17CHTO   H90 7058   3.204   6.986   1.532 -1.0517  1.3547  0.3908
   17CHTO    N9 7059   3.373   7.000   1.664  0.3104 -0.9545 -0.2367
   17CHTO   H77 7060   3.434   6.926   1.614 -0.1101 -1.0683 -0.5742
   17CHTO   H78 7061   3.442   7.070   1.709  0.2332 -2.9006  3.1691
   17CHTO   C51 7062   3.363   7.105   1.428  0.1421  0.4757  0.0574
   17CHTO   H93 7063   3.431   7.184   1.460 -1.1787  1.4971  0.3933
   17CHTO   O30 7064   3.266   7.145   1.333 -0.0617 -0.1163 -0.1821
   17CHTO   C46 7065   3.199   7.272   1.365 -0.4098  0.4801 -0.0933
   17CHTO   H88 7066   3.275   7.349   1.375  0.1343  0.3262 -2.6831
   17CHTO   C53 7067   3.112   7.299   1.257 -0.1092  0.1301  0.2905
   17CHTO   O72 7068   3.164   7.396   1.162  0.0028  0.6360  0.7702
   17CHTO  H199 7069   3.100   7.428   1.102  2.3275  0.7340 -1.7783
   17CHTO   O22 7070   3.427   6.992   1.365  0.1302  0.4234  0.3099
   17CHTO   C31 7071   3.551   7.030   1.284 -0.6968 -0.1765 -0.5296
   17CHTO   H59 7072   3.540   7.134   1.245  0.7453  0.8598  1.6909
   17CHTO   C29 7073   3.683   7.028   1.374  0.3962  0.1157 -0.0611
   17CHTO   H57 7074   3.678   6.926   1.414 -1.6713  0.0532 -0.4087
   17CHTO   O21 7075   3.665   7.113   1.494 -0.0020  0.6977 -0.0450
   17CHTO   H37 7076   3.609   7.185   1.473  0.6587  1.6954  1.5592
   17CHTO   C27 7077   3.809   7.054   1.288 -0.6725  0.1567  0.2815
   17CHTO   H55 7078   3.826   7.163   1.282 -0.3050  0.0955  0.1902
   17CHTO    N5 7079   3.933   7.000   1.352 -0.8560  0.4678  0.4065
   17CHTO   H43 7080   3.914   6.953   1.448  1.9854 -1.3166  0.1334
   17CHTO   H44 7081   4.013   7.071   1.367 -0.9081  0.4380  0.8348
   17CHTO   C25 7082   3.807   7.009   1.135 -0.1426 -0.8138 -0.5078
   17CHTO   H53 7083   3.853   6.910   1.119  1.0483  0.0436 -2.6042
   17CHTO   O17 7084   3.670   7.010   1.084  0.0018  0.0917 -0.0320
   17CHTO   C32 7085   3.570   6.942   1.160 -0.1423  0.2573  0.2838
   17CHTO   H60 7086   3.591   6.840   1.191  1.7053  0.4562 -0.2465
   17CHTO   C36 7087   3.431   6.932   1.085 -0.0998  0.0327  0.4439
   17CHTO   O25 7088   3.462   6.868   0.958 -0.1012 -0.1478 -0.3490
   17CHTO   H40 7089   3.381   6.841   0.922 -0.5909 -1.3742  1.6012
   17CHTO   O15 7090   3.882   7.102   1.046 -0.0941  0.2559  0.8767
   17CHTO   C19 7091   3.904   7.230   0.994  0.4074 -0.4937 -0.3927
   17CHTO   H47 7092   3.938   7.222   0.890 -0.1344 -0.2643 -0.5868
   17CHTO   C20 7093   3.772   7.315   1.014  0.4159  0.2662 -0.2515
   17CHTO   H48 7094   3.734   7.313   1.117 -0.1096  2.8766 -0.3571
   17CHTO   O19 7095   3.681   7.258   0.924 -0.2546 -0.4469  0.3559
   17CHTO   H35 7096   3.718   7.250   0.838 -0.5928 -1.1860  0.2786
   17CHTO   C21 7097   3.797   7.468   0.987  0.2750  0.6148 -0.0404
   17CHTO   H49 7098   3.828   7.478   0.883 -0.8288 -1.2519 -0.5567
   17CHTO    N4 7099   3.675   7.559   1.005 -0.2541 -0.1204 -0.0039
   17CHTO   H41 7100   3.702   7.644   0.945  0.5829  0.1685  0.7657
   17CHTO   H42 7101   3.581   7.519   0.972 -0.0934  0.0667 -0.7034
   17CHTO   C22 7102   3.913   7.522   1.066  0.6183  0.2336 -0.3061
   17CHTO   H50 7103   3.889   7.508   1.172 -0.1138 -1.7084 -0.7024
   17CHTO   O14 7104   4.032   7.448   1.034 -0.0252 -0.0012  0.1806
   17CHTO   C23 7105   4.022   7.304   1.065  0.2664  0.1777 -0.5158
   17CHTO   H51 7106   4.009   7.301   1.174 -0.3810 -0.7789 -0.6106
   17CHTO   C34 7107   4.156   7.236   1.032  0.9379  0.8496  0.3326
   17CHTO   O23 7108   4.272   7.291   1.100  0.3150 -0.4459 -0.3551
   17CHTO   H38 7109   4.266   7.384   1.087 -1.4972 -0.5817 -0.6032
   17CHTO   O16 7110   3.946   7.655   1.044  0.0935 -0.1026 -0.2661
   17CHTO   C24 7111   4.035   7.730   1.160  0.3067  0.2455  0.1370
   17CHTO   H52 7112   4.070   7.657   1.234 -0.3397 -1.5463 -1.2828
   17CHTO   C26 7113   3.955   7.841   1.234  0.5811 -0.1949 -0.0638
   17CHTO   H54 7114   3.912   7.909   1.159 -0.3300  0.9003  1.4214
   17CHTO   O20 7115   3.840   7.777   1.296  0.0639  0.3178 -0.5378
   17CHTO   H36 7116   3.780   7.763   1.225  2.3493 -0.2740 -2.4398
   17CHTO   C30 7117   4.042   7.928   1.325 -0.0500 -0.3150  0.3545
   17CHTO   H58 7118   4.075   7.864   1.408  0.5992  0.9488  1.0914
   17CHTO    N6 7119   3.955   8.035   1.391  0.1028 -0.2438  0.1768
   17CHTO   H45 7120   3.999   8.130   1.366 -1.2276  0.3864  0.1793
   17CHTO   H46 7121   3.961   8.016   1.497 -0.7946  1.9541  0.6542
   17CHTO   C33 7122   4.167   7.981   1.244  0.4105 -0.5042  0.0798
   17CHTO   H61 7123   4.129   8.038   1.158 -0.9212 -0.0629  0.9484
   17CHTO   O18 7124   4.236   7.862   1.192  0.1872  0.0419 -0.3692
   17CHTO   C28 7125   4.161   7.790   1.090 -0.5733 -0.1198 -0.0342
   17CHTO   H56 7126   4.122   7.859   1.015 -1.2922  0.9809  1.3330
   17CHTO   C35 7127   4.249   7.691   1.018 -0.1864 -0.1291  0.4045
   17CHTO   O24 7128   4.338   7.622   1.112 -0.6052  0.1209  0.1796
   17CHTO   H39 7129   4.428   7.641   1.094 -0.0337 -1.7537  0.8947
   17CHTO    O9 7130   4.255   8.063   1.314  0.2593  0.3052 -0.4291
   17CHTO   C13 7131   4.353   8.150   1.198  0.1747 -0.4636 -0.3898
   17CHTO   H26 7132   4.353   8.096   1.101 -0.4401 -1.5422  0.2012
   17CHTO   C11 7133   4.503   8.161   1.265 -0.6487  0.5278  0.9113
   17CHTO   H24 7134   4.545   8.060   1.261  0.2327  0.9437 -1.0797
   17CHTO    O8 7135   4.501   8.187   1.408  0.4387 -0.2488 -0.2762
   17CHTO    H3 7136   4.558   8.121   1.443  2.4329  0.7878 -1.4588
   17CHTO    C9 7137   4.589   8.254   1.178 -0.6761 -0.0331  0.1814
   17CHTO   H22 7138   4.588   8.211   1.077 -0.1414 -2.3825  1.1383
   17CHTO    N2 7139   4.732   8.244   1.206 -1.2032  0.0675 -0.1369
   17CHTO   H10 7140   4.783   8.261   1.113  0.9656 -2.0929  0.6137
   17CHTO   H11 7141   4.760   8.146   1.241  0.6688  0.0897 -1.4977
   17CHTO    C7 7142   4.527   8.392   1.183  0.4326  0.5398  0.5395
   17CHTO   H20 7143   4.585   8.445   1.104 -0.2022 -0.9188 -0.9425
   17CHTO    O4 7144   4.393   8.398   1.140 -0.1933 -0.1397  0.1934
   17CHTO   C14 7145   4.298   8.297   1.167  0.6445  0.9124 -0.1035
   17CHTO   H27 7146   4.222   8.286   1.086  1.1798  1.1466 -0.6457
   17CHTO   C18 7147   4.221   8.340   1.297  0.1922  0.0793 -0.1304
   17CHTO   O13 7148   4.118   8.445   1.285 -0.1155  0.2412  0.3190
   17CHTO    H7 7149   4.054   8.417   1.349 -0.4209 -2.6672 -1.1566
   17CHTO    O2 7150   4.547   8.483   1.346 -0.0624  0.3065  0.1608
   17CHTO    C1 7151   4.557   8.626   1.331 -0.4471 -1.2085  0.8591
   17CHTO   H14 7152   4.488   8.656   1.249  0.3131  0.7165  0.9025
   17CHTO    C2 7153   4.692   8.684   1.300 -0.5790  0.2196  0.1493
   17CHTO   H15 7154   4.756   8.624   1.367 -1.2748 -2.5094 -1.5280
   17CHTO    O6 7155   4.739   8.651   1.171  0.5560 -0.2118  0.2215
   17CHTO    H1 7156   4.773   8.564   1.171  0.4612 -0.2668 -1.6947
   17CHTO    C3 7157   4.699   8.846   1.318 -0.3399 -0.0354  0.2219
   17CHTO   H16 7158   4.649   8.883   1.228 -0.6703 -1.0624 -0.0265
   17CHTO    N1 7159   4.841   8.896   1.307  0.1642 -0.2689 -0.2692
   17CHTO    H8 7160   4.838   8.990   1.254  1.7319  0.4936  0.9408
   17CHTO    H9 7161   4.904   8.826   1.254  0.0311  0.2184 -1.0676
   17CHTO    C4 7162   4.626   8.905   1.449 -0.1580  0.4879  0.7637
   17CHTO   H17 7163   4.685   8.873   1.535 -0.1075 -1.5997 -0.0263
   17CHTO    O1 7164   4.501   8.833   1.454 -0.4505 -0.3615  0.4611
   17CHTO    C5 7165   4.493   8.690   1.463  0.7928 -0.1228  0.6949
   17CHTO   H18 7166   4.557   8.663   1.547 -0.9363  0.1581  2.1315
   17CHTO   C16 7167   4.348   8.639   1.485 -0.2325 -0.0820  0.0874
   17CHTO   O11 7168   4.321   8.635   1.626  0.3752 -0.0050 -0.2809
   17CHTO    H5 7169   4.235   8.601   1.638 -0.0763  1.1568 -0.1043
   17CHTO    O3 7170   4.580   9.043   1.436  0.2897 -0.7193 -0.0536
   17CHTO    C6 7171   4.538   9.126   1.549 -0.3923  0.1339 -0.0614
   17CHTO   H19 7172   4.460   9.196   1.519  0.2478  0.0321 -1.9938
   17CHTO    C8 7173   4.467   9.046   1.668  0.4086  0.5949  0.1026
   17CHTO   H21 7174   4.527   8.956   1.682 -1.2247 -0.4538  0.3984
   17CHTO    O7 7175   4.345   8.999   1.621  0.0141  0.2233  0.0740
   17CHTO    H2 7176   4.353   8.952   1.540 -2.6608 -1.6395  0.7898
   17CHTO   C12 7177   4.460   9.137   1.796  0.3444  0.1574  0.5488
   17CHTO   H25 7178   4.375   9.207   1.780 -0.0578 -0.3593  0.3809
   17CHTO    N3 7179   4.406   9.049   1.906 -0.0619 -0.5742 -0.5016
   17CHTO   H12 7180   4.299   9.059   1.918 -0.0291 -2.0962  1.4263
   17CHTO   H13 7181   4.463   9.032   1.997  0.8230 -2.3615 -1.3557
   17CHTO   C15 7182   4.594   9.207   1.825 -0.3744  0.4290 -0.0788
   17CHTO   H28 7183   4.674   9.135   1.845 -0.4170 -0.1416 -1.8550
   17CHTO   O10 7184   4.585   9.312   1.938 -0.6134  0.0944 -0.0119
   17CHTO    H4 7185   4.509   9.367   1.930 -0.2374  0.8041  1.1716
   17CHTO    O5 7186   4.624   9.288   1.714  0.0286 -0.8744  0.3969
   17CHTO   C10 7187   4.662   9.222   1.593  0.0593 -0.4075 -0.6431
   17CHTO   H23 7188   4.751   9.164   1.617 -0.7065 -0.1722  2.9737
   17CHTO   C17 7189   4.694   9.321   1.487 -0.9409  0.2938  0.1579
   17CHTO   O12 7190   4.594   9.419   1.472  0.3505 -0.5337  0.5824
   17CHTO    H6 7191   4.504   9.394   1.483 -0.0272  1.3365  1.9192
   18CHTO  H203 7192   5.762   8.554   2.362  0.6424 -0.9703  0.4590
   18CHTO   O82 7193   5.823   8.592   2.302 -0.4775  0.2068  0.0545
   18CHTO  C123 7194   5.760   8.612   2.173 -0.3282  0.3428  0.6542
   18CHTO  H227 7195   5.651   8.618   2.184 -0.7289 -1.8133 -1.7171
   18CHTO   O77 7196   5.812   8.741   2.130  0.8474 -0.3670  0.5648
   18CHTO  C118 7197   5.784   8.782   2.002 -0.6571  0.1535  0.0873
   18CHTO  H222 7198   5.676   8.801   1.989 -0.8381 -1.3102 -0.7023
   18CHTO  C125 7199   5.855   8.921   1.999  0.1175 -0.6188  0.2541
   18CHTO   O84 7200   5.993   8.923   2.023 -0.7175  0.6919 -0.1433
   18CHTO  H205 7201   6.045   8.862   1.974 -0.5724  1.6215 -1.1980
   18CHTO  C114 7202   5.829   8.673   1.902  0.2229 -0.3409  0.1411
   18CHTO  H218 7203   5.937   8.672   1.904  0.2846  1.8501 -0.8839
   18CHTO  C116 7204   5.765   8.544   1.928 -0.5093 -0.6318 -0.7571
   18CHTO  H220 7205   5.656   8.557   1.907 -1.2175  0.2044  3.0793
   18CHTO   O79 7206   5.817   8.454   1.833 -0.1998 -0.1658  0.2210
   18CHTO  H201 7207   5.751   8.391   1.810 -2.1403  1.8256  0.1763
   18CHTO  C120 7208   5.792   8.495   2.071  0.6380  0.2077 -0.0113
   18CHTO  H224 7209   5.901   8.477   2.064  0.4275 -0.8606 -0.7354
   18CHTO   N21 7210   5.725   8.367   2.109  0.0919  0.1070  0.2731
   18CHTO  H211 7211   5.780   8.315   2.187  0.1871  0.7538  0.6398
   18CHTO  H212 7212   5.710   8.305   2.022 -1.6249  0.1841  0.4943
   18CHTO   O75 7213   5.788   8.719   1.772 -1.1030  0.5172  0.1194
   18CHTO  C112 7214   5.934   8.742   1.682 -0.3491 -0.3058 -0.4341
   18CHTO  H216 7215   6.017   8.694   1.736 -0.6412 -1.2997 -0.8625
   18CHTO   O73 7216   5.960   8.884   1.671 -0.1525 -0.3177 -0.3713
   18CHTO  C113 7217   6.098   8.904   1.624 -0.3215 -0.0744  0.4466
   18CHTO  H217 7218   6.179   8.854   1.682 -0.5982 -0.8820  0.1345
   18CHTO  C124 7219   6.124   9.052   1.649  0.8460  0.0193 -1.1251
   18CHTO   O83 7220   6.240   9.102   1.599  0.2767  0.4067 -0.3999
   18CHTO  H204 7221   6.291   9.143   1.666  0.3387  1.5813 -1.1554
   18CHTO  C109 7222   6.112   8.868   1.474  0.0076 -0.0740 -0.8387
   18CHTO  H213 7223   6.049   8.939   1.419 -3.2834 -2.1261  0.0983
   18CHTO  C110 7224   6.052   8.721   1.455  0.0401  0.2276  0.9449
   18CHTO  H214 7225   6.130   8.646   1.470 -1.0537 -0.5306  2.8886
   18CHTO   O78 7226   6.024   8.700   1.314 -0.0728 -0.1747 -0.4254
   18CHTO  H200 7227   5.982   8.775   1.276 -0.8340 -0.4774 -0.1783
   18CHTO  C111 7228   5.924   8.693   1.533 -0.6265 -0.5474 -0.6428
   18CHTO  H215 7229   5.839   8.748   1.490 -1.3465 -0.1052  1.3090
   18CHTO   N19 7230   5.889   8.548   1.528  0.8871  0.9707  0.2670
   18CHTO  H207 7231   5.795   8.526   1.480  0.6057  1.3130  0.6620
   18CHTO  H208 7232   5.913   8.498   1.621  0.0604  0.3798  0.1658
   18CHTO   O74 7233   6.246   8.882   1.436  0.2976  0.1259 -0.5413
   18CHTO  C115 7234   6.256   8.918   1.290 -0.1396 -0.0230  0.2663
   18CHTO  H219 7235   6.167   8.885   1.235 -1.0527 -0.8465  2.1788
   18CHTO   O76 7236   6.257   9.072   1.272  0.2725  0.3945  0.4727
   18CHTO  C122 7237   6.296   9.139   1.155  0.2823 -0.0712 -0.1510
   18CHTO  H226 7238   6.307   9.246   1.176  0.0097  0.3479 -2.0957
   18CHTO  C126 7239   6.173   9.134   1.054  0.2979 -0.2344 -0.1476
   18CHTO   O85 7240   6.201   9.205   0.933 -0.0360  0.4546 -0.4133
   18CHTO  H206 7241   6.267   9.162   0.882  0.8701 -0.1126  1.1853
   18CHTO  C121 7242   6.428   9.083   1.087  0.2436  0.2168  0.1501
   18CHTO  H225 7243   6.450   9.116   0.984 -0.0489 -4.2389 -1.4713
   18CHTO   O81 7244   6.544   9.116   1.157  0.2297 -0.1494 -0.1240
   18CHTO  H202 7245   6.539   9.191   1.213 -3.0151 -0.8578  0.6100
   18CHTO  C119 7246   6.409   8.928   1.082 -0.1201 -0.1632 -1.0204
   18CHTO  H223 7247   6.323   8.905   1.020  0.1049  0.8896 -1.7323
   18CHTO  C117 7248   6.385   8.864   1.222  1.2676 -0.7181 -0.4650
   18CHTO  H221 7249   6.468   8.876   1.292  0.1034 -1.3727  1.0608
   18CHTO   N20 7250   6.370   8.716   1.208  0.2540 -0.4811  0.4865
   18CHTO  H209 7251   6.395   8.690   1.107 -1.6864 -2.2745  0.4379
   18CHTO  H210 7252   6.438   8.669   1.278  0.9504  0.3020  0.3490
   18CHTO   O80 7253   6.549   8.858   0.989 -0.1667  0.7483  0.2741
   18CHTO  C103 7254   6.524   8.801   0.840 -0.1092  0.7281 -0.0065
   18CHTO  H190 7255   6.615   8.786   0.782  1.0921  2.6789  1.3133
   18CHTO  C101 7256   6.449   8.659   0.836  0.2503  0.7241 -0.1221
   18CHTO  H188 7257   6.390   8.660   0.927  0.4258  1.8314 -0.0173
   18CHTO   O68 7258   6.546   8.556   0.851  0.3198 -0.1455  0.0127
   18CHTO  H168 7259   6.594   8.574   0.929 -0.1400 -1.6226  0.6620
   18CHTO   C99 7260   6.353   8.636   0.703  0.4278  0.1325  0.3835
   18CHTO  H186 7261   6.417   8.615   0.616 -1.5579 -0.2951 -1.0069
   18CHTO   N17 7262   6.250   8.521   0.719  0.2400  0.3319 -0.6042
   18CHTO  H174 7263   6.202   8.505   0.623 -0.4854  2.7653 -0.6900
   18CHTO  H175 7264   6.308   8.438   0.757 -1.2183  0.2318  1.4647
   18CHTO   C97 7265   6.279   8.767   0.664  0.2825 -0.7490 -0.0239
   18CHTO  H184 7266   6.214   8.796   0.747 -0.4080  4.1539 -2.1009
   18CHTO   O64 7267   6.388   8.860   0.649 -0.0309  0.2266  0.0932
   18CHTO  C104 7268   6.437   8.907   0.768 -0.0040 -0.7417  0.5282
   18CHTO  H191 7269   6.358   8.933   0.838  1.0082 -2.5926  2.4317
   18CHTO  C108 7270   6.519   9.026   0.734  0.1648 -0.7121  0.0493
   18CHTO   O71 7271   6.421   9.132   0.721  0.1688 -0.2087 -0.6615
   18CHTO  H171 7272   6.451   9.204   0.669 -1.3759  1.6527  0.9644
   18CHTO   O62 7273   6.212   8.765   0.537 -0.1075  0.5264  0.0190
   18CHTO   C91 7274   6.080   8.805   0.530  0.1629 -0.0428  0.0469
   18CHTO  H178 7275   6.031   8.789   0.626 -1.7892 -0.5036 -0.9892
   18CHTO   C92 7276   5.995   8.704   0.445  0.3444 -0.5276  0.3732
   18CHTO  H179 7277   6.041   8.681   0.348 -0.7256 -1.1764  0.0122
   18CHTO   O66 7278   5.997   8.573   0.504 -0.1107  0.0720 -0.7192
   18CHTO  H166 7279   5.911   8.536   0.507  0.6621 -1.8052 -0.6719
   18CHTO   C93 7280   5.843   8.754   0.423  0.0029 -0.1691 -0.3646
   18CHTO  H180 7281   5.788   8.749   0.518 -0.2541  0.6131 -0.4659
   18CHTO   N16 7282   5.772   8.662   0.329 -0.8543  0.0201  0.2727
   18CHTO  H172 7283   5.680   8.639   0.381 -1.6189 -1.8581 -1.8054
   18CHTO  H173 7284   5.739   8.715   0.241 -2.2037  0.6553  1.1416
   18CHTO   C94 7285   5.844   8.905   0.385  0.1382  0.3126 -0.0859
   18CHTO  H181 7286   5.892   8.916   0.288 -2.3319  1.8019 -1.1933
   18CHTO   O61 7287   5.909   8.982   0.484 -0.2235 -0.1394 -0.2304
   18CHTO   C95 7288   6.043   8.953   0.488 -0.4310 -0.3616  0.8681
   18CHTO  H182 7289   6.081   8.967   0.387 -0.3306  2.6641  1.2650
   18CHTO  C106 7290   6.101   9.066   0.575 -0.5681  0.2476 -0.2169
   18CHTO   O69 7291   6.103   9.195   0.502  0.0839  0.2516  0.3199
   18CHTO  H169 7292   6.181   9.197   0.450  0.9669 -5.0600  1.2145
   18CHTO   O63 7293   5.700   8.957   0.373 -0.1849 -0.2411  0.0438
   18CHTO   C96 7294   5.662   9.050   0.273 -0.2090 -0.1862 -0.7187
   18CHTO  H183 7295   5.702   9.007   0.181 -0.3950 -2.4621  0.2091
   18CHTO   C98 7296   5.718   9.199   0.296  0.4669  0.0944  0.3460
   18CHTO  H185 7297   5.698   9.223   0.402  1.4954  2.0101  0.1221
   18CHTO   O67 7298   5.861   9.191   0.285 -0.0305  0.5393 -0.2931
   18CHTO  H167 7299   5.902   9.263   0.329 -0.1945  0.8605 -0.6611
   18CHTO  C102 7300   5.656   9.313   0.204 -0.0356 -0.7726 -0.2150
   18CHTO  H189 7301   5.715   9.311   0.111  0.4488 -1.5230  0.1078
   18CHTO   N18 7302   5.680   9.443   0.264 -0.1935 -0.0668 -0.0432
   18CHTO  H176 7303   5.591   9.503   0.278 -0.6640 -1.1453  1.9580
   18CHTO  H177 7304   5.767   9.486   0.218 -0.0999  0.2138  0.3865
   18CHTO  C105 7305   5.502   9.292   0.177  0.8124 -0.0515 -0.0600
   18CHTO  H192 7306   5.441   9.318   0.263  0.7546 -1.1940  0.2485
   18CHTO   O65 7307   5.474   9.158   0.145  0.0867  0.2396  0.2439
   18CHTO  C100 7308   5.502   9.056   0.245 -0.7505 -0.0667 -0.4577
   18CHTO  H187 7309   5.447   9.077   0.338  0.1599 -1.7314  0.4818
   18CHTO  C107 7310   5.451   8.915   0.200 -0.1050 -0.0922  0.8318
   18CHTO   O70 7311   5.306   8.910   0.191 -0.5464 -0.1490  0.3808
   18CHTO  H170 7312   5.267   8.824   0.192 -0.7391 -0.0617  0.3391
   18CHTO   O57 7313   5.465   9.399   0.047  0.0940 -0.0174  0.0223
   18CHTO   C85 7314   5.333   9.443   0.012  0.2208 -0.2274  0.1621
   18CHTO  H157 7315   5.360   9.490  -0.085 -0.0130 -2.2778 -0.9272
   18CHTO   C83 7316   5.287   9.553   0.120 -0.1288 -0.6584  0.8583
   18CHTO  H155 7317   5.357   9.636   0.121 -0.3414 -0.4282 -0.7162
   18CHTO   O56 7318   5.287   9.501   0.254  0.2416 -0.4510  0.4165
   18CHTO  H135 7319   5.271   9.409   0.245 -2.0853 -0.0477  0.2433
   18CHTO   C81 7320   5.145   9.606   0.080 -0.8890  0.1010  0.0454
   18CHTO  H153 7321   5.149   9.653  -0.019 -1.6827 -1.0939 -0.5806
   18CHTO   N14 7322   5.106   9.733   0.146 -0.0661  0.0920 -0.2696
   18CHTO  H141 7323   5.018   9.772   0.100 -1.8045 -0.5877  2.3636
   18CHTO  H142 7324   5.090   9.736   0.252 -2.6799 -0.2394 -0.6176
   18CHTO   C79 7325   5.044   9.491   0.077 -0.5241  0.4197  0.0037
   18CHTO  H151 7326   4.949   9.534   0.046 -1.5591 -0.0365  2.3725
   18CHTO   O52 7327   5.090   9.391  -0.015 -0.0139 -0.1376  0.0070
   18CHTO   C86 7328   5.227   9.336  -0.009 -0.3466  0.2413 -0.0269
   18CHTO  H158 7329   5.223   9.273   0.083 -2.2804  0.5331  0.1087
   18CHTO   C90 7330   5.258   9.243  -0.120 -0.3680  0.1790 -0.1037
   18CHTO   O60 7331   5.172   9.128  -0.123  0.1465 -0.0365 -0.0832
   18CHTO  H138 7332   5.098   9.146  -0.177  0.6034 -0.5575 -0.8810
   18CHTO   O50 7333   5.026   9.433   0.204 -0.7698 -0.0463 -0.2316
   18CHTO   C73 7334   4.936   9.331   0.245  0.1037  0.3251 -0.0646
   18CHTO  H145 7335   4.950   9.245   0.177 -0.0573  0.3938 -0.1859
   18CHTO   C74 7336   4.781   9.372   0.226 -0.2563  0.4335 -0.1293
   18CHTO  H146 7337   4.768   9.411   0.124  0.4191 -0.4508 -0.5587
   18CHTO   O54 7338   4.706   9.250   0.225  0.2399 -0.2118 -0.3720
   18CHTO  H133 7339   4.618   9.267   0.196  1.7395  2.8431 -3.2642
   18CHTO   C75 7340   4.742   9.480   0.331 -0.5312 -0.8917 -0.5028
   18CHTO  H147 7341   4.793   9.572   0.300 -1.9502  0.2146  0.4162
   18CHTO   N13 7342   4.597   9.520   0.320 -0.4598 -0.1064 -0.7896
   18CHTO  H139 7343   4.580   9.559   0.221  1.7003 -0.2960 -1.2689
   18CHTO  H140 7344   4.534   9.432   0.326  0.3028 -0.5451  1.4068
   18CHTO   C76 7345   4.783   9.426   0.475  0.6509 -0.6752 -0.9760
   18CHTO  H148 7346   4.726   9.336   0.496 -1.0684  0.7002  0.3661
   18CHTO   O49 7347   4.922   9.379   0.489  0.1552  0.0193 -0.9001
   18CHTO   C77 7348   4.964   9.287   0.389  0.6225  0.0287 -0.2958
   18CHTO  H149 7349   4.921   9.189   0.408  1.6103 -0.7178 -1.7363
   18CHTO   C88 7350   5.112   9.257   0.411 -0.3434  0.1297  0.0922
   18CHTO   O58 7351   5.163   9.158   0.313  0.3081  0.1749 -0.0285
   18CHTO  H136 7352   5.119   9.080   0.343 -1.4948  1.0193 -0.4307
   18CHTO   O51 7353   4.764   9.543   0.587  0.1698 -0.0823 -0.5177
   18CHTO   C78 7354   4.806   9.506   0.742 -0.2745  0.2869 -0.7341
   18CHTO  H150 7355   4.840   9.401   0.752 -2.6931 -0.5549 -0.9994
   18CHTO   C80 7356   4.677   9.522   0.830 -0.0004  0.8384 -0.0686
   18CHTO  H152 7357   4.628   9.619   0.812 -0.6476  0.3551 -0.9628
   18CHTO   O55 7358   4.593   9.422   0.771  0.1370  0.4447 -0.5640
   18CHTO  H134 7359   4.524   9.469   0.728 -0.4771 -0.6400 -0.7840
   18CHTO   C84 7360   4.711   9.507   0.981 -0.5194  0.3489  0.6312
   18CHTO  H156 7361   4.745   9.403   0.978  0.9117  0.8108 -3.4413
   18CHTO   N15 7362   4.592   9.526   1.069  0.8281 -0.0245  0.0814
   18CHTO  H143 7363   4.510   9.467   1.034 -1.3568  3.0478 -0.1663
   18CHTO  H144 7364   4.613   9.500   1.171  1.9626 -2.5354 -0.7500
   18CHTO   C87 7365   4.837   9.589   1.021  0.5399  0.1608  0.0728
   18CHTO  H159 7366   4.802   9.692   1.022 -0.0115  0.0078  4.0523
   18CHTO   O53 7367   4.944   9.562   0.924 -0.7605 -0.2619  0.4475
   18CHTO   C82 7368   4.922   9.590   0.789 -0.2732 -0.2802  0.1546
   18CHTO  H154 7369   4.898   9.696   0.783 -1.3343 -0.4359  1.3409
   18CHTO   C89 7370   5.055   9.569   0.713 -0.0251 -0.2178  0.5394
   18CHTO   O59 7371   5.065   9.637   0.586 -0.3813  0.2538 -0.4353
   18CHTO  H137 7372   5.013   9.715   0.584 -0.1914  0.4172  0.5300
   18CHTO   O45 7373   4.886   9.546   1.180  0.1896  0.0705 -0.0514
   18CHTO   C67 7374   5.025   9.562   1.195 -0.1252  0.2267  0.3061
   18CHTO  H124 7375   5.079   9.538   1.103 -1.9465  2.0056 -1.2822
   18CHTO   C65 7376   5.050   9.716   1.232  0.4634 -0.0307 -0.9079
   18CHTO  H122 7377   4.958   9.753   1.275 -0.3918 -0.9236 -1.9421
   18CHTO   O44 7378   5.071   9.791   1.107 -0.1604  0.0779 -0.0941
   18CHTO  H102 7379   5.073   9.885   1.108  0.2141  0.1011 -1.3869
   18CHTO   C63 7380   5.161   9.732   1.349  0.5609  0.0862 -0.1805
   18CHTO  H120 7381   5.112   9.728   1.446 -2.5252  2.0671 -1.5641
   18CHTO   N11 7382   5.207   9.878   1.353 -0.0889 -0.1362 -0.5897
   18CHTO  H108 7383   5.134   9.935   1.407 -0.6713 -0.1706 -1.3245
   18CHTO  H109 7384   5.305   9.875   1.395 -0.9854  1.3184  1.6788
   18CHTO   C61 7385   5.279   9.624   1.341 -0.4191 -0.0298  0.5123
   18CHTO  H118 7386   5.337   9.632   1.433 -0.3276  0.1530  0.4398
   18CHTO   O40 7387   5.219   9.489   1.342 -0.2018  0.2210  0.1260
   18CHTO   C68 7388   5.083   9.465   1.310  0.2965  0.1763  0.4363
   18CHTO  H125 7389   5.025   9.470   1.405 -2.6450  0.0189 -1.2648
   18CHTO   C72 7390   5.073   9.317   1.258 -0.0343 -0.0430  0.0146
   18CHTO   O48 7391   4.941   9.266   1.249  0.1782 -0.3302 -0.5019
   18CHTO  H105 7392   4.951   9.172   1.251  1.0514 -0.2372 -0.2236
   18CHTO   O38 7393   5.362   9.650   1.226  0.6047  0.3679 -0.0902
   18CHTO   C55 7394   5.472   9.562   1.212 -0.0339  0.3290  0.6157
   18CHTO  H112 7395   5.463   9.472   1.275  0.0977 -0.4833 -0.5083
   18CHTO   C56 7396   5.602   9.646   1.255  0.2558  0.4812 -0.0793
   18CHTO  H113 7397   5.619   9.723   1.178  1.1037  0.9329  0.5599
   18CHTO   O42 7398   5.579   9.711   1.380  0.3559  0.3994  0.4757
   18CHTO  H100 7399   5.647   9.770   1.406 -1.1793  1.1998  2.7170
   18CHTO   C57 7400   5.719   9.548   1.254  0.0184 -0.3453 -0.0665
   18CHTO  H114 7401   5.692   9.479   1.334 -2.3345  3.4583  2.6350
   18CHTO   N10 7402   5.849   9.613   1.288 -0.4169 -0.0652  0.4711
   18CHTO  H106 7403   5.874   9.707   1.242 -1.7379 -0.5762 -1.3499
   18CHTO  H107 7404   5.897   9.603   1.384  1.7651 -0.4755 -0.6347
   18CHTO   C58 7405   5.732   9.474   1.118  0.2425  0.4455  0.4497
   18CHTO  H115 7406   5.786   9.542   1.049 -2.4245  2.3791  0.1752
   18CHTO   O37 7407   5.609   9.430   1.065 -0.2000 -0.0752 -0.7022
   18CHTO   C59 7408   5.492   9.516   1.070 -0.8890 -0.0965 -0.3316
   18CHTO  H116 7409   5.509   9.598   1.001  0.7325 -1.6431 -1.8381
   18CHTO   C70 7410   5.368   9.441   1.017  0.1328  0.7621  0.0360
   18CHTO   O46 7411   5.349   9.314   1.078  0.0944  0.5104  0.2308
   18CHTO  H103 7412   5.422   9.256   1.073 -0.7466 -0.5455 -0.0491
   18CHTO   O39 7413   5.842   9.342   1.141  0.5112  0.0320  0.4584
   18CHTO   C60 7414   5.783   9.242   1.236  0.0829 -0.5140 -0.2942
   18CHTO  H117 7415   5.725   9.299   1.308  0.7928  0.9562 -0.8764
   18CHTO   C62 7416   5.694   9.140   1.168 -0.1856  0.5351 -0.2362
   18CHTO  H119 7417   5.625   9.199   1.105  0.1538  1.3085  0.1115
   18CHTO   O43 7418   5.776   9.063   1.080 -0.0504  0.1192  0.3355
   18CHTO  H101 7419   5.837   9.011   1.129  1.6000 -0.9925 -2.8108
   18CHTO   C66 7420   5.614   9.051   1.277 -0.0553 -0.2782  0.0669
   18CHTO  H123 7421   5.545   9.113   1.335  0.7461  0.5304  0.1776
   18CHTO   N12 7422   5.514   8.960   1.225  0.4462  0.7690 -0.4225
   18CHTO  H110 7423   5.500   8.877   1.293  2.8271  1.0914  0.5022
   18CHTO  H111 7424   5.531   8.925   1.124 -1.7538 -0.0055 -0.5382
   18CHTO   C69 7425   5.720   8.986   1.375 -0.5567  0.1318 -0.5149
   18CHTO  H126 7426   5.767   8.898   1.325 -0.1225  0.9864 -1.6176
   18CHTO   O41 7427   5.851   9.085   1.415  0.0970  0.8724  0.2579
   18CHTO   C64 7428   5.901   9.179   1.317  0.1586  0.0523  0.1138
   18CHTO  H121 7429   5.956   9.119   1.241 -1.5857 -1.7622  0.2493
   18CHTO   C71 7430   5.991   9.285   1.388  0.2454  0.4497  0.1464
   18CHTO   O47 7431   5.918   9.338   1.500 -0.6591 -0.5315  0.1510
   18CHTO  H104 7432   5.870   9.416   1.480  0.2945 -0.5563 -2.5188
   18CHTO   O34 7433   5.659   8.939   1.509 -0.1365  0.4187  0.1521
   18CHTO   C49 7434   5.633   9.001   1.661 -0.2876  0.6310 -0.2307
   18CHTO   H91 7435   5.707   8.960   1.730  3.6204  1.6486 -3.6003
   18CHTO   C47 7436   5.488   8.961   1.707  0.0603 -0.0060 -0.2278
   18CHTO   H89 7437   5.474   9.017   1.802  1.3156 -1.1730  0.6882
   18CHTO   O33 7438   5.480   8.818   1.734  0.2034 -0.3371 -0.0876
   18CHTO   H70 7439   5.395   8.783   1.749  0.0355  0.4457  0.8286
   18CHTO   C45 7440   5.392   9.017   1.596 -0.4598 -0.0424  0.3486
   18CHTO   H87 7441   5.423   8.989   1.495 -2.2389 -0.7761 -0.0108
   18CHTO    N8 7442   5.252   8.963   1.606 -1.0389  0.2206  0.6574
   18CHTO   H75 7443   5.238   8.877   1.542  1.0631 -0.0072  0.4822
   18CHTO   H76 7444   5.231   8.941   1.709 -2.8637  0.8898  0.4524
   18CHTO   C43 7445   5.407   9.180   1.594 -0.0342  0.4796 -0.2207
   18CHTO   H85 7446   5.344   9.212   1.511 -0.2232 -0.7969 -0.5735
   18CHTO   O29 7447   5.541   9.227   1.580 -0.3081 -0.0539  0.8107
   18CHTO   C50 7448   5.646   9.165   1.656 -0.2342 -0.0312  0.4482
   18CHTO   H92 7449   5.746   9.196   1.620 -0.1656  0.7806  1.3116
   18CHTO   C54 7450   5.662   9.229   1.793 -0.1923 -0.3287  0.3511
   18CHTO   O36 7451   5.782   9.211   1.867 -0.4379  0.0688 -0.4400
   18CHTO   H72 7452   5.791   9.119   1.883 -1.6944  0.0443  0.1749
   18CHTO   O27 7453   5.356   9.238   1.716  0.3271  0.1030 -0.1127
   18CHTO   C37 7454   5.264   9.334   1.773 -0.7562  0.2082  0.1478
   18CHTO   H79 7455   5.230   9.297   1.871  0.5735  1.6672  1.1724
   18CHTO   C38 7456   5.339   9.464   1.806 -1.2478  0.2098 -0.2976
   18CHTO   H80 7457   5.401   9.494   1.720  0.2996 -1.2051  0.2934
   18CHTO   O31 7458   5.422   9.428   1.919  0.2209 -0.3552 -0.1201
   18CHTO   H68 7459   5.486   9.365   1.890  0.7560  0.0131  0.2425
   18CHTO   C39 7460   5.240   9.581   1.846 -0.2177 -0.0509  1.4114
   18CHTO   H81 7461   5.202   9.560   1.946 -2.0248 -1.1653  0.5229
   18CHTO    N7 7462   5.316   9.706   1.853  0.8236  0.2110 -0.3743
   18CHTO   H73 7463   5.319   9.731   1.958  1.9345  1.5548 -0.7063
   18CHTO   H74 7464   5.278   9.793   1.802  2.5640  2.0282  1.2983
   18CHTO   C40 7465   5.124   9.588   1.733 -0.5906 -0.2252 -0.4351
   18CHTO   H82 7466   5.162   9.620   1.636 -0.4798  1.5496  0.1695
   18CHTO   O26 7467   5.059   9.465   1.725  0.2095 -0.0325 -0.8602
   18CHTO   C41 7468   5.144   9.359   1.677 -0.1429 -0.4042 -0.8967
   18CHTO   H83 7469   5.193   9.378   1.580  1.4189  1.1885  0.1878
   18CHTO   C52 7470   5.054   9.239   1.670  0.2901  0.2311 -0.3689
   18CHTO   O35 7471   4.961   9.204   1.778  0.1691 -0.2910  0.2967
   18CHTO   H71 7472   5.001   9.165   1.853  1.5844 -1.9940 -1.2813
   18CHTO   O28 7473   5.023   9.690   1.752  0.4250  0.6402  0.2564
   18CHTO   C42 7474   4.885   9.695   1.792 -0.0276 -0.2122  0.1261
   18CHTO   H84 7475   4.861   9.799   1.812 -0.0946 -0.0556 -0.7530
   18CHTO   C44 7476   4.840   9.614   1.919 -0.0107 -0.0182  0.3254
   18CHTO   H86 7477   4.837   9.508   1.894  0.5714 -0.1889  0.9799
   18CHTO   O32 7478   4.928   9.649   2.024 -0.4358 -0.3299  0.6974
   18CHTO   H69 7479   4.901   9.591   2.093 -1.2962 -0.7756 -0.0031
   18CHTO   C48 7480   4.689   9.655   1.964 -0.5883  0.3346  0.5637
   18CHTO   H90 7481   4.707   9.761   1.978 -0.6660  0.4907 -0.5247
   18CHTO    N9 7482   4.643   9.586   2.086  0.4071 -0.2858 -0.4177
   18CHTO   H77 7483   4.717   9.595   2.164  0.4265 -2.7784 -0.1099
   18CHTO   H78 7484   4.554   9.639   2.116  0.3787 -0.6763  0.1832
   18CHTO   C51 7485   4.596   9.633   1.839  0.3082 -0.5034  0.2908
   18CHTO   H93 7486   4.588   9.525   1.835  1.7988 -0.6030 -0.4388
   18CHTO   O30 7487   4.655   9.689   1.715  0.5246  0.5109 -0.1835
   18CHTO   C46 7488   4.782   9.651   1.680  0.0431  0.0044 -0.0375
   18CHTO   H88 7489   4.782   9.542   1.668  1.0667  0.0291 -0.3459
   18CHTO   C53 7490   4.811   9.712   1.534 -0.0755  0.0345 -0.4752
   18CHTO   O72 7491   4.704   9.686   1.444 -0.0479 -0.7073  0.2629
   18CHTO  H199 7492   4.713   9.719   1.356 -0.8292 -1.0847  0.0372
   18CHTO   O22 7493   4.480   9.701   1.857 -0.1894 -0.4434 -0.2847
   18CHTO   C31 7494   4.366   9.698   1.761  0.8705  0.6798  1.1024
   18CHTO   H59 7495   4.281   9.739   1.818 -1.1933  0.7316 -1.8969
   18CHTO   C29 7496   4.375   9.776   1.629 -0.0358 -0.4349  0.4681
   18CHTO   H57 7497   4.466   9.741   1.578  0.7256 -1.9592  2.7829
   18CHTO   O21 7498   4.398   9.913   1.667  0.2755  0.2744 -0.4957
   18CHTO   H37 7499   4.336   9.972   1.628  0.3265  2.1168  2.0646
   18CHTO   C27 7500   4.255   9.755   1.532  0.4202  0.4596 -0.1777
   18CHTO   H55 7501   4.167   9.799   1.581  1.2022 -0.0690  1.7553
   18CHTO    N5 7502   4.276   9.824   1.400  0.8241 -0.4975 -0.2685
   18CHTO   H43 7503   4.382   9.820   1.378  0.8472  2.4517 -0.9471
   18CHTO   H44 7504   4.227   9.765   1.324  0.6769  0.8633 -1.2447
   18CHTO   C25 7505   4.223   9.600   1.513  0.4056 -0.2092  0.3180
   18CHTO   H53 7506   4.308   9.555   1.461  1.1511  1.9742 -0.4149
   18CHTO   O17 7507   4.209   9.540   1.640 -0.0648 -0.1986 -0.4610
   18CHTO   C32 7508   4.322   9.549   1.726 -0.4459 -0.5049 -0.1079
   18CHTO   H60 7509   4.403   9.494   1.679 -0.9688 -0.3922 -1.1662
   18CHTO   C36 7510   4.260   9.476   1.843 -0.1422  0.0225 -0.0662
   18CHTO   O25 7511   4.350   9.453   1.952 -0.2709 -0.1064 -0.0707
   18CHTO   H40 7512   4.422   9.513   1.951 -0.5821  0.2726  0.0734
   18CHTO   O15 7513   4.087   9.577   1.427  0.3412 -0.1101  0.1951
   18CHTO   C19 7514   4.052   9.507   1.309 -0.1173  0.1477 -0.3292
   18CHTO   H47 7515   3.943   9.490   1.305  0.1784 -1.8814 -0.3848
   18CHTO   C20 7516   4.096   9.584   1.180 -0.2626 -0.6941  0.9226
   18CHTO   H48 7517   4.200   9.618   1.190 -0.3390 -0.3838  0.6296
   18CHTO   O19 7518   4.005   9.692   1.166 -0.3437 -0.4000  0.3193
   18CHTO   H35 7519   4.029   9.771   1.210 -0.7459 -0.5903  0.8902
   18CHTO   C21 7520   4.080   9.501   1.044 -0.0019  0.1402  0.0897
   18CHTO   H49 7521   3.975   9.486   1.020  0.5294  0.1464 -2.3913
   18CHTO    N4 7522   4.138   9.574   0.928 -0.8987 -1.0306 -0.1406
   18CHTO   H41 7523   4.144   9.523   0.833  0.2908 -1.7803  0.3371
   18CHTO   H42 7524   4.236   9.613   0.952 -0.6216 -0.7743 -1.6029
   18CHTO   C22 7525   4.151   9.364   1.070 -0.6373 -0.6158  0.6042
   18CHTO   H50 7526   4.255   9.378   1.099 -0.4771  0.9764 -0.7033
   18CHTO   O14 7527   4.080   9.297   1.179  0.5077 -0.1917 -0.0113
   18CHTO   C23 7528   4.119   9.364   1.302 -0.4889 -0.1412 -0.6519
   18CHTO   H51 7529   4.229   9.369   1.302 -0.4465 -0.9311 -1.4666
   18CHTO   C34 7530   4.096   9.270   1.418  0.1540 -0.2181 -0.2089
   18CHTO   O23 7531   4.169   9.149   1.411  0.3326  0.2695 -0.2864
   18CHTO   H38 7532   4.225   9.143   1.486 -1.3225  0.6527  1.0138
   18CHTO   O16 7533   4.138   9.272   0.956 -0.2667  0.1650  0.6388
   18CHTO   C24 7534   4.289   9.260   0.874 -0.1541  0.9210 -0.7310
   18CHTO   H52 7535   4.353   9.347   0.886 -0.2898  0.7113  1.9561
   18CHTO   C26 7536   4.253   9.243   0.724  0.0695  0.1197  0.2947
   18CHTO   H54 7537   4.188   9.153   0.714  0.1439  0.0746  0.1985
   18CHTO   O20 7538   4.178   9.362   0.669 -0.2794  0.0947  0.0670
   18CHTO   H36 7539   4.120   9.394   0.736 -1.2552 -0.5286 -0.4805
   18CHTO   C30 7540   4.384   9.212   0.638 -0.5332  0.8506  0.0529
   18CHTO   H58 7541   4.444   9.303   0.632 -1.1764  1.2819  0.1243
   18CHTO    N6 7542   4.353   9.190   0.499  0.0072 -0.0331  0.1743
   18CHTO   H45 7543   4.440   9.157   0.445 -0.7417  0.1060 -1.1372
   18CHTO   H46 7544   4.271   9.120   0.489 -0.6550  0.7010  0.4039
   18CHTO   C33 7545   4.467   9.097   0.703 -0.8031 -0.1166 -0.1170
   18CHTO   H61 7546   4.405   9.007   0.703 -0.9747  0.0004  0.1379
   18CHTO   O18 7547   4.493   9.136   0.837  0.9591 -0.2204 -0.2850
   18CHTO   C28 7548   4.372   9.135   0.921  0.0156  0.3622  0.2353
   18CHTO   H56 7549   4.316   9.044   0.897  1.7505 -0.0359 -2.4684
   18CHTO   C35 7550   4.402   9.138   1.073  0.3445  0.2220  0.1901
   18CHTO   O24 7551   4.464   9.020   1.127 -1.0503 -0.1451  0.0868
   18CHTO   H39 7552   4.426   8.997   1.209 -0.5915  0.1260  0.3769
   18CHTO    O9 7553   4.589   9.071   0.634 -0.5813 -0.2024 -0.4409
   18CHTO   C13 7554   4.703   8.977   0.719  0.2008 -0.3188  0.2551
   18CHTO   H26 7555   4.648   8.906   0.784 -0.8046  0.7689  0.5910
   18CHTO   C11 7556   4.801   9.077   0.797  0.3998  0.0312 -1.0316
   18CHTO   H24 7557   4.753   9.130   0.881  2.2602  1.6451 -0.9702
   18CHTO    O8 7558   4.844   9.183   0.710  0.7657  0.3881 -0.0819
   18CHTO    H3 7559   4.811   9.269   0.726  0.9958  0.8887 -2.2016
   18CHTO    C9 7560   4.919   8.993   0.857  0.0404  0.1683  0.3892
   18CHTO   H22 7561   4.870   8.926   0.929  0.6542 -2.2866 -1.4398
   18CHTO    N2 7562   4.999   9.075   0.952  0.2175  0.1071  0.5186
   18CHTO   H10 7563   5.055   9.012   1.019 -1.1392  1.0201  2.5584
   18CHTO   H11 7564   4.937   9.132   1.019  0.3304 -0.3583  1.0259
   18CHTO    C7 7565   4.998   8.916   0.752 -0.2201  0.4925  0.4733
   18CHTO   H20 7566   5.065   8.851   0.813 -0.4324 -1.5498 -1.3735
   18CHTO    O4 7567   4.911   8.832   0.670 -0.0382 -0.1043  0.1683
   18CHTO   C14 7568   4.788   8.887   0.613 -0.0009 -0.0949  0.5130
   18CHTO   H27 7569   4.718   8.801   0.597 -1.0570  0.2163  3.2094
   18CHTO   C18 7570   4.810   8.949   0.477 -0.2276 -0.0072  0.1933
   18CHTO   O13 7571   4.702   8.985   0.400 -0.9357 -0.5924 -0.1501
   18CHTO    H7 7572   4.624   8.951   0.438 -0.1644 -3.0087 -0.5985
   18CHTO    O2 7573   5.087   8.998   0.663 -0.8336  0.5343  0.2995
   18CHTO    C1 7574   5.209   8.947   0.613  0.8578 -0.3285  0.5317
   18CHTO   H14 7575   5.225   8.995   0.514  0.7874 -1.8573 -0.2228
   18CHTO    C2 7576   5.219   8.793   0.594  0.6018 -0.3998  0.1993
   18CHTO   H15 7577   5.188   8.749   0.690 -0.5058 -0.5369 -0.2168
   18CHTO    O6 7578   5.134   8.761   0.486  0.3417 -0.4888 -0.5050
   18CHTO    H1 7579   5.164   8.799   0.406  0.3246 -2.2784 -1.3921
   18CHTO    C3 7580   5.370   8.741   0.570  0.3846 -0.2417  0.5397
   18CHTO   H16 7581   5.401   8.786   0.474  0.8673  0.7014  1.1333
   18CHTO    N1 7582   5.372   8.588   0.573  0.5648  0.6766  0.8771
   18CHTO    H8 7583   5.288   8.560   0.634 -0.6617  2.9813  0.3179
   18CHTO    H9 7584   5.467   8.546   0.605  1.0859  1.8020  0.8477
   18CHTO    C4 7585   5.463   8.799   0.684  0.2570 -0.2500 -0.2562
   18CHTO   H17 7586   5.434   8.755   0.779 -0.6953 -1.1914 -0.9736
   18CHTO    O1 7587   5.450   8.938   0.678 -0.2083  0.6223 -0.1006
   18CHTO    C5 7588   5.321   8.997   0.712  0.2480  0.1041 -0.8948
   18CHTO   H18 7589   5.302   8.969   0.815 -1.1533  2.8815 -0.3426
   18CHTO   C16 7590   5.351   9.152   0.700  0.6982  0.6361  0.2806
   18CHTO   O11 7591   5.231   9.227   0.721  0.5042  0.4336 -0.3044
   18CHTO    H5 7592   5.187   9.203   0.801 -0.5071  2.2327 -0.2947
   18CHTO    O3 7593   5.605   8.788   0.670  0.2996  0.1067 -0.4483
   18CHTO    C6 7594   5.684   8.785   0.792  0.3432 -0.3310 -0.3923
   18CHTO   H19 7595   5.627   8.815   0.880  1.9803  1.4778  0.0818
   18CHTO    C8 7596   5.747   8.644   0.809  0.4055  0.2219 -0.2875
   18CHTO   H21 7597   5.804   8.624   0.719 -1.2705 -0.7192 -1.1686
   18CHTO    O7 7598   5.641   8.553   0.828 -0.1140 -0.3761 -0.6793
   18CHTO    H2 7599   5.590   8.546   0.750  2.1419 -1.6171 -2.0952
   18CHTO   C12 7600   5.857   8.647   0.924 -0.2732 -0.1733 -0.5425
   18CHTO   H25 7601   5.807   8.653   1.023  2.1482 -0.2045  0.7250
   18CHTO    N3 7602   5.931   8.516   0.925  0.1855 -0.3398  0.0985
   18CHTO   H12 7603   5.856   8.438   0.929 -0.8567  0.6117 -0.8023
   18CHTO   H13 7604   5.996   8.514   1.012  0.6117  1.0995 -0.1755
   18CHTO   C15 7605   5.953   8.769   0.907 -1.2731 -0.5387 -0.2194
   18CHTO   H28 7606   6.021   8.755   0.823 -0.4945  2.8647 -0.2136
   18CHTO   O10 7607   6.032   8.795   1.023  0.2719  0.1714 -0.1304
   18CHTO    H4 7608   6.075   8.717   1.052  0.8933  0.2421 -0.8697
   18CHTO    O5 7609   5.873   8.890   0.899 -0.1139  0.0132 -0.3092
   18CHTO   C10 7610   5.792   8.891   0.785  0.0506  0.3307 -0.3021
   18CHTO   H23 7611   5.852   8.872   0.695 -0.1508 -0.3011 -0.3050
   18CHTO   C17 7612   5.734   9.029   0.767  0.2204 -0.1716 -0.5855
   18CHTO   O12 7613   5.826   9.141   0.791  0.0902  0.0823  0.8804
   18CHTO    H6 7614   5.814   9.176   0.878 -0.3400 -0.7982  1.1867
   19CHTO  H203 7615   4.699   0.909   0.056  0.0415 -1.3204  0.2290
   19CHTO   O82 7616   4.771   0.863   0.015  0.4063 -0.4045 -0.1617
   19CHTO  C123 7617   4.732   0.734  -0.046  0.0722  0.4765  0.4020
   19CHTO  H227 7618   4.650   0.751  -0.117  1.5972  1.8948 -1.0603
   19CHTO   O77 7619   4.839   0.681  -0.123 -0.4137 -0.0127 -0.0379
   19CHTO  C118 7620   4.808   0.569  -0.201 -0.4714  0.3380 -0.0869
   19CHTO  H222 7621   4.739   0.589  -0.284 -1.0665 -1.1179  0.0398
   19CHTO  C125 7622   4.944   0.519  -0.267  0.0853  0.5149 -0.5202
   19CHTO   O84 7623   5.010   0.626  -0.347  0.1421  0.2234  0.2069
   19CHTO  H205 7624   5.041   0.696  -0.293 -1.6690  2.2550 -1.2891
   19CHTO  C114 7625   4.757   0.451  -0.117 -0.6037 -0.2964  0.2283
   19CHTO  H218 7626   4.833   0.421  -0.045 -0.6762 -0.0448  0.4113
   19CHTO  C116 7627   4.652   0.490  -0.014 -0.1242  0.9981 -0.2648
   19CHTO  H220 7628   4.554   0.511  -0.062 -0.2299  1.0097 -0.0440
   19CHTO   O79 7629   4.618   0.380   0.071 -0.3028  0.2896 -0.9169
   19CHTO  H201 7630   4.547   0.327   0.042 -1.0350 -0.6245  2.2787
   19CHTO  C120 7631   4.699   0.625   0.069  0.1796  0.4511  0.8469
   19CHTO  H224 7632   4.783   0.592   0.134 -0.0563 -2.5232 -0.2570
   19CHTO   N21 7633   4.590   0.670   0.161  0.5637 -0.3907  0.5539
   19CHTO  H211 7634   4.591   0.623   0.259  5.0504  0.9398  1.2991
   19CHTO  H212 7635   4.581   0.778   0.160  3.3918 -0.1115 -1.5189
   19CHTO   O75 7636   4.726   0.348  -0.215 -0.1872  0.0558  0.0250
   19CHTO  C112 7637   4.793   0.193  -0.157 -0.2696 -0.3573  0.9939
   19CHTO  H216 7638   4.783   0.179  -0.048  1.2772 -0.1933  1.1676
   19CHTO   O73 7639   4.931   0.186  -0.200 -0.5198  0.6774  0.2785
   19CHTO  C113 7640   4.999   0.064  -0.177 -0.3254  0.1519  0.7116
   19CHTO  H217 7641   4.986   0.028  -0.073  0.4709 -1.3060  0.3124
   19CHTO  C124 7642   5.147   0.086  -0.209  0.2313  1.1330 -0.0117
   19CHTO   O83 7643   5.202   0.182  -0.120 -0.2206 -0.0977 -0.1598
   19CHTO  H204 7644   5.201   0.143  -0.035  2.1624  2.9311  1.3520
   19CHTO  C109 7645   4.925  -0.036  -0.265  0.1143 -0.6569  0.0603
   19CHTO  H213 7646   4.933   0.001  -0.368  1.8478 -0.7449  0.1497
   19CHTO  C110 7647   4.778  -0.060  -0.230 -0.3418 -0.1874 -0.0825
   19CHTO  H214 7648   4.780  -0.110  -0.133  1.7980 -1.9632 -0.9750
   19CHTO   O78 7649   4.716  -0.144  -0.323 -0.3990 -0.0525 -0.4069
   19CHTO  H200 7650   4.689  -0.221  -0.278 -0.4855  0.6612  0.7879
   19CHTO  C111 7651   4.706   0.079  -0.226  0.4484  0.2894  0.2214
   19CHTO  H215 7652   4.699   0.123  -0.327 -0.1104  1.4773  0.7725
   19CHTO   N19 7653   4.567   0.078  -0.179 -0.3096 -0.6509 -0.2285
   19CHTO  H207 7654   4.532   0.180  -0.184 -1.0944 -1.0052 -2.5450
   19CHTO  H208 7655   4.502   0.027  -0.248  1.5929  0.6951 -3.1128
   19CHTO   O74 7656   4.988  -0.162  -0.260  0.1554  0.1911 -0.3353
   19CHTO  C115 7657   5.006  -0.237  -0.389  0.7996 -0.0960  0.3604
   19CHTO  H219 7658   4.917  -0.241  -0.452  0.7241 -0.5409  0.4959
   19CHTO   O76 7659   5.111  -0.180  -0.474  0.1231  0.1384  0.3427
   19CHTO  C122 7660   5.242  -0.203  -0.425 -1.0276  0.0956 -0.3754
   19CHTO  H226 7661   5.248  -0.154  -0.328  0.2171  2.1634 -1.4749
   19CHTO  C126 7662   5.345  -0.128  -0.518 -0.3457  0.2151  0.0372
   19CHTO   O85 7663   5.362   0.010  -0.510 -0.3418  0.0663  0.1789
   19CHTO  H206 7664   5.288   0.049  -0.467  0.2377 -0.9502  2.2181
   19CHTO  C121 7665   5.272  -0.359  -0.425  0.5104  0.2844  0.1003
   19CHTO  H225 7666   5.329  -0.386  -0.516  1.0463  0.3702  0.4088
   19CHTO   O81 7667   5.362  -0.399  -0.324 -0.1874  0.8495 -0.1490
   19CHTO  H202 7668   5.428  -0.334  -0.309 -1.0653  1.8453 -0.5157
   19CHTO  C119 7669   5.140  -0.445  -0.423  0.7538  0.5786 -0.0681
   19CHTO  H223 7670   5.102  -0.442  -0.525  0.0698 -0.1992  0.1571
   19CHTO  C117 7671   5.040  -0.383  -0.333 -0.3623 -0.2756  0.0251
   19CHTO  H221 7672   5.068  -0.368  -0.229  2.3767  0.5892 -0.7920
   19CHTO   N20 7673   4.913  -0.460  -0.335 -0.3442 -0.3821 -0.2181
   19CHTO  H209 7674   4.931  -0.552  -0.281 -2.7071 -0.0961  1.1329
   19CHTO  H210 7675   4.837  -0.418  -0.270  0.8524  0.8352  0.4240
   19CHTO   O80 7676   5.160  -0.611  -0.411  0.2592 -0.1028  0.2124
   19CHTO  C103 7677   5.193  -0.691  -0.537 -0.3239  0.5642  0.0841
   19CHTO  H190 7678   5.194  -0.632  -0.628 -2.3964 -1.1512 -1.0994
   19CHTO  C101 7679   5.326  -0.774  -0.527  0.2437  0.5908  0.4180
   19CHTO  H188 7680   5.328  -0.824  -0.430  0.4937 -1.5018 -0.6258
   19CHTO   O68 7681   5.438  -0.671  -0.538 -0.2253 -0.1417 -0.2341
   19CHTO  H168 7682   5.415  -0.589  -0.499  1.9141 -0.0456  0.9020
   19CHTO   C99 7683   5.352  -0.883  -0.635  0.2564  0.3894 -0.1001
   19CHTO  H186 7684   5.367  -0.839  -0.735 -0.6501 -0.5396 -0.6547
   19CHTO   N17 7685   5.474  -0.967  -0.609  0.4197  0.1316  0.6067
   19CHTO  H174 7686   5.558  -0.901  -0.595  1.3180 -1.0250  0.7429
   19CHTO  H175 7687   5.479  -1.017  -0.705 -1.6564 -0.5602  0.8345
   19CHTO   C97 7688   5.225  -0.974  -0.648  0.4970 -0.2833 -0.1153
   19CHTO  H184 7689   5.205  -1.030  -0.555 -1.7865  0.2906 -0.2349
   19CHTO   O64 7690   5.117  -0.884  -0.675  0.0410 -0.3932 -0.0770
   19CHTO  C104 7691   5.081  -0.800  -0.561  0.6069 -0.2931 -0.0197
   19CHTO  H191 7692   5.082  -0.868  -0.475 -3.0342  0.8604  1.0188
   19CHTO  C108 7693   4.936  -0.752  -0.568  0.0275 -0.3806  0.4530
   19CHTO   O71 7694   4.915  -0.671  -0.689 -0.2030 -0.2455 -0.3693
   19CHTO  H171 7695   4.901  -0.729  -0.761 -0.6147 -0.8310  0.1731
   19CHTO   O62 7696   5.241  -1.066  -0.753 -0.6882 -0.1101  0.8243
   19CHTO   C91 7697   5.145  -1.178  -0.733  0.1025  0.9115 -0.0591
   19CHTO  H178 7698   5.094  -1.175  -0.636  1.2597  0.4945  0.5785
   19CHTO   C92 7699   5.229  -1.313  -0.722  0.2619 -0.8741  0.1184
   19CHTO  H179 7700   5.304  -1.311  -0.803  0.1432  1.0817  0.0394
   19CHTO   O66 7701   5.305  -1.310  -0.601  0.3418 -0.0217  0.3222
   19CHTO  H166 7702   5.353  -1.230  -0.595  0.9844 -0.5160  2.3345
   19CHTO   C93 7703   5.146  -1.445  -0.724 -0.0823  0.6209  0.8892
   19CHTO  H180 7704   5.092  -1.447  -0.628 -0.7284 -0.9879  0.5073
   19CHTO   N16 7705   5.231  -1.567  -0.724  0.4402 -0.2492  0.7178
   19CHTO  H172 7706   5.173  -1.656  -0.704 -0.2317  0.1016  0.3361
   19CHTO  H173 7707   5.320  -1.563  -0.663  0.7828  2.6724  0.1049
   19CHTO   C94 7708   5.040  -1.455  -0.837 -0.5545  0.0173 -0.3313
   19CHTO  H181 7709   5.084  -1.462  -0.936 -0.7357 -0.3448 -0.3836
   19CHTO   O61 7710   4.970  -1.326  -0.837  0.3063  0.5276 -0.1397
   19CHTO   C95 7711   5.035  -1.200  -0.852  0.1480 -0.7545  0.3017
   19CHTO  H182 7712   5.075  -1.190  -0.953  0.4104  0.6212  0.5305
   19CHTO  C106 7713   4.917  -1.100  -0.843  0.1066 -0.3135  0.2746
   19CHTO   O69 7714   4.830  -1.088  -0.956 -0.4679 -0.9105 -0.6632
   19CHTO  H169 7715   4.775  -1.164  -0.956 -1.1328 -0.4872  1.9456
   19CHTO   O63 7716   4.923  -1.567  -0.812  0.1730  1.3968  0.0836
   19CHTO   C96 7717   4.855  -1.624  -0.944 -0.5145 -0.5693 -0.2765
   19CHTO  H183 7718   4.938  -1.658  -1.006  0.8308  0.3390  0.9585
   19CHTO   C98 7719   4.771  -1.516  -1.023  0.8273  0.0721  0.2804
   19CHTO  H185 7720   4.829  -1.422  -1.023  0.0207  0.6037  2.7230
   19CHTO   O67 7721   4.743  -1.554  -1.158 -0.1989 -0.0632  0.1971
   19CHTO  H167 7722   4.819  -1.585  -1.204 -0.2132 -0.9908  0.7913
   19CHTO  C102 7723   4.625  -1.502  -0.952 -0.5909  0.3253  0.3640
   19CHTO  H189 7724   4.559  -1.468  -1.033 -0.7012  2.4643  1.3215
   19CHTO   N18 7725   4.620  -1.387  -0.856  0.4824 -0.4464  0.4352
   19CHTO  H176 7726   4.587  -1.294  -0.899 -1.7336 -0.5649  1.7666
   19CHTO  H177 7727   4.716  -1.378  -0.809  0.6606  0.2440 -0.0498
   19CHTO  C105 7728   4.566  -1.630  -0.898  0.4988 -0.5603  1.4262
   19CHTO  H192 7729   4.562  -1.634  -0.789 -2.9847  1.6383  1.4794
   19CHTO   O65 7730   4.635  -1.746  -0.950 -0.5068  0.0937  0.2464
   19CHTO  C100 7731   4.774  -1.762  -0.915  0.8573  0.2700  0.2065
   19CHTO  H187 7732   4.785  -1.771  -0.806  0.8834  2.6295  0.4203
   19CHTO  C107 7733   4.832  -1.882  -0.989 -0.4412  0.0186 -0.1084
   19CHTO   O70 7734   4.812  -1.872  -1.130 -0.0706  0.3789 -0.3765
   19CHTO  H170 7735   4.871  -1.937  -1.164 -0.4318  0.3325 -0.9151
   19CHTO   O57 7736   4.406  -1.626  -0.970  0.0570  0.3001 -0.0593
   19CHTO   C85 7737   4.300  -1.691  -0.895  0.1798  0.8042  0.4633
   19CHTO  H157 7738   4.353  -1.745  -0.814  1.2676 -1.8281 -1.9084
   19CHTO   C83 7739   4.233  -1.818  -0.969 -0.6126  0.5447  0.1898
   19CHTO  H155 7740   4.310  -1.891  -0.995 -1.7474 -0.1260 -1.3822
   19CHTO   O56 7741   4.177  -1.769  -1.091  0.4601 -0.4870  0.3764
   19CHTO  H135 7742   4.169  -1.836  -1.156  1.5993 -3.1857  2.9084
   19CHTO   C81 7743   4.131  -1.893  -0.877  0.2114  0.1890  0.1273
   19CHTO  H153 7744   4.186  -1.931  -0.791  0.0010  0.4714  0.3914
   19CHTO   N14 7745   4.082  -2.015  -0.940  0.7487  0.0482  0.0542
   19CHTO  H141 7746   4.160  -2.062  -0.996  0.0860 -1.4787  0.3802
   19CHTO  H142 7747   4.008  -1.983  -1.011  0.5785 -0.7323 -0.1190
   19CHTO   C79 7748   4.019  -1.796  -0.818 -0.5990  0.3727 -0.3559
   19CHTO  H151 7749   3.975  -1.855  -0.738  0.0987 -0.7515 -0.7893
   19CHTO   O52 7750   4.088  -1.674  -0.757  0.0515  0.1104 -0.1754
   19CHTO   C86 7751   4.183  -1.601  -0.839  0.0433 -0.4248  0.0294
   19CHTO  H158 7752   4.116  -1.564  -0.919  1.2815  0.8495 -0.4516
   19CHTO   C90 7753   4.234  -1.478  -0.776 -0.3528 -0.2591  0.5286
   19CHTO   O60 7754   4.148  -1.393  -0.699 -0.4753  0.4280  0.6467
   19CHTO  H138 7755   4.206  -1.329  -0.663 -0.7702 -0.1266  2.1806
   19CHTO   O50 7756   3.917  -1.755  -0.902  0.3165  0.2420  0.6654
   19CHTO   C73 7757   3.778  -1.716  -0.920 -0.5649  0.1466  0.6292
   19CHTO  H145 7758   3.715  -1.807  -0.923 -0.0435 -0.1546 -3.4029
   19CHTO   C74 7759   3.755  -1.665  -1.061 -0.2061 -0.0879  0.0287
   19CHTO  H146 7760   3.777  -1.745  -1.133 -0.3653 -2.3309  2.3874
   19CHTO   O54 7761   3.617  -1.633  -1.069 -0.6137  0.0568  0.4981
   19CHTO  H133 7762   3.565  -1.629  -0.992 -1.1623  2.5785  0.0489
   19CHTO   C75 7763   3.855  -1.538  -1.071 -0.0678  0.1948 -0.3099
   19CHTO  H147 7764   3.961  -1.564  -1.055 -0.6511  0.0877  4.0625
   19CHTO   N13 7765   3.857  -1.462  -1.200 -0.3180  0.5586 -0.2086
   19CHTO  H139 7766   3.936  -1.496  -1.266 -1.2741  0.8113 -1.5033
   19CHTO  H140 7767   3.754  -1.473  -1.230 -0.8402 -1.7355  2.1698
   19CHTO   C76 7768   3.806  -1.436  -0.963 -0.2870  0.7638  0.0392
   19CHTO  H148 7769   3.704  -1.404  -0.988 -0.9174 -1.9233 -1.0598
   19CHTO   O49 7770   3.806  -1.494  -0.828  0.0117 -0.1719 -0.1243
   19CHTO   C77 7771   3.729  -1.617  -0.811 -0.4736  0.5377 -0.4283
   19CHTO  H149 7772   3.622  -1.598  -0.823 -0.8825 -0.7128  1.0496
   19CHTO   C88 7773   3.758  -1.671  -0.672  0.3934 -0.0873  0.3368
   19CHTO   O58 7774   3.734  -1.575  -0.565 -0.1915 -0.1999  0.5000
   19CHTO  H136 7775   3.653  -1.528  -0.569 -0.8201 -1.1158  2.0365
   19CHTO   O51 7776   3.926  -1.315  -0.947  0.2457 -0.1895 -0.0363
   19CHTO   C78 7777   3.864  -1.183  -0.894 -0.1285 -0.1553  0.0473
   19CHTO  H150 7778   3.754  -1.196  -0.889  0.2427 -2.9877  1.8960
   19CHTO   C80 7779   3.890  -1.070  -0.997  0.1151 -0.1968  0.4478
   19CHTO  H152 7780   3.998  -1.072  -1.024  0.3141 -0.5931  1.2454
   19CHTO   O55 7781   3.806  -1.096  -1.110 -0.3263 -0.0060  0.6738
   19CHTO  H134 7782   3.832  -1.167  -1.165  0.4256 -2.2773  3.7935
   19CHTO   C84 7783   3.864  -0.923  -0.934 -0.0214 -0.4001 -1.1705
   19CHTO  H156 7784   3.765  -0.916  -0.891  0.0293 -2.6502 -0.6455
   19CHTO   N15 7785   3.878  -0.808  -1.034  0.2856 -0.1281  0.5336
   19CHTO  H143 7786   3.976  -0.819  -1.075 -0.2100 -1.5421 -0.3229
   19CHTO  H144 7787   3.870  -0.710  -0.993  1.3881 -0.2567  1.0634
   19CHTO   C87 7788   3.956  -0.914  -0.806 -0.1673 -0.0393  0.1928
   19CHTO  H159 7789   4.059  -0.939  -0.829  0.9780  5.1190 -0.7671
   19CHTO   O53 7790   3.885  -1.018  -0.700 -0.5768 -0.0555  0.1603
   19CHTO   C82 7791   3.915  -1.151  -0.750  0.8789 -0.5883 -0.4654
   19CHTO  H154 7792   4.021  -1.173  -0.742  0.6405 -1.9946 -1.1763
   19CHTO   C89 7793   3.849  -1.250  -0.643 -0.3563 -0.1337  0.4874
   19CHTO   O59 7794   3.710  -1.218  -0.645  0.1731  0.3726 -0.4152
   19CHTO  H137 7795   3.691  -1.137  -0.600  2.1135  1.6767 -1.8570
   19CHTO   O45 7796   3.946  -0.765  -0.720  0.0913 -0.7475  0.0981
   19CHTO   C67 7797   3.942  -0.756  -0.576 -0.2959  0.7654 -0.1783
   19CHTO  H124 7798   3.986  -0.843  -0.528 -0.0800  0.8118 -0.2873
   19CHTO   C65 7799   4.007  -0.631  -0.518 -0.0901  0.0736  0.5959
   19CHTO  H122 7800   4.106  -0.630  -0.565 -0.2629  1.2052  0.2368
   19CHTO   O44 7801   4.015  -0.623  -0.372 -0.0350 -0.3208  0.3301
   19CHTO  H102 7802   3.942  -0.578  -0.334 -1.0549 -0.7122 -1.0777
   19CHTO   C63 7803   3.930  -0.504  -0.587  0.3622 -0.2395  0.0127
   19CHTO  H120 7804   3.935  -0.517  -0.695 -0.1384 -1.5633  0.1444
   19CHTO   N11 7805   3.999  -0.370  -0.579  0.1331  0.6423  0.0504
   19CHTO  H108 7806   3.926  -0.293  -0.567 -0.2966 -0.0605  2.2663
   19CHTO  H109 7807   4.065  -0.360  -0.495  0.0866  0.4714  0.1087
   19CHTO   C61 7808   3.778  -0.501  -0.546 -0.4476 -0.5451 -0.2212
   19CHTO  H118 7809   3.721  -0.439  -0.617  1.1796  2.4320  0.9881
   19CHTO   O40 7810   3.719  -0.636  -0.552  0.2070  0.1851  0.4141
   19CHTO   C68 7811   3.786  -0.761  -0.540  0.2832  0.5886 -0.5410
   19CHTO  H125 7812   3.730  -0.834  -0.603 -2.8911  1.8322  0.7235
   19CHTO   C72 7813   3.767  -0.814  -0.403  0.3998 -0.4435  0.0208
   19CHTO   O48 7814   3.826  -0.941  -0.378  0.0620  0.1881  0.0133
   19CHTO  H105 7815   3.771  -0.991  -0.321 -1.0257  1.0533 -0.2733
   19CHTO   O38 7816   3.756  -0.453  -0.413 -0.0468 -0.0723 -0.1083
   19CHTO   C55 7817   3.627  -0.401  -0.379 -0.6564 -0.2304  0.1207
   19CHTO  H112 7818   3.551  -0.439  -0.449 -0.1076 -0.7800 -0.1835
   19CHTO   C56 7819   3.638  -0.243  -0.374  0.2842  0.2043  0.0182
   19CHTO  H113 7820   3.705  -0.221  -0.290  0.0872 -0.1703  0.2766
   19CHTO   O42 7821   3.701  -0.182  -0.492 -0.1900 -0.3474 -0.2736
   19CHTO  H100 7822   3.690  -0.231  -0.571  0.2188 -1.3869  0.3012
   19CHTO   C57 7823   3.491  -0.173  -0.358  0.6455 -1.1123 -0.2797
   19CHTO  H114 7824   3.430  -0.195  -0.445 -1.2452  1.0874  0.4428
   19CHTO   N10 7825   3.484  -0.022  -0.347  0.3952 -0.6773  0.5285
   19CHTO  H106 7826   3.575   0.022  -0.308  0.8947 -2.1099  1.0117
   19CHTO  H107 7827   3.399   0.024  -0.298  1.3374 -0.9041  2.4332
   19CHTO   C58 7828   3.422  -0.242  -0.236 -0.5138  0.2089  0.5607
   19CHTO  H115 7829   3.456  -0.196  -0.140 -1.5777  0.5573  0.7771
   19CHTO   O37 7830   3.442  -0.384  -0.234  0.2623  0.3166 -1.2075
   19CHTO   C59 7831   3.573  -0.438  -0.236  0.8357  0.3883 -0.0739
   19CHTO  H116 7832   3.641  -0.397  -0.162  1.5883 -2.1321  0.6874
   19CHTO   C70 7833   3.574  -0.590  -0.207 -0.3879  0.4665  0.6120
   19CHTO   O46 7834   3.466  -0.658  -0.277  0.1996  0.1228 -0.2446
   19CHTO  H103 7835   3.451  -0.745  -0.247  2.3657 -0.6427 -1.2635
   19CHTO   O39 7836   3.260  -0.220  -0.253  0.7126 -0.6947  0.3832
   19CHTO   C60 7837   3.198  -0.314  -0.343 -0.4712  0.5089 -0.2348
   19CHTO  H117 7838   3.270  -0.355  -0.414  0.2271  1.3164 -0.0087
   19CHTO   C62 7839   3.139  -0.430  -0.258 -1.0715  0.0942  0.0101
   19CHTO  H119 7840   3.217  -0.475  -0.192 -0.0826 -1.3120 -2.0615
   19CHTO   O43 7841   3.029  -0.392  -0.169 -0.0638 -0.2158  0.1201
   19CHTO  H101 7842   3.000  -0.466  -0.119  0.9078 -0.1466  0.7998
   19CHTO   C66 7843   3.086  -0.545  -0.355 -0.5139 -0.2944  0.0140
   19CHTO  H123 7844   3.166  -0.567  -0.425 -1.1212  1.5762 -1.2999
   19CHTO   N12 7845   3.069  -0.677  -0.285 -0.1166 -1.0764 -0.3835
   19CHTO  H110 7846   3.168  -0.715  -0.264  0.2157 -0.3490 -0.6180
   19CHTO  H111 7847   3.006  -0.669  -0.199 -0.0287 -0.8682 -0.3384
   19CHTO   C69 7848   2.968  -0.497  -0.436  0.0689 -0.3535 -0.0586
   19CHTO  H126 7849   2.878  -0.473  -0.375  0.8978  1.1345  0.6051
   19CHTO   O41 7850   3.013  -0.373  -0.513  0.0538  0.3076 -0.2465
   19CHTO   C64 7851   3.085  -0.252  -0.421 -0.4721  0.1884 -0.7426
   19CHTO  H121 7852   3.013  -0.205  -0.351  1.9905  2.7989  0.1082
   19CHTO   C71 7853   3.136  -0.137  -0.518  0.3026  0.1270 -0.9151
   19CHTO   O47 7854   3.020  -0.058  -0.557 -0.5107 -0.2743 -0.7585
   19CHTO  H104 7855   2.967  -0.028  -0.486  0.4866  0.0072 -0.1262
   19CHTO   O34 7856   2.917  -0.618  -0.548  0.3987 -0.5145 -0.0264
   19CHTO   C49 7857   2.934  -0.605  -0.711  0.2033 -0.2440  0.1874
   19CHTO   H91 7858   2.898  -0.508  -0.742  2.4999  0.7314  0.4872
   19CHTO   C47 7859   2.830  -0.698  -0.779 -0.0732  0.1748 -0.1347
   19CHTO   H89 7860   2.828  -0.668  -0.886 -1.1956 -1.3714 -0.5570
   19CHTO   O33 7861   2.702  -0.670  -0.722  0.5391 -0.3972  0.1919
   19CHTO   H70 7862   2.654  -0.611  -0.777 -0.4418  0.5995  2.0413
   19CHTO   C45 7863   2.887  -0.855  -0.758 -0.0257 -0.4163  0.1624
   19CHTO   H87 7864   2.898  -0.877  -0.651 -0.6386 -0.4192  0.2232
   19CHTO    N8 7865   2.782  -0.942  -0.814 -0.7251  0.7044 -0.2176
   19CHTO   H75 7866   2.689  -0.929  -0.760 -1.5321  1.2725 -1.7030
   19CHTO   H76 7867   2.816  -1.044  -0.812  1.4979  1.4320 -0.3444
   19CHTO   C43 7868   3.033  -0.862  -0.823  0.1953  0.1697 -0.8084
   19CHTO   H85 7869   3.067  -0.963  -0.801  0.5513  0.1979 -1.2101
   19CHTO   O29 7870   3.119  -0.760  -0.766  0.0042 -0.1913  0.1686
   19CHTO   C50 7871   3.078  -0.618  -0.767 -0.3310  0.1749 -0.6243
   19CHTO   H92 7872   3.146  -0.557  -0.706 -1.2904  1.3897 -0.7437
   19CHTO   C54 7873   3.099  -0.554  -0.913  0.8223  0.4614  0.1176
   19CHTO   O36 7874   3.100  -0.410  -0.925 -0.7142 -0.5486  0.2745
   19CHTO   H72 7875   3.065  -0.384  -1.008 -0.0882 -2.3587 -0.6022
   19CHTO   O27 7876   3.039  -0.859  -0.967  0.1404  0.3734  0.1851
   19CHTO   C37 7877   3.108  -0.905  -1.086  0.0498 -0.3460 -0.8864
   19CHTO   H79 7878   3.103  -1.015  -1.092  1.7998 -0.5495  0.7620
   19CHTO   C38 7879   3.030  -0.849  -1.214 -0.9672 -0.0189  0.0617
   19CHTO   H80 7880   3.016  -0.740  -1.204 -0.1531 -0.0179  1.2114
   19CHTO   O31 7881   2.902  -0.909  -1.206 -0.0105  0.2317  0.3183
   19CHTO   H68 7882   2.913  -0.994  -1.168  0.9163  0.5059  0.6805
   19CHTO   C39 7883   3.113  -0.888  -1.347  0.4476 -0.3958  0.9545
   19CHTO   H81 7884   3.096  -0.995  -1.353  0.9418 -0.3983 -0.5464
   19CHTO    N7 7885   3.056  -0.833  -1.472  0.6751 -0.5221 -0.0804
   19CHTO   H73 7886   2.951  -0.858  -1.477 -0.0858  2.9268 -3.6367
   19CHTO   H74 7887   3.113  -0.856  -1.561  1.9227  2.0392  0.0240
   19CHTO   C40 7888   3.265  -0.859  -1.332  0.6592 -0.3662  0.2845
   19CHTO   H82 7889   3.286  -0.753  -1.345  2.9399 -0.6661  1.2538
   19CHTO   O26 7890   3.317  -0.907  -1.212  0.2129 -0.4191 -0.0559
   19CHTO   C41 7891   3.255  -0.868  -1.085 -1.0093 -0.0684 -0.0373
   19CHTO   H83 7892   3.274  -0.760  -1.070 -0.3763 -0.2821  0.7196
   19CHTO   C52 7893   3.320  -0.946  -0.971 -0.2237 -0.0634 -0.1519
   19CHTO   O35 7894   3.476  -0.951  -0.985 -0.3554 -0.1471  0.1977
   19CHTO   H71 7895   3.513  -0.867  -1.003  0.9629 -0.8133 -0.2821
   19CHTO   O28 7896   3.337  -0.937  -1.433 -0.0759 -0.5066  0.0018
   19CHTO   C42 7897   3.485  -0.931  -1.442  0.2474 -0.1961  0.7355
   19CHTO   H84 7898   3.511  -0.892  -1.344  1.6549  1.7610 -0.3856
   19CHTO   C44 7899   3.545  -0.833  -1.544 -0.2671  0.7230  0.2965
   19CHTO   H86 7900   3.522  -0.869  -1.645 -2.6336 -1.6880  1.6414
   19CHTO   O32 7901   3.490  -0.703  -1.519  0.0839  0.1284  0.2711
   19CHTO   H69 7902   3.398  -0.702  -1.534  0.2606  0.1371 -0.8017
   19CHTO   C48 7903   3.703  -0.825  -1.546  0.4863  0.1627 -0.6725
   19CHTO   H90 7904   3.742  -0.792  -1.450 -1.7383  0.2861  0.2123
   19CHTO    N9 7905   3.754  -0.734  -1.644  0.4042 -0.2664  0.2704
   19CHTO   H77 7906   3.856  -0.700  -1.634  0.7596 -1.8734  2.4992
   19CHTO   H78 7907   3.741  -0.766  -1.746 -0.6594  1.8517 -0.2932
   19CHTO   C51 7908   3.754  -0.965  -1.558 -0.1251  0.5848  0.4797
   19CHTO   H93 7909   3.708  -1.001  -1.650 -0.9153  1.2926  0.5917
   19CHTO   O30 7910   3.708  -1.038  -1.444  0.5517  0.4406  0.7704
   19CHTO   C46 7911   3.551  -1.069  -1.456 -0.0775  0.0754 -0.6608
   19CHTO   H88 7912   3.521  -1.119  -1.548  1.1046 -0.4915 -0.7435
   19CHTO   C53 7913   3.518  -1.162  -1.342  0.6056  0.2963 -0.6603
   19CHTO   O72 7914   3.591  -1.283  -1.364 -0.3681 -0.0845 -0.8632
   19CHTO  H199 7915   3.637  -1.299  -1.284 -0.2570  0.6841 -0.7760
   19CHTO   O22 7916   3.894  -0.982  -1.552  0.4024 -0.3329 -0.0705
   19CHTO   C31 7917   3.957  -1.096  -1.618  0.2925 -0.0881  0.4549
   19CHTO   H59 7918   3.886  -1.180  -1.606  0.0602 -0.5273 -3.4114
   19CHTO   C29 7919   3.979  -1.077  -1.767 -0.1111 -0.0761 -0.2863
   19CHTO   H57 7920   4.021  -0.976  -1.780  0.1359 -0.1495 -0.0755
   19CHTO   O21 7921   3.848  -1.073  -1.829  0.0857 -0.3771 -0.0730
   19CHTO   H37 7922   3.860  -1.022  -1.907  0.6184  3.7517  2.5704
   19CHTO   C27 7923   4.075  -1.187  -1.836 -0.4762 -0.1893  0.4384
   19CHTO   H55 7924   4.018  -1.280  -1.850  1.7182 -1.3201 -1.5243
   19CHTO    N5 7925   4.115  -1.151  -1.972 -0.0730  0.7912 -0.3695
   19CHTO   H43 7926   4.221  -1.128  -1.976  0.2471  0.3682  3.4492
   19CHTO   H44 7927   4.052  -1.076  -2.016 -0.8564 -0.5113 -1.5084
   19CHTO   C25 7928   4.191  -1.231  -1.746  0.3504 -0.1204  0.0827
   19CHTO   H53 7929   4.277  -1.163  -1.751  1.3978 -1.2085  2.2328
   19CHTO   O17 7930   4.141  -1.251  -1.606  0.6029 -0.1276 -0.1791
   19CHTO   C32 7931   4.084  -1.134  -1.546  0.2887 -0.1793  0.2304
   19CHTO   H60 7932   4.157  -1.054  -1.557  0.1075 -0.1545 -0.8110
   19CHTO   C36 7933   4.072  -1.187  -1.402 -0.5766 -0.1412  0.1614
   19CHTO   O25 7934   4.006  -1.095  -1.315 -0.1891 -0.3882  0.1983
   19CHTO   H40 7935   4.043  -1.110  -1.230 -0.8102  3.1903  1.2063
   19CHTO   O15 7936   4.246  -1.375  -1.807  0.2322  0.6533  1.3356
   19CHTO   C19 7937   4.316  -1.447  -1.912 -0.4748 -0.2718  0.5515
   19CHTO   H47 7938   4.284  -1.399  -2.006 -0.6703 -2.2610 -0.4054
   19CHTO   C20 7939   4.465  -1.421  -1.893  0.6183  0.5129 -0.0202
   19CHTO   H48 7940   4.500  -1.455  -1.795  2.6725  0.4820 -0.7496
   19CHTO   O19 7941   4.475  -1.273  -1.900  0.1485  0.1062 -0.2623
   19CHTO   H35 7942   4.462  -1.242  -1.987  1.0924  2.7485  0.5086
   19CHTO   C21 7943   4.546  -1.502  -2.006  0.2062 -0.4863  0.4584
   19CHTO   H49 7944   4.512  -1.468  -2.104 -1.2504 -4.2387 -0.4449
   19CHTO    N4 7945   4.696  -1.470  -1.992  0.3919 -0.2066  0.2977
   19CHTO   H41 7946   4.726  -1.377  -2.038  3.0123 -1.1862 -0.0976
   19CHTO   H42 7947   4.747  -1.552  -2.040  0.6233 -0.5955  1.2004
   19CHTO   C22 7948   4.510  -1.647  -1.988 -0.4891 -0.0677  0.6298
   19CHTO   H50 7949   4.534  -1.677  -1.886 -1.6749  1.7440  1.4433
   19CHTO   O14 7950   4.372  -1.668  -2.014  0.2506 -0.1467 -0.5486
   19CHTO   C23 7951   4.285  -1.597  -1.916 -0.0558  0.4830  0.2106
   19CHTO   H51 7952   4.310  -1.642  -1.818 -1.1151  1.5086  0.9594
   19CHTO   C34 7953   4.137  -1.625  -1.961  0.1734 -0.3121 -0.5066
   19CHTO   O23 7954   4.060  -1.593  -1.843 -0.4932  0.0785  0.2992
   19CHTO   H38 7955   4.045  -1.673  -1.796  2.1044 -0.6115  0.0385
   19CHTO   O16 7956   4.589  -1.729  -2.078  0.0191  0.5399  0.1124
   19CHTO   C24 7957   4.551  -1.877  -2.081  1.0591 -0.7187  0.7947
   19CHTO   H52 7958   4.452  -1.889  -2.037  0.5268  2.2433  0.4911
   19CHTO   C26 7959   4.650  -1.962  -2.001 -0.1690 -0.1736  0.2537
   19CHTO   H54 7960   4.753  -1.929  -2.024  0.0889 -0.4342  1.0149
   19CHTO   O20 7961   4.634  -1.941  -1.860 -0.4400  0.1697  0.1272
   19CHTO   H36 7962   4.605  -2.009  -1.802  0.5083  1.7256  2.4845
   19CHTO   C30 7963   4.636  -2.118  -2.023 -0.0896  0.2231 -0.7304
   19CHTO   H58 7964   4.545  -2.153  -1.971 -1.7364 -0.1002 -3.6914
   19CHTO    N6 7965   4.758  -2.184  -1.959  0.1287 -0.0991 -0.1782
   19CHTO   H45 7966   4.831  -2.112  -1.924  0.5823 -1.0800  0.9340
   19CHTO   H46 7967   4.734  -2.253  -1.880  0.0057 -3.2111 -2.8204
   19CHTO   C33 7968   4.620  -2.150  -2.170 -0.4402 -0.4210 -0.1859
   19CHTO   H61 7969   4.712  -2.125  -2.225 -0.5060  0.8383  0.2687
   19CHTO   O18 7970   4.514  -2.069  -2.224 -0.2505  0.0679 -0.0013
   19CHTO   C28 7971   4.539  -1.931  -2.226  0.2765 -0.1069 -0.1510
   19CHTO   H56 7972   4.631  -1.913  -2.281  1.0289 -0.0849  1.0913
   19CHTO   C35 7973   4.425  -1.865  -2.306  0.3922 -1.0733  0.3966
   19CHTO   O24 7974   4.430  -1.923  -2.441  0.3670  0.8695  0.3297
   19CHTO   H39 7975   4.365  -1.894  -2.503 -0.2685  0.7112  0.9129
   19CHTO    O9 7976   4.596  -2.290  -2.190  0.3797  0.6389 -0.4114
   19CHTO   C13 7977   4.440  -2.331  -2.259  0.1458 -0.5009  0.0547
   19CHTO   H26 7978   4.417  -2.259  -2.340  2.6396 -0.1751 -0.3954
   19CHTO   C11 7979   4.328  -2.333  -2.137 -0.2835  0.2817  0.3637
   19CHTO   H24 7980   4.325  -2.228  -2.105  1.2020  0.6752 -0.7621
   19CHTO    O8 7981   4.376  -2.411  -2.025  0.2238 -0.1457  0.3799
   19CHTO    H3 7982   4.304  -2.419  -1.966  1.1245  0.3397  1.5704
   19CHTO    C9 7983   4.193  -2.376  -2.202 -0.5277  0.3512 -0.2777
   19CHTO   H22 7984   4.169  -2.305  -2.283  1.4843 -0.6327 -1.7868
   19CHTO    N2 7985   4.084  -2.372  -2.095  0.1288 -0.2932  0.5487
   19CHTO   H10 7986   4.051  -2.272  -2.072 -2.5771 -1.2220  0.8959
   19CHTO   H11 7987   4.115  -2.424  -2.006  1.9992 -0.1336  0.0060
   19CHTO    C7 7988   4.206  -2.520  -2.258 -0.2450  0.6469 -0.0311
   19CHTO   H20 7989   4.109  -2.541  -2.308  0.1508  0.8377 -0.8929
   19CHTO    O4 7990   4.311  -2.527  -2.355  0.1909 -1.3048  0.2044
   19CHTO   C14 7991   4.441  -2.471  -2.331  0.5570 -0.1190 -0.3431
   19CHTO   H27 7992   4.489  -2.454  -2.430 -0.7208  1.1332 -0.7660
   19CHTO   C18 7993   4.533  -2.579  -2.255 -0.0365  0.3531  0.5113
   19CHTO   O13 7994   4.533  -2.707  -2.314 -0.1923  0.1275 -0.0057
   19CHTO    H7 7995   4.483  -2.698  -2.392 -0.7105  1.7369  0.4816
   19CHTO    O2 7996   4.239  -2.649  -2.126 -0.3737  0.6199 -0.3825
   19CHTO    C1 7997   4.185  -2.783  -2.156 -0.0775 -0.2758  0.5017
   19CHTO   H14 7998   4.215  -2.811  -2.259  1.1999  0.1710  0.7337
   19CHTO    C2 7999   4.023  -2.787  -2.140  0.0638 -0.7067 -0.4434
   19CHTO   H15 8000   4.011  -2.724  -2.051 -0.2885 -0.0421 -0.9541
   19CHTO    O6 8001   3.969  -2.724  -2.260  0.0505 -0.0723  0.2601
   19CHTO    H1 8002   3.917  -2.653  -2.227 -2.3536 -2.3850  1.6262
   19CHTO    C3 8003   3.962  -2.926  -2.115  0.1207  0.2618  0.5706
   19CHTO   H16 8004   3.957  -2.976  -2.213  1.0599 -0.7420  1.0189
   19CHTO    N1 8005   3.813  -2.916  -2.094 -0.3108 -0.0070 -0.5618
   19CHTO    H8 8006   3.810  -2.863  -2.000  1.2670 -0.7311 -0.0831
   19CHTO    H9 8007   3.784  -3.019  -2.077 -1.0204  0.5459  1.7687
   19CHTO    C4 8008   4.050  -3.023  -2.024 -0.4387 -0.1408 -0.8196
   19CHTO   H17 8009   4.032  -2.995  -1.920  2.3760 -0.8130 -0.0961
   19CHTO    O1 8010   4.192  -3.008  -2.049  0.6066 -0.1534 -0.4670
   19CHTO    C5 8011   4.249  -2.878  -2.062  0.6273  1.0401  0.6125
   19CHTO   H18 8012   4.239  -2.836  -1.962 -2.4906 -0.0532  0.8005
   19CHTO   C16 8013   4.398  -2.908  -2.093  0.3809  0.0396  0.2439
   19CHTO   O11 8014   4.427  -2.966  -2.224 -0.0426 -0.4595  0.2545
   19CHTO    H5 8015   4.521  -2.966  -2.232 -0.0522  0.7458  0.1181
   19CHTO    O3 8016   4.023  -3.161  -2.047  0.4346  0.7379  0.1672
   19CHTO    C6 8017   4.053  -3.249  -1.930 -0.3582 -0.3184 -0.6802
   19CHTO   H19 8018   4.101  -3.198  -1.847 -1.2993  2.5078 -1.8093
   19CHTO    C8 8019   3.913  -3.293  -1.875  0.4601  0.0134 -0.2304
   19CHTO   H21 8020   3.866  -3.342  -1.961 -2.6253  0.7602  0.9628
   19CHTO    O7 8021   3.827  -3.177  -1.844 -0.0277 -0.8759 -0.3834
   19CHTO    H2 8022   3.858  -3.143  -1.762  3.2783  0.2888 -2.0355
   19CHTO   C12 8023   3.942  -3.385  -1.750  0.4672 -0.0378  0.0685
   19CHTO   H25 8024   4.009  -3.334  -1.677  2.6657  0.3068 -2.1053
   19CHTO    N3 8025   3.816  -3.422  -1.671 -0.0511 -0.6970  1.3153
   19CHTO   H12 8026   3.727  -3.411  -1.731  1.6408  0.0380 -1.1350
   19CHTO   H13 8027   3.820  -3.360  -1.582 -0.1169 -0.5038  1.1848
   19CHTO   C15 8028   4.022  -3.503  -1.813  0.1852 -0.1367  0.1637
   19CHTO   H28 8029   3.953  -3.554  -1.880  1.6177 -3.1403  0.8812
   19CHTO   O10 8030   4.065  -3.602  -1.721  0.1025  0.3789 -0.5448
   19CHTO    H4 8031   3.986  -3.636  -1.685  0.2973  0.1699 -0.3197
   19CHTO    O5 8032   4.151  -3.474  -1.871 -0.4679  0.5856  0.1487
   19CHTO   C10 8033   4.147  -3.368  -1.969  0.4869  0.6630  0.7956
   19CHTO   H23 8034   4.114  -3.414  -2.062  1.2600 -2.6332  2.0936
   19CHTO   C17 8035   4.290  -3.316  -1.985  1.0538  0.4255 -0.1852
   19CHTO   O12 8036   4.355  -3.273  -1.863  0.4338 -0.2266 -0.3205
   19CHTO    H6 8037   4.442  -3.307  -1.865  0.2223 -1.1868  3.2034
   20CHTO  H203 8038   4.734   1.825   2.313 -0.3360  0.6025 -0.0458
   20CHTO   O82 8039   4.814   1.833   2.265 -0.4515 -0.1751 -0.3833
   20CHTO  C123 8040   4.833   1.952   2.184 -0.2779  0.5734 -0.1724
   20CHTO  H227 8041   4.745   2.017   2.195  0.6655  1.9951 -0.8604
   20CHTO   O77 8042   4.948   2.022   2.240 -0.0350 -0.1718 -0.0219
   20CHTO  C118 8043   4.982   2.150   2.178  0.3706 -0.6060 -0.1017
   20CHTO  H222 8044   4.911   2.233   2.188  1.8296  0.3809  2.6857
   20CHTO  C125 8045   5.115   2.194   2.243  0.7232 -0.1212 -0.8372
   20CHTO   O84 8046   5.086   2.236   2.378  0.6949  0.3580 -0.2304
   20CHTO  H205 8047   5.160   2.253   2.433 -0.7179  1.4311  1.3876
   20CHTO  C114 8048   5.001   2.137   2.029 -0.5680 -0.9891 -0.0964
   20CHTO  H218 8049   5.081   2.065   2.012 -0.2795 -1.0659  1.5311
   20CHTO  C116 8050   4.871   2.076   1.967 -0.6206 -0.4342  0.3321
   20CHTO  H220 8051   4.780   2.136   1.985 -0.4186 -0.3634  1.1137
   20CHTO   O79 8052   4.878   2.075   1.823  0.0507 -0.8483  0.0490
   20CHTO  H201 8053   4.955   2.024   1.802 -0.4668 -2.2519  1.4798
   20CHTO  C120 8054   4.845   1.928   2.031  0.1790 -0.7388 -0.5094
   20CHTO  H224 8055   4.936   1.868   2.015 -0.0433 -0.9331 -1.0649
   20CHTO   N21 8056   4.733   1.853   1.975 -0.1473 -0.6373 -0.0153
   20CHTO  H211 8057   4.761   1.795   1.888  0.0307 -3.2628  1.7486
   20CHTO  H212 8058   4.644   1.914   1.969  0.1117 -0.1842  0.6920
   20CHTO   O75 8059   5.047   2.260   1.980  0.0846 -0.1360  0.7207
   20CHTO  C112 8060   5.130   2.255   1.843 -0.5589  0.0329 -0.3917
   20CHTO  H216 8061   5.102   2.174   1.774  3.4668 -1.8539 -0.0058
   20CHTO   O73 8062   5.269   2.248   1.884  0.1657 -0.0881 -0.2742
   20CHTO  C113 8063   5.374   2.257   1.783  0.1807  0.2283  0.3175
   20CHTO  H217 8064   5.349   2.164   1.726 -1.7716  0.5821  0.5626
   20CHTO  C124 8065   5.511   2.230   1.854 -0.5232  0.2658 -0.0818
   20CHTO   O83 8066   5.584   2.340   1.904 -0.0781 -0.4763 -0.3186
   20CHTO  H204 8067   5.672   2.308   1.911  1.1141  2.6786 -0.0990
   20CHTO  C109 8068   5.380   2.391   1.707 -0.2630 -0.2257  0.0868
   20CHTO  H213 8069   5.397   2.472   1.780  2.4439 -0.2713 -0.4297
   20CHTO  C110 8070   5.240   2.410   1.647  0.2602  0.1497  0.2093
   20CHTO  H214 8071   5.229   2.338   1.566 -0.1528 -2.7439  2.7641
   20CHTO   O78 8072   5.226   2.537   1.583 -1.0810 -0.2910 -0.5972
   20CHTO  H200 8073   5.141   2.547   1.545 -0.7290 -0.6011 -1.4931
   20CHTO  C111 8074   5.121   2.389   1.755 -0.6661 -0.4225  0.6191
   20CHTO  H215 8075   5.127   2.476   1.822  2.5001  0.2791 -0.5014
   20CHTO   N19 8076   4.983   2.394   1.701  0.1811 -0.2236 -0.0297
   20CHTO  H207 8077   4.965   2.399   1.595  0.6719  3.1686  0.0119
   20CHTO  H208 8078   4.934   2.475   1.752 -0.4202 -1.7043  1.8041
   20CHTO   O74 8079   5.487   2.393   1.610 -0.4872  0.0689 -0.1749
   20CHTO  C115 8080   5.544   2.534   1.572  0.3407 -0.3494  0.7307
   20CHTO  H219 8081   5.497   2.613   1.630 -1.1203 -0.5509 -0.1388
   20CHTO   O76 8082   5.697   2.543   1.595  0.1427  0.3866  0.4264
   20CHTO  C122 8083   5.768   2.430   1.532  0.0858  0.7821 -0.3099
   20CHTO  H226 8084   5.739   2.334   1.574  2.9066 -1.3351 -3.0285
   20CHTO  C126 8085   5.930   2.446   1.567  0.1387 -0.1737 -0.7201
   20CHTO   O85 8086   5.969   2.585   1.548 -0.1533  0.0922 -0.3880
   20CHTO  H206 8087   5.957   2.634   1.627  0.3492 -1.5432  0.7266
   20CHTO  C121 8088   5.740   2.423   1.377  0.4915  0.6408  0.3430
   20CHTO  H225 8089   5.829   2.420   1.311 -0.8452  0.2809 -1.5041
   20CHTO   O81 8090   5.678   2.294   1.348 -0.1554  0.0475  0.1113
   20CHTO  H202 8091   5.659   2.298   1.256 -0.3492  1.5837  0.2052
   20CHTO  C119 8092   5.643   2.541   1.331  0.8146 -0.0277 -0.0698
   20CHTO  H223 8093   5.704   2.630   1.342  0.6195 -0.0168  1.0607
   20CHTO  C117 8094   5.511   2.559   1.413 -0.3401 -0.3093 -0.7150
   20CHTO  H221 8095   5.439   2.481   1.387  0.9160 -1.5668 -0.5174
   20CHTO   N20 8096   5.440   2.690   1.394 -0.2059  0.1903 -0.0358
   20CHTO  H209 8097   5.489   2.768   1.336  2.9771 -1.1231  0.7916
   20CHTO  H210 8098   5.338   2.668   1.367 -0.3961  0.9845  0.0138
   20CHTO   O80 8099   5.614   2.536   1.181 -0.2514 -0.1034 -0.3108
   20CHTO  C103 8100   5.730   2.572   1.080 -0.2163  0.4793 -0.2617
   20CHTO  H190 8101   5.829   2.583   1.126 -0.6047 -1.0792  0.9662
   20CHTO  C101 8102   5.753   2.455   0.978  0.1462  0.4453 -0.5699
   20CHTO  H188 8103   5.659   2.401   0.966  0.7462 -1.1876  1.7725
   20CHTO   O68 8104   5.854   2.361   1.026 -0.1942 -0.1661 -0.2624
   20CHTO  H168 8105   5.923   2.416   1.057  1.1398 -2.1645  0.4218
   20CHTO   C99 8106   5.792   2.501   0.827 -0.7476 -0.5287 -0.8708
   20CHTO  H186 8107   5.900   2.528   0.835 -1.4167  2.5676 -1.4775
   20CHTO   N17 8108   5.781   2.395   0.716  0.5529  0.4559  0.0970
   20CHTO  H174 8109   5.831   2.426   0.625 -0.0021 -1.3113 -0.8273
   20CHTO  H175 8110   5.677   2.371   0.697  1.0676 -0.8254 -1.1237
   20CHTO   C97 8111   5.724   2.640   0.795  0.4289 -0.1085  0.2927
   20CHTO  H184 8112   5.616   2.631   0.775  0.7464  1.7300 -2.5902
   20CHTO   O64 8113   5.751   2.739   0.897  0.4295  0.0410  0.3081
   20CHTO  C104 8114   5.681   2.707   1.016 -0.0763  0.2106  0.0841
   20CHTO  H191 8115   5.575   2.689   0.995  0.4767 -1.5460 -1.2307
   20CHTO  C108 8116   5.690   2.832   1.113  0.0617 -0.2922 -0.1922
   20CHTO   O71 8117   5.819   2.867   1.157  0.1734 -0.9384 -0.5160
   20CHTO  H171 8118   5.858   2.795   1.202 -0.5342 -0.8710  0.2077
   20CHTO   O62 8119   5.778   2.702   0.673  0.5855  0.3224  0.2148
   20CHTO   C91 8120   5.747   2.835   0.616  0.9824 -0.0962  0.5435
   20CHTO  H178 8121   5.781   2.908   0.690 -0.1576  0.2195  0.7578
   20CHTO   C92 8122   5.590   2.852   0.602 -0.5930 -0.9311  0.4294
   20CHTO  H179 8123   5.546   2.773   0.539  0.6399 -0.4834 -1.0137
   20CHTO   O66 8124   5.527   2.832   0.730 -0.2582  0.4156 -0.0428
   20CHTO  H166 8125   5.558   2.767   0.790 -0.7967  0.1970  0.0003
   20CHTO   C93 8126   5.558   2.992   0.539 -0.2404  0.8632  0.1772
   20CHTO  H180 8127   5.599   3.063   0.612 -1.2311  2.1149 -0.4498
   20CHTO   N16 8128   5.407   3.014   0.525 -0.4331  0.5415 -0.4770
   20CHTO  H172 8129   5.399   3.118   0.495  2.3075  0.7395 -0.7196
   20CHTO  H173 8130   5.360   2.939   0.464 -0.1219 -1.0865  1.2307
   20CHTO   C94 8131   5.637   3.006   0.402  0.1313  0.2258  0.8783
   20CHTO  H181 8132   5.610   2.929   0.329 -0.1008  1.8838 -0.8116
   20CHTO   O61 8133   5.777   2.986   0.426  0.2824 -0.1942  0.5721
   20CHTO   C95 8134   5.821   2.857   0.475 -0.1704 -0.7161  0.1788
   20CHTO  H182 8135   5.783   2.780   0.407  0.1710 -0.9391  0.2418
   20CHTO  C106 8136   5.974   2.852   0.475  0.4306  0.5260  0.1476
   20CHTO   O69 8137   6.010   2.721   0.511  0.8122  0.1348  0.4237
   20CHTO  H169 8138   6.097   2.726   0.547  0.4823  2.3286  0.9581
   20CHTO   O63 8139   5.628   3.158   0.320 -0.5236 -0.1737 -0.3478
   20CHTO   C96 8140   5.529   3.171   0.235 -0.3326 -0.7908  0.0219
   20CHTO  H183 8141   5.467   3.082   0.227  0.3708 -1.2100 -0.8920
   20CHTO   C98 8142   5.591   3.216   0.100 -0.3678  0.2160  0.6208
   20CHTO  H185 8143   5.663   3.139   0.068  0.1400  1.4462 -1.2573
   20CHTO   O67 8144   5.486   3.211   0.004  0.3213  0.0985  0.2180
   20CHTO  H167 8145   5.516   3.261  -0.069  0.5313  0.0060  0.2386
   20CHTO  C102 8146   5.642   3.358   0.107  0.2376 -0.2219  0.2885
   20CHTO  H189 8147   5.652   3.391   0.002  2.5029  0.6528  0.7505
   20CHTO   N18 8148   5.773   3.376   0.159 -0.3354 -0.1610 -0.1581
   20CHTO  H176 8149   5.808   3.476   0.138 -0.2452 -0.2128 -0.2542
   20CHTO  H177 8150   5.768   3.353   0.265  0.2925 -0.5615 -0.2053
   20CHTO  C105 8151   5.536   3.456   0.166 -0.2639 -0.3130 -0.3703
   20CHTO  H192 8152   5.583   3.550   0.194 -2.3133  0.6668 -0.1637
   20CHTO   O65 8153   5.465   3.417   0.272 -0.4162  0.0131  0.3990
   20CHTO  C100 8154   5.426   3.279   0.288  0.5793 -0.2432  0.3429
   20CHTO  H187 8155   5.411   3.267   0.396 -0.0816  1.4745  0.4467
   20CHTO  C107 8156   5.278   3.259   0.234 -0.1968 -0.8790 -0.1674
   20CHTO   O70 8157   5.224   3.128   0.266 -0.1834 -0.3223 -0.0110
   20CHTO  H170 8158   5.276   3.061   0.225  2.7287  1.7310  0.1260
   20CHTO   O57 8159   5.436   3.474   0.039  0.2403  0.2118  0.3975
   20CHTO   C85 8160   5.407   3.612   0.003 -0.0192 -0.2842  0.1560
   20CHTO  H157 8161   5.416   3.676   0.093  0.0115  1.0525 -0.7849
   20CHTO   C83 8162   5.260   3.624  -0.039 -0.1217 -0.2293  0.0107
   20CHTO  H155 8163   5.209   3.583   0.048 -0.9484 -0.5267 -0.6047
   20CHTO   O56 8164   5.226   3.531  -0.141 -0.1486  0.5870  0.3073
   20CHTO  H135 8165   5.138   3.543  -0.170 -0.5691 -0.0327  1.3120
   20CHTO   C81 8166   5.219   3.770  -0.065  0.2775 -1.0770 -0.5093
   20CHTO  H153 8167   5.246   3.833   0.020  0.2005 -0.2194 -1.1080
   20CHTO   N14 8168   5.071   3.781  -0.069  0.2687  0.2148 -0.2802
   20CHTO  H141 8169   5.031   3.846   0.006  0.6855 -0.6993  0.7504
   20CHTO  H142 8170   5.039   3.813  -0.166 -1.2832 -1.4020 -0.3395
   20CHTO   C79 8171   5.300   3.827  -0.187  0.1178 -0.2372 -0.5527
   20CHTO  H151 8172   5.281   3.934  -0.187  0.7543 -0.1234 -0.2701
   20CHTO   O52 8173   5.446   3.807  -0.170 -0.1310 -0.3292  0.1010
   20CHTO   C86 8174   5.492   3.674  -0.122  0.1068  0.0005 -0.5103
   20CHTO  H158 8175   5.488   3.607  -0.211 -0.4775 -0.8777  0.1729
   20CHTO   C90 8176   5.649   3.688  -0.096  0.4662 -0.5030 -0.1111
   20CHTO   O60 8177   5.681   3.765   0.021 -0.5555 -0.6250  0.0672
   20CHTO  H138 8178   5.617   3.741   0.084 -2.5005  0.7187 -1.3535
   20CHTO   O50 8179   5.251   3.771  -0.310 -0.3827  0.4677 -0.0211
   20CHTO   C73 8180   5.287   3.819  -0.441  0.4147  0.3626 -0.3045
   20CHTO  H145 8181   5.396   3.807  -0.455  0.4001  0.9349 -0.9595
   20CHTO   C74 8182   5.249   3.974  -0.451  0.0969  0.1434  0.0968
   20CHTO  H146 8183   5.302   4.044  -0.385  0.4024 -0.8766  0.9312
   20CHTO   O54 8184   5.303   4.020  -0.580  0.1708  0.0591  0.1246
   20CHTO  H133 8185   5.241   3.999  -0.647 -0.2416 -0.4468  0.6603
   20CHTO   C75 8186   5.093   3.992  -0.439  0.3924  0.0219 -0.2798
   20CHTO  H147 8187   5.057   3.949  -0.344  0.8678  2.9747  1.3029
   20CHTO   N13 8188   5.055   4.136  -0.431  0.5236 -0.0083 -0.5439
   20CHTO  H139 8189   5.109   4.186  -0.511  0.1128 -0.0240 -0.8325
   20CHTO  H140 8190   4.949   4.154  -0.439  0.1685 -0.7647  1.9426
   20CHTO   C76 8191   5.029   3.909  -0.556  0.6214 -0.1562 -0.2141
   20CHTO  H148 8192   5.059   3.952  -0.652 -2.7696 -0.6110 -1.5793
   20CHTO   O49 8193   5.074   3.774  -0.562  0.3287 -0.5310  0.2471
   20CHTO   C77 8194   5.210   3.747  -0.562  0.7484 -0.1978  0.0255
   20CHTO  H149 8195   5.259   3.775  -0.655 -0.3747  0.8532 -0.2622
   20CHTO   C88 8196   5.235   3.597  -0.541  0.3398 -0.2894 -0.3062
   20CHTO   O58 8197   5.173   3.509  -0.642 -0.1130  0.3309  0.4728
   20CHTO  H136 8198   5.127   3.433  -0.613  1.2418 -1.0031 -0.8061
   20CHTO   O51 8199   4.861   3.900  -0.534 -0.3845 -0.6125 -0.1550
   20CHTO   C78 8200   4.806   3.773  -0.427  1.1532  0.4274 -0.1536
   20CHTO  H150 8201   4.885   3.737  -0.357  0.3383  1.5108  1.3516
   20CHTO   C80 8202   4.755   3.651  -0.512 -0.1356 -0.5549 -0.3741
   20CHTO  H152 8203   4.677   3.691  -0.580 -2.1654 -0.2463  2.0875
   20CHTO   O55 8204   4.868   3.601  -0.595  0.6635  0.7015  0.8685
   20CHTO  H134 8205   4.940   3.577  -0.540  1.0404 -0.0553  0.0695
   20CHTO   C84 8206   4.696   3.534  -0.427  0.9135  0.7313  0.0595
   20CHTO  H156 8207   4.769   3.478  -0.370  0.3561 -1.7347 -1.6013
   20CHTO   N15 8208   4.635   3.428  -0.513  1.2433  0.6310 -0.4681
   20CHTO  H143 8209   4.552   3.469  -0.567 -0.8862  0.3112  2.4313
   20CHTO  H144 8210   4.603   3.346  -0.452  0.3855  2.5434  1.7141
   20CHTO   C87 8211   4.594   3.598  -0.325  0.4108  0.8116  0.2678
   20CHTO  H159 8212   4.501   3.620  -0.377 -0.1757 -0.9435  0.5471
   20CHTO   O53 8213   4.655   3.729  -0.252 -0.0381 -0.1233 -0.0486
   20CHTO   C82 8214   4.692   3.835  -0.337 -0.4621  0.1844 -0.1820
   20CHTO  H154 8215   4.603   3.869  -0.390  0.2332  0.5003 -1.1488
   20CHTO   C89 8216   4.744   3.959  -0.255 -0.2120 -0.6114  0.6165
   20CHTO   O59 8217   4.638   4.026  -0.184  0.2167 -0.0900 -0.1715
   20CHTO  H137 8218   4.612   4.094  -0.244  0.8541  1.4274  1.2340
   20CHTO   O45 8219   4.523   3.488  -0.203  0.2843  1.0751 -0.2772
   20CHTO   C67 8220   4.569   3.508  -0.073  0.0953 -0.6520 -0.3062
   20CHTO  H124 8221   4.661   3.564  -0.083  0.8880 -1.4278  2.2340
   20CHTO   C65 8222   4.460   3.588   0.014 -0.0489  0.1281 -0.1177
   20CHTO  H122 8223   4.366   3.550  -0.028  1.0789 -1.5973 -1.1494
   20CHTO   O44 8224   4.480   3.727  -0.024  0.6599 -0.0460 -0.5360
   20CHTO  H102 8225   4.555   3.760   0.021 -1.3871  1.9613  1.5659
   20CHTO   C63 8226   4.450   3.536   0.158  0.3381 -0.0351 -0.2646
   20CHTO  H120 8227   4.384   3.450   0.166  0.0635 -0.0381 -2.3548
   20CHTO   N11 8228   4.378   3.619   0.254  0.5979  0.1476  0.2760
   20CHTO  H108 8229   4.278   3.645   0.228  0.6708  0.5602  0.4050
   20CHTO  H109 8230   4.390   3.586   0.356  0.6089 -0.9108 -0.0609
   20CHTO   C61 8231   4.591   3.485   0.209 -0.4980 -0.2669 -0.3824
   20CHTO  H118 8232   4.572   3.442   0.308  0.6851 -0.0106 -0.0307
   20CHTO   O40 8233   4.642   3.381   0.130 -0.4048  0.0312 -0.2244
   20CHTO   C68 8234   4.603   3.372  -0.011 -0.1261  0.1486  0.1833
   20CHTO  H125 8235   4.512   3.311  -0.027 -0.1727  0.5280 -1.0366
   20CHTO   C72 8236   4.717   3.296  -0.087  0.4632  0.1752 -0.5977
   20CHTO   O48 8237   4.856   3.313  -0.065  0.2529 -0.1511 -0.0679
   20CHTO  H105 8238   4.905   3.257  -0.122  3.6907  2.2113  0.4201
   20CHTO   O38 8239   4.686   3.591   0.223  0.1335  0.2579  0.1784
   20CHTO   C55 8240   4.770   3.597   0.344 -0.2506  0.6684 -0.0579
   20CHTO  H112 8241   4.780   3.502   0.399 -0.7910  0.9827  0.5883
   20CHTO   C56 8242   4.732   3.713   0.443  0.9551  0.4162  0.6823
   20CHTO  H113 8243   4.719   3.801   0.378 -3.5080  0.5796  1.6454
   20CHTO   O42 8244   4.596   3.683   0.484 -0.0357 -0.6116 -0.5572
   20CHTO  H100 8245   4.596   3.596   0.519  2.8868 -0.8302 -0.9661
   20CHTO   C57 8246   4.829   3.734   0.568  0.2845  0.9068 -0.3665
   20CHTO  H114 8247   4.825   3.644   0.630  0.9915  2.3277  1.8021
   20CHTO   N10 8248   4.787   3.848   0.659  0.2629 -0.6286 -0.1581
   20CHTO  H106 8249   4.713   3.839   0.736  1.4435  0.6039  1.1584
   20CHTO  H107 8250   4.782   3.946   0.612 -2.7268 -1.3239 -1.4253
   20CHTO   C58 8251   4.968   3.753   0.503 -0.0668 -0.4403  0.1227
   20CHTO  H115 8252   4.968   3.850   0.450 -0.8072 -0.7023 -0.3685
   20CHTO   O37 8253   4.995   3.642   0.420  0.5237 -0.3036 -0.0133
   20CHTO   C59 8254   4.914   3.624   0.306  0.1288 -0.2839  0.4819
   20CHTO  H116 8255   4.931   3.702   0.232 -1.4498  0.2491  0.6457
   20CHTO   C70 8256   4.964   3.502   0.227 -0.3981  0.2837 -0.1066
   20CHTO   O46 8257   4.964   3.377   0.289 -0.6052  0.0473 -0.9831
   20CHTO  H103 8258   5.037   3.361   0.346 -0.3616  0.9168 -1.0542
   20CHTO   O39 8259   5.089   3.748   0.609  0.4334 -0.6321  0.5163
   20CHTO   C60 8260   5.103   3.644   0.711  0.1765  0.3960  0.2347
   20CHTO  H117 8261   5.026   3.670   0.784 -0.9469  1.9810 -1.4745
   20CHTO   C62 8262   5.077   3.495   0.663 -0.4372  0.2116  0.5477
   20CHTO  H119 8263   4.983   3.490   0.604  0.8848  1.3680 -1.7254
   20CHTO   O43 8264   5.184   3.460   0.565  0.0601 -0.3451  0.0370
   20CHTO  H101 8265   5.266   3.426   0.595 -0.0563 -0.2472  0.4631
   20CHTO   C66 8266   5.078   3.392   0.780  0.0200 -0.0917 -0.1470
   20CHTO  H123 8267   5.007   3.427   0.854  1.0806  0.7014  0.5230
   20CHTO   N12 8268   5.020   3.265   0.734  0.3206 -0.0763 -0.3176
   20CHTO  H110 8269   4.963   3.270   0.642  0.8570 -0.5046 -0.6759
   20CHTO  H111 8270   4.971   3.216   0.817 -0.4326  1.8388  0.4020
   20CHTO   C69 8271   5.217   3.391   0.846  0.1184  1.4796  0.4042
   20CHTO  H126 8272   5.295   3.358   0.775 -2.0947 -0.0726 -1.3807
   20CHTO   O41 8273   5.254   3.543   0.901  0.2946 -0.0384  0.0788
   20CHTO   C64 8274   5.241   3.660   0.781 -0.6520  0.3318  0.5147
   20CHTO  H121 8275   5.325   3.650   0.709 -0.2838  1.7832  0.7157
   20CHTO   C71 8276   5.253   3.807   0.845 -0.2721  0.5316 -0.0808
   20CHTO   O47 8277   5.386   3.833   0.897  0.5082  0.2330 -0.8263
   20CHTO  H104 8278   5.437   3.890   0.842  2.9910 -1.6684 -0.6284
   20CHTO   O34 8279   5.224   3.299   0.972 -0.4887 -0.4771 -0.0707
   20CHTO   C49 8280   5.229   3.136   1.001 -0.1601 -0.1168  0.2221
   20CHTO   H91 8281   5.197   3.080   0.913  1.6206 -1.7531  0.5886
   20CHTO   C47 8282   5.135   3.104   1.119 -0.1194 -0.1395 -0.1273
   20CHTO   H89 8283   5.032   3.102   1.078 -0.2286 -1.1265  0.1959
   20CHTO   O33 8284   5.143   3.211   1.214 -0.0955 -0.2979 -0.1653
   20CHTO   H70 8285   5.107   3.177   1.294 -0.4736 -1.4266 -0.8103
   20CHTO   C45 8286   5.185   2.970   1.198 -0.1509 -0.0609 -0.2549
   20CHTO   H87 8287   5.265   3.003   1.267  0.9388  1.8014 -2.3514
   20CHTO    N8 8288   5.074   2.907   1.271  0.5485  0.1504  0.7405
   20CHTO   H75 8289   5.062   2.947   1.370  0.8753  0.2935  0.7243
   20CHTO   H76 8290   4.985   2.932   1.217 -0.9513 -0.6661  2.7853
   20CHTO   C43 8291   5.274   2.877   1.092  0.3424  0.3225  0.3961
   20CHTO   H85 8292   5.297   2.786   1.149 -2.5724  0.3202  1.6315
   20CHTO   O29 8293   5.396   2.942   1.046 -0.5163 -0.7981 -0.7634
   20CHTO   C50 8294   5.378   3.085   1.032  0.0193 -0.4213 -0.1608
   20CHTO   H92 8295   5.405   3.135   1.127  0.6096 -5.9200  2.7645
   20CHTO   C54 8296   5.482   3.135   0.930  0.2638  0.0631 -0.1071
   20CHTO   O36 8297   5.615   3.126   0.987  0.6630  0.4174  0.0395
   20CHTO   H72 8298   5.640   3.039   0.962 -0.7640 -0.0823  0.2828
   20CHTO   O27 8299   5.189   2.831   0.989  0.0920 -0.1711 -0.0886
   20CHTO   C37 8300   5.141   2.764   0.871 -0.6596  0.6497 -0.1456
   20CHTO   H79 8301   5.060   2.700   0.907  0.9197 -0.1235  2.1669
   20CHTO   C38 8302   5.100   2.860   0.758  0.6139  0.0212  0.5242
   20CHTO   H80 8303   5.188   2.922   0.737  0.8772 -0.3839  0.4381
   20CHTO   O31 8304   4.981   2.924   0.815 -0.8683 -0.0395  0.0052
   20CHTO   H68 8305   4.947   2.991   0.759  0.0993  1.4836  1.1982
   20CHTO   C39 8306   5.051   2.781   0.630 -0.1019 -0.2636 -0.3580
   20CHTO   H81 8307   4.964   2.725   0.664 -0.7720 -0.1354 -1.8345
   20CHTO    N7 8308   5.006   2.869   0.510 -0.1527 -0.0632 -0.1962
   20CHTO   H73 8309   5.052   2.966   0.506  0.5290 -0.3778 -0.0264
   20CHTO   H74 8310   4.989   2.825   0.413 -0.7008 -0.9456  0.2964
   20CHTO   C40 8311   5.162   2.672   0.592 -0.1232 -0.7242  0.4970
   20CHTO   H82 8312   5.248   2.734   0.565 -0.3393 -1.2245 -1.3965
   20CHTO   O26 8313   5.192   2.592   0.707 -0.8173 -0.0854 -0.5508
   20CHTO   C41 8314   5.251   2.665   0.822 -0.3319 -0.2542  0.2875
   20CHTO   H83 8315   5.342   2.718   0.791 -0.7702 -0.2719 -1.0471
   20CHTO   C52 8316   5.286   2.571   0.942  0.4378  0.4735 -0.4519
   20CHTO   O35 8317   5.411   2.511   0.927 -0.2375 -0.2362  0.4757
   20CHTO   H71 8318   5.422   2.428   0.971  1.8425 -1.5510 -2.3313
   20CHTO   O28 8319   5.118   2.602   0.472 -0.2342 -0.4857 -0.4967
   20CHTO   C42 8320   5.204   2.510   0.402 -0.6221 -0.2274 -0.1787
   20CHTO   H84 8321   5.149   2.489   0.310 -1.6905 -0.9785  0.6252
   20CHTO   C44 8322   5.234   2.377   0.469 -0.2394  0.3393  0.0592
   20CHTO   H86 8323   5.279   2.401   0.566 -0.8395 -1.2934  0.7543
   20CHTO   O32 8324   5.106   2.314   0.489  0.3769  0.2757  0.1619
   20CHTO   H69 8325   5.096   2.240   0.546  0.9048 -1.3893 -1.8675
   20CHTO   C48 8326   5.335   2.285   0.388 -0.4871 -0.0111 -0.1725
   20CHTO   H90 8327   5.278   2.272   0.295 -0.3689 -0.0407 -0.2407
   20CHTO    N9 8328   5.356   2.158   0.460 -0.0420 -0.7833 -0.0456
   20CHTO   H77 8329   5.413   2.175   0.551  1.5095 -2.0067 -0.7753
   20CHTO   H78 8330   5.404   2.087   0.395  0.1421 -1.7006  1.0731
   20CHTO   C51 8331   5.462   2.360   0.352  0.4412  0.2292 -0.2445
   20CHTO   H93 8332   5.513   2.383   0.446  3.0865  1.7845 -1.9919
   20CHTO   O30 8333   5.427   2.480   0.282 -0.4562 -0.1988 -0.0869
   20CHTO   C46 8334   5.340   2.569   0.369 -0.2339 -0.3585  0.0397
   20CHTO   H88 8335   5.391   2.596   0.461  0.2972  2.4252 -1.0123
   20CHTO   C53 8336   5.335   2.701   0.290 -0.6087  0.1816  0.1878
   20CHTO   O72 8337   5.464   2.751   0.248  0.2316 -0.0578 -0.2429
   20CHTO  H199 8338   5.462   2.845   0.244 -1.1510 -0.1292 -1.6513
   20CHTO   O22 8339   5.547   2.291   0.259  0.1802 -0.3765 -0.3495
   20CHTO   C31 8340   5.691   2.317   0.228  0.4153  0.3706  0.2935
   20CHTO   H59 8341   5.710   2.252   0.140 -0.1047  2.0385 -1.0746
   20CHTO   C29 8342   5.720   2.458   0.184 -0.0506 -0.6053 -0.5160
   20CHTO   H57 8343   5.686   2.526   0.263 -0.3539 -0.2533 -0.9498
   20CHTO   O21 8344   5.641   2.480   0.075 -0.2100 -0.0556 -0.0350
   20CHTO   H37 8345   5.598   2.562   0.089  2.4313  1.3103  0.3876
   20CHTO   C27 8346   5.870   2.492   0.157 -0.2845 -0.1340 -0.3892
   20CHTO   H55 8347   5.909   2.439   0.069  0.7724 -2.2572  1.3129
   20CHTO    N5 8348   5.889   2.635   0.136  0.1637 -0.4922  0.6135
   20CHTO   H43 8349   5.834   2.658   0.045 -0.3013 -3.1530  0.1933
   20CHTO   H44 8350   5.990   2.671   0.141 -0.4639  1.2288  1.5491
   20CHTO   C25 8351   5.944   2.441   0.281 -0.8666 -0.8747 -0.4034
   20CHTO   H53 8352   5.911   2.500   0.368 -1.1896 -0.1398 -1.0145
   20CHTO   O17 8353   5.921   2.304   0.302  0.2752 -0.4820 -0.8582
   20CHTO   C32 8354   5.790   2.267   0.342 -0.0687 -0.2429  0.0147
   20CHTO   H60 8355   5.754   2.308   0.436 -0.5115  1.1419 -0.7290
   20CHTO   C36 8356   5.794   2.123   0.357 -0.9002  0.5921 -0.0872
   20CHTO   O25 8357   5.874   2.081   0.471  0.3486 -0.0239 -0.2042
   20CHTO   H40 8358   5.920   2.000   0.466  1.3819  0.5355  0.0698
   20CHTO   O15 8359   6.097   2.460   0.281  0.4981  0.1196 -0.1520
   20CHTO   C19 8360   6.214   2.497   0.205  0.3210  0.1647  0.2331
   20CHTO   H47 8361   6.174   2.528   0.107  1.4132  1.4697  0.1863
   20CHTO   C20 8362   6.296   2.614   0.261  0.3914  0.1898 -1.4051
   20CHTO   H48 8363   6.324   2.598   0.367  1.5180  0.1676 -1.7001
   20CHTO   O19 8364   6.221   2.737   0.270  0.3141 -0.2251 -0.0701
   20CHTO   H35 8365   6.154   2.739   0.335  0.5985 -1.5858  0.2690
   20CHTO   C21 8366   6.425   2.636   0.164  0.2364  0.4887 -0.1931
   20CHTO   H49 8367   6.387   2.686   0.075 -2.6429 -0.9033  0.2263
   20CHTO    N4 8368   6.523   2.733   0.221 -0.1010  0.0679  0.3612
   20CHTO   H41 8369   6.485   2.832   0.243  1.9238  1.1106 -0.6395
   20CHTO   H42 8370   6.618   2.743   0.170 -1.1745  3.1686 -1.1753
   20CHTO   C22 8371   6.493   2.503   0.124 -0.1775  0.1197  0.0142
   20CHTO   H50 8372   6.537   2.465   0.215 -2.0717  1.4881  1.5590
   20CHTO   O14 8373   6.397   2.411   0.071  0.3071 -0.8406  0.2572
   20CHTO   C23 8374   6.310   2.369   0.176 -0.1075  0.2441 -0.0038
   20CHTO   H51 8375   6.369   2.343   0.266 -0.9753  0.0483  0.5109
   20CHTO   C34 8376   6.239   2.240   0.128 -0.6784 -0.0240  0.2461
   20CHTO   O23 8377   6.173   2.272   0.009  0.5994  0.3737  0.0734
   20CHTO   H38 8378   6.080   2.280   0.022  1.0879  2.0708  2.8849
   20CHTO   O16 8379   6.597   2.516   0.016  0.1194 -0.1858  1.0978
   20CHTO   C24 8380   6.682   2.389   0.011 -0.0543 -0.0046  0.2750
   20CHTO   H52 8381   6.618   2.302   0.030 -2.1710  1.3690 -0.3653
   20CHTO   C26 8382   6.811   2.380   0.099  0.2695  0.2044  0.8453
   20CHTO   H54 8383   6.874   2.470   0.082  1.1553 -0.7877 -1.4018
   20CHTO   O20 8384   6.776   2.373   0.242  0.1947  0.3619 -0.3052
   20CHTO   H36 8385   6.842   2.333   0.296 -0.8981  0.2787  0.9941
   20CHTO   C30 8386   6.899   2.254   0.067  0.1615  0.0221  0.1233
   20CHTO   H58 8387   6.883   2.186   0.152 -2.2335  1.5528  0.9496
   20CHTO    N6 8388   7.046   2.281   0.062  0.0607  0.3877  0.1356
   20CHTO   H45 8389   7.069   2.367   0.001 -0.0482  0.2319 -0.1234
   20CHTO   H46 8390   7.093   2.196   0.016 -0.5825  0.2428 -0.2616
   20CHTO   C33 8391   6.850   2.180  -0.062 -0.3398  1.4788 -0.1923
   20CHTO   H61 8392   6.925   2.109  -0.100  0.1689  0.7857  2.0399
   20CHTO   O18 8393   6.822   2.276  -0.161 -0.4591  0.5399 -0.5328
   20CHTO   C28 8394   6.725   2.379  -0.137 -0.3634  0.3723 -0.2345
   20CHTO   H56 8395   6.753   2.477  -0.174 -0.6853  0.7425  0.4986
   20CHTO   C35 8396   6.607   2.363  -0.226  0.1493 -0.3803  0.0880
   20CHTO   O24 8397   6.560   2.231  -0.235 -0.2077 -0.1156 -0.0139
   20CHTO   H39 8398   6.616   2.165  -0.273  0.3867 -0.9441  2.2370
   20CHTO    O9 8399   6.732   2.097  -0.028  0.3602 -0.4308 -0.3705
   20CHTO   C13 8400   6.765   1.960   0.030  0.1547 -0.0343 -0.3485
   20CHTO   H26 8401   6.859   1.970   0.089 -0.5499  4.1904  0.1947
   20CHTO   C11 8402   6.773   1.848  -0.086 -0.1166  0.3742 -0.1320
   20CHTO   H24 8403   6.866   1.863  -0.143 -0.8141 -0.7213 -1.5946
   20CHTO    O8 8404   6.663   1.851  -0.171  0.3230 -0.5151 -0.2341
   20CHTO    H3 8405   6.661   1.931  -0.219 -0.6351 -1.0120 -1.0514
   20CHTO    C9 8406   6.777   1.706  -0.026  0.1350  0.7342 -0.1774
   20CHTO   H22 8407   6.848   1.702   0.058 -1.5378 -0.4819  1.2252
   20CHTO    N2 8408   6.814   1.592  -0.117 -0.6047  0.9918  0.5695
   20CHTO   H10 8409   6.820   1.618  -0.222 -2.2336  1.2617  0.5328
   20CHTO   H11 8410   6.901   1.540  -0.081 -1.6278 -0.3474  1.1633
   20CHTO    C7 8411   6.644   1.688   0.054 -1.1499 -0.2975 -0.3399
   20CHTO   H20 8412   6.673   1.628   0.143 -2.1712  1.0113  0.9029
   20CHTO    O4 8413   6.573   1.808   0.100 -0.3352  0.5352  0.1681
   20CHTO   C14 8414   6.662   1.914   0.143 -0.5712  0.3551 -0.3336
   20CHTO   H27 8415   6.728   1.869   0.219 -0.9268 -0.7495 -0.6661
   20CHTO   C18 8416   6.586   2.032   0.214  0.1062  0.0831 -0.5972
   20CHTO   O13 8417   6.497   1.993   0.321 -0.6144 -0.0950  0.2442
   20CHTO    H7 8418   6.522   1.908   0.352  0.2530 -0.3949 -1.2239
   20CHTO    O2 8419   6.536   1.598  -0.035  0.0084 -0.4302 -0.3582
   20CHTO    C1 8420   6.463   1.510   0.050  0.1151  0.5679 -0.5355
   20CHTO   H14 8421   6.468   1.547   0.155 -0.1867 -0.1183 -0.2791
   20CHTO    C2 8422   6.521   1.361   0.042 -0.1383 -0.3112  1.2144
   20CHTO   H15 8423   6.526   1.343  -0.067 -2.6320  1.8545  0.7004
   20CHTO    O6 8424   6.652   1.345   0.093 -0.0137  0.3192 -0.1878
   20CHTO    H1 8425   6.686   1.263   0.063 -0.7402  0.5965 -1.8154
   20CHTO    C3 8426   6.432   1.249   0.108 -0.3659 -0.5897  0.0129
   20CHTO   H16 8427   6.443   1.258   0.217 -0.5716 -1.2189  0.0897
   20CHTO    N1 8428   6.469   1.104   0.076  0.1997  0.2996  0.6516
   20CHTO    H8 8429   6.570   1.064   0.076 -0.3731 -1.1995  1.5224
   20CHTO    H9 8430   6.408   1.033   0.130 -1.8078  1.7128  0.2846
   20CHTO    C4 8431   6.275   1.271   0.077 -0.2984  0.2389 -0.4098
   20CHTO   H17 8432   6.258   1.230  -0.023 -1.1993  0.3460 -0.3083
   20CHTO    O1 8433   6.243   1.407   0.095  0.1979  0.5145  1.0037
   20CHTO    C5 8434   6.313   1.508   0.010  0.2306 -0.3290 -0.4686
   20CHTO   H18 8435   6.309   1.486  -0.097 -3.2356 -0.9855 -0.2631
   20CHTO   C16 8436   6.241   1.647   0.035 -0.3904 -0.1409  0.2005
   20CHTO   O11 8437   6.263   1.726  -0.078  0.1745 -0.9006  0.4621
   20CHTO    H5 8438   6.257   1.816  -0.050 -0.0673 -0.6283 -0.4500
   20CHTO    O3 8439   6.181   1.209   0.167 -0.3112  0.1874  0.2628
   20CHTO    C6 8440   6.057   1.167   0.108 -0.4714 -0.3483 -0.1118
   20CHTO   H19 8441   6.025   1.231   0.026  0.0075  2.9990  2.2100
   20CHTO    C8 8442   6.075   1.012   0.077 -0.3359 -0.1647 -0.5149
   20CHTO   H21 8443   6.134   0.965   0.156 -2.1885 -1.6417  0.0300
   20CHTO    O7 8444   6.143   1.001  -0.044  0.0435  0.0560 -0.4949
   20CHTO    H2 8445   6.216   0.943  -0.030 -0.8973 -0.5455  2.2069
   20CHTO   C12 8446   5.938   0.942   0.076  0.3732  0.1861 -0.1735
   20CHTO   H25 8447   5.887   0.970  -0.019  0.2143  2.3780  0.5331
   20CHTO    N3 8448   5.947   0.791   0.074  0.1611 -0.4402  0.3642
   20CHTO   H12 8449   6.015   0.761  -0.005  2.9447 -0.6235  2.7565
   20CHTO   H13 8450   5.850   0.747   0.056 -0.1481  0.3203  0.1734
   20CHTO   C15 8451   5.841   0.997   0.190  0.0333 -0.6717  0.3821
   20CHTO   H28 8452   5.868   0.961   0.289 -0.6974 -2.5279 -0.0739
   20CHTO   O10 8453   5.695   0.952   0.178  0.9962  0.1200  0.5340
   20CHTO    H4 8454   5.688   0.865   0.144  1.7468  0.2557  0.0284
   20CHTO    O5 8455   5.826   1.142   0.191  0.5970  0.3124 -0.0278
   20CHTO   C10 8456   5.954   1.196   0.224 -0.4778 -0.2460 -0.2502
   20CHTO   H23 8457   5.986   1.141   0.313 -2.0169 -3.0322 -1.3713
   20CHTO   C17 8458   5.947   1.349   0.259 -0.6918  0.3867  0.9722
   20CHTO   O12 8459   5.819   1.378   0.319  0.0696  0.3113  0.5093
   20CHTO    H6 8460   5.753   1.409   0.260  2.8310  0.4728 -2.6579
   21GLOH   H03 8461   3.633   1.081   0.534 -0.5847 -1.6158  0.1197
   21GLOH    O1 8462   3.704   1.055   0.597 -0.2233  0.4013  0.5643
   21GLOH    C1 8463   3.776   1.172   0.649 -0.2515  0.1851  0.5816
   21GLOH   H02 8464   3.876   1.145   0.681 -0.2893  0.6537  1.0952
   21GLOH   H08 8465   3.720   1.203   0.737 -0.7939  0.6087  0.0929
   21GLOH    C2 8466   3.781   1.293   0.552  0.1059  0.3479  0.4728
   21GLOH   H04 8467   3.816   1.256   0.455 -2.0226 -2.4696  0.7101
   21GLOH    O2 8468   3.649   1.345   0.529  0.4943  0.5797 -0.0707
   21GLOH   H05 8469   3.606   1.281   0.470  1.7798 -1.3380  1.0314
   21GLOH    C3 8470   3.880   1.396   0.611 -0.1061  0.3579 -0.1850
   21GLOH   H06 8471   3.837   1.448   0.696 -1.2845  1.3324 -1.3589
   21GLOH   H07 8472   3.878   1.476   0.537 -1.4055 -0.5573 -1.1660
   21GLOH    O3 8473   4.016   1.354   0.625 -0.0123  0.2247  0.3679
   21GLOH   H01 8474   4.076   1.411   0.676 -1.2429  1.9271 -0.0626
   22GLOH   H03 8475   3.155  10.727   1.184  0.1512  0.0239  0.3481
   22GLOH    O1 8476   3.124  10.819   1.175  0.4026  0.0193 -0.6416
   22GLOH    C1 8477   2.991  10.830   1.223  0.0367  0.3962 -0.9970
   22GLOH   H02 8478   2.928  10.775   1.153 -0.4407  0.9123 -0.9756
   22GLOH   H08 8479   2.964  10.936   1.226  2.3787  0.9726  2.9560
   22GLOH    C2 8480   2.974  10.768   1.363  0.3161  0.7543  0.1114
   22GLOH   H04 8481   2.871  10.781   1.400  0.2757  0.7038  0.0157
   22GLOH    O2 8482   3.003  10.629   1.359 -0.3110  0.4942 -0.1255
   22GLOH   H05 8483   2.997  10.591   1.448 -0.5539  2.6754  0.8091
   22GLOH    C3 8484   3.065  10.840   1.462 -0.4600  0.3398 -0.5207
   22GLOH   H06 8485   3.163  10.851   1.415  0.9647 -0.1143  2.2161
   22GLOH   H07 8486   3.079  10.775   1.548  0.3089  0.5574 -0.4748
   22GLOH    O3 8487   3.017  10.964   1.512 -0.3922  0.4141 -0.7203
   22GLOH   H01 8488   2.920  10.960   1.513 -0.4853  2.3675  0.8334
   23GLOH   H03 8489   3.160  10.334   1.367  0.5570  0.5414 -1.4617
   23GLOH    O1 8490   3.192  10.411   1.418  0.1172 -0.0749 -0.2373
   23GLOH    C1 8491   3.275  10.354   1.522 -0.0746  0.1824 -1.0351
   23GLOH   H02 8492   3.375  10.339   1.480  1.5823  1.8223  2.1214
   23GLOH   H08 8493   3.237  10.257   1.553 -1.8742  0.8046 -1.2445
   23GLOH    C2 8494   3.283  10.452   1.644  0.3157 -0.2198  0.5149
   23GLOH   H04 8495   3.178  10.460   1.673  0.5317  0.0781  1.2243
   23GLOH    O2 8496   3.376  10.410   1.748 -0.1174  0.2508 -0.5091
   23GLOH   H05 8497   3.466  10.436   1.721  0.2164 -0.7182 -0.3502
   23GLOH    C3 8498   3.299  10.596   1.586  0.0142 -0.3695 -0.1897
   23GLOH   H06 8499   3.224  10.626   1.514  0.9673  0.7191 -0.7423
   23GLOH   H07 8500   3.393  10.588   1.531 -0.2191 -1.6872 -0.4088
   23GLOH    O3 8501   3.306  10.697   1.687  0.3720  0.3750 -0.1481
   23GLOH   H01 8502   3.222  10.696   1.736  0.9567 -1.1099  0.8459
   24GLOH   H03 8503   4.291   1.885   1.593  0.7724 -0.1652  0.2394
   24GLOH    O1 8504   4.320   1.957   1.652 -0.5133  0.3904  0.2026
   24GLOH    C1 8505   4.467   1.958   1.656 -0.0866  0.0282 -0.1820
   24GLOH   H02 8506   4.510   1.863   1.689  0.0425  0.4862  0.9933
   24GLOH   H08 8507   4.510   2.031   1.725 -1.4011  0.8178 -0.1827
   24GLOH    C2 8508   4.533   1.962   1.517  0.2578 -0.7269 -0.5214
   24GLOH   H04 8509   4.641   1.956   1.534 -0.0852 -3.5714  1.0086
   24GLOH    O2 8510   4.491   1.847   1.441 -0.3194  0.1644 -0.6295
   24GLOH   H05 8511   4.394   1.837   1.442 -0.3734  0.6659 -0.8931
   24GLOH    C3 8512   4.492   2.097   1.450 -0.3083  0.0798  0.0625
   24GLOH   H06 8513   4.384   2.104   1.447 -0.3427  0.1572  1.1238
   24GLOH   H07 8514   4.538   2.106   1.352  0.5651 -1.8758  0.2647
   24GLOH    O3 8515   4.546   2.211   1.521 -0.1510 -0.2217  0.2582
   24GLOH   H01 8516   4.613   2.248   1.461  0.1986 -0.6731  0.3767
   25GLOH   H03 8517   4.544   5.131   1.092  3.6475  0.6738  0.9161
   25GLOH    O1 8518   4.491   5.189   1.151  0.2567 -1.0087 -0.3229
   25GLOH    C1 8519   4.549   5.173   1.279  1.2812 -0.4193 -0.0799
   25GLOH   H02 8520   4.484   5.228   1.347 -0.2128 -2.6659  0.3600
   25GLOH   H08 8521   4.652   5.202   1.301 -0.0713  2.8018  2.3508
   25GLOH    C2 8522   4.540   5.030   1.337  0.1315  0.0631 -0.6493
   25GLOH   H04 8523   4.441   4.984   1.350  0.0934  1.0592  3.1865
   25GLOH    O2 8524   4.627   4.947   1.262 -0.5552  0.0573 -0.2148
   25GLOH   H05 8525   4.641   4.860   1.303  1.6943  0.7150  0.5014
   25GLOH    C3 8526   4.593   5.030   1.481  0.0973 -0.0412 -0.7394
   25GLOH   H06 8527   4.696   5.067   1.475 -0.1510  1.0544  1.2394
   25GLOH   H07 8528   4.602   4.926   1.512  1.1719 -1.0407 -4.2055
   25GLOH    O3 8529   4.523   5.103   1.580  0.4184 -0.2547 -0.1168
   25GLOH   H01 8530   4.504   5.038   1.650 -1.9188  1.4699  0.8728
   26GLOH   H03 8531   3.076   2.250   0.429  0.1390 -0.7803  0.6731
   26GLOH    O1 8532   2.981   2.256   0.412  0.2775 -0.0286  0.1349
   26GLOH    C1 8533   2.930   2.390   0.438  0.1044 -0.2760  0.1315
   26GLOH   H02 8534   3.011   2.459   0.419 -0.8587  0.3135 -1.9724
   26GLOH   H08 8535   2.903   2.401   0.543  0.1059 -1.7616  0.2993
   26GLOH    C2 8536   2.812   2.430   0.346  0.6540  0.2530 -0.4608
   26GLOH   H04 8537   2.842   2.483   0.255  1.4317  0.8355  0.1339
   26GLOH    O2 8538   2.734   2.315   0.309 -0.3099 -0.4505 -0.6961
   26GLOH   H05 8539   2.719   2.275   0.396 -0.7936  0.6482 -0.2614
   26GLOH    C3 8540   2.720   2.524   0.428 -0.2409  0.8742  0.3377
   26GLOH   H06 8541   2.661   2.473   0.504  0.8009  0.4214  0.8503
   26GLOH   H07 8542   2.649   2.567   0.356  0.5768  1.8295  0.0880
   26GLOH    O3 8543   2.793   2.640   0.468 -0.4944  0.1158  0.0957
   26GLOH   H01 8544   2.734   2.715   0.448  1.2503  0.6249 -3.6160
   27GLOH   H03 8545   4.195   2.475   1.537  1.9883 -2.1537 -0.3344
   27GLOH    O1 8546   4.263   2.539   1.565 -0.3779  0.0341  0.5784
   27GLOH    C1 8547   4.371   2.468   1.621 -0.1774  0.1709 -0.1953
   27GLOH   H02 8548   4.437   2.544   1.664 -1.7430  1.5153 -0.1494
   27GLOH   H08 8549   4.430   2.422   1.541  0.1103 -1.0311  0.6869
   27GLOH    C2 8550   4.337   2.357   1.724  0.2674 -0.6154 -0.1482
   27GLOH   H04 8551   4.252   2.298   1.689  1.4341 -1.2942 -1.8978
   27GLOH    O2 8552   4.448   2.272   1.745 -0.1846 -0.4628  0.5374
   27GLOH   H05 8553   4.484   2.255   1.656 -0.1610 -1.2929  0.7003
   27GLOH    C3 8554   4.305   2.432   1.851 -0.6035  0.3371  0.3351
   27GLOH   H06 8555   4.397   2.482   1.882 -0.0252 -0.2591 -0.3848
   27GLOH   H07 8556   4.283   2.357   1.927  0.5034 -0.6663 -0.3057
   27GLOH    O3 8557   4.192   2.519   1.857  0.1428 -0.1654  0.6298
   27GLOH   H01 8558   4.111   2.465   1.852 -0.1939  0.3125  0.9266
   28GLOH   H03 8559   3.109   9.609   0.146  0.1247 -0.1729 -0.2110
   28GLOH    O1 8560   3.126   9.703   0.163 -0.2849 -0.2156  0.4256
   28GLOH    C1 8561   3.257   9.736   0.112 -0.5506 -0.7683 -0.3758
   28GLOH   H02 8562   3.253   9.845   0.100 -0.9162 -0.7926 -0.4934
   28GLOH   H08 8563   3.272   9.701   0.010 -1.7510  1.8265 -1.4949
   28GLOH    C2 8564   3.373   9.685   0.198 -0.0124 -0.0630 -0.0965
   28GLOH   H04 8565   3.361   9.736   0.294 -1.1371  2.0116 -1.3115
   28GLOH    O2 8566   3.354   9.545   0.230 -0.5134  0.4815  0.2637
   28GLOH   H05 8567   3.321   9.534   0.320  0.7189 -0.5759  0.6002
   28GLOH    C3 8568   3.518   9.716   0.140  0.1676 -0.1009  0.1842
   28GLOH   H06 8569   3.531   9.642   0.060  0.4837  2.7845 -2.5451
   28GLOH   H07 8570   3.598   9.710   0.213 -1.1177 -0.4266  1.5814
   28GLOH    O3 8571   3.516   9.847   0.084  0.3611 -0.0600  0.2791
   28GLOH   H01 8572   3.588   9.900   0.125 -0.3660  1.6445 -0.6119
   29GLOH   H03 8573   4.166  10.515   1.317  0.2155 -0.2484  0.7463
   29GLOH    O1 8574   4.088  10.460   1.294  0.5171 -0.3837  0.0371
   29GLOH    C1 8575   4.087  10.435   1.149 -0.7337 -0.6979  0.0203
   29GLOH   H02 8576   4.185  10.406   1.112 -1.7415  0.2992 -3.7333
   29GLOH   H08 8577   4.059  10.527   1.096  3.3558  0.5774 -0.0619
   29GLOH    C2 8578   3.977  10.325   1.109 -0.9235 -0.0421  0.1108
   29GLOH   H04 8579   3.881  10.351   1.156 -0.3739 -0.7556  1.6803
   29GLOH    O2 8580   3.973  10.310   0.964  0.5557 -0.1069  0.2773
   29GLOH   H05 8581   3.952  10.396   0.924 -0.1845 -0.2667  0.3197
   29GLOH    C3 8582   4.015  10.192   1.165 -0.1323 -1.0255  0.5598
   29GLOH   H06 8583   4.111  10.163   1.122  0.4551  1.2549  0.2564
   29GLOH   H07 8584   3.940  10.117   1.140 -0.9461  0.4842 -1.7323
   29GLOH    O3 8585   4.030  10.209   1.309 -0.7068  0.1033  0.0645
   29GLOH   H01 8586   4.067  10.298   1.320  0.4090 -0.3106 -0.2896
   30GLOH   H03 8587   3.744   4.003   0.142 -0.6395  0.5017  0.5559
   30GLOH    O1 8588   3.770   4.081   0.195 -0.1958  0.7959 -0.0907
   30GLOH    C1 8589   3.908   4.123   0.176 -0.3579  0.1049 -0.3740
   30GLOH   H02 8590   3.927   4.220   0.221  0.6743 -0.6027  0.7296
   30GLOH   H08 8591   3.938   4.126   0.071 -0.8290  0.3620 -0.5012
   30GLOH    C2 8592   3.992   4.019   0.248 -0.5496 -0.0857  0.4604
   30GLOH   H04 8593   3.989   4.045   0.355  1.5858 -2.9271  1.2607
   30GLOH    O2 8594   3.956   3.881   0.214 -0.4694  0.0665  0.0469
   30GLOH   H05 8595   3.987   3.816   0.279 -0.9461  1.1270  1.3589
   30GLOH    C3 8596   4.140   4.033   0.221  0.1031 -0.2282 -0.6488
   30GLOH   H06 8597   4.156   4.023   0.114 -0.1425  3.3866 -1.0828
   30GLOH   H07 8598   4.192   3.946   0.261 -0.3038 -0.6501 -1.0391
   30GLOH    O3 8599   4.208   4.154   0.260 -0.4282 -0.6127 -0.0381
   30GLOH   H01 8600   4.291   4.126   0.304 -0.6275  0.3737  0.9710
   31GLOH   H03 8601   3.637   1.368   2.053 -0.6609  0.4049 -1.3573
   31GLOH    O1 8602   3.713   1.429   2.044  0.0956 -0.3261 -0.0156
   31GLOH    C1 8603   3.661   1.562   2.056  0.0693 -1.2780  0.4961
   31GLOH   H02 8604   3.731   1.627   2.003  1.0083  0.6808  4.0124
   31GLOH   H08 8605   3.645   1.591   2.160 -1.0427 -0.8738  0.2171
   31GLOH    C2 8606   3.530   1.568   1.982  0.4779 -0.1368 -0.7728
   31GLOH   H04 8607   3.472   1.480   2.014 -1.6122  1.1985 -0.7842
   31GLOH    O2 8608   3.449   1.677   2.020 -0.3141 -0.7040 -0.3971
   31GLOH   H05 8609   3.438   1.667   2.116  1.8236 -0.1601 -0.0576
   31GLOH    C3 8610   3.556   1.558   1.826 -0.5924 -0.2540 -0.3607
   31GLOH   H06 8611   3.625   1.628   1.779  1.3872 -1.0961  1.2569
   31GLOH   H07 8612   3.462   1.575   1.772 -1.0313  1.9361  1.0097
   31GLOH    O3 8613   3.604   1.429   1.781 -0.3140  0.0663 -0.1852
   31GLOH   H01 8614   3.676   1.438   1.717 -1.3708  0.0128 -1.3901
   32GLOH   H03 8615   4.414   1.823   0.768  4.1823  0.3590  0.8360
   32GLOH    O1 8616   4.391   1.807   0.861  0.4279 -0.2865 -0.1112
   32GLOH    C1 8617   4.346   1.931   0.928 -0.4918 -0.0845  0.1031
   32GLOH   H02 8618   4.421   2.009   0.922  2.2715 -2.5820  0.8252
   32GLOH   H08 8619   4.317   1.918   1.033  0.0023  1.0104  0.3827
   32GLOH    C2 8620   4.213   1.981   0.867  0.3942  0.1832  0.6177
   32GLOH   H04 8621   4.240   2.008   0.764  0.7515  0.2924  0.7386
   32GLOH    O2 8622   4.102   1.886   0.852 -0.3509 -0.3462 -0.0542
   32GLOH   H05 8623   4.132   1.830   0.779  0.7075 -0.1071  0.1904
   32GLOH    C3 8624   4.168   2.112   0.933 -0.6789 -0.1256  0.0563
   32GLOH   H06 8625   4.115   2.093   1.027 -2.2269 -0.1341 -0.8053
   32GLOH   H07 8626   4.088   2.154   0.872  0.4239 -2.1861 -2.9233
   32GLOH    O3 8627   4.263   2.206   0.962 -0.3283 -0.5322  0.4818
   32GLOH   H01 8628   4.317   2.220   0.881 -1.8107 -0.1634 -0.4559
   33GLOH   H03 8629   3.810   1.340   1.126 -1.3451 -0.2048  0.5318
   33GLOH    O1 8630   3.797   1.436   1.143  0.3951  0.1063  0.1535
   33GLOH    C1 8631   3.921   1.510   1.138 -0.8614  0.6149 -0.0982
   33GLOH   H02 8632   3.893   1.615   1.149 -2.1450  0.4106 -1.2918
   33GLOH   H08 8633   3.961   1.503   1.037  2.0010 -1.4123  1.1319
   33GLOH    C2 8634   4.020   1.474   1.245  0.1029 -0.1173 -0.4155
   33GLOH   H04 8635   3.973   1.479   1.344 -2.1827  1.7060 -1.5435
   33GLOH    O2 8636   4.073   1.343   1.225  0.4483 -0.5214  0.5724
   33GLOH   H05 8637   4.101   1.325   1.133  0.8942  1.2394  0.3470
   33GLOH    C3 8638   4.142   1.564   1.247  0.0262  0.3779 -0.6535
   33GLOH   H06 8639   4.205   1.548   1.159 -1.4249  0.0113 -1.6319
   33GLOH   H07 8640   4.200   1.524   1.330 -0.8908  1.9575  0.7620
   33GLOH    O3 8641   4.122   1.706   1.267  0.3766 -0.4408 -0.2077
   33GLOH   H01 8642   4.089   1.745   1.184 -2.3477 -1.5147  0.2971
   34GLOH   H03 8643   3.570   2.749   1.177 -0.7377 -1.1781  1.4454
   34GLOH    O1 8644   3.613   2.683   1.120  0.2569  0.0090  0.8003
   34GLOH    C1 8645   3.708   2.752   1.035 -0.2919  0.3698  0.3319
   34GLOH   H02 8646   3.737   2.681   0.957  0.1896  0.2320  0.6337
   34GLOH   H08 8647   3.803   2.769   1.086  0.6286 -1.2254 -0.7747
   34GLOH    C2 8648   3.654   2.876   0.968 -0.3632  0.1091 -0.7131
   34GLOH   H04 8649   3.627   2.955   1.040  0.9694 -0.4955  0.4756
   34GLOH    O2 8650   3.751   2.931   0.880 -0.4693  0.2634  0.0515
   34GLOH   H05 8651   3.804   3.005   0.914 -1.6659  1.2960 -0.2863
   34GLOH    C3 8652   3.531   2.848   0.885 -0.2875 -0.0852 -0.5297
   34GLOH   H06 8653   3.555   2.753   0.837 -0.1405  0.8720 -2.3968
   34GLOH   H07 8654   3.521   2.921   0.804  2.4924 -0.5171 -1.2987
   34GLOH    O3 8655   3.419   2.847   0.971 -0.5388  0.3421  0.4766
   34GLOH   H01 8656   3.390   2.756   0.951 -0.3856 -0.0342  1.8746
   35GLOH   H03 8657   4.404   3.704   1.032 -0.2058 -1.2618 -0.1612
   35GLOH    O1 8658   4.314   3.676   1.008 -0.6213  0.0239 -0.1227
   35GLOH    C1 8659   4.288   3.631   0.877 -0.0829 -0.2372 -0.0279
   35GLOH   H02 8660   4.298   3.523   0.871  2.9257 -0.1256  2.0758
   35GLOH   H08 8661   4.345   3.686   0.802  1.4235 -0.7159  0.7550
   35GLOH    C2 8662   4.145   3.667   0.828 -0.4021  0.2191  0.1869
   35GLOH   H04 8663   4.147   3.777   0.830 -0.2115  0.1998  2.5823
   35GLOH    O2 8664   4.134   3.612   0.690  0.2665 -0.2203 -0.1056
   35GLOH   H05 8665   4.052   3.633   0.642  0.7363 -1.3084 -1.4180
   35GLOH    C3 8666   4.028   3.619   0.922 -0.3631  0.1674  0.6657
   35GLOH   H06 8667   4.046   3.630   1.029  0.0143 -3.6909  1.0787
   35GLOH   H07 8668   4.020   3.515   0.890  1.6387  0.7790 -2.1026
   35GLOH    O3 8669   3.905   3.689   0.890 -0.1305  0.6801 -0.4012
   35GLOH   H01 8670   3.904   3.766   0.949  1.9297  0.8252 -0.5073
   36GLOH   H03 8671   3.961   3.531   2.418 -0.0679  0.4289 -1.1079
   36GLOH    O1 8672   3.869   3.555   2.438 -0.1735 -0.6515 -0.1899
   36GLOH    C1 8673   3.812   3.436   2.497  0.4575 -0.4388 -0.3373
   36GLOH   H02 8674   3.860   3.414   2.593 -2.5982 -0.7403  1.1963
   36GLOH   H08 8675   3.817   3.352   2.428 -0.2451 -1.7504  1.1499
   36GLOH    C2 8676   3.667   3.471   2.543  0.5706 -0.5283  0.0599
   36GLOH   H04 8677   3.610   3.491   2.451  0.7662 -1.0004 -0.1660
   36GLOH    O2 8678   3.609   3.363   2.619  0.8712 -0.0037  0.6049
   36GLOH   H05 8679   3.612   3.288   2.557 -0.2163 -0.4798  1.1207
   36GLOH    C3 8680   3.660   3.602   2.628  0.1022  0.3332  0.2977
   36GLOH   H06 8681   3.718   3.589   2.720  1.2584  1.5315 -0.2486
   36GLOH   H07 8682   3.563   3.619   2.676 -0.3377  0.0396 -0.4913
   36GLOH    O3 8683   3.705   3.713   2.548  0.0662  0.3694  0.0867
   36GLOH   H01 8684   3.778   3.683   2.490  0.9945 -0.4491  1.6362
   37GLOH   H03 8685   4.194   4.010   1.158 -3.7064  0.3127  0.4521
   37GLOH    O1 8686   4.209   4.100   1.193  0.6262 -0.0190 -0.2963
   37GLOH    C1 8687   4.095   4.191   1.173  0.5645  0.2354  0.3240
   37GLOH   H02 8688   4.118   4.281   1.229  1.1120 -0.3771  1.0989
   37GLOH   H08 8689   4.001   4.154   1.214 -0.9381  2.2082 -1.2703
   37GLOH    C2 8690   4.071   4.228   1.028 -0.8029  0.1935  0.3416
   37GLOH   H04 8691   4.153   4.292   0.991 -0.2582  0.1173  1.3949
   37GLOH    O2 8692   4.068   4.105   0.951  0.1674 -0.5657  0.8454
   37GLOH   H05 8693   4.131   4.106   0.877  0.8486 -2.0100  1.3798
   37GLOH    C3 8694   3.943   4.315   1.020 -0.1268  0.7999 -0.6594
   37GLOH   H06 8695   3.862   4.283   1.085 -0.9264  2.0373 -1.0304
   37GLOH   H07 8696   3.899   4.288   0.923  0.6351  0.1519 -0.8336
   37GLOH    O3 8697   3.967   4.454   1.040  0.5455 -0.2231  0.3865
   37GLOH   H01 8698   3.937   4.474   1.130 -0.9900 -0.8952  0.0333
   38GLOH   H03 8699   2.650   1.429   0.973 -0.2182 -0.2984 -1.2375
   38GLOH    O1 8700   2.677   1.400   1.062 -0.5792  0.3237 -0.9148
   38GLOH    C1 8701   2.593   1.296   1.109 -0.2051  0.1095  0.2696
   38GLOH   H02 8702   2.582   1.223   1.028  0.8495 -0.8557  0.9839
   38GLOH   H08 8703   2.493   1.334   1.129 -0.7181 -0.7782 -0.5503
   38GLOH    C2 8704   2.651   1.231   1.239  0.5078 -0.2813  0.9960
   38GLOH   H04 8705   2.603   1.134   1.260  0.4221 -1.3505 -3.6940
   38GLOH    O2 8706   2.791   1.204   1.228  0.0553 -0.5221  0.2406
   38GLOH   H05 8707   2.801   1.173   1.137 -0.2245 -0.0980  0.0632
   38GLOH    C3 8708   2.622   1.327   1.357 -0.0494  0.5612 -0.1144
   38GLOH   H06 8709   2.666   1.424   1.334 -1.8939  1.4608  0.0512
   38GLOH   H07 8710   2.676   1.286   1.442 -1.8141 -1.5319  0.0473
   38GLOH    O3 8711   2.480   1.337   1.383 -0.1069 -0.0767 -0.3431
   38GLOH   H01 8712   2.454   1.413   1.438  0.0125  1.2771 -2.0846
   39GLOH   H03 8713   4.084   3.723   0.470 -0.2608  2.8135 -0.5051
   39GLOH    O1 8714   4.055   3.707   0.378  0.0074 -0.3148 -0.1014
   39GLOH    C1 8715   3.960   3.600   0.369  0.7165 -0.4489  0.0132
   39GLOH   H02 8716   4.014   3.506   0.385  1.6491  0.4237  2.3096
   39GLOH   H08 8717   3.918   3.603   0.269  0.5111  0.8339  0.1325
   39GLOH    C2 8718   3.835   3.601   0.458 -0.1171 -0.7942  0.4453
   39GLOH   H04 8719   3.773   3.512   0.438 -2.1929  0.8690 -0.6760
   39GLOH    O2 8720   3.883   3.593   0.589  0.3281 -0.0534  0.2792
   39GLOH   H05 8721   3.808   3.566   0.645 -0.1213  0.8106  0.1163
   39GLOH    C3 8722   3.758   3.726   0.426  0.2082  0.4940 -0.8813
   39GLOH   H06 8723   3.813   3.815   0.459  0.2333 -0.7468  2.5852
   39GLOH   H07 8724   3.675   3.725   0.496 -0.5480  3.9501 -1.6240
   39GLOH    O3 8725   3.704   3.751   0.299 -0.2714 -0.3046  0.4116
   39GLOH   H01 8726   3.763   3.817   0.256 -0.6046 -0.1725  0.1546
   40GLOH   H03 8727   4.149   1.568   2.562 -1.0806 -1.0063  2.3552
   40GLOH    O1 8728   4.185   1.646   2.608 -0.8328  0.1619  0.2632
   40GLOH    C1 8729   4.147   1.647   2.752  0.1657 -0.1202 -0.4756
   40GLOH   H02 8730   4.204   1.577   2.812  0.0108  0.9859  0.9886
   40GLOH   H08 8731   4.043   1.620   2.767 -0.1593  0.7699 -1.0780
   40GLOH    C2 8732   4.171   1.792   2.801  0.5157 -0.6091 -0.5929
   40GLOH   H04 8733   4.096   1.847   2.741  2.6983  2.3943 -0.6895
   40GLOH    O2 8734   4.129   1.804   2.937 -0.1345 -0.3173  0.3413
   40GLOH   H05 8735   4.179   1.879   2.973 -1.4809  0.5222  0.4781
   40GLOH    C3 8736   4.317   1.837   2.770 -0.1221 -0.4621  0.4079
   40GLOH   H06 8737   4.327   1.829   2.662 -1.0122 -0.2787  0.3064
   40GLOH   H07 8738   4.382   1.765   2.820  0.1775 -0.2755  0.2861
   40GLOH    O3 8739   4.343   1.972   2.815 -0.3265  0.2338 -0.2978
   40GLOH   H01 8740   4.270   2.034   2.796  1.0758  1.0478 -3.3613
   41GLOH   H03 8741   3.315   2.591   0.809  1.0263 -0.9897 -0.5284
   41GLOH    O1 8742   3.354   2.609   0.897 -0.3174 -0.4195 -0.0445
   41GLOH    C1 8743   3.447   2.511   0.938  0.0901 -0.5319 -0.1159
   41GLOH   H02 8744   3.455   2.513   1.047 -1.6343  3.0796  0.0440
   41GLOH   H08 8745   3.545   2.524   0.893  0.9717  0.3685  1.9462
   41GLOH    C2 8746   3.398   2.367   0.917 -0.6112 -0.4479 -0.4080
   41GLOH   H04 8747   3.292   2.368   0.948 -1.3074 -1.7793 -2.6206
   41GLOH    O2 8748   3.399   2.322   0.778 -0.8278 -0.2347 -0.7016
   41GLOH   H05 8749   3.334   2.379   0.734 -0.8900 -0.8879 -1.4599
   41GLOH    C3 8750   3.459   2.265   1.005 -0.2489 -0.0521  0.2297
   41GLOH   H06 8751   3.566   2.262   0.989 -0.3066 -0.5048 -0.0716
   41GLOH   H07 8752   3.422   2.164   0.988  2.3383 -1.2187  1.2223
   41GLOH    O3 8753   3.435   2.295   1.144  0.4226  0.6883  0.3493
   41GLOH   H01 8754   3.485   2.222   1.185  2.4323  1.3020 -0.9193
   42GLOH   H03 8755   4.538   4.865   2.153  3.1202  1.1329  0.0429
   42GLOH    O1 8756   4.586   4.780   2.162  0.1351 -0.6114  0.1568
   42GLOH    C1 8757   4.665   4.792   2.284 -0.5826  1.2896 -0.1006
   42GLOH   H02 8758   4.713   4.888   2.269  1.3233  0.6121  1.4186
   42GLOH   H08 8759   4.740   4.712   2.281 -1.7466  0.1760  0.1743
   42GLOH    C2 8760   4.589   4.789   2.420 -0.9172 -0.7883  0.1154
   42GLOH   H04 8761   4.669   4.772   2.494 -0.1207  1.0179 -0.3154
   42GLOH    O2 8762   4.517   4.910   2.437 -0.0972  0.0958  0.3090
   42GLOH   H05 8763   4.450   4.902   2.506 -1.7172 -0.7156 -1.3191
   42GLOH    C3 8764   4.496   4.674   2.423  0.2991 -0.0764  0.3854
   42GLOH   H06 8765   4.416   4.684   2.349 -0.0391 -1.2563  0.5836
   42GLOH   H07 8766   4.442   4.667   2.517  0.3814 -2.7002  0.2725
   42GLOH    O3 8767   4.569   4.551   2.409  0.0206 -0.1178 -0.0447
   42GLOH   H01 8768   4.580   4.541   2.313  1.3637  1.8367 -0.1333
   43GLOH   H03 8769   3.350   0.974   0.731  2.1201  0.9456 -0.1635
   43GLOH    O1 8770   3.306   1.013   0.808  0.4484 -0.4274 -0.3915
   43GLOH    C1 8771   3.343   1.144   0.845  0.4974  0.1293  0.0751
   43GLOH   H02 8772   3.451   1.140   0.834  0.5784 -0.0126  0.8779
   43GLOH   H08 8773   3.317   1.169   0.948  0.4385  1.6984 -0.3063
   43GLOH    C2 8774   3.283   1.258   0.764 -0.3932  0.7662  0.1217
   43GLOH   H04 8775   3.174   1.244   0.771 -0.2222 -2.2326 -2.0531
   43GLOH    O2 8776   3.315   1.387   0.818 -0.6041 -0.6966  0.4989
   43GLOH   H05 8777   3.404   1.417   0.793 -0.7347  0.6113  1.4860
   43GLOH    C3 8778   3.319   1.251   0.615 -0.4582 -0.3637  0.3169
   43GLOH   H06 8779   3.428   1.253   0.607 -0.5390 -0.9327 -1.1226
   43GLOH   H07 8780   3.288   1.338   0.558 -1.5830 -1.2016 -0.3741
   43GLOH    O3 8781   3.261   1.139   0.550 -0.1233  0.6626  0.3962
   43GLOH   H01 8782   3.165   1.158   0.544  0.0092  0.3020 -4.2652
   44GLOH   H03 8783   3.596   3.931   0.613 -2.7191 -1.7245  0.1852
   44GLOH    O1 8784   3.537   4.001   0.578 -0.2580  0.1564 -0.3639
   44GLOH    C1 8785   3.530   4.017   0.434 -0.5518 -0.3413 -1.1234
   44GLOH   H02 8786   3.518   3.918   0.390  0.8365  0.0551 -2.4810
   44GLOH   H08 8787   3.626   4.053   0.396 -1.5597  2.2223 -1.3313
   44GLOH    C2 8788   3.409   4.099   0.381 -0.0873  0.3503 -0.5150
   44GLOH   H04 8789   3.394   4.187   0.446  1.9965  0.3706 -0.0155
   44GLOH    O2 8790   3.421   4.147   0.245  0.5326 -0.5222  0.0006
   44GLOH   H05 8791   3.456   4.073   0.192 -0.1851 -0.7397 -0.1829
   44GLOH    C3 8792   3.283   4.012   0.389  0.4144 -0.1328  0.0014
   44GLOH   H06 8793   3.299   3.933   0.316 -1.5807 -0.2993 -0.2657
   44GLOH   H07 8794   3.195   4.068   0.358 -0.2013  0.4161  2.5883
   44GLOH    O3 8795   3.264   3.954   0.526 -0.0936  0.5872  0.0286
   44GLOH   H01 8796   3.293   3.862   0.534 -1.0693  0.2614 -0.0449
   45GLOH   H03 8797   4.496   2.136   0.753  2.9480  0.6281  2.1753
   45GLOH    O1 8798   4.439   2.214   0.767  0.2791 -0.7709 -0.2797
   45GLOH    C1 8799   4.501   2.336   0.710  0.5667  0.0504 -0.0486
   45GLOH   H02 8800   4.510   2.316   0.603  1.4969  1.1135 -0.1789
   45GLOH   H08 8801   4.599   2.358   0.751  0.7515 -2.2335  0.8088
   45GLOH    C2 8802   4.412   2.462   0.731  0.3031 -1.0263  0.9069
   45GLOH   H04 8803   4.394   2.484   0.837  0.5901 -1.0241  0.9565
   45GLOH    O2 8804   4.473   2.577   0.668  0.2898 -0.0692 -0.1739
   45GLOH   H05 8805   4.426   2.657   0.696 -1.8638 -1.5938  0.6374
   45GLOH    C3 8806   4.271   2.443   0.673  0.1288  0.0449 -0.4056
   45GLOH   H06 8807   4.227   2.349   0.703  1.8469 -1.2687 -1.8943
   45GLOH   H07 8808   4.276   2.435   0.564 -0.3430 -2.8706 -0.2326
   45GLOH    O3 8809   4.176   2.542   0.710  0.1965 -0.5971  0.2611
   45GLOH   H01 8810   4.211   2.589   0.788  0.5061 -1.1757  0.4792
   46GLOH   H03 8811   3.948   0.906   1.544  1.2914 -1.2990  0.7122
   46GLOH    O1 8812   3.968   0.845   1.470  0.5402 -0.0769 -0.5216
   46GLOH    C1 8813   3.871   0.875   1.369 -0.1736 -0.1358 -0.2523
   46GLOH   H02 8814   3.783   0.812   1.384 -1.0252  0.6130 -1.9657
   46GLOH   H08 8815   3.915   0.845   1.274  1.6798 -1.2406  0.9214
   46GLOH    C2 8816   3.823   1.027   1.365  0.1734 -0.7125  0.6626
   46GLOH   H04 8817   3.917   1.082   1.349 -0.5788  0.9172  1.7288
   46GLOH    O2 8818   3.739   1.056   1.255  0.3939 -0.3900 -0.3633
   46GLOH   H05 8819   3.788   1.047   1.171 -2.0528 -1.5437 -1.7130
   46GLOH    C3 8820   3.765   1.080   1.499  0.1103  0.7657  0.6220
   46GLOH   H06 8821   3.671   1.035   1.529  0.3066  0.8525  1.3839
   46GLOH   H07 8822   3.752   1.189   1.497  0.8448  0.8527  0.3688
   46GLOH    O3 8823   3.870   1.054   1.597 -0.4419 -0.1518 -0.3785
   46GLOH   H01 8824   3.838   1.051   1.689  0.8562 -2.2953  0.0287
   47GLOH   H03 8825   3.161   9.980   0.949  0.4238 -0.5125  0.1257
   47GLOH    O1 8826   3.117   9.900   0.913 -0.2055 -0.0041 -0.2400
   47GLOH    C1 8827   3.055   9.922   0.789  0.5052 -0.6359  0.3206
   47GLOH   H02 8828   3.001   9.834   0.756 -1.4681  0.4750  0.4927
   47GLOH   H08 8829   3.130   9.947   0.715  1.7832 -1.6026  1.2638
   47GLOH    C2 8830   2.955  10.038   0.797 -0.1180 -0.4354 -1.1864
   47GLOH   H04 8831   3.008  10.125   0.839 -0.3231 -0.0427 -1.7362
   47GLOH    O2 8832   2.881  10.074   0.681 -0.7558 -0.1586  0.0573
   47GLOH   H05 8833   2.930  10.030   0.610  1.9209 -1.0795  2.3576
   47GLOH    C3 8834   2.851   9.997   0.899  0.0033 -0.6090  0.1014
   47GLOH   H06 8835   2.798   9.911   0.858  1.6812 -1.9346  0.6484
   47GLOH   H07 8836   2.778  10.078   0.900  0.8080  0.1304 -0.0355
   47GLOH    O3 8837   2.904   9.974   1.030  0.1246  0.0978  0.0073
   47GLOH   H01 8838   2.982   9.918   1.012  0.5140 -0.7287  3.7554
   48GLOH   H03 8839   2.998   1.844   1.616 -0.0787  0.2674  0.6411
   48GLOH    O1 8840   2.939   1.874   1.688 -0.4608  0.1799  0.3666
   48GLOH    C1 8841   2.957   2.014   1.710 -0.0558  0.3119  0.6738
   48GLOH   H02 8842   2.863   2.065   1.688 -1.2413 -1.8490  0.6554
   48GLOH   H08 8843   3.031   2.056   1.642 -1.9070  0.8212 -1.0991
   48GLOH    C2 8844   3.010   2.036   1.856  0.8227 -0.1740 -0.1108
   48GLOH   H04 8845   3.046   2.137   1.880  1.3909 -0.5297  0.5431
   48GLOH    O2 8846   2.902   2.011   1.948  0.4820 -0.5048  0.5650
   48GLOH   H05 8847   2.889   2.096   1.994  1.0193 -0.9241  1.5021
   48GLOH    C3 8848   3.127   1.948   1.885 -0.0836 -0.1371  0.3647
   48GLOH   H06 8849   3.097   1.844   1.871 -1.3487  0.3999 -1.0835
   48GLOH   H07 8850   3.154   1.966   1.989  0.3200 -2.1667  0.6303
   48GLOH    O3 8851   3.243   1.974   1.809 -0.5940 -0.7176  0.3427
   48GLOH   H01 8852   3.299   2.044   1.849  0.3459 -0.7905 -0.8149
   49GLOH   H03 8853   4.495   3.411   0.675 -0.6192 -2.2158  0.3487
   49GLOH    O1 8854   4.574   3.383   0.725  0.1342 -0.5386  0.1596
   49GLOH    C1 8855   4.614   3.498   0.805 -0.1698  0.2385 -0.2674
   49GLOH   H02 8856   4.530   3.519   0.871  0.5525  1.1391  0.3857
   49GLOH   H08 8857   4.625   3.586   0.741  1.4420 -0.5138 -1.0615
   49GLOH    C2 8858   4.744   3.477   0.888  0.5017 -0.4060  0.2380
   49GLOH   H04 8859   4.829   3.465   0.819  0.5010 -2.7236  0.5981
   49GLOH    O2 8860   4.757   3.595   0.968 -0.0817 -0.3607  0.8480
   49GLOH   H05 8861   4.848   3.608   0.998 -0.3319  0.1267  1.4006
   49GLOH    C3 8862   4.731   3.350   0.976  0.2733  0.2652  0.1794
   49GLOH   H06 8863   4.824   3.343   1.032  0.4681  1.3588  0.0022
   49GLOH   H07 8864   4.717   3.260   0.916 -0.4358 -0.2066  1.0448
   49GLOH    O3 8865   4.630   3.363   1.078 -0.0325  0.5029  0.1585
   49GLOH   H01 8866   4.549   3.333   1.033  0.3116 -0.1987 -0.0066
   50GLOH   H03 8867   2.985   2.206   0.263 -1.5460 -0.0652 -0.8262
   50GLOH    O1 8868   3.005   2.149   0.186 -0.2263 -0.4015 -0.2470
   50GLOH    C1 8869   2.901   2.180   0.085  0.2408  0.7276  0.0402
   50GLOH   H02 8870   2.888   2.287   0.074  0.3829  0.6942 -0.4733
   50GLOH   H08 8871   2.807   2.131   0.110  1.2612 -1.7671 -0.8255
   50GLOH    C2 8872   2.932   2.135  -0.062  0.1986  0.9029 -0.3505
   50GLOH   H04 8873   3.022   2.181  -0.105  2.5168 -0.9618  2.3024
   50GLOH    O2 8874   2.940   1.991  -0.064  0.4912  0.7907  0.3878
   50GLOH   H05 8875   2.857   1.958  -0.025  1.1597  0.2109  1.3601
   50GLOH    C3 8876   2.814   2.172  -0.146  0.0956  0.2716  0.0426
   50GLOH   H06 8877   2.732   2.108  -0.112  0.8204 -1.7657 -1.9273
   50GLOH   H07 8878   2.841   2.149  -0.249  1.2398  0.9214  0.1891
   50GLOH    O3 8879   2.778   2.313  -0.147 -0.3343 -0.4933  0.9049
   50GLOH   H01 8880   2.716   2.330  -0.074  1.0167  1.8321  1.5439
   51GLOH   H03 8881   4.808   1.823   0.548  0.1199 -0.3712 -0.1730
   51GLOH    O1 8882   4.870   1.898   0.555 -0.6325  0.2608 -0.2020
   51GLOH    C1 8883   4.883   1.963   0.426 -0.3050 -0.3525 -0.3478
   51GLOH   H02 8884   4.919   1.888   0.355  1.1478  0.4544 -0.4772
   51GLOH   H08 8885   4.948   2.048   0.445 -2.8036  1.6169 -0.3060
   51GLOH    C2 8886   4.750   2.016   0.371  0.5865  0.1584 -0.3982
   51GLOH   H04 8887   4.696   2.075   0.446 -0.6248  0.5725 -1.5693
   51GLOH    O2 8888   4.781   2.106   0.262  0.1139  0.1893  0.9090
   51GLOH   H05 8889   4.813   2.188   0.303  0.5083  0.1921  0.6013
   51GLOH    C3 8890   4.666   1.895   0.330 -0.5001  0.1720 -0.4541
   51GLOH   H06 8891   4.719   1.863   0.240  1.4776  0.9714  0.3894
   51GLOH   H07 8892   4.569   1.927   0.293 -0.1362  0.6404 -1.0031
   51GLOH    O3 8893   4.653   1.785   0.429 -0.1717  0.3255 -0.4191
   51GLOH   H01 8894   4.591   1.717   0.395  1.0558 -1.6369  1.1875
   52GLOH   H03 8895   4.458   3.541   1.432  0.1400 -0.0602  1.1313
   52GLOH    O1 8896   4.423   3.608   1.494  0.1895  0.8391  0.1950
   52GLOH    C1 8897   4.473   3.575   1.625 -1.0913 -0.1982 -0.8179
   52GLOH   H02 8898   4.567   3.521   1.625 -1.2423 -0.5001  1.6442
   52GLOH   H08 8899   4.402   3.505   1.669  0.2873 -0.7192  0.6489
   52GLOH    C2 8900   4.503   3.696   1.716  0.0527  0.1270  0.2285
   52GLOH   H04 8901   4.410   3.734   1.761  0.2087  0.6143  0.1368
   52GLOH    O2 8902   4.596   3.656   1.822 -0.7265 -0.2219  0.0900
   52GLOH   H05 8903   4.547   3.600   1.885 -1.8493  0.2639 -0.3510
   52GLOH    C3 8904   4.580   3.811   1.643  0.0527 -0.1481  0.0074
   52GLOH   H06 8905   4.664   3.764   1.592 -0.2535 -1.5921  0.8000
   52GLOH   H07 8906   4.627   3.882   1.710 -0.2525  1.1773 -1.1625
   52GLOH    O3 8907   4.495   3.891   1.556  0.8426 -0.2858  0.0117
   52GLOH   H01 8908   4.500   3.986   1.576 -1.3140 -0.2904  0.6562
   53GLOH   H03 8909   3.405   2.468   2.463 -2.1171  1.3509 -2.1035
   53GLOH    O1 8910   3.331   2.486   2.524 -0.3261 -0.1441  0.6067
   53GLOH    C1 8911   3.283   2.615   2.485  0.1198  0.7532 -0.5694
   53GLOH   H02 8912   3.214   2.644   2.564 -0.9278  0.8222 -1.4953
   53GLOH   H08 8913   3.220   2.612   2.395  0.5630 -2.2296 -0.8526
   53GLOH    C2 8914   3.393   2.722   2.469  0.9476  0.3000 -0.5294
   53GLOH   H04 8915   3.454   2.679   2.388  1.0758  0.1877 -0.3734
   53GLOH    O2 8916   3.327   2.847   2.430  0.0056 -0.1107  0.5057
   53GLOH   H05 8917   3.298   2.840   2.337  2.2743  0.2047 -0.2547
   53GLOH    C3 8918   3.490   2.739   2.585 -0.3608 -0.5982  0.2903
   53GLOH   H06 8919   3.514   2.643   2.631  0.6411  0.4387  1.9477
   53GLOH   H07 8920   3.444   2.803   2.660 -1.2624  0.7776 -1.3953
   53GLOH    O3 8921   3.612   2.794   2.532  0.4436 -0.6187 -0.1443
   53GLOH   H01 8922   3.652   2.837   2.610  0.8435 -0.6279 -0.3404
   54GLOH   H03 8923   2.707   3.063   1.556 -3.6048  0.9738  3.2789
   54GLOH    O1 8924   2.757   3.143   1.580 -0.4718  0.4351 -0.9563
   54GLOH    C1 8925   2.799   3.226   1.467  0.1636 -0.2248 -0.2901
   54GLOH   H02 8926   2.716   3.247   1.400 -0.1479 -0.8103 -0.0978
   54GLOH   H08 8927   2.865   3.164   1.407  1.3969 -0.2204  1.0425
   54GLOH    C2 8928   2.869   3.363   1.504  0.2013  0.3164  1.2512
   54GLOH   H04 8929   2.964   3.336   1.553  1.5799  0.2696 -1.3413
   54GLOH    O2 8930   2.882   3.452   1.392 -0.0575 -0.2744  0.4986
   54GLOH   H05 8931   2.931   3.530   1.423  0.0055  0.1656 -0.6849
   54GLOH    C3 8932   2.780   3.429   1.605 -0.2975  0.1246 -0.0316
   54GLOH   H06 8933   2.677   3.442   1.570 -0.7744 -1.0317  0.9180
   54GLOH   H07 8934   2.810   3.534   1.616  1.1383 -0.0040 -2.3766
   54GLOH    O3 8935   2.784   3.357   1.727 -0.2284 -0.3436 -0.5118
   54GLOH   H01 8936   2.776   3.265   1.695  1.6880 -0.3351 -1.0753
   55GLOH   H03 8937   3.464   1.289   1.649  0.2209  1.6170 -2.5218
   55GLOH    O1 8938   3.511   1.227   1.590  0.2868 -0.0218 -0.7596
   55GLOH    C1 8939   3.516   1.267   1.457  0.2964 -0.0631  0.7097
   55GLOH   H02 8940   3.579   1.199   1.399  1.2042  1.6621 -0.3464
   55GLOH   H08 8941   3.568   1.362   1.453 -1.8940  1.2433  1.8490
   55GLOH    C2 8942   3.377   1.283   1.392 -0.3028 -1.2460  0.3309
   55GLOH   H04 8943   3.401   1.309   1.288 -1.2570 -1.9427 -0.0805
   55GLOH    O2 8944   3.312   1.156   1.382  0.3432  0.6966 -0.5150
   55GLOH   H05 8945   3.355   1.104   1.312 -0.4982  1.2047 -1.4179
   55GLOH    C3 8946   3.286   1.378   1.471 -0.4536  0.0269 -0.8035
   55GLOH   H06 8947   3.268   1.347   1.573  1.0692 -2.8343 -1.3658
   55GLOH   H07 8948   3.199   1.369   1.406 -0.2707 -0.6443 -0.9524
   55GLOH    O3 8949   3.334   1.514   1.467 -0.2586  0.7495  0.0997
   55GLOH   H01 8950   3.300   1.559   1.547 -0.2936 -3.1866  2.4625
   56GLOH   H03 8951   3.589   1.741   0.597 -0.8239  0.9969 -0.3220
   56GLOH    O1 8952   3.534   1.739   0.677 -0.0479  0.3197  0.1904
   56GLOH    C1 8953   3.553   1.860   0.739 -0.2944  0.1373 -0.7664
   56GLOH   H02 8954   3.459   1.893   0.783  0.8674 -0.6272  2.3901
   56GLOH   H08 8955   3.572   1.930   0.658  1.3739  0.5778 -0.0315
   56GLOH    C2 8956   3.673   1.875   0.833 -0.1180  0.3920 -0.0100
   56GLOH   H04 8957   3.765   1.842   0.782 -0.3357 -1.3992  0.7329
   56GLOH    O2 8958   3.683   2.009   0.877 -0.1904 -0.0777 -0.2934
   56GLOH   H05 8959   3.653   2.068   0.806  0.0662 -1.0903 -1.2540
   56GLOH    C3 8960   3.658   1.769   0.942  0.3083  0.9673  0.7633
   56GLOH   H06 8961   3.753   1.755   0.992  0.1696  1.1230  1.0710
   56GLOH   H07 8962   3.630   1.670   0.903  1.8373  0.4124  1.0608
   56GLOH    O3 8963   3.565   1.805   1.044  0.0545 -0.4133 -0.1777
   56GLOH   H01 8964   3.567   1.719   1.090  0.5997 -1.4303 -2.0691
   57GLOH   H03 8965   3.704   1.884   1.569 -0.2250 -1.0195  0.6502
   57GLOH    O1 8966   3.721   1.911   1.661  0.2178 -1.0431  0.5734
   57GLOH    C1 8967   3.643   2.032   1.680  0.3462  0.3497 -0.4546
   57GLOH   H02 8968   3.539   2.016   1.652 -0.1196  0.3743  1.1952
   57GLOH   H08 8969   3.678   2.119   1.624 -0.4397  0.2880 -1.0472
   57GLOH    C2 8970   3.657   2.065   1.831 -0.2346 -0.1291 -0.0281
   57GLOH   H04 8971   3.765   2.084   1.844 -0.2961 -0.2586  0.6910
   57GLOH    O2 8972   3.591   2.190   1.861  0.7078 -0.0213  0.1889
   57GLOH   H05 8973   3.599   2.252   1.787  0.3281 -0.7792 -0.4942
   57GLOH    C3 8974   3.618   1.951   1.924 -0.2515  0.0859 -0.2329
   57GLOH   H06 8975   3.641   1.855   1.879 -0.9867  0.3832 -1.2574
   57GLOH   H07 8976   3.509   1.951   1.926 -0.2552 -1.9305 -0.1791
   57GLOH    O3 8977   3.669   1.969   2.056 -0.3671 -0.6950 -0.0060
   57GLOH   H01 8978   3.767   1.975   2.056 -0.4903  2.8071  0.3179
   58GLOH   H03 8979   4.741   2.662   1.404  0.2057  0.2055 -2.3420
   58GLOH    O1 8980   4.796   2.582   1.413 -0.6343 -0.1477  0.1893
   58GLOH    C1 8981   4.863   2.555   1.291 -0.1285  0.2300 -0.4411
   58GLOH   H02 8982   4.955   2.505   1.320  0.2451  0.1724 -1.6810
   58GLOH   H08 8983   4.883   2.649   1.239  1.8787  0.1713  0.2052
   58GLOH    C2 8984   4.785   2.461   1.201  0.0424 -0.2205  0.4683
   58GLOH   H04 8985   4.685   2.505   1.186 -0.5504 -1.3375  1.0767
   58GLOH    O2 8986   4.853   2.440   1.075 -0.4551 -0.0700 -0.0884
   58GLOH   H05 8987   4.803   2.378   1.020 -3.5331  1.9795  0.2917
   58GLOH    C3 8988   4.767   2.326   1.272 -0.7639 -0.0397 -0.1543
   58GLOH   H06 8989   4.866   2.282   1.283 -1.3294 -1.4707 -0.7564
   58GLOH   H07 8990   4.710   2.261   1.206  2.3371 -2.1965 -0.7781
   58GLOH    O3 8991   4.706   2.340   1.403 -0.2038  0.1216 -0.4687
   58GLOH   H01 8992   4.731   2.423   1.447 -2.1602 -0.0607  1.0568
   59GLOH   H03 8993   4.443   4.263   2.393 -2.5671 -0.5844 -0.3699
   59GLOH    O1 8994   4.467   4.191   2.332  0.2773  0.5189 -0.6528
   59GLOH    C1 8995   4.493   4.230   2.194  0.3882 -0.4930 -0.7346
   59GLOH   H02 8996   4.456   4.329   2.169 -0.6009 -0.7337 -0.2087
   59GLOH   H08 8997   4.440   4.167   2.123  0.0239  0.3015 -1.1723
   59GLOH    C2 8998   4.645   4.232   2.166 -0.3268 -0.3158  0.3298
   59GLOH   H04 8999   4.701   4.144   2.199  0.5152  0.4291  0.9148
   59GLOH    O2 9000   4.674   4.246   2.024 -0.8802 -0.2710  0.3641
   59GLOH   H05 9001   4.599   4.291   1.982 -1.5547  1.0250  2.8261
   59GLOH    C3 9002   4.701   4.353   2.240  0.5032 -0.1365 -0.1061
   59GLOH   H06 9003   4.810   4.346   2.243  0.6071  1.6337  0.6638
   59GLOH   H07 9004   4.673   4.347   2.345  2.5157  1.1107  0.5266
   59GLOH    O3 9005   4.657   4.477   2.178  0.5671 -0.3136  0.5173
   59GLOH   H01 9006   4.731   4.499   2.119 -1.0424  2.0475 -0.7236
   60GLOH   H03 9007   2.316   1.766   0.592  2.7205  2.7318 -2.6509
   60GLOH    O1 9008   2.272   1.845   0.629 -0.5039 -0.3843  0.4489
   60GLOH    C1 9009   2.364   1.944   0.678  0.8632 -0.1574 -0.1738
   60GLOH   H02 9010   2.462   1.904   0.651  0.1620 -1.0279 -1.4959
   60GLOH   H08 9011   2.350   1.951   0.786 -1.8779  0.0900 -0.5233
   60GLOH    C2 9012   2.341   2.078   0.610  0.2074 -0.2651  0.3714
   60GLOH   H04 9013   2.240   2.105   0.643  0.6561  0.3692  1.2330
   60GLOH    O2 9014   2.433   2.172   0.652 -0.0206 -0.5277  0.0655
   60GLOH   H05 9015   2.412   2.201   0.743  2.4671  0.8604  0.2546
   60GLOH    C3 9016   2.355   2.044   0.462  0.3357 -0.2817 -0.4798
   60GLOH   H06 9017   2.458   2.010   0.449  1.7899  2.9014  1.8259
   60GLOH   H07 9018   2.348   2.136   0.404 -0.3917  1.5309  2.3895
   60GLOH    O3 9019   2.244   1.959   0.410 -0.3337 -0.2442  0.8306
   60GLOH   H01 9020   2.238   1.890   0.480 -0.8673 -1.5703 -0.4921
   61GLOH   H03 9021   3.544   1.882   2.159 -0.6555  1.5017  0.5309
   61GLOH    O1 9022   3.483   1.851   2.229  0.5065  0.0254  0.9099
   61GLOH    C1 9023   3.380   1.948   2.262 -0.2204 -0.3860  0.1633
   61GLOH   H02 9024   3.343   2.000   2.173 -1.0043 -1.5183 -0.1930
   61GLOH   H08 9025   3.419   2.023   2.330  0.5833  0.1819 -0.9142
   61GLOH    C2 9026   3.259   1.879   2.327 -0.6017  0.5734  0.3645
   61GLOH   H04 9027   3.302   1.821   2.410  2.2820 -0.2905 -1.6495
   61GLOH    O2 9028   3.165   1.970   2.387 -0.6021 -0.0116  0.0400
   61GLOH   H05 9029   3.178   1.971   2.483  1.5358 -0.3196 -0.2244
   61GLOH    C3 9030   3.197   1.775   2.226 -0.0863 -0.6920 -0.8626
   61GLOH   H06 9031   3.273   1.698   2.211  1.7761  0.1792  3.2734
   61GLOH   H07 9032   3.168   1.816   2.130 -1.0730  0.5258 -0.0664
   61GLOH    O3 9033   3.079   1.709   2.279  0.5297 -0.8361 -0.0566
   61GLOH   H01 9034   3.111   1.655   2.353  0.0831 -1.4909 -0.3451
   62GLOH   H03 9035   4.332   3.324   1.058  1.0764 -2.2307  2.8395
   62GLOH    O1 9036   4.404   3.285   1.004  0.5386 -0.0175  0.4184
   62GLOH    C1 9037   4.320   3.228   0.897  0.2771  0.3824 -0.8538
   62GLOH   H02 9038   4.382   3.173   0.827 -0.0180  0.8425 -1.4866
   62GLOH   H08 9039   4.269   3.304   0.838  0.0108  0.7650 -0.1325
   62GLOH    C2 9040   4.210   3.140   0.954  0.3477 -0.1794 -0.1890
   62GLOH   H04 9041   4.154   3.198   1.029  0.9461 -3.5966  3.0601
   62GLOH    O2 9042   4.131   3.108   0.841  0.0042  0.0080 -0.3759
   62GLOH   H05 9043   4.094   3.022   0.868  0.5482 -0.2590 -0.4720
   62GLOH    C3 9044   4.274   3.019   1.025  0.1467 -1.1468 -1.0650
   62GLOH   H06 9045   4.195   2.952   1.060 -1.6422  0.8069 -1.2554
   62GLOH   H07 9046   4.337   3.057   1.106  1.6611 -0.0062 -2.7231
   62GLOH    O3 9047   4.348   2.939   0.936 -0.3449  0.2514 -0.2041
   62GLOH   H01 9048   4.440   2.968   0.936 -1.1486  3.1907 -3.6896
   63GLOH   H03 9049   3.754   1.088   0.226  0.6967 -0.3411 -1.5218
   63GLOH    O1 9050   3.714   1.001   0.248 -0.4001  0.4560 -0.2694
   63GLOH    C1 9051   3.808   0.892   0.230  0.2442  0.1693  0.9005
   63GLOH   H02 9052   3.909   0.932   0.222  0.3320 -0.0051  1.1194
   63GLOH   H08 9053   3.784   0.826   0.147  1.8463 -1.2236  1.5289
   63GLOH    C2 9054   3.808   0.800   0.347 -0.0171  0.4144 -0.0713
   63GLOH   H04 9055   3.870   0.709   0.335 -1.0678 -0.6088  1.9851
   63GLOH    O2 9056   3.845   0.875   0.460 -0.4502  0.3165  0.7399
   63GLOH   H05 9057   3.784   0.950   0.460 -0.1537  0.5608  0.4390
   63GLOH    C3 9058   3.671   0.743   0.381  0.2303 -0.4264  0.2843
   63GLOH   H06 9059   3.598   0.825   0.380  0.3452 -0.3286 -0.2617
   63GLOH   H07 9060   3.669   0.706   0.483  0.2953  0.5923  0.6664
   63GLOH    O3 9061   3.634   0.640   0.292  0.3842 -0.1236 -0.3521
   63GLOH   H01 9062   3.607   0.564   0.347 -1.5314  0.9309  0.2188
   64GLOH   H03 9063   4.454   4.393   1.129  0.7921 -0.0525  1.0382
   64GLOH    O1 9064   4.450   4.490   1.128 -0.2884 -0.0959  0.2062
   64GLOH    C1 9065   4.316   4.538   1.146 -0.0923 -0.7987 -0.0539
   64GLOH   H02 9066   4.271   4.476   1.223  0.4445 -1.8008 -0.5364
   64GLOH   H08 9067   4.251   4.514   1.062 -1.7956  1.4575  0.5640
   64GLOH    C2 9068   4.286   4.692   1.162  0.5954  0.7321  0.2760
   64GLOH   H04 9069   4.177   4.705   1.169  0.3984  0.1674 -1.4200
   64GLOH    O2 9070   4.345   4.735   1.286  0.1029  0.1887  0.7423
   64GLOH   H05 9071   4.440   4.720   1.296 -0.1600 -1.3932  1.0327
   64GLOH    C3 9072   4.350   4.767   1.043  0.6979 -0.0452  0.4684
   64GLOH   H06 9073   4.442   4.721   1.007 -0.7258 -1.2017 -1.8878
   64GLOH   H07 9074   4.357   4.871   1.071 -0.6159 -0.0541  0.8593
   64GLOH    O3 9075   4.255   4.757   0.930 -1.0517 -1.3999  0.6091
   64GLOH   H01 9076   4.168   4.792   0.958 -1.2987 -0.4876 -1.2217
   65GLOH   H03 9077   3.991   2.425   1.551  0.6743 -2.2779  2.8079
   65GLOH    O1 9078   4.062   2.388   1.496  0.4341  0.8385  0.3034
   65GLOH    C1 9079   3.996   2.303   1.402  0.6392 -0.9758  0.4618
   65GLOH   H02 9080   4.057   2.286   1.313 -2.5018 -2.3559 -1.5626
   65GLOH   H08 9081   3.901   2.345   1.369  1.2425  1.0536  1.2779
   65GLOH    C2 9082   3.959   2.163   1.461 -0.2341  0.7721 -0.6051
   65GLOH   H04 9083   3.913   2.177   1.560 -1.1178 -0.1328 -0.8765
   65GLOH    O2 9084   3.856   2.091   1.382 -0.2324 -0.6078  0.5903
   65GLOH   H05 9085   3.873   1.996   1.374 -0.8939 -0.8143  1.5503
   65GLOH    C3 9086   4.089   2.081   1.463 -0.3771 -0.1015  0.2794
   65GLOH   H06 9087   4.071   1.988   1.517 -0.7425  0.2417  0.7534
   65GLOH   H07 9088   4.156   2.144   1.521 -1.9368  0.3374  1.6568
   65GLOH    O3 9089   4.136   2.058   1.330  0.1676  0.4989  0.6556
   65GLOH   H01 9090   4.121   1.967   1.298  2.0258  0.9082 -1.5400
   66GLOH   H03 9091   3.110   1.019   1.773 -0.0846  1.8588  2.1462
   66GLOH    O1 9092   3.037   0.964   1.807  0.2344 -0.1416 -0.2452
   66GLOH    C1 9093   3.062   0.957   1.947  0.1347 -0.6636 -0.2719
   66GLOH   H02 9094   2.973   0.919   1.998  0.7211  0.0128  1.2771
   66GLOH   H08 9095   3.091   1.054   1.989 -1.8545  0.5678 -1.6288
   66GLOH    C2 9096   3.183   0.863   1.988  0.4625 -0.2609 -0.4977
   66GLOH   H04 9097   3.260   0.898   1.918 -0.9846 -0.9315 -2.4696
   66GLOH    O2 9098   3.209   0.867   2.133 -0.0657  1.1747  0.1549
   66GLOH   H05 9099   3.252   0.951   2.156  3.8721 -0.4027 -1.0173
   66GLOH    C3 9100   3.132   0.717   1.958  0.3349 -0.9788 -0.4442
   66GLOH   H06 9101   3.044   0.722   2.021 -0.4808  1.8049 -1.7118
   66GLOH   H07 9102   3.201   0.643   1.998 -1.0829 -1.7104  0.6928
   66GLOH    O3 9103   3.098   0.679   1.821  0.8063 -0.2928 -0.0473
   66GLOH   H01 9104   3.002   0.690   1.809  0.6037 -0.3797  1.4351
   67GLOH   H03 9105   4.470   2.229   1.878  1.3104  0.5827  0.6319
   67GLOH    O1 9106   4.483   2.215   1.974 -0.1641 -0.0969  0.7353
   67GLOH    C1 9107   4.389   2.131   2.042 -0.4872  0.4307 -0.2134
   67GLOH   H02 9108   4.421   2.027   2.041  2.6019  1.3184  1.0465
   67GLOH   H08 9109   4.291   2.138   1.993 -0.0800  2.1023 -0.8152
   67GLOH    C2 9110   4.375   2.159   2.191  0.0105  0.2460  0.4501
   67GLOH   H04 9111   4.321   2.254   2.202  3.9623  2.4199  1.7890
   67GLOH    O2 9112   4.283   2.071   2.263 -0.2463  0.1980  0.5578
   67GLOH   H05 9113   4.280   1.985   2.217  0.0236  0.9671 -0.9088
   67GLOH    C3 9114   4.512   2.165   2.266 -0.0522 -0.1416 -0.1266
   67GLOH   H06 9115   4.548   2.062   2.272  0.6496  0.0925 -0.2594
   67GLOH   H07 9116   4.495   2.200   2.367 -3.4474 -0.9400 -0.3353
   67GLOH    O3 9117   4.590   2.248   2.187 -0.3295  0.3729 -0.3355
   67GLOH   H01 9118   4.566   2.243   2.093 -0.9390  1.6526 -0.2522
   68GLOH   H03 9119   3.209   3.399   1.483  2.7374  0.0315  0.3016
   68GLOH    O1 9120   3.234   3.377   1.391  0.4254  0.7874 -0.5210
   68GLOH    C1 9121   3.287   3.490   1.323 -0.7586 -1.1529  0.0412
   68GLOH   H02 9122   3.390   3.468   1.295 -0.8035 -0.7008 -0.4766
   68GLOH   H08 9123   3.286   3.570   1.398 -1.2938 -0.7600 -0.3820
   68GLOH    C2 9124   3.208   3.534   1.201  0.0180 -0.5440  0.9892
   68GLOH   H04 9125   3.115   3.589   1.222  0.0311 -0.4488  0.8048
   68GLOH    O2 9126   3.286   3.638   1.137  0.6820  0.4192  0.0393
   68GLOH   H05 9127   3.219   3.690   1.089  2.1308  2.1211 -0.1956
   68GLOH    C3 9128   3.187   3.412   1.107  0.1700 -0.0986  0.4693
   68GLOH   H06 9129   3.290   3.381   1.087 -0.6615 -1.9963 -1.0166
   68GLOH   H07 9130   3.152   3.454   1.013  1.8682  0.4448  0.0471
   68GLOH    O3 9131   3.108   3.304   1.160  0.0930  0.0218  0.0818
   68GLOH   H01 9132   3.130   3.302   1.255 -0.8197  0.2075  0.2991
   69GLOH   H03 9133   3.440   4.438   1.468  0.1311 -0.6414  1.7757
   69GLOH    O1 9134   3.344   4.419   1.473 -0.1082  0.0495  0.2821
   69GLOH    C1 9135   3.328   4.347   1.602  0.3158 -0.0533  0.5376
   69GLOH   H02 9136   3.222   4.320   1.612  0.9184 -2.6293  0.2488
   69GLOH   H08 9137   3.351   4.419   1.681  0.2003  0.9629 -0.3489
   69GLOH    C2 9138   3.413   4.222   1.622  0.4702  0.5977  0.3665
   69GLOH   H04 9139   3.515   4.260   1.638  0.2147  1.2360  0.4995
   69GLOH    O2 9140   3.384   4.148   1.744  0.0781  0.1691 -0.5293
   69GLOH   H05 9141   3.454   4.082   1.759 -2.6678 -2.4437  1.4997
   69GLOH    C3 9142   3.417   4.129   1.493  0.3696 -0.2064  0.1911
   69GLOH   H06 9143   3.480   4.042   1.511  0.4071 -0.2516 -0.1752
   69GLOH   H07 9144   3.472   4.180   1.414 -0.8593 -2.5126 -2.2011
   69GLOH    O3 9145   3.289   4.088   1.450 -0.1008  0.2754 -0.2439
   69GLOH   H01 9146   3.298   4.005   1.400 -0.1236  1.5363 -2.4033
   70GLOH   H03 9147   3.165  10.315   0.305 -0.6220  0.4248 -1.2185
   70GLOH    O1 9148   3.207  10.386   0.253  0.4750  0.9910  0.3800
   70GLOH    C1 9149   3.348  10.386   0.279 -0.0580 -0.1513 -0.3722
   70GLOH   H02 9150   3.402  10.444   0.204 -0.5453  0.3153 -0.3694
   70GLOH   H08 9151   3.378  10.282   0.266  1.2077  0.1821 -0.1320
   70GLOH    C2 9152   3.396  10.434   0.416 -0.0588 -0.2012  0.2232
   70GLOH   H04 9153   3.345  10.372   0.492  2.1878 -2.5865 -0.1651
   70GLOH    O2 9154   3.541  10.416   0.427 -0.1783 -0.2930 -0.4889
   70GLOH   H05 9155   3.565  10.349   0.493 -0.5529 -2.2075 -2.2130
   70GLOH    C3 9156   3.359  10.584   0.439 -0.4578  0.4991  0.1248
   70GLOH   H06 9157   3.251  10.598   0.434 -0.6303 -0.6634  0.2423
   70GLOH   H07 9158   3.402  10.646   0.360  0.3950 -0.2432 -0.0080
   70GLOH    O3 9159   3.393  10.633   0.566 -0.4631  0.3074  0.0438
   70GLOH   H01 9160   3.485  10.614   0.594 -1.2737  1.2901  3.6422
   71GLOH   H03 9161   4.292   2.766   0.932 -0.1868 -0.8482  1.3399
   71GLOH    O1 9162   4.271   2.673   0.910 -0.6665 -0.4133 -0.1025
   71GLOH    C1 9163   4.249   2.603   1.025  0.6072  0.0193  0.1126
   71GLOH   H02 9164   4.324   2.620   1.102 -1.5212  2.7569  1.6957
   71GLOH   H08 9165   4.247   2.495   1.012  1.5899 -0.1388  1.1881
   71GLOH    C2 9166   4.112   2.647   1.082 -0.4360  0.4520 -0.2255
   71GLOH   H04 9167   4.128   2.756   1.082  2.2867  0.1118  2.0408
   71GLOH    O2 9168   4.000   2.609   1.002 -0.1679 -0.4198 -0.1645
   71GLOH   H05 9169   3.989   2.513   1.009  2.2586 -0.6845  0.5840
   71GLOH    C3 9170   4.093   2.615   1.233 -0.1328 -0.1215 -0.6543
   71GLOH   H06 9171   4.081   2.509   1.253  0.5885 -0.2256 -0.7533
   71GLOH   H07 9172   3.999   2.656   1.271 -0.5631 -2.5533  1.0117
   71GLOH    O3 9173   4.194   2.680   1.315 -0.3075  0.3697  0.1983
   71GLOH   H01 9174   4.278   2.632   1.309 -1.1204 -0.8722 -1.9457
   72GLOH   H03 9175   3.261   1.357   2.208  0.5006 -0.0580  0.9363
   72GLOH    O1 9176   3.259   1.330   2.115  0.0243  0.0410  0.9154
   72GLOH    C1 9177   3.187   1.429   2.049  0.7768  0.0315 -0.3786
   72GLOH   H02 9178   3.220   1.531   2.070 -1.3096  0.9223 -1.3734
   72GLOH   H08 9179   3.086   1.439   2.087  1.5905 -0.2420  1.9519
   72GLOH    C2 9180   3.178   1.413   1.895 -0.5151 -1.2581  0.3788
   72GLOH   H04 9181   3.279   1.406   1.854 -0.9025 -0.5437 -0.6991
   72GLOH    O2 9182   3.107   1.296   1.854 -0.7777  0.4298 -0.5165
   72GLOH   H05 9183   3.059   1.307   1.771 -0.8444 -0.5917 -0.6099
   72GLOH    C3 9184   3.118   1.542   1.839  0.1556  0.1634 -0.8093
   72GLOH   H06 9185   3.156   1.631   1.888 -2.1382  0.6198  0.1796
   72GLOH   H07 9186   3.011   1.540   1.860  0.0383  2.6177 -0.9759
   72GLOH    O3 9187   3.134   1.549   1.695 -0.5093 -0.4538  0.2937
   72GLOH   H01 9188   3.183   1.631   1.677 -2.9231  1.1624  0.9967
   73GLOH   H03 9189   3.272   0.989   0.250  1.2772  1.5223  1.2291
   73GLOH    O1 9190   3.348   0.988   0.190  0.4282  0.1518  0.1314
   73GLOH    C1 9191   3.320   0.886   0.096 -0.1330 -0.9353 -0.5056
   73GLOH   H02 9192   3.218   0.901   0.060  0.4056  5.8179  0.1407
   73GLOH   H08 9193   3.333   0.781   0.123  3.0145  0.2911  3.2643
   73GLOH    C2 9194   3.405   0.908  -0.030 -0.6677  0.0476 -0.4322
   73GLOH   H04 9195   3.391   1.009  -0.071  0.0473 -0.2574 -1.4538
   73GLOH    O2 9196   3.545   0.881   0.011  0.8948  0.8212 -0.1725
   73GLOH   H05 9197   3.575   0.943   0.080  1.8961 -0.7276  0.7864
   73GLOH    C3 9198   3.366   0.820  -0.151  0.1154  0.1480 -0.2569
   73GLOH   H06 9199   3.366   0.715  -0.120  1.7673  1.1144  3.2704
   73GLOH   H07 9200   3.452   0.820  -0.218 -0.0817  0.3533 -0.5075
   73GLOH    O3 9201   3.238   0.860  -0.208  0.0366 -0.1568 -0.2076
   73GLOH   H01 9202   3.240   0.953  -0.238 -1.9630  0.1132  0.4463
   74GLOH   H03 9203   3.260   3.365   0.701 -0.4977  0.3639 -0.3136
   74GLOH    O1 9204   3.323   3.424   0.656  0.3598 -0.0133  0.3757
   74GLOH    C1 9205   3.255   3.480   0.541 -0.0589  0.4915 -0.2367
   74GLOH   H02 9206   3.165   3.422   0.521  1.2822 -1.3385 -1.0226
   74GLOH   H08 9207   3.315   3.469   0.451 -2.4077  0.3674 -1.8415
   74GLOH    C2 9208   3.223   3.626   0.560  0.3530  0.1517  0.1162
   74GLOH   H04 9209   3.198   3.647   0.665  0.3457 -2.2147  0.6134
   74GLOH    O2 9210   3.334   3.704   0.515  0.1573  0.2318 -0.3344
   74GLOH   H05 9211   3.369   3.678   0.428  1.9357  0.6097  0.2430
   74GLOH    C3 9212   3.104   3.665   0.468 -0.2993  0.0911  0.1852
   74GLOH   H06 9213   3.117   3.594   0.386  0.5919 -1.2539  1.4731
   74GLOH   H07 9214   3.097   3.766   0.428  0.5033  0.3884  0.7904
   74GLOH    O3 9215   2.984   3.633   0.537  0.1076 -0.3273 -0.0726
   74GLOH   H01 9216   2.912   3.682   0.493  0.3627  2.5084  2.4897
   75GLOH   H03 9217   2.907   2.266   0.927  2.4000  2.3115  1.6266
   75GLOH    O1 9218   2.945   2.185   0.966 -0.4787  0.0004 -0.1428
   75GLOH    C1 9219   3.068   2.148   0.895  1.2947  0.6329 -0.2109
   75GLOH   H02 9220   3.142   2.228   0.886  0.5995  1.3626  0.4238
   75GLOH   H08 9221   3.049   2.119   0.792  1.5470 -1.7656  0.3998
   75GLOH    C2 9222   3.121   2.022   0.969 -0.0702 -0.8245  0.1695
   75GLOH   H04 9223   3.043   1.945   0.959 -1.0106  0.2437 -0.6798
   75GLOH    O2 9224   3.247   1.972   0.915 -0.3127  0.1559  0.2019
   75GLOH   H05 9225   3.273   1.889   0.959 -0.9260  0.9532  2.1145
   75GLOH    C3 9226   3.143   2.050   1.119  0.0300  0.0816  0.0626
   75GLOH   H06 9227   3.062   2.103   1.168 -0.5487 -0.5964 -0.1432
   75GLOH   H07 9228   3.232   2.112   1.132  0.4733 -0.3451 -0.8787
   75GLOH    O3 9229   3.159   1.929   1.188 -0.0516  0.5095 -0.2806
   75GLOH   H01 9230   3.214   1.886   1.120  0.2362  0.3679  0.0444
   76GLOH   H03 9231   4.496   5.210   0.567 -0.9278  1.2643  1.1070
   76GLOH    O1 9232   4.538   5.180   0.650  0.0767  0.0672  0.1959
   76GLOH    C1 9233   4.433   5.188   0.751  0.5614  0.8418 -0.4396
   76GLOH   H02 9234   4.426   5.293   0.781  1.3318  0.4969  1.0186
   76GLOH   H08 9235   4.462   5.137   0.843 -0.5624  2.1519  0.6638
   76GLOH    C2 9236   4.298   5.142   0.703  0.6050  0.8366 -0.3130
   76GLOH   H04 9237   4.298   5.041   0.660  0.2167  0.5574  0.3394
   76GLOH    O2 9238   4.198   5.142   0.815 -0.3833 -0.3148  0.0468
   76GLOH   H05 9239   4.213   5.208   0.884 -2.5629  1.7751 -1.4073
   76GLOH    C3 9240   4.238   5.224   0.588 -0.5681 -0.0079 -0.1543
   76GLOH   H06 9241   4.213   5.328   0.611  0.2895 -0.3985  2.6740
   76GLOH   H07 9242   4.141   5.181   0.564  0.6397 -2.6017 -0.5343
   76GLOH    O3 9243   4.319   5.218   0.469 -0.1020 -0.1149 -0.1013
   76GLOH   H01 9244   4.304   5.132   0.424  0.3148 -0.3603  0.2282
   77GLOH   H03 9245   3.530   9.448   1.706 -0.6071  0.1798  1.0166
   77GLOH    O1 9246   3.538   9.518   1.640 -0.4059 -0.3927  0.4284
   77GLOH    C1 9247   3.465   9.477   1.518 -0.6102 -0.4464  0.1103
   77GLOH   H02 9248   3.381   9.411   1.538 -1.4766  0.8252  0.7296
   77GLOH   H08 9249   3.530   9.421   1.451  0.3079  1.1656 -0.3725
   77GLOH    C2 9250   3.429   9.603   1.435 -0.5674  0.1902  0.7524
   77GLOH   H04 9251   3.522   9.662   1.430  0.5707 -1.7071 -2.2883
   77GLOH    O2 9252   3.382   9.573   1.300 -0.0116 -1.0183  0.2118
   77GLOH   H05 9253   3.455   9.555   1.239 -1.1435 -0.8715 -1.2249
   77GLOH    C3 9254   3.317   9.696   1.490  0.7774 -0.3558  0.7630
   77GLOH   H06 9255   3.224   9.638   1.493  0.6986 -0.4170 -1.7897
   77GLOH   H07 9256   3.293   9.781   1.427  3.8840  0.7152  0.9433
   77GLOH    O3 9257   3.346   9.744   1.631  0.1252 -0.5683 -0.2071
   77GLOH   H01 9258   3.401   9.683   1.683  1.8325  0.8112 -0.3548
   78GLOH   H03 9259   3.517   1.313   2.306  0.0462  0.4927  0.0038
   78GLOH    O1 9260   3.561   1.301   2.220 -0.3925 -0.3764 -0.1078
   78GLOH    C1 9261   3.575   1.160   2.189  0.4767  0.1692 -0.2195
   78GLOH   H02 9262   3.587   1.102   2.280  0.9035  1.3343  0.4890
   78GLOH   H08 9263   3.669   1.148   2.136 -0.7714 -0.2207 -2.4109
   78GLOH    C2 9264   3.466   1.096   2.093 -0.4465  0.1341  0.2320
   78GLOH   H04 9265   3.490   0.990   2.076  0.3270  0.4408 -0.6606
   78GLOH    O2 9266   3.339   1.109   2.153  0.4137  0.2855  0.5318
   78GLOH   H05 9267   3.307   1.199   2.133 -1.9881 -0.7407 -0.3797
   78GLOH    C3 9268   3.471   1.164   1.949 -0.1714 -0.1665 -0.0774
   78GLOH   H06 9269   3.410   1.254   1.953  1.2164  0.7808  0.2727
   78GLOH   H07 9270   3.411   1.098   1.887 -0.4809  0.7165 -0.7140
   78GLOH    O3 9271   3.603   1.190   1.895 -0.1557  0.0999  0.3529
   78GLOH   H01 9272   3.594   1.250   1.819  2.5028 -1.7702 -1.5377
   79GLOH   H03 9273   3.447   1.099   0.135 -2.2309 -0.2142  2.4817
   79GLOH    O1 9274   3.485   1.187   0.156 -0.4747 -0.2630 -0.2669
   79GLOH    C1 9275   3.397   1.289   0.125 -0.1353  0.3636  0.2129
   79GLOH   H02 9276   3.425   1.383   0.173 -0.3149  0.1869  0.6662
   79GLOH   H08 9277   3.304   1.261   0.174 -0.6764 -0.6051 -1.3336
   79GLOH    C2 9278   3.360   1.297  -0.025  1.0036  0.9482 -0.3851
   79GLOH   H04 9279   3.286   1.218  -0.045  1.9102  0.2683 -1.0625
   79GLOH    O2 9280   3.296   1.422  -0.055 -0.0891 -0.2632 -0.2244
   79GLOH   H05 9281   3.214   1.427  -0.003  0.9309  0.2499  1.3930
   79GLOH    C3 9282   3.486   1.273  -0.113 -0.4161  0.0077 -0.1156
   79GLOH   H06 9283   3.535   1.179  -0.090 -1.2773 -0.4610 -0.1653
   79GLOH   H07 9284   3.549   1.359  -0.089  0.6772 -0.5279 -1.0686
   79GLOH    O3 9285   3.446   1.274  -0.254  0.2915 -0.1564  0.2422
   79GLOH   H01 9286   3.372   1.336  -0.266  2.2961  1.8077 -2.6542
   80GLOH   H03 9287   3.656  10.624   1.814 -0.0099 -2.0169  1.1049
   80GLOH    O1 9288   3.754  10.623   1.820  0.1185 -0.4540 -0.2623
   80GLOH    C1 9289   3.802  10.756   1.786  0.3341  0.2710  0.3827
   80GLOH   H02 9290   3.792  10.773   1.678  2.8770  0.9200  0.2109
   80GLOH   H08 9291   3.905  10.775   1.815 -0.3087  1.7495  1.7930
   80GLOH    C2 9292   3.720  10.866   1.860  0.4047 -0.4701  0.3790
   80GLOH   H04 9293   3.726  10.844   1.968  1.4984  0.5637  0.5390
   80GLOH    O2 9294   3.768  10.998   1.841 -0.9177 -0.4518  0.0058
   80GLOH   H05 9295   3.705  11.060   1.882  1.3094 -0.1693  3.1863
   80GLOH    C3 9296   3.575  10.846   1.798  0.4338 -0.1455 -0.0808
   80GLOH   H06 9297   3.579  10.870   1.691 -1.0864 -0.9100 -0.3198
   80GLOH   H07 9298   3.506  10.918   1.841  1.8105  1.5640 -0.6530
   80GLOH    O3 9299   3.517  10.717   1.821  0.1082 -0.5091  0.3676
   80GLOH   H01 9300   3.441  10.712   1.760  1.1747 -0.2230 -0.9938
   81GLOH   H03 9301   5.204   4.004   1.429  0.2263  0.5045  0.2326
   81GLOH    O1 9302   5.160   3.992   1.516 -0.4508  0.5001 -0.1118
   81GLOH    C1 9303   5.200   4.100   1.606 -0.4975 -0.2824  0.3576
   81GLOH   H02 9304   5.295   4.144   1.573 -0.0281 -1.7514 -0.2780
   81GLOH   H08 9305   5.228   4.062   1.704  2.2541 -0.1419 -0.3169
   81GLOH    C2 9306   5.084   4.200   1.617  0.1073  0.2638  0.5043
   81GLOH   H04 9307   4.985   4.156   1.636 -1.2567  2.9999 -0.0381
   81GLOH    O2 9308   5.102   4.287   1.723  0.6107  0.6457  0.2478
   81GLOH   H05 9309   5.022   4.340   1.736 -0.0243 -0.7618  2.4504
   81GLOH    C3 9310   5.077   4.269   1.479 -0.3247 -0.3530  0.3684
   81GLOH   H06 9311   5.064   4.189   1.406  0.7167 -0.2751  0.1027
   81GLOH   H07 9312   5.171   4.315   1.449  0.2102 -0.8683  1.2226
   81GLOH    O3 9313   4.972   4.367   1.471 -0.3320 -0.2832 -0.2344
   81GLOH   H01 9314   4.915   4.368   1.550 -0.4187  0.5987 -0.3056
   82GLOH   H03 9315   2.923   1.311   2.503  1.1739  1.2759 -1.5958
   82GLOH    O1 9316   2.866   1.386   2.526  0.1416  0.1658 -0.4564
   82GLOH    C1 9317   2.729   1.360   2.501  0.3134 -0.6140  0.3133
   82GLOH   H02 9318   2.667   1.331   2.586 -0.9788 -4.0810 -1.6715
   82GLOH   H08 9319   2.716   1.277   2.432  2.2774 -0.5952 -0.1136
   82GLOH    C2 9320   2.672   1.488   2.438  0.1200 -0.2234  1.3035
   82GLOH   H04 9321   2.750   1.528   2.370 -0.2760  0.9635  1.5363
   82GLOH    O2 9322   2.550   1.472   2.365 -0.8025 -0.3773 -0.0109
   82GLOH   H05 9323   2.576   1.419   2.288  0.0743 -1.4077  0.9992
   82GLOH    C3 9324   2.645   1.589   2.549  0.4912 -0.5641  0.3687
   82GLOH   H06 9325   2.573   1.541   2.615 -1.2130  0.8328 -0.4172
   82GLOH   H07 9326   2.584   1.671   2.509  0.6792  0.0286  1.2744
   82GLOH    O3 9327   2.763   1.640   2.614 -0.1839  0.0412  0.2106
   82GLOH   H01 9328   2.808   1.704   2.556  0.5359  1.8614  2.6531
   83GLOH   H03 9329   4.327   2.668   1.526  0.1452  0.8504  2.6719
   83GLOH    O1 9330   4.394   2.732   1.498  0.7613 -0.9483 -0.2105
   83GLOH    C1 9331   4.371   2.854   1.564 -0.1812  0.0545  0.2861
   83GLOH   H02 9332   4.420   2.848   1.661  3.4367 -2.3908 -1.5731
   83GLOH   H08 9333   4.265   2.866   1.588  0.3136  0.4991  2.3112
   83GLOH    C2 9334   4.401   2.987   1.492 -0.8577 -0.3226 -0.1562
   83GLOH   H04 9335   4.346   3.066   1.545 -0.7677  0.0258 -0.5803
   83GLOH    O2 9336   4.541   3.010   1.470 -0.4781 -0.3164  0.0145
   83GLOH   H05 9337   4.588   2.932   1.438 -0.5662  0.3564 -1.8272
   83GLOH    C3 9338   4.335   2.984   1.348  0.0471  0.3441  0.3424
   83GLOH   H06 9339   4.386   2.912   1.284 -0.9802 -0.9258  0.9434
   83GLOH   H07 9340   4.351   3.082   1.303 -1.9369  0.2644 -0.5488
   83GLOH    O3 9341   4.193   2.960   1.345 -0.0151  0.3273  0.5173
   83GLOH   H01 9342   4.180   2.865   1.360 -0.3415  0.4543  1.0474
   84GLOH   H03 9343   3.671   2.524   2.056 -0.4070 -0.6078 -0.9515
   84GLOH    O1 9344   3.743   2.461   2.077 -0.6207 -0.4567  0.2863
   84GLOH    C1 9345   3.835   2.452   1.969 -0.4238 -0.5366  0.6547
   84GLOH   H02 9346   3.891   2.544   1.953 -1.0109 -0.1952  0.5416
   84GLOH   H08 9347   3.784   2.425   1.876  2.2196 -1.6632 -0.5094
   84GLOH    C2 9348   3.937   2.337   1.977  0.8355  0.3122  0.3831
   84GLOH   H04 9349   3.885   2.242   1.996 -1.7380  1.7043  0.6087
   84GLOH    O2 9350   4.016   2.334   1.855 -0.1029 -0.3383 -0.3422
   84GLOH   H05 9351   4.032   2.242   1.829  3.0690  0.6194 -2.0384
   84GLOH    C3 9352   4.022   2.353   2.103 -0.4270 -0.4788 -0.3834
   84GLOH   H06 9353   4.082   2.444   2.092  0.1757 -1.0846 -2.4348
   84GLOH   H07 9354   4.080   2.261   2.117 -3.2138 -1.9222  2.2399
   84GLOH    O3 9355   3.930   2.366   2.212 -0.1910  0.7479  0.5219
   84GLOH   H01 9356   3.852   2.418   2.185 -0.6381 -0.0128  0.3081
   85GLOH   H03 9357   4.537   3.158   0.279 -0.2335 -0.8191 -1.3976
   85GLOH    O1 9358   4.447   3.197   0.281  0.3169  0.4669  0.5206
   85GLOH    C1 9359   4.401   3.208   0.420 -0.1900  0.3530 -0.4162
   85GLOH   H02 9360   4.486   3.241   0.480  0.4795 -0.7686 -0.7290
   85GLOH   H08 9361   4.369   3.108   0.450  2.1593 -1.2185 -2.8455
   85GLOH    C2 9362   4.271   3.295   0.443 -0.0212  0.1854  0.0236
   85GLOH   H04 9363   4.280   3.392   0.393  2.4162 -0.6187 -1.1956
   85GLOH    O2 9364   4.151   3.227   0.398 -0.1647 -0.4267 -0.2537
   85GLOH   H05 9365   4.163   3.176   0.316  3.0313  1.5007 -1.0832
   85GLOH    C3 9366   4.259   3.329   0.593  0.4215  0.7625  0.2754
   85GLOH   H06 9367   4.306   3.244   0.643 -0.9685  0.5328  1.2195
   85GLOH   H07 9368   4.153   3.336   0.618 -0.3598 -1.9069 -2.0380
   85GLOH    O3 9369   4.338   3.443   0.620 -1.0008  0.0945  0.0539
   85GLOH   H01 9370   4.278   3.521   0.626  0.4410  1.2202  0.0333
   86GLOH   H03 9371   4.508   4.297   0.082  1.7331  2.5998 -0.6457
   86GLOH    O1 9372   4.579   4.244   0.041  0.3757  0.2987 -0.0770
   86GLOH    C1 9373   4.670   4.201   0.142 -0.2253 -0.8740 -0.1224
   86GLOH   H02 9374   4.670   4.264   0.232  1.5161  0.2595 -0.8871
   86GLOH   H08 9375   4.769   4.219   0.100 -1.0498 -1.1823 -2.2348
   86GLOH    C2 9376   4.659   4.057   0.190 -0.2463 -0.7211  0.0296
   86GLOH   H04 9377   4.694   4.004   0.101 -0.9373  1.2040 -1.4409
   86GLOH    O2 9378   4.750   4.032   0.299  0.1243  0.0565  0.7102
   86GLOH   H05 9379   4.712   4.073   0.379  0.4875  0.1963  0.8104
   86GLOH    C3 9380   4.510   4.017   0.211 -0.1290 -0.2840 -0.2738
   86GLOH   H06 9381   4.502   3.911   0.235 -2.0123  0.5138  2.9889
   86GLOH   H07 9382   4.454   4.032   0.119 -0.6298 -1.3010 -0.1385
   86GLOH    O3 9383   4.435   4.081   0.314 -0.0115  0.2119  0.5533
   86GLOH   H01 9384   4.503   4.124   0.370  1.0400  1.2889 -1.4943
   87GLOH   H03 9385   4.007   2.042   0.588 -1.1466  0.3197 -1.7045
   87GLOH    O1 9386   4.033   1.978   0.519  0.1771 -0.0700 -0.8581
   87GLOH    C1 9387   3.951   2.003   0.404 -0.0895 -0.1837  0.4598
   87GLOH   H02 9388   4.002   1.963   0.316 -0.4190 -1.5159  0.8627
   87GLOH   H08 9389   3.939   2.111   0.394 -3.0292 -0.6334 -1.5571
   87GLOH    C2 9390   3.812   1.933   0.403 -0.0049  0.3475  0.1795
   87GLOH   H04 9391   3.735   1.988   0.461 -0.2127  0.9488 -0.6521
   87GLOH    O2 9392   3.759   1.947   0.267 -0.5179 -0.5356 -0.0904
   87GLOH   H05 9393   3.805   2.016   0.217  0.2373 -0.0181  1.2670
   87GLOH    C3 9394   3.813   1.793   0.467 -0.3410  0.4977  0.0761
   87GLOH   H06 9395   3.856   1.813   0.565  1.7723 -0.3840 -0.6308
   87GLOH   H07 9396   3.878   1.724   0.413 -2.2882 -0.6617 -0.8410
   87GLOH    O3 9397   3.678   1.738   0.478 -0.3851  0.1679 -0.4078
   87GLOH   H01 9398   3.639   1.685   0.406  0.6646 -1.1754 -0.0021
   88GLOH   H03 9399   3.231   4.186   2.187 -0.0282  1.0539  0.1307
   88GLOH    O1 9400   3.315   4.223   2.154  0.1655  0.2149 -0.3244
   88GLOH    C1 9401   3.411   4.130   2.101 -0.1197  1.2301  0.1006
   88GLOH   H02 9402   3.492   4.193   2.063 -0.6638  1.8177 -0.0978
   88GLOH   H08 9403   3.371   4.080   2.012  0.3122 -1.1123  1.1931
   88GLOH    C2 9404   3.455   4.007   2.182 -0.2904 -0.0836  0.1310
   88GLOH   H04 9405   3.495   4.043   2.278  0.5496 -1.3988  0.2863
   88GLOH    O2 9406   3.338   3.930   2.203 -0.1164 -0.2651  0.1819
   88GLOH   H05 9407   3.260   3.986   2.219  0.7406  0.8265  0.5508
   88GLOH    C3 9408   3.571   3.938   2.114 -0.2094 -0.1621  0.0347
   88GLOH   H06 9409   3.541   3.902   2.016  1.5747  0.5145 -0.7878
   88GLOH   H07 9410   3.595   3.855   2.181 -0.8540  1.0108  1.7584
   88GLOH    O3 9411   3.680   4.029   2.106  0.0733 -0.8207  0.6076
   88GLOH   H01 9412   3.701   4.073   2.191 -0.6068 -1.6381  1.2021
   89GLOH   H03 9413   2.767   2.184   1.193 -1.8121 -0.5451  0.8556
   89GLOH    O1 9414   2.753   2.279   1.209  0.3809 -0.0347 -0.0856
   89GLOH    C1 9415   2.829   2.324   1.329 -0.1403  0.0606 -0.2283
   89GLOH   H02 9416   2.914   2.390   1.310 -1.8698  2.1198 -0.9886
   89GLOH   H08 9417   2.864   2.240   1.389  0.5162  0.7641  0.3769
   89GLOH    C2 9418   2.744   2.407   1.423 -0.4557  1.0182  0.1158
   89GLOH   H04 9419   2.651   2.350   1.439  0.7375 -0.6227  1.3533
   89GLOH    O2 9420   2.814   2.425   1.548  0.5288  0.4177  0.3329
   89GLOH   H05 9421   2.755   2.474   1.607 -0.3813 -1.2196  0.8264
   89GLOH    C3 9422   2.694   2.535   1.353 -0.1307 -0.2325  0.8493
   89GLOH   H06 9423   2.649   2.497   1.262  0.1609 -0.4064  0.7759
   89GLOH   H07 9424   2.781   2.595   1.326  0.5063 -2.0772 -1.3315
   89GLOH    O3 9425   2.603   2.604   1.431 -0.4308 -0.0825  0.6825
   89GLOH   H01 9426   2.647   2.683   1.469  0.4559  0.1075 -0.6911
   90GLOH   H03 9427   3.373   1.721   0.602  0.4976  1.6248  2.1215
   90GLOH    O1 9428   3.287   1.751   0.568  0.3270 -0.3470  0.7358
   90GLOH    C1 9429   3.263   1.727   0.429  0.1585  0.0226  0.4112
   90GLOH   H02 9430   3.311   1.802   0.367 -0.0127 -2.1575 -2.5145
   90GLOH   H08 9431   3.156   1.747   0.424  0.1309  0.8156  3.2177
   90GLOH    C2 9432   3.276   1.578   0.388 -0.6406  0.3418  0.6544
   90GLOH   H04 9433   3.214   1.516   0.454 -3.3513 -0.4907 -2.5511
   90GLOH    O2 9434   3.246   1.546   0.254  0.0623  0.1916  0.1570
   90GLOH   H05 9435   3.322   1.580   0.203  2.0132  0.5532  3.1693
   90GLOH    C3 9436   3.411   1.516   0.429 -0.7882 -0.0089 -0.3615
   90GLOH   H06 9437   3.400   1.410   0.407 -3.7133  0.1351  0.1800
   90GLOH   H07 9438   3.427   1.527   0.537 -2.4301 -1.2694  0.0393
   90GLOH    O3 9439   3.520   1.586   0.362  0.6694  0.0054  0.3034
   90GLOH   H01 9440   3.485   1.606   0.273  1.4047 -1.0272 -0.2337
   91GLOH   H03 9441   3.667   3.367   1.385 -1.1707  1.0658 -2.0472
   91GLOH    O1 9442   3.628   3.290   1.339  0.1063 -0.4870 -0.5541
   91GLOH    C1 9443   3.734   3.251   1.251 -1.0987 -0.5114 -0.3249
   91GLOH   H02 9444   3.729   3.144   1.230  0.3270 -0.3068 -1.8293
   91GLOH   H08 9445   3.829   3.250   1.305 -0.6610 -0.9396 -1.0813
   91GLOH    C2 9446   3.747   3.333   1.123 -0.5171  0.4785 -0.2996
   91GLOH   H04 9447   3.646   3.331   1.079 -0.2813  0.9254 -0.8726
   91GLOH    O2 9448   3.775   3.470   1.149 -0.1201 -0.4536 -0.0099
   91GLOH   H05 9449   3.693   3.519   1.129  0.8360  0.9583 -0.4855
   91GLOH    C3 9450   3.850   3.263   1.033 -0.6084  0.0938 -0.6626
   91GLOH   H06 9451   3.938   3.288   1.091 -2.0748  2.1276  0.7456
   91GLOH   H07 9452   3.853   3.315   0.937  1.2366 -1.0890 -1.2869
   91GLOH    O3 9453   3.846   3.121   1.014 -0.3069  0.1210  0.0549
   91GLOH   H01 9454   3.887   3.074   1.090 -2.4580  0.6893  1.6105
   92GLOH   H03 9455   4.094   4.142   1.918  0.1778 -0.0213  0.1970
   92GLOH    O1 9456   4.054   4.123   2.005 -0.2649  0.2536  0.0551
   92GLOH    C1 9457   3.987   4.244   2.048 -0.0498  0.2330  0.7806
   92GLOH   H02 9458   3.943   4.227   2.146 -0.4300 -1.1215  0.3882
   92GLOH   H08 9459   3.896   4.263   1.991 -1.1420  0.3360  2.5287
   92GLOH    C2 9460   4.080   4.363   2.043  1.0278 -0.7491 -0.6991
   92GLOH   H04 9461   4.010   4.448   2.041  0.7307 -0.9774  0.0526
   92GLOH    O2 9462   4.159   4.374   2.157  0.1140  0.1378 -0.0534
   92GLOH   H05 9463   4.223   4.445   2.141  0.7019 -0.3171  0.2693
   92GLOH    C3 9464   4.161   4.357   1.911 -0.1362  0.2984 -0.1226
   92GLOH   H06 9465   4.232   4.274   1.906  1.5204  1.6259  0.4853
   92GLOH   H07 9466   4.225   4.446   1.910  0.9904 -0.4874  0.4910
   92GLOH    O3 9467   4.072   4.367   1.798 -0.1819  0.3573  0.2876
   92GLOH   H01 9468   4.046   4.457   1.771 -0.9001 -0.1734 -0.8453
   93GLOH   H03 9469   2.728   1.452   0.566  1.1318  0.8632 -1.7009
   93GLOH    O1 9470   2.658   1.403   0.518 -0.1181  0.8422  0.0812
   93GLOH    C1 9471   2.598   1.497   0.423  0.2432 -0.0403 -0.2839
   93GLOH   H02 9472   2.539   1.440   0.351  2.0591 -2.2266 -0.1065
   93GLOH   H08 9473   2.671   1.550   0.361  0.5177  0.0887  0.1507
   93GLOH    C2 9474   2.504   1.601   0.491  0.1734 -0.3723  0.2621
   93GLOH   H04 9475   2.560   1.654   0.569  0.5176 -1.3442  0.6785
   93GLOH    O2 9476   2.471   1.694   0.389  0.4119 -1.2379  0.3003
   93GLOH   H05 9477   2.537   1.764   0.387 -0.8154 -0.0693 -0.0737
   93GLOH    C3 9478   2.384   1.521   0.538 -0.5801  0.0961 -0.1728
   93GLOH   H06 9479   2.422   1.425   0.574 -0.5947  0.3500  0.5193
   93GLOH   H07 9480   2.312   1.499   0.459  1.4896 -1.4525 -1.6763
   93GLOH    O3 9481   2.317   1.598   0.637  0.7588 -0.0322 -0.3573
   93GLOH   H01 9482   2.261   1.547   0.699  1.8420  0.3795  0.9806
   94GLOH   H03 9483   3.238   2.395   1.742 -0.3575  0.4241  0.8467
   94GLOH    O1 9484   3.335   2.386   1.740 -0.4251 -0.1783 -0.3655
   94GLOH    C1 9485   3.370   2.422   1.873 -0.0660 -0.2815  0.0203
   94GLOH   H02 9486   3.342   2.523   1.903  1.4227 -0.9091  3.8358
   94GLOH   H08 9487   3.476   2.405   1.890  0.1383  1.1041  0.1685
   94GLOH    C2 9488   3.304   2.312   1.963  0.3320 -0.7546 -0.4459
   94GLOH   H04 9489   3.194   2.317   1.952  0.5125  1.2179 -1.6127
   94GLOH    O2 9490   3.347   2.184   1.927  0.3008 -0.2098  0.0216
   94GLOH   H05 9491   3.443   2.197   1.924  0.4234 -1.0541  0.0608
   94GLOH    C3 9492   3.348   2.343   2.110 -0.9905  0.3204 -0.3835
   94GLOH   H06 9493   3.454   2.319   2.114 -1.2047 -0.7885 -1.2256
   94GLOH   H07 9494   3.296   2.275   2.177  0.6493  0.0398  0.6377
   94GLOH    O3 9495   3.324   2.479   2.152 -0.3806  0.2675 -0.3013
   94GLOH   H01 9496   3.235   2.475   2.192 -0.0209 -0.0708  0.4922
   95GLOH   H03 9497   3.853   4.791   1.901 -0.2441  0.0488 -1.6448
   95GLOH    O1 9498   3.812   4.709   1.869 -0.6315 -0.2491 -0.4208
   95GLOH    C1 9499   3.718   4.664   1.975 -0.6122 -0.2525  0.2297
   95GLOH   H02 9500   3.622   4.712   1.957  0.2685  0.8409 -1.7300
   95GLOH   H08 9501   3.744   4.695   2.077 -0.1965  2.0645 -0.5461
   95GLOH    C2 9502   3.696   4.515   1.967  0.0681  0.4469  0.1462
   95GLOH   H04 9503   3.797   4.472   1.969  0.0541  0.3729 -0.5113
   95GLOH    O2 9504   3.622   4.464   2.080  0.1211  0.3648 -0.0160
   95GLOH   H05 9505   3.681   4.453   2.157  0.5184  0.7951 -0.2602
   95GLOH    C3 9506   3.644   4.466   1.833 -0.4516 -0.3399  0.1693
   95GLOH   H06 9507   3.648   4.358   1.824  1.7781 -0.0833 -2.5388
   95GLOH   H07 9508   3.713   4.507   1.759  0.0295  2.0114  1.8533
   95GLOH    O3 9509   3.510   4.516   1.812  0.1528  0.0584 -0.4308
   95GLOH   H01 9510   3.452   4.467   1.873 -1.1106  2.7433  0.6215
   96GLOH   H03 9511   3.634  10.269   1.637  1.9844  0.2661 -0.2964
   96GLOH    O1 9512   3.637  10.216   1.555 -0.4009 -0.3055 -0.0503
   96GLOH    C1 9513   3.709  10.278   1.444  0.1678 -0.3852 -0.0949
   96GLOH   H02 9514   3.646  10.291   1.356  0.1241  0.2729  0.0294
   96GLOH   H08 9515   3.791  10.215   1.413  0.6891  1.1385 -1.9160
   96GLOH    C2 9516   3.761  10.421   1.476 -0.0312  0.5473 -0.7486
   96GLOH   H04 9517   3.837  10.403   1.554  1.0990  3.2982 -1.1344
   96GLOH    O2 9518   3.823  10.491   1.368 -0.4841 -0.0378  0.2016
   96GLOH   H05 9519   3.897  10.441   1.332  0.7059  2.6169 -1.1877
   96GLOH    C3 9520   3.660  10.521   1.535  0.6472  1.1945 -0.3615
   96GLOH   H06 9521   3.576  10.523   1.465  0.2070 -0.6678  0.0762
   96GLOH   H07 9522   3.703  10.621   1.538  1.1235  0.9798 -0.0217
   96GLOH    O3 9523   3.605  10.479   1.663 -0.2217  0.2870  0.3676
   96GLOH   H01 9524   3.681  10.471   1.724 -0.3347 -2.8166  0.1512
   97GLOH   H03 9525   4.222   4.956   0.312 -1.1021  1.9752 -1.0745
   97GLOH    O1 9526   4.300   5.013   0.298  0.2816  0.4089  0.1407
   97GLOH    C1 9527   4.264   5.105   0.185  0.1103  0.1758 -0.3850
   97GLOH   H02 9528   4.347   5.174   0.165 -1.7256  1.7113 -3.0438
   97GLOH   H08 9529   4.178   5.167   0.206 -0.7820 -1.0321 -0.4261
   97GLOH    C2 9530   4.232   5.022   0.058 -0.4446  0.0393 -0.5231
   97GLOH   H04 9531   4.167   4.941   0.094  0.2802 -0.3675 -0.1276
   97GLOH    O2 9532   4.169   5.101  -0.042 -0.0825 -0.2043 -0.0681
   97GLOH   H05 9533   4.079   5.066  -0.032  0.5029 -0.9093  3.2134
   97GLOH    C3 9534   4.357   4.961  -0.004 -0.6068 -0.0944  0.2809
   97GLOH   H06 9535   4.398   4.902   0.077  2.2153  0.3717 -0.7509
   97GLOH   H07 9536   4.436   5.035  -0.016 -0.8135  0.7776  3.7092
   97GLOH    O3 9537   4.334   4.870  -0.111 -0.0717  0.1641 -0.0638
   97GLOH   H01 9538   4.272   4.798  -0.089 -2.0519  1.7879 -0.2083
   98GLOH   H03 9539   4.716   4.559   0.786  0.6933  2.8567 -1.3734
   98GLOH    O1 9540   4.753   4.576   0.874  0.1688  0.0488 -0.5612
   98GLOH    C1 9541   4.776   4.720   0.887 -0.5116  0.0771 -0.3165
   98GLOH   H02 9542   4.743   4.752   0.986  1.8836 -0.1947  0.5929
   98GLOH   H08 9543   4.698   4.768   0.826 -2.0410 -2.3130 -0.2869
   98GLOH    C2 9544   4.913   4.777   0.839 -0.1315  0.8376 -0.0662
   98GLOH   H04 9545   4.926   4.753   0.733 -4.3800  0.5185 -0.6155
   98GLOH    O2 9546   4.920   4.915   0.868  0.0274  0.0923  0.5750
   98GLOH   H05 9547   4.848   4.959   0.819 -0.9444 -0.2344  1.6922
   98GLOH    C3 9548   5.027   4.703   0.908 -0.2246 -0.4004  0.9154
   98GLOH   H06 9549   5.013   4.714   1.015 -4.1624  0.1542  0.4090
   98GLOH   H07 9550   5.121   4.747   0.875 -2.0308  1.9265 -1.2700
   98GLOH    O3 9551   5.027   4.568   0.876 -0.2945 -0.4344  0.6743
   98GLOH   H01 9552   4.933   4.539   0.873 -1.0759  1.6052  3.3234
   99GLOH   H03 9553   4.029   1.395   2.472  1.0458 -1.8274 -2.4659
   99GLOH    O1 9554   4.087   1.471   2.454  0.1483 -0.3710  0.4745
   99GLOH    C1 9555   4.103   1.460   2.315  0.2071  0.0942  0.2337
   99GLOH   H02 9556   4.137   1.358   2.297  0.3733  0.2392 -0.2947
   99GLOH   H08 9557   4.184   1.523   2.278 -0.1909  0.4793  0.0106
   99GLOH    C2 9558   3.981   1.499   2.228 -0.1895 -0.9250  0.2918
   99GLOH   H04 9559   3.999   1.484   2.121  0.8346  1.9894 -0.0000
   99GLOH    O2 9560   3.874   1.411   2.269 -0.4202 -0.2958  0.0455
   99GLOH   H05 9561   3.806   1.424   2.201 -0.2502  1.8535  0.2410
   99GLOH    C3 9562   3.950   1.645   2.262  0.2928  0.2210  0.2389
   99GLOH   H06 9563   3.907   1.658   2.361 -0.1169  2.0090 -0.1556
   99GLOH   H07 9564   3.872   1.669   2.191 -0.6360 -1.8435  0.5277
   99GLOH    O3 9565   4.059   1.735   2.240 -0.5845  0.0253  0.4942
   99GLOH   H01 9566   4.086   1.771   2.327  3.6443 -2.1184  0.1932
  100GLOH   H03 9567   3.344  10.186   2.588 -0.8248 -0.5863 -0.3298
  100GLOH    O1 9568   3.362  10.250   2.516 -0.0930 -0.2083  0.1829
  100GLOH    C1 9569   3.452  10.348   2.558 -0.3235 -0.1548  0.0393
  100GLOH   H02 9570   3.549  10.301   2.567  0.1673  0.0890 -3.3004
  100GLOH   H08 9571   3.430  10.385   2.658 -2.8345  1.3088 -0.9989
  100GLOH    C2 9572   3.470  10.456   2.452 -1.2315 -0.2485  0.1148
  100GLOH   H04 9573   3.377  10.515   2.455 -0.0353  1.6021  2.7199
  100GLOH    O2 9574   3.591  10.535   2.487 -0.5071 -0.4202  0.3580
  100GLOH   H05 9575   3.602  10.547   2.583  0.4397 -3.1057  0.6563
  100GLOH    C3 9576   3.488  10.393   2.311 -0.1629 -0.1721 -0.6713
  100GLOH   H06 9577   3.581  10.337   2.316  0.0304 -0.0405 -2.4896
  100GLOH   H07 9578   3.489  10.477   2.241  2.8453  1.2328  0.9518
  100GLOH    O3 9579   3.383  10.311   2.262 -0.0597 -0.0237  0.1378
  100GLOH   H01 9580   3.336  10.283   2.342 -1.6340  0.6169 -0.5397
  101GLOH   H03 9581   2.906   1.935   0.691 -0.1007 -0.3085  0.4531
  101GLOH    O1 9582   2.848   1.955   0.615  0.1786 -0.2198  0.2618
  101GLOH    C1 9583   2.932   1.962   0.500 -0.2433 -0.3156  0.6362
  101GLOH   H02 9584   3.006   1.882   0.500 -1.0294 -1.2006 -3.6720
  101GLOH   H08 9585   2.995   2.050   0.506 -0.1884 -0.1927 -1.3570
  101GLOH    C2 9586   2.855   1.952   0.366 -0.2195  0.0795 -0.7415
  101GLOH   H04 9587   2.794   2.041   0.342  0.0532  0.1961 -1.0131
  101GLOH    O2 9588   2.958   1.927   0.270  0.3398 -0.7730 -0.2050
  101GLOH   H05 9589   2.970   2.011   0.223 -0.9140 -0.6490 -0.3297
  101GLOH    C3 9590   2.765   1.829   0.364  0.6682  0.8865 -0.3210
  101GLOH   H06 9591   2.816   1.740   0.402 -0.2496  0.1564 -0.7596
  101GLOH   H07 9592   2.736   1.800   0.263 -0.1126 -2.3572  0.7702
  101GLOH    O3 9593   2.658   1.849   0.455  0.0318 -0.1326 -0.1116
  101GLOH   H01 9594   2.710   1.879   0.532  0.4158  0.7688 -0.7200
  102GLOH   H03 9595   5.231   4.309   1.129  1.4441 -0.4899 -1.7233
  102GLOH    O1 9596   5.223   4.227   1.181  0.4263  0.4597 -0.3386
  102GLOH    C1 9597   5.139   4.140   1.111 -0.2979 -0.4208 -0.6809
  102GLOH   H02 9598   5.171   4.141   1.007 -1.4413 -0.3873 -1.0332
  102GLOH   H08 9599   5.043   4.192   1.116  1.3556  2.7289  0.2902
  102GLOH    C2 9600   5.117   4.003   1.175  0.3017 -0.4024  0.5541
  102GLOH   H04 9601   5.068   4.011   1.273  1.3051  2.2721  0.8747
  102GLOH    O2 9602   5.036   3.916   1.097  0.0758 -0.2156 -0.8178
  102GLOH   H05 9603   4.952   3.962   1.086 -0.0608 -0.1572  0.4018
  102GLOH    C3 9604   5.249   3.940   1.215  0.4290  0.1635 -0.2249
  102GLOH   H06 9605   5.302   3.914   1.124 -1.2359  1.7561 -1.6780
  102GLOH   H07 9606   5.230   3.846   1.268 -1.4914 -0.4320 -1.9027
  102GLOH    O3 9607   5.322   4.023   1.307  0.5082  0.0398 -0.7481
  102GLOH   H01 9608   5.308   4.114   1.275  1.2630  1.6410  3.2423
  103GLOH   H03 9609   2.605   3.238   1.925 -0.1268 -0.1047 -0.8208
  103GLOH    O1 9610   2.648   3.158   1.890  0.1441 -0.3840  0.1249
  103GLOH    C1 9611   2.561   3.055   1.866  0.0505 -0.0911 -0.4882
  103GLOH   H02 9612   2.503   3.081   1.778  1.2020  2.7513 -0.4437
  103GLOH   H08 9613   2.484   3.048   1.943  0.7424 -0.0100  0.2174
  103GLOH    C2 9614   2.622   2.911   1.852 -0.0722 -0.3068 -0.0005
  103GLOH   H04 9615   2.708   2.912   1.784 -0.3880 -1.2361 -0.4335
  103GLOH    O2 9616   2.678   2.872   1.981  0.1177  0.6189 -0.4392
  103GLOH   H05 9617   2.701   2.949   2.035  1.4148  0.8026 -1.2319
  103GLOH    C3 9618   2.529   2.795   1.798 -0.2392 -0.8530  0.2749
  103GLOH   H06 9619   2.436   2.810   1.853 -0.4225  1.2600 -0.5244
  103GLOH   H07 9620   2.565   2.693   1.808  0.7488 -0.6143 -0.7081
  103GLOH    O3 9621   2.497   2.817   1.657 -0.5941  0.5384  0.2776
  103GLOH   H01 9622   2.567   2.857   1.604  0.6066  0.9172  2.1033
  104GLOH   H03 9623   4.256   4.869   1.371 -1.1428 -0.0347 -0.0724
  104GLOH    O1 9624   4.231   4.905   1.458  0.0452  0.1570  0.2013
  104GLOH    C1 9625   4.154   5.021   1.437 -0.1900 -0.0791 -0.4112
  104GLOH   H02 9626   4.057   5.015   1.388  1.1915 -0.5719 -3.1378
  104GLOH   H08 9627   4.210   5.081   1.366 -1.3776 -0.0173 -1.3047
  104GLOH    C2 9628   4.133   5.093   1.566  0.1818 -0.3035 -0.2386
  104GLOH   H04 9629   4.232   5.122   1.607 -0.5667  0.9662  0.7240
  104GLOH    O2 9630   4.054   5.213   1.567 -0.0651 -0.7885 -0.2646
  104GLOH   H05 9631   4.116   5.284   1.542 -0.0747 -1.1052 -1.2188
  104GLOH    C3 9632   4.066   5.007   1.673  0.0357 -0.0169 -0.3056
  104GLOH   H06 9633   3.964   4.989   1.637  0.4133 -0.5432 -1.1165
  104GLOH   H07 9634   4.053   5.059   1.768  0.3270 -1.4132  0.5251
  104GLOH    O3 9635   4.135   4.888   1.701  0.0039 -0.3498  0.2985
  104GLOH   H01 9636   4.180   4.864   1.617  0.1698 -0.7788  0.5074
  105GLOH   H03 9637   4.573   4.685   2.044 -1.3207 -1.8687  1.1667
  105GLOH    O1 9638   4.549   4.645   1.958 -0.7940 -0.2502  0.2391
  105GLOH    C1 9639   4.641   4.713   1.867  0.0812  1.1807 -0.1426
  105GLOH   H02 9640   4.743   4.676   1.872  0.2589  1.8034  1.0536
  105GLOH   H08 9641   4.642   4.821   1.881  0.6892  0.8808  2.2982
  105GLOH    C2 9642   4.604   4.713   1.721  0.2086  0.0715 -0.5252
  105GLOH   H04 9643   4.680   4.774   1.669 -0.2842  1.6550  0.5942
  105GLOH    O2 9644   4.592   4.584   1.663  0.3793  0.4577  0.4672
  105GLOH   H05 9645   4.502   4.551   1.680  0.9387 -0.6733  1.3216
  105GLOH    C3 9646   4.472   4.790   1.699 -0.2133  0.5788 -0.0153
  105GLOH   H06 9647   4.400   4.736   1.761  0.7146 -0.4228  0.2030
  105GLOH   H07 9648   4.446   4.782   1.593  0.1538  0.7965 -0.1217
  105GLOH    O3 9649   4.468   4.926   1.738  0.2369  0.4851  0.0174
  105GLOH   H01 9650   4.389   4.939   1.795  0.2195 -0.2623  0.1634
  106GLOH   H03 9651   3.088   2.646   1.254  2.4294  0.7595  0.0728
  106GLOH    O1 9652   3.062   2.689   1.338  0.2631 -0.7902  0.2330
  106GLOH    C1 9653   3.133   2.621   1.447  0.7052 -0.9373  0.4266
  106GLOH   H02 9654   3.104   2.516   1.449 -1.8268 -0.2740  0.1413
  106GLOH   H08 9655   3.097   2.664   1.540  0.3487  0.0777 -0.1805
  106GLOH    C2 9656   3.287   2.631   1.440  0.2355 -0.2901  0.3348
  106GLOH   H04 9657   3.317   2.736   1.432  1.0464 -0.4719  0.9217
  106GLOH    O2 9658   3.357   2.586   1.561 -0.0320  0.8583  0.7671
  106GLOH   H05 9659   3.313   2.519   1.616  3.0029 -0.9871  1.0716
  106GLOH    C3 9660   3.348   2.550   1.328  0.5883  0.5300  0.0742
  106GLOH   H06 9661   3.455   2.532   1.339  0.2316 -1.6495  0.1718
  106GLOH   H07 9662   3.337   2.609   1.237 -1.5295  1.6372  1.0365
  106GLOH    O3 9663   3.290   2.417   1.310  0.1625  0.0015  0.2803
  106GLOH   H01 9664   3.353   2.372   1.251  0.3131 -1.9297  1.8534
  107GLOH   H03 9665   3.552   4.468   2.468 -2.0149 -2.3343  2.0323
  107GLOH    O1 9666   3.598   4.517   2.539 -0.4876 -0.6565 -0.0708
  107GLOH    C1 9667   3.513   4.500   2.652 -0.4124  0.1026 -0.7302
  107GLOH   H02 9668   3.443   4.418   2.638  0.4649 -0.7819  0.0128
  107GLOH   H08 9669   3.453   4.591   2.661  1.6887  1.3843  0.5864
  107GLOH    C2 9670   3.577   4.486   2.791 -0.3644 -0.0033 -0.1597
  107GLOH   H04 9671   3.633   4.577   2.816  3.4946 -2.4551  0.5668
  107GLOH    O2 9672   3.470   4.465   2.883  0.8410 -0.2831 -0.1473
  107GLOH   H05 9673   3.514   4.446   2.968  2.2126 -1.4476 -1.0967
  107GLOH    C3 9674   3.666   4.363   2.801  0.3515  0.6408  0.0247
  107GLOH   H06 9675   3.619   4.267   2.821  0.0222  0.7417 -0.2444
  107GLOH   H07 9676   3.729   4.388   2.887  1.4970  0.4496 -0.7483
  107GLOH    O3 9677   3.749   4.368   2.683 -0.0944 -0.7633  0.1079
  107GLOH   H01 9678   3.711   4.437   2.626 -1.2271 -1.1921  0.3305
  108GLOH   H03 9679   3.249   2.156   0.545 -0.0806 -1.2769 -1.3292
  108GLOH    O1 9680   3.245   2.222   0.474 -0.2775  0.2816  0.1016
  108GLOH    C1 9681   3.307   2.164   0.359 -0.6346 -0.0165 -0.2362
  108GLOH   H02 9682   3.306   2.225   0.269  0.1600  1.5040  0.7556
  108GLOH   H08 9683   3.257   2.069   0.338 -0.3710 -0.4927  1.2061
  108GLOH    C2 9684   3.459   2.129   0.373  0.2516 -1.3593  0.1562
  108GLOH   H04 9685   3.481   2.083   0.471  0.1161  1.5138  1.5930
  108GLOH    O2 9686   3.496   2.048   0.258  0.7675 -0.7320 -0.1467
  108GLOH   H05 9687   3.582   2.006   0.271  0.8322 -1.4284 -2.5538
  108GLOH    C3 9688   3.546   2.255   0.379 -0.3132 -0.1250 -0.4619
  108GLOH   H06 9689   3.502   2.317   0.458 -1.2966 -0.2727 -0.8943
  108GLOH   H07 9690   3.545   2.315   0.288 -0.9217 -1.3990 -1.3076
  108GLOH    O3 9691   3.680   2.233   0.414  0.0588 -0.1977  0.2834
  108GLOH   H01 9692   3.729   2.308   0.376 -0.3087 -2.0563 -4.1401
  109GLOH   H03 9693   4.502   2.594   1.129  0.5952  0.3125  1.4170
  109GLOH    O1 9694   4.538   2.677   1.094 -0.2730  0.0063 -0.2486
  109GLOH    C1 9695   4.570   2.668   0.956 -0.0392 -0.3168  0.0367
  109GLOH   H02 9696   4.496   2.725   0.900  0.8045 -1.2156 -2.0503
  109GLOH   H08 9697   4.564   2.568   0.914 -1.6555 -0.8561  1.4879
  109GLOH    C2 9698   4.704   2.742   0.919 -0.0049  0.3565 -0.5773
  109GLOH   H04 9699   4.785   2.697   0.978 -1.3099  0.9909  1.7408
  109GLOH    O2 9700   4.738   2.741   0.778 -0.1866 -0.0693 -0.6824
  109GLOH   H05 9701   4.736   2.832   0.743  1.2940  0.1692 -0.2067
  109GLOH    C3 9702   4.698   2.890   0.969 -0.5227 -0.1440 -0.0304
  109GLOH   H06 9703   4.795   2.935   0.951 -1.4260  0.9855 -2.2421
  109GLOH   H07 9704   4.689   2.883   1.078  1.6154 -0.5769  0.1254
  109GLOH    O3 9705   4.596   2.969   0.915  0.2205 -0.4987  0.4149
  109GLOH   H01 9706   4.627   3.008   0.831  1.8743 -0.1518  1.1698
  110GLOH   H03 9707   3.783   2.196   0.051 -2.1402 -0.5325 -0.5564
  110GLOH    O1 9708   3.838   2.121   0.081 -0.3132  0.7092 -0.6959
  110GLOH    C1 9709   3.844   2.038  -0.031 -0.2917  0.2659  0.3395
  110GLOH   H02 9710   3.887   1.945   0.008 -1.0744 -0.3415 -0.2364
  110GLOH   H08 9711   3.909   2.080  -0.108  1.6179 -1.2895  1.0462
  110GLOH    C2 9712   3.710   1.995  -0.095 -0.4728 -0.5713  0.2677
  110GLOH   H04 9713   3.642   1.961  -0.015 -2.6978 -0.7886 -1.6382
  110GLOH    O2 9714   3.650   2.104  -0.169 -0.1390 -0.2906  0.0388
  110GLOH   H05 9715   3.707   2.135  -0.242 -0.6040 -1.3301 -0.7928
  110GLOH    C3 9716   3.740   1.871  -0.186  0.2896 -0.2926 -0.1221
  110GLOH   H06 9717   3.822   1.902  -0.252 -0.7931  1.2892 -0.7550
  110GLOH   H07 9718   3.648   1.843  -0.238  1.6519 -1.1125 -2.1733
  110GLOH    O3 9719   3.790   1.762  -0.101  1.0145  0.2277 -0.4376
  110GLOH   H01 9720   3.790   1.675  -0.144 -0.9675 -0.1014  0.1770
  111GLOH   H03 9721   4.868   2.374   0.467 -2.0650 -0.0139  0.8089
  111GLOH    O1 9722   4.823   2.324   0.396 -0.1292  0.2075 -0.5947
  111GLOH    C1 9723   4.698   2.389   0.370  0.3109  0.3937  0.0657
  111GLOH   H02 9724   4.618   2.366   0.441 -1.5821  0.4000 -2.0128
  111GLOH   H08 9725   4.663   2.352   0.274 -0.1099 -0.5463  0.5774
  111GLOH    C2 9726   4.711   2.543   0.368 -0.5252  0.1520 -0.8689
  111GLOH   H04 9727   4.797   2.568   0.304  0.5804  1.6334  1.1588
  111GLOH    O2 9728   4.588   2.615   0.336  0.6739  0.2285 -0.2263
  111GLOH   H05 9729   4.591   2.634   0.241 -0.1625  0.3336 -0.2354
  111GLOH    C3 9730   4.756   2.579   0.514  0.4657  1.2687 -0.3194
  111GLOH   H06 9731   4.663   2.579   0.571  0.6768  0.3755  0.0255
  111GLOH   H07 9732   4.779   2.685   0.505  0.4106  1.1810 -1.6361
  111GLOH    O3 9733   4.873   2.509   0.564 -0.3684 -0.0824 -0.8394
  111GLOH   H01 9734   4.867   2.497   0.661  1.9402  0.6805 -0.5583
  112GLOH   H03 9735   3.830   3.621   2.284 -0.5794  1.4307  0.0593
  112GLOH    O1 9736   3.830   3.663   2.196 -0.3270  0.2454 -0.5137
  112GLOH    C1 9737   3.961   3.656   2.142  0.5844 -0.1089  0.6252
  112GLOH   H02 9738   4.035   3.649   2.221  0.1100  0.6404  1.1445
  112GLOH   H08 9739   3.996   3.750   2.100  0.9861 -0.7481 -0.4741
  112GLOH    C2 9740   3.977   3.539   2.042 -0.1277  0.2818  0.2732
  112GLOH   H04 9741   3.920   3.561   1.951 -0.2840 -0.8735  0.0844
  112GLOH    O2 9742   4.118   3.523   2.000  0.0857 -0.5968 -0.2678
  112GLOH   H05 9743   4.172   3.586   2.050  0.7067 -2.6746  1.7595
  112GLOH    C3 9744   3.922   3.419   2.114  0.2773 -0.5891  0.8435
  112GLOH   H06 9745   3.813   3.424   2.116  0.3404  1.5716  0.3589
  112GLOH   H07 9746   3.960   3.424   2.216 -0.0281  0.1878  0.9235
  112GLOH    O3 9747   3.963   3.294   2.054  0.2019 -0.1467 -0.0522
  112GLOH   H01 9748   3.922   3.279   1.967  2.1498 -0.7065 -0.9129
  113GLOH   H03 9749   4.368   3.312   1.598 -0.1994 -2.0969  0.3712
  113GLOH    O1 9750   4.278   3.307   1.635 -0.3980 -0.4475  0.1326
  113GLOH    C1 9751   4.168   3.327   1.542 -0.4833 -0.0695  0.6309
  113GLOH   H02 9752   4.152   3.234   1.489  0.2660  1.0906 -1.7192
  113GLOH   H08 9753   4.186   3.406   1.469  0.3372 -0.6569  0.1982
  113GLOH    C2 9754   4.041   3.370   1.610  0.4718 -0.0629  0.3218
  113GLOH   H04 9755   4.055   3.477   1.631  2.5806 -0.3808  0.6983
  113GLOH    O2 9756   3.931   3.353   1.516  0.5717 -0.0309  0.1777
  113GLOH   H05 9757   3.869   3.289   1.556 -2.7108  2.7658 -0.1774
  113GLOH    C3 9758   4.023   3.308   1.748  0.1471  0.5051 -0.5677
  113GLOH   H06 9759   4.092   3.368   1.806  1.3466  0.4649 -1.9262
  113GLOH   H07 9760   4.063   3.207   1.748  2.3012  1.3385 -1.3339
  113GLOH    O3 9761   3.890   3.305   1.800 -0.3637 -0.4035  0.3748
  113GLOH   H01 9762   3.846   3.234   1.750 -0.2656  1.9081 -3.1869
  114GLOH   H03 9763   2.651   1.064   2.275  2.3229  1.1517  2.6127
  114GLOH    O1 9764   2.601   1.148   2.276 -0.1520 -0.2140  0.4345
  114GLOH    C1 9765   2.569   1.193   2.141  0.1424 -0.2349  0.0812
  114GLOH   H02 9766   2.474   1.248   2.144 -0.3756 -1.0761 -0.7594
  114GLOH   H08 9767   2.565   1.108   2.074  0.6042  0.4787 -0.8642
  114GLOH    C2 9768   2.672   1.287   2.082 -0.0578  0.2072 -0.0116
  114GLOH   H04 9769   2.661   1.281   1.973 -1.1348  0.1327  0.0963
  114GLOH    O2 9770   2.650   1.421   2.128  0.0873  0.2048 -0.0963
  114GLOH   H05 9771   2.735   1.468   2.125  1.9297 -2.9971 -0.6705
  114GLOH    C3 9772   2.813   1.235   2.116 -0.2043 -0.3897 -0.0205
  114GLOH   H06 9773   2.829   1.246   2.223 -0.2202  1.1069 -0.1682
  114GLOH   H07 9774   2.885   1.303   2.071 -0.7204  1.4937  1.9472
  114GLOH    O3 9775   2.833   1.105   2.064 -0.0864  0.4657 -0.3785
  114GLOH   H01 9776   2.836   1.116   1.967  1.1620 -2.0606 -0.6706
  115GLOH   H03 9777   5.161   3.890   1.645  2.0339 -0.7032 -0.3680
  115GLOH    O1 9778   5.115   3.821   1.696  0.0289  0.4125 -0.6135
  115GLOH    C1 9779   4.991   3.867   1.748  0.2134 -0.0562 -0.1881
  115GLOH   H02 9780   4.925   3.895   1.666  0.9970  1.7007 -0.2458
  115GLOH   H08 9781   5.015   3.959   1.801  1.9394 -0.1200 -0.8205
  115GLOH    C2 9782   4.928   3.753   1.825 -0.4421  0.4092  0.0618
  115GLOH   H04 9783   5.001   3.721   1.900 -0.4690 -2.3988 -1.0792
  115GLOH    O2 9784   4.808   3.798   1.889  0.3039 -0.4753  0.3723
  115GLOH   H05 9785   4.731   3.740   1.876 -0.5391  0.4844  1.0269
  115GLOH    C3 9786   4.894   3.639   1.723 -0.0222 -0.5216  0.5093
  115GLOH   H06 9787   4.845   3.678   1.634  1.5583  0.1201 -0.0934
  115GLOH   H07 9788   4.831   3.562   1.767 -0.4745 -0.7486 -0.5240
  115GLOH    O3 9789   5.023   3.586   1.683 -0.4238 -0.0280  0.1126
  115GLOH   H01 9790   5.079   3.665   1.672  0.1837 -0.7906 -2.5955
  116GLOH   H03 9791   3.422  10.053   1.976 -2.4361 -1.9612 -0.0721
  116GLOH    O1 9792   3.443  10.000   1.897  0.5972 -0.1784 -0.5390
  116GLOH    C1 9793   3.526  10.084   1.811 -0.7407  0.0214  0.6108
  116GLOH   H02 9794   3.461  10.130   1.737 -1.0874 -0.1944  0.7825
  116GLOH   H08 9795   3.585  10.019   1.746 -1.0853  1.5560 -1.2557
  116GLOH    C2 9796   3.611  10.183   1.893 -0.4733  0.2020  0.1370
  116GLOH   H04 9797   3.669  10.118   1.960 -0.5858 -1.1251 -1.0180
  116GLOH    O2 9798   3.698  10.271   1.818 -0.6284  0.3705 -0.3635
  116GLOH   H05 9799   3.791  10.245   1.829 -0.6497 -0.2649 -1.6096
  116GLOH    C3 9800   3.529  10.265   1.994 -0.4193  0.3317  0.0387
  116GLOH   H06 9801   3.478  10.346   1.941 -0.1442  0.8805  0.6048
  116GLOH   H07 9802   3.598  10.318   2.060 -1.5731 -0.3178  1.8061
  116GLOH    O3 9803   3.445  10.182   2.069 -0.0746  0.1113  0.1737
  116GLOH   H01 9804   3.418  10.222   2.154  2.6847 -0.1612  1.2247
  117GLOH   H03 9805   2.697   2.061   1.503  0.6803  0.0330 -1.0357
  117GLOH    O1 9806   2.642   2.097   1.575  0.6481 -0.2914 -0.8946
  117GLOH    C1 9807   2.570   1.982   1.636  0.8045 -0.2033 -0.1008
  117GLOH   H02 9808   2.647   1.907   1.656  0.2589 -0.9358 -0.6776
  117GLOH   H08 9809   2.497   1.938   1.567 -0.3433 -0.0718  1.0125
  117GLOH    C2 9810   2.497   2.029   1.766  0.4387  0.6297 -0.1664
  117GLOH   H04 9811   2.405   2.074   1.724  0.0892 -0.4135 -0.5194
  117GLOH    O2 9812   2.454   1.907   1.830  0.2551  0.3423 -0.5482
  117GLOH   H05 9813   2.490   1.909   1.920 -0.1338 -0.8330 -0.3576
  117GLOH    C3 9814   2.578   2.131   1.855  0.3792  0.1576  0.5672
  117GLOH   H06 9815   2.670   2.089   1.895  1.0738  1.1113  0.0090
  117GLOH   H07 9816   2.511   2.164   1.935 -0.0837 -0.0989  0.2868
  117GLOH    O3 9817   2.609   2.243   1.769 -0.1711 -0.4101  0.0800
  117GLOH   H01 9818   2.623   2.205   1.680  3.5754 -0.2170  0.4913
  118GLOH   H03 9819   3.963   1.435   0.271 -0.1843 -1.6203 -1.4523
  118GLOH    O1 9820   4.059   1.424   0.261  0.1405  0.4941 -0.9517
  118GLOH    C1 9821   4.072   1.283   0.221 -0.6131 -0.3538 -0.3901
  118GLOH   H02 9822   4.064   1.229   0.316  0.2211 -1.1868 -0.7918
  118GLOH   H08 9823   4.171   1.256   0.184 -0.2636 -1.1651  1.0999
  118GLOH    C2 9824   3.972   1.235   0.122 -0.8736  0.5325  0.7909
  118GLOH   H04 9825   4.017   1.143   0.082 -1.0294  1.1039 -0.7322
  118GLOH    O2 9826   3.849   1.202   0.188  0.4855  0.1169  0.0686
  118GLOH   H05 9827   3.811   1.286   0.218 -1.4659 -0.7402  0.0786
  118GLOH    C3 9828   3.967   1.338   0.005 -0.0003 -0.0406 -0.4622
  118GLOH   H06 9829   4.073   1.359  -0.011  0.2930 -0.6666  0.5814
  118GLOH   H07 9830   3.918   1.425   0.049  1.3774  1.7641 -2.3609
  118GLOH    O3 9831   3.892   1.305  -0.113 -0.0931  0.3871 -0.3168
  118GLOH   H01 9832   3.908   1.216  -0.149  1.9726 -1.0404  3.8088
  119GLOH   H03 9833   3.546   3.417   0.040  1.4883  0.7972  0.7459
  119GLOH    O1 9834   3.536   3.421   0.137 -0.2389  0.1322  0.6102
  119GLOH    C1 9835   3.647   3.341   0.198  0.6642  0.3682  0.3836
  119GLOH   H02 9836   3.663   3.383   0.297  2.3247  0.6999 -0.0170
  119GLOH   H08 9837   3.740   3.361   0.146  0.5175  1.3977  0.5005
  119GLOH    C2 9838   3.620   3.190   0.202  0.4238  0.6560 -0.2929
  119GLOH   H04 9839   3.580   3.151   0.107 -0.8365  0.4563  0.3032
  119GLOH    O2 9840   3.743   3.117   0.236 -0.2239 -0.1231 -0.4431
  119GLOH   H05 9841   3.783   3.166   0.309 -2.1545 -0.3744  0.8194
  119GLOH    C3 9842   3.514   3.163   0.309  0.0184  0.8262 -0.4055
  119GLOH   H06 9843   3.564   3.188   0.403  1.1774 -0.7996 -0.5670
  119GLOH   H07 9844   3.487   3.058   0.320 -0.4934  1.0601  0.6695
  119GLOH    O3 9845   3.395   3.247   0.304 -0.4875 -0.0642 -0.4635
  119GLOH   H01 9846   3.422   3.312   0.236 -2.1072  0.8269 -0.2586
  120GLOH   H03 9847   2.684   2.314   0.173 -2.3561 -2.9021  0.8131
  120GLOH    O1 9848   2.643   2.317   0.085 -0.1137  0.4353 -0.2345
  120GLOH    C1 9849   2.555   2.429   0.105  0.4310 -0.5364  0.8020
  120GLOH   H02 9850   2.619   2.517   0.099  1.9147 -1.6450 -0.0746
  120GLOH   H08 9851   2.497   2.423   0.197 -1.9689  0.4688 -0.6078
  120GLOH    C2 9852   2.443   2.439  -0.005  0.0188  0.4880  0.3261
  120GLOH   H04 9853   2.493   2.441  -0.103  0.5478 -1.0996  0.5472
  120GLOH    O2 9854   2.363   2.323  -0.006 -0.0883  0.2965 -0.3206
  120GLOH   H05 9855   2.390   2.285  -0.091  0.4795  2.4292 -1.1220
  120GLOH    C3 9856   2.351   2.562   0.018 -0.1176 -0.5371  0.1547
  120GLOH   H06 9857   2.306   2.545   0.115  2.5504 -0.0681  1.5132
  120GLOH   H07 9858   2.263   2.567  -0.046 -0.9078 -0.5745  1.2225
  120GLOH    O3 9859   2.423   2.682   0.009 -0.1369 -0.6008  0.0375
  120GLOH   H01 9860   2.448   2.704  -0.083 -2.0602 -0.9491 -0.5838
  121ACOH    H4 9861   2.285   1.792   1.473  0.1812  1.4219  1.3664
  121ACOH    O2 9862   2.226   1.747   1.536  0.2693 -0.3083  0.2484
  121ACOH    C2 9863   2.285   1.632   1.573  0.0536  0.7159  0.2668
  121ACOH    O1 9864   2.373   1.572   1.513 -0.7762 -0.3226 -0.3457
  121ACOH    C1 9865   2.218   1.559   1.681  0.1739 -0.0496 -0.4124
  121ACOH    H1 9866   2.215   1.450   1.674  1.7619 -0.1394  0.2463
  121ACOH    H2 9867   2.121   1.607   1.696 -0.1940 -0.9619  0.1083
  121ACOH    H3 9868   2.284   1.588   1.762 -1.5016  1.6244  0.4067
  122ACOH    H4 9869   3.239   9.534   1.326 -0.6669  1.8022  2.1703
  122ACOH    O2 9870   3.154   9.488   1.335 -0.2356  0.5644  0.3570
  122ACOH    C2 9871   3.062   9.580   1.290 -0.6529  0.0215  0.1526
  122ACOH    O1 9872   3.077   9.695   1.259  0.5951 -0.8952 -0.5184
  122ACOH    C1 9873   2.925   9.520   1.317 -0.1942 -0.3827  0.4292
  122ACOH    H1 9874   2.853   9.598   1.296  0.7767 -0.1345 -2.1955
  122ACOH    H2 9875   2.924   9.479   1.418 -3.0343 -0.2451  0.4913
  122ACOH    H3 9876   2.894   9.445   1.245 -0.0031 -0.3568  0.3191
  123ACOH    H4 9877   4.161   4.222   2.260  1.4164 -0.2241 -0.2972
  123ACOH    O2 9878   4.155   4.127   2.282  0.0854 -0.1283 -0.1927
  123ACOH    C2 9879   4.075   4.124   2.389 -0.0902  0.1474  0.4862
  123ACOH    O1 9880   4.016   4.215   2.435  0.4441 -1.0355  0.6478
  123ACOH    C1 9881   4.025   3.982   2.407  0.1249 -0.5494  0.1022
  123ACOH    H1 9882   3.963   3.968   2.496 -0.2552 -1.4084 -0.2883
  123ACOH    H2 9883   4.101   3.903   2.402  0.2134 -0.4484 -0.1322
  123ACOH    H3 9884   3.958   3.966   2.323 -0.4730  4.4130 -0.4711
  124ACOH    H4 9885   6.730   1.792   0.522 -0.1330 -1.0611  0.4840
  124ACOH    O2 9886   6.792   1.756   0.456  0.0978  0.8269 -0.3610
  124ACOH    C2 9887   6.881   1.854   0.449 -0.6698  0.4628 -0.0561
  124ACOH    O1 9888   6.884   1.957   0.506  0.3838  0.2506  0.4078
  124ACOH    C1 9889   6.993   1.830   0.343  0.0593  0.0545 -0.7323
  124ACOH    H1 9890   6.981   1.729   0.304  1.4510 -0.2228 -0.4617
  124ACOH    H2 9891   7.092   1.859   0.378 -0.5753  2.9471 -1.1873
  124ACOH    H3 9892   6.973   1.902   0.263  1.8125  0.1205 -1.1318
  125ACOH    H4 9893   4.231   2.666   1.824  1.8264 -1.1004 -2.5510
  125ACOH    O2 9894   4.262   2.757   1.806 -0.1112  0.1630  0.0989
  125ACOH    C2 9895   4.165   2.842   1.850  0.2345  0.1936  0.0831
  125ACOH    O1 9896   4.057   2.801   1.880 -0.5559  0.4433  0.2041
  125ACOH    C1 9897   4.205   2.984   1.834  0.1906 -0.3512 -0.2652
  125ACOH    H1 9898   4.209   3.015   1.730  1.2930 -0.7724 -0.3513
  125ACOH    H2 9899   4.298   3.001   1.888 -0.1280 -1.3395  0.6064
  125ACOH    H3 9900   4.132   3.044   1.889 -2.4661 -2.5883 -1.2527
  126ACOH    H4 9901   3.364   9.432   0.094 -0.4933  0.5884 -0.9148
  126ACOH    O2 9902   3.331   9.346   0.062 -0.0721  0.1020 -0.0666
  126ACOH    C2 9903   3.196   9.338   0.074 -0.5036  0.4473  1.2069
  126ACOH    O1 9904   3.124   9.435   0.088  0.2046  0.3409 -0.2348
  126ACOH    C1 9905   3.148   9.211   0.026  0.5348  0.0143  0.0837
  126ACOH    H1 9906   3.039   9.210   0.034  0.3803 -1.3284 -1.9629
  126ACOH    H2 9907   3.194   9.145   0.100  0.6063 -0.2267 -0.1773
  126ACOH    H3 9908   3.195   9.188  -0.069  0.7288 -2.1437  0.6678
  127ACOH    H4 9909   4.486   5.025   0.295 -0.3496 -0.8256  2.3181
  127ACOH    O2 9910   4.578   5.050   0.314  0.0114 -0.3058  0.0278
  127ACOH    C2 9911   4.649   4.940   0.276  0.0113  0.3102  1.3951
  127ACOH    O1 9912   4.604   4.839   0.226  0.1005 -0.1707 -0.0406
  127ACOH    C1 9913   4.800   4.958   0.263  0.3693 -0.3008 -0.2442
  127ACOH    H1 9914   4.839   4.993   0.359  0.8939  3.1889 -1.6662
  127ACOH    H2 9915   4.818   5.033   0.187 -0.9242 -1.3286 -1.6131
  127ACOH    H3 9916   4.849   4.862   0.246  0.0717 -0.0911 -2.3762
  128ACOH    H4 9917   4.406   5.313   1.164 -0.6344 -0.5926  0.0870
  128ACOH    O2 9918   4.350   5.390   1.185  0.0411 -0.0566 -0.0148
  128ACOH    C2 9919   4.247   5.407   1.102  0.1403 -0.4279 -0.1902
  128ACOH    O1 9920   4.226   5.340   1.006 -0.0680 -0.1584  0.3050
  128ACOH    C1 9921   4.155   5.517   1.151 -0.8002  0.0495  0.1293
  128ACOH    H1 9922   4.204   5.613   1.136 -1.7249  0.4808 -0.2004
  128ACOH    H2 9923   4.138   5.506   1.258  1.9254  3.2691  0.9546
  128ACOH    H3 9924   4.064   5.512   1.091  0.3800  2.1505 -1.9082
  129ACOH    H4 9925   4.433   1.691   0.983 -0.1512 -0.0228  0.1072
  129ACOH    O2 9926   4.457   1.619   1.043 -0.4688  0.0798  0.3551
  129ACOH    C2 9927   4.419   1.499   1.000  0.6548  0.2391 -0.0365
  129ACOH    O1 9928   4.370   1.467   0.894 -0.1127  0.0959 -0.1529
  129ACOH    C1 9929   4.471   1.399   1.097  0.3411  0.0772 -0.3384
  129ACOH    H1 9930   4.446   1.420   1.201  1.1217  1.1824 -0.3665
  129ACOH    H2 9931   4.579   1.411   1.104  0.3400  1.2217 -1.9383
  129ACOH    H3 9932   4.444   1.297   1.069 -1.6731  0.2005  1.0477
  130ACOH    H4 9933   3.936   3.776   0.073 -0.3816 -0.0116  1.3330
  130ACOH    O2 9934   3.943   3.680   0.061 -0.1478  0.2076 -0.5412
  130ACOH    C2 9935   4.062   3.647   0.012 -0.6082  0.1765  0.3412
  130ACOH    O1 9936   4.120   3.709  -0.072  0.2363 -0.2170  0.4934
  130ACOH    C1 9937   4.078   3.505   0.021 -0.2343  0.0575 -0.2077
  130ACOH    H1 9938   4.082   3.464  -0.080  0.7225 -0.4590  0.0404
  130ACOH    H2 9939   3.993   3.453   0.065 -0.9678  0.6379 -0.9134
  130ACOH    H3 9940   4.166   3.482   0.080  1.9324  2.2000 -2.4605
  131ACOH    H4 9941   4.668   4.274   2.643 -1.2193  0.9048  0.4471
  131ACOH    O2 9942   4.733   4.293   2.574 -0.4124 -0.4597  0.8156
  131ACOH    C2 9943   4.799   4.413   2.594  0.9212  0.0156  0.8945
  131ACOH    O1 9944   4.767   4.485   2.690 -0.1275  0.0606  1.1047
  131ACOH    C1 9945   4.903   4.428   2.488 -0.3776  0.0080 -0.7493
  131ACOH    H1 9946   4.872   4.504   2.416 -2.1716  0.0362  0.0298
  131ACOH    H2 9947   4.913   4.334   2.435  1.1352 -2.7084  3.9886
  131ACOH    H3 9948   5.000   4.451   2.534  0.4119 -0.2412 -2.2768
  132ACOH    H4 9949   3.613   3.232   2.178 -1.8603  0.4159 -2.5591
  132ACOH    O2 9950   3.676   3.173   2.134 -0.2915  0.2019 -0.1295
  132ACOH    C2 9951   3.626   3.144   2.013 -0.6302 -0.1437 -0.7719
  132ACOH    O1 9952   3.543   3.209   1.954 -0.4017  0.3745  0.0170
  132ACOH    C1 9953   3.704   3.040   1.951 -0.2779  0.9516  0.3743
  132ACOH    H1 9954   3.682   2.938   1.983  2.5293  0.6353  1.4465
  132ACOH    H2 9955   3.809   3.058   1.976 -0.4899 -1.2184  3.1055
  132ACOH    H3 9956   3.684   3.037   1.844  0.2139 -0.7157  0.3126
  133ACOH    H4 9957   3.991  10.062   1.329  0.1866  0.2356 -1.7784
  133ACOH    O2 9958   3.941   9.981   1.348  0.3970  0.3436 -0.7647
  133ACOH    C2 9959   3.892   9.997   1.475 -0.5285  0.3499 -0.4188
  133ACOH    O1 9960   3.941  10.066   1.564 -0.5543  0.2367 -0.0489
  133ACOH    C1 9961   3.776   9.907   1.491 -0.8745 -0.4074 -0.2944
  133ACOH    H1 9962   3.785   9.841   1.577 -2.0825 -3.9610 -2.7942
  133ACOH    H2 9963   3.760   9.837   1.409 -1.7777  0.8735 -1.2262
  133ACOH    H3 9964   3.690   9.974   1.496  0.3262  1.2682 -1.2906
  134ACOH    H4 9965   4.715   2.550   2.415 -0.5854  0.4289  1.8705
  134ACOH    O2 9966   4.804   2.589   2.421 -0.1663 -0.0775 -0.4724
  134ACOH    C2 9967   4.797   2.719   2.452 -0.5470 -0.5123 -0.1612
  134ACOH    O1 9968   4.714   2.762   2.528  0.1307  0.6203 -0.5048
  134ACOH    C1 9969   4.930   2.782   2.431 -0.1125 -0.3976  0.6033
  134ACOH    H1 9970   4.960   2.841   2.517 -0.1854  1.9785 -0.9434
  134ACOH    H2 9971   4.920   2.846   2.342  0.0948 -0.2065  0.7174
  134ACOH    H3 9972   5.006   2.707   2.411  0.9013  1.1554 -1.5696
  135ACOH    H4 9973   3.307   9.483   0.563 -1.1019 -0.3903  0.9635
  135ACOH    O2 9974   3.235   9.446   0.510 -0.3198 -0.3166 -0.1510
  135ACOH    C2 9975   3.124   9.522   0.516  0.2092  0.4671  1.0091
  135ACOH    O1 9976   3.106   9.618   0.594  0.1910  0.2186  0.1046
  135ACOH    C1 9977   3.011   9.465   0.431  0.2188 -0.5076 -0.1248
  135ACOH    H1 9978   2.961   9.529   0.359  0.9477 -1.7567 -1.7747
  135ACOH    H2 9979   2.943   9.441   0.513  1.7976 -2.6251  0.6048
  135ACOH    H3 9980   3.040   9.368   0.390 -0.5953 -1.6111  1.8186
  136ACOH    H4 9981   5.221   4.319   1.841  1.5478 -1.5323 -1.6360
  136ACOH    O2 9982   5.300   4.342   1.893 -0.3322  0.3779  0.5130
  136ACOH    C2 9983   5.261   4.346   2.015  1.0104  0.1071 -0.3957
  136ACOH    O1 9984   5.147   4.367   2.052 -0.0437  0.0822 -0.3234
  136ACOH    C1 9985   5.369   4.333   2.113 -0.1801  1.0679  0.4619
  136ACOH    H1 9986   5.457   4.289   2.066 -0.3778  0.3352  0.7748
  136ACOH    H2 9987   5.338   4.274   2.198  0.4648 -3.0274 -2.0320
  136ACOH    H3 9988   5.407   4.430   2.145  0.5563  1.5352 -1.6890
  137ACOH    H4 9989   4.109  10.425   1.522  1.9499  0.7475  1.0672
  137ACOH    O2 9990   4.135  10.332   1.519 -0.0444  0.2076 -0.0934
  137ACOH    C2 9991   4.266  10.317   1.520  0.0596 -0.2224  0.0102
  137ACOH    O1 9992   4.341  10.407   1.541 -0.5317 -0.1811  0.3780
  137ACOH    C1 9993   4.290  10.173   1.497 -0.1487 -0.1216 -0.2243
  137ACOH    H1 9994   4.240  10.127   1.582  0.9045 -0.8011  0.0298
  137ACOH    H2 9995   4.393  10.142   1.512 -0.7182 -1.3873  1.2286
  137ACOH    H3 9996   4.251  10.148   1.398  1.5980 -1.9268 -0.4776
  138ACOH    H4 9997   2.618   3.797   1.526  2.3369  0.3235 -1.0841
  138ACOH    O2 9998   2.596   3.752   1.442  0.1424 -0.6347 -0.0460
  138ACOH    C2 9999   2.701   3.799   1.364 -0.4553 -0.6015 -0.1510
  138ACOH    O110000   2.764   3.907   1.376  0.6342 -0.0007 -0.3024
  138ACOH    C110001   2.693   3.729   1.231 -1.5149  0.0919 -0.5602
  138ACOH    H110002   2.785   3.746   1.177 -1.2555  2.3077  0.5265
  138ACOH    H210003   2.603   3.756   1.176 -2.8633 -0.7670  1.1510
  138ACOH    H310004   2.687   3.623   1.256  1.6439 -0.0682 -0.3751
  139ACOH    H410005   3.434   9.605   1.973 -2.4198 -0.3017 -0.1510
  139ACOH    O210006   3.426   9.541   2.045  0.1739 -0.2226  0.2613
  139ACOH    C210007   3.431   9.420   1.984  0.7335  0.3126  0.3645
  139ACOH    O110008   3.470   9.403   1.870  0.1891  0.5081  0.0341
  139ACOH    C110009   3.412   9.309   2.084 -0.1375  0.6838  0.0959
  139ACOH    H110010   3.514   9.277   2.102  0.0335  1.0001 -0.2969
  139ACOH    H210011   3.351   9.237   2.030 -0.4961  1.3530 -0.4072
  139ACOH    H310012   3.368   9.338   2.179 -0.2471 -0.9944  0.5719
  140ACOH    H410013   3.893   5.070   2.566 -1.7937 -1.8741  2.8977
  140ACOH    O210014   3.906   5.149   2.622  0.7549 -0.0543 -0.0817
  140ACOH    C210015   3.909   5.256   2.546 -0.2309  0.0667  0.2845
  140ACOH    O110016   3.916   5.256   2.423 -0.1448  0.4160 -0.6493
  140ACOH    C110017   3.887   5.374   2.637 -0.3944 -0.2489 -0.3979
  140ACOH    H110018   3.958   5.378   2.719 -0.4794  1.1434 -0.3829
  140ACOH    H210019   3.785   5.365   2.676  0.9320  1.6956  3.7793
  140ACOH    H310020   3.895   5.462   2.573  0.3180 -0.2000 -0.2366
  141ACOH    H410021   4.481   5.277   1.544 -1.4515  0.2201 -2.8011
  141ACOH    O210022   4.477   5.374   1.545  0.1152  0.3063  0.0220
  141ACOH    C210023   4.362   5.434   1.521  0.2966  0.4625 -0.2131
  141ACOH    O110024   4.259   5.376   1.498 -0.0244 -0.4835 -0.4497
  141ACOH    C110025   4.361   5.577   1.506  0.5856  0.1262 -0.3148
  141ACOH    H110026   4.461   5.619   1.499  0.1506  0.7524 -3.4336
  141ACOH    H210027   4.308   5.622   1.589  2.4136  0.3412  0.7632
  141ACOH    H310028   4.301   5.595   1.417  0.8291 -1.6954 -0.8750
  142ACOH    H410029   4.002   4.995   1.056 -0.9425 -0.3595 -0.7186
  142ACOH    O210030   3.979   5.046   1.135  0.4618 -0.4010 -0.2774
  142ACOH    C210031   3.927   5.167   1.114  0.2206 -0.1266  0.1126
  142ACOH    O110032   3.902   5.203   1.002  0.0831  0.7200 -0.0510
  142ACOH    C110033   3.887   5.252   1.227  0.2195 -0.3402 -0.4807
  142ACOH    H110034   3.778   5.257   1.230  0.2796  0.5472  0.6761
  142ACOH    H210035   3.928   5.353   1.224 -1.3921  0.3164 -0.6816
  142ACOH    H310036   3.919   5.217   1.325  0.0971 -0.7073 -0.5711
  143ACOH    H410037   3.391  10.009   0.701 -0.0739  2.4348  1.1675
  143ACOH    O210038   3.347  10.032   0.617  0.2574  0.4347  0.4061
  143ACOH    C210039   3.417   9.967   0.518  0.3328 -0.1385  0.4259
  143ACOH    O110040   3.486   9.867   0.529 -0.0971 -0.0199 -0.3814
  143ACOH    C110041   3.360  10.012   0.386 -0.8188  0.2442 -0.2779
  143ACOH    H110042   3.264   9.963   0.369 -0.0176 -1.9012  1.1330
  143ACOH    H210043   3.432  10.000   0.306 -1.3340  0.2823 -0.7519
  143ACOH    H310044   3.326  10.116   0.386 -2.8525 -0.3928 -1.4493
  144ACOH    H410045   5.003   3.480   1.583  3.2451 -0.9212  0.0344
  144ACOH    O210046   4.980   3.435   1.500 -0.4185 -0.0699  0.4917
  144ACOH    C210047   4.881   3.351   1.535 -0.1470  0.1285 -0.2995
  144ACOH    O110048   4.829   3.348   1.643 -0.4951  0.3315  0.3219
  144ACOH    C110049   4.848   3.252   1.431  0.2982  0.3229 -0.1023
  144ACOH    H110050   4.922   3.240   1.352 -2.2107  0.4380 -2.5552
  144ACOH    H210051   4.756   3.284   1.382  0.9214  0.5561 -1.1385
  144ACOH    H310052   4.844   3.155   1.480  0.7856 -1.1250 -2.8367
  145ACOH    H410053   4.051   3.941   0.608  0.7090  0.3556  1.9780
  145ACOH    O210054   4.122   3.883   0.576 -0.1501  0.6245 -0.5325
  145ACOH    C210055   4.232   3.938   0.631 -0.4958  0.8343 -0.4289
  145ACOH    O110056   4.237   4.014   0.725 -0.5456 -0.0896  0.1074
  145ACOH    C110057   4.347   3.880   0.564  0.3055 -0.0980 -0.1040
  145ACOH    H110058   4.442   3.910   0.608  0.0248 -0.9835  1.1518
  145ACOH    H210059   4.343   3.902   0.457  1.5968  1.3585  0.1341
  145ACOH    H310060   4.345   3.771   0.567  3.1582 -0.1703  0.8803
  146ACOH    H410061   3.976   9.822   1.879  0.1396  0.3144 -0.0060
  146ACOH    O210062   3.986   9.738   1.832  0.1172  0.2056  0.1777
  146ACOH    C210063   3.859   9.706   1.805  0.3011 -0.8438 -0.6497
  146ACOH    O110064   3.755   9.767   1.823  0.1049  0.0810  0.3856
  146ACOH    C110065   3.868   9.593   1.706  0.1215  0.2387  0.3552
  146ACOH    H110066   3.920   9.642   1.623  1.8858  1.6199  2.2111
  146ACOH    H210067   3.769   9.561   1.673  0.1379 -1.3061  1.7663
  146ACOH    H310068   3.931   9.514   1.747 -0.4728  1.5439  3.9538
  147ACOH    H410069   5.001   1.955   0.626  0.9290 -0.6584 -0.8072
  147ACOH    O210070   5.078   1.991   0.673 -0.0753 -0.1144  0.4536
  147ACOH    C210071   5.051   2.117   0.712  0.1588  0.1780 -0.3347
  147ACOH    O110072   4.938   2.148   0.744  0.1115  0.2388  0.2549
  147ACOH    C110073   5.170   2.188   0.776  1.2367 -0.3825  0.5174
  147ACOH    H110074   5.215   2.258   0.705 -1.3165  0.4230 -0.3483
  147ACOH    H210075   5.244   2.117   0.815  1.7450 -0.9168 -1.3393
  147ACOH    H310076   5.131   2.242   0.862  0.8727  1.9591 -1.0709
  148ACOH    H410077   2.256   1.192   1.104  0.5659 -0.4914 -0.1418
  148ACOH    O210078   2.248   1.147   1.018  0.3126  0.1826 -0.4723
  148ACOH    C210079   2.292   1.019   1.035  0.4855 -0.4397 -0.6305
  148ACOH    O110080   2.370   0.972   1.119 -0.1362  0.5953 -0.4843
  148ACOH    C110081   2.261   0.942   0.913  0.0249 -0.2357 -0.0289
  148ACOH    H110082   2.298   0.839   0.914 -0.1436 -0.2908  0.4360
  148ACOH    H210083   2.305   0.992   0.826  0.1907 -0.5458 -0.1283
  148ACOH    H310084   2.154   0.941   0.892 -0.0275 -1.8881  0.2051
  149ACOH    H410085   3.754   5.130   0.296 -1.4780 -2.1259  0.0545
  149ACOH    O210086   3.701   5.156   0.219  0.1153 -0.4372 -0.5142
  149ACOH    C210087   3.704   5.041   0.142 -0.3271 -0.3010  0.0331
  149ACOH    O110088   3.759   4.937   0.180 -0.3730  0.1129  0.3912
  149ACOH    C110089   3.605   5.058   0.032  0.0121 -0.0883  0.2699
  149ACOH    H110090   3.512   5.098   0.072 -0.8659 -0.5333 -1.3089
  149ACOH    H210091   3.587   4.960  -0.012 -0.0466 -0.2087  0.5574
  149ACOH    H310092   3.656   5.127  -0.035  1.4086  0.1432  1.5422
  150ACOH    H410093   4.271   5.195   2.585 -0.4335 -0.3746 -0.1241
  150ACOH    O210094   4.289   5.286   2.556 -0.4407 -0.3136  0.0584
  150ACOH    C210095   4.286   5.294   2.427  0.6747  0.0288 -0.2788
  150ACOH    O110096   4.269   5.204   2.350  0.1774  0.1286 -0.2028
  150ACOH    C110097   4.283   5.437   2.380  0.0580 -0.0955 -0.4232
  150ACOH    H110098   4.184   5.460   2.341 -1.1392 -0.4791  2.2763
  150ACOH    H210099   4.361   5.451   2.305  0.4492  1.2913  0.2197
  150ACOH    H310100   4.301   5.496   2.469 -1.3823 -1.9178  1.1077
  151ACOH    H410101   3.845  10.067   0.377 -0.5101  0.1719 -0.2803
  151ACOH    O210102   3.862  10.134   0.309  0.3719  0.1551 -0.0757
  151ACOH    C210103   3.767  10.115   0.210 -0.6833 -0.4713  0.0662
  151ACOH    O110104   3.691  10.021   0.202  0.3183 -0.1966  0.4413
  151ACOH    C110105   3.779  10.222   0.108  0.0005  0.3268  0.0512
  151ACOH    H110106   3.874  10.219   0.055 -0.6800  1.1049 -1.2289
  151ACOH    H210107   3.770  10.322   0.149  1.0575 -0.9128  3.5004
  151ACOH    H310108   3.699  10.214   0.034  0.7646  1.9383 -0.9709
  152SOL     OW10109   3.234  10.132   0.965 -0.1408  0.1516 -0.5123
  152SOL    HW110110   3.249  10.165   1.058 -0.2368 -0.6581 -0.2084
  152SOL    HW210111   3.183  10.201   0.913 -1.9466 -0.2692  0.6546
  153SOL     OW10112   4.402   4.385   2.540 -0.1621  0.1987  0.4610
  153SOL    HW110113   4.413   4.357   2.635 -0.1108  0.7651  0.6253
  153SOL    HW210114   4.471   4.454   2.517 -0.5711  0.5263  0.1990
  154SOL     OW10115   3.729   3.886   0.015 -0.1867 -0.7178  0.5269
  154SOL    HW110116   3.732   3.976  -0.029 -3.3705 -0.9498 -0.2801
  154SOL    HW210117   3.722   3.815  -0.055 -2.5704 -1.2582  1.2515
  155SOL     OW10118   2.981  10.389   0.129 -0.0447 -0.0376 -0.0804
  155SOL    HW110119   3.068  10.422   0.165 -0.2165 -0.4584  0.7297
  155SOL    HW210120   2.910  10.456   0.147 -0.6321 -1.3230  2.6229
  156SOL     OW10121   3.078   3.757   1.013 -0.0856  0.1867  0.0788
  156SOL    HW110122   3.079   3.853   0.987 -0.2880  0.2948  0.4710
  156SOL    HW210123   2.998   3.712   0.972 -0.2937  0.3103  0.3536
  157SOL     OW10124   3.760   1.502   2.496 -0.0992  0.2181  0.3073
  157SOL    HW110125   3.784   1.431   2.562 -1.5615 -0.4520  0.1296
  157SOL    HW210126   3.793   1.477   2.406 -1.0152 -0.4905  0.1517
  158SOL     OW10127   4.255   3.097   0.113  0.4182 -0.2757 -0.3519
  158SOL    HW110128   4.224   3.016   0.164 -0.8612  1.6054  1.9562
  158SOL    HW210129   4.317   3.151   0.169 -0.7202  1.6601 -0.9097
  159SOL     OW10130   2.843   3.470   2.643 -0.3196  0.3224  0.0810
  159SOL    HW110131   2.932   3.511   2.665 -0.5647  0.0055  1.7039
  159SOL    HW210132   2.789   3.535   2.590 -0.0235  1.4340  1.1265
  160SOL     OW10133   3.438   0.844   1.464 -0.1686 -0.4528  0.4196
  160SOL    HW110134   3.385   0.845   1.548 -1.0972 -0.5947 -0.1606
  160SOL    HW210135   3.468   0.937   1.442 -1.2716 -0.1791  0.0570
  161SOL     OW10136   3.525   2.426   2.342  0.4408  0.5515 -0.0971
  161SOL    HW110137   3.507   2.458   2.249  0.1500 -0.5732 -0.4404
  161SOL    HW210138   3.555   2.330   2.338  1.1540  0.7289  0.9084
  162SOL     OW10139   2.664   3.755   1.962  0.0935  0.8751  0.2429
  162SOL    HW110140   2.709   3.671   1.931  0.4851  2.1216 -2.8149
  162SOL    HW210141   2.719   3.798   2.034  0.8681 -0.5089  0.4926
  163SOL     OW10142   4.609   4.701   1.371 -0.0758 -0.1577  0.5736
  163SOL    HW110143   4.596   4.652   1.457  1.7533 -2.3603 -0.3455
  163SOL    HW210144   4.682   4.658   1.318 -1.5724  0.7434 -2.3867
  164SOL     OW10145   3.466   3.636   0.304  0.7670 -0.2668  0.1105
  164SOL    HW110146   3.554   3.682   0.295  0.4797  0.1464 -0.6234
  164SOL    HW210147   3.461   3.561   0.238 -0.3721  1.2225 -1.5528
  165SOL     OW10148   2.640   3.145   2.468  0.0256  0.3631  0.0441
  165SOL    HW110149   2.667   3.164   2.562  1.1083 -1.2863  0.0759
  165SOL    HW210150   2.641   3.047   2.452 -3.1411  0.4123 -0.8061
  166SOL     OW10151   3.103  10.332   2.492 -0.5310 -0.6894 -0.4945
  166SOL    HW110152   3.094  10.362   2.397 -0.6342 -1.7555 -0.8324
  166SOL    HW210153   3.193  10.290   2.504 -0.6305 -0.8109 -0.1906
  167SOL     OW10154   3.943  10.547   0.873 -0.4386 -0.1827 -0.1785
  167SOL    HW110155   3.874  10.590   0.930 -1.4583 -0.0900 -1.4558
  167SOL    HW210156   3.947  10.593   0.784  0.6876 -0.7023 -0.4106
  168SOL     OW10157   3.900   2.191   2.411  0.2389 -0.1940  0.3917
  168SOL    HW110158   3.990   2.162   2.444 -0.1086 -1.6851  0.0682
  168SOL    HW210159   3.911   2.240   2.324  0.6632 -1.2363 -0.1505
  169SOL     OW10160   2.774   1.744   1.906  0.0585 -0.0027  0.7410
  169SOL    HW110161   2.841   1.795   1.852  0.0324  1.0548  1.6920
  169SOL    HW210162   2.688   1.737   1.854 -0.6621  2.8237  1.4233
  170SOL     OW10163   3.749   0.895   0.995  0.7486 -0.0525 -0.4848
  170SOL    HW110164   3.683   0.878   0.921  0.5882  0.2162 -0.4049
  170SOL    HW210165   3.767   0.810   1.044  1.1223 -0.3065 -1.0579
  171SOL     OW10166   2.702   3.040   2.206  0.2678 -0.2900 -0.1373
  171SOL    HW110167   2.650   3.119   2.238  0.4810 -0.2033 -0.0034
  171SOL    HW210168   2.800   3.059   2.216  0.3459 -0.1696 -1.0315
  172SOL     OW10169   2.803   1.979   1.397 -0.1773 -0.8087  0.2052
  172SOL    HW110170   2.827   1.985   1.300  1.5697 -1.3285  0.5977
  172SOL    HW210171   2.872   1.926   1.446 -2.4477 -2.8514  1.2747
  173SOL     OW10172   4.971   3.800   1.424 -0.2147 -0.0745 -0.2178
  173SOL    HW110173   5.063   3.780   1.458 -0.5041 -0.6414  0.2428
  173SOL    HW210174   4.943   3.891   1.453  0.2748  0.1665 -0.5103
  174SOL     OW10175   3.051   3.966   0.684 -0.0993 -0.1862  0.1379
  174SOL    HW110176   3.080   3.982   0.778  0.6668  1.1578 -0.3173
  174SOL    HW210177   3.132   3.953   0.626 -0.4731  1.1478 -0.7080
  175SOL     OW10178   2.955   2.767   0.269 -0.2174 -0.1530 -0.0985
  175SOL    HW110179   2.969   2.794   0.173 -0.6824  1.8224  0.3664
  175SOL    HW210180   2.859   2.776   0.293 -0.2162 -1.3181  0.3681
  176SOL     OW10181   2.981   3.116   2.103 -0.0437  0.3475  0.1772
  176SOL    HW110182   2.947   3.113   2.009  1.9260  3.3593 -0.7325
  176SOL    HW210183   3.080   3.133   2.101  0.2998 -1.1706  2.7926
  177SOL     OW10184   2.690   3.660   2.457  0.6635 -0.8450 -0.3727
  177SOL    HW110185   2.648   3.569   2.461  1.6660 -1.4297 -2.7080
  177SOL    HW210186   2.783   3.653   2.421  1.3163  0.9410  0.8844
  178SOL     OW10187   3.034  10.155   0.001  0.2370  0.0175  0.5096
  178SOL    HW110188   3.001  10.230   0.058  1.4894  0.7344  0.2859
  178SOL    HW210189   3.015  10.175  -0.095 -0.0137 -0.2495  0.5033
  179SOL     OW10190   2.801   3.221  -0.004 -0.5695 -0.0651 -0.0565
  179SOL    HW110191   2.810   3.318  -0.024 -1.9417 -0.1838 -1.4166
  179SOL    HW210192   2.722   3.207   0.056 -1.0263 -0.4091 -0.7187
  180SOL     OW10193   2.757  10.202   0.390 -0.0489  0.1413  0.3053
  180SOL    HW110194   2.711  10.285   0.420 -0.0147  0.5862 -0.8584
  180SOL    HW210195   2.727  10.125   0.447 -1.8320  0.5125 -0.0935
  181SOL     OW10196   3.920   9.981   1.968  0.3790 -0.0032  0.6555
  181SOL    HW110197   3.928  10.077   1.943  0.8029 -0.0446  0.6439
  181SOL    HW210198   3.843   9.970   2.031  0.2205  0.3159  0.5191
  182SOL     OW10199   4.013   3.459   1.266 -0.0963  0.6535  0.0998
  182SOL    HW110200   3.939   3.479   1.202  0.5908  2.3420 -0.1957
  182SOL    HW210201   3.976   3.418   1.348 -1.4421  1.9180  0.1410
  183SOL     OW10202   3.208   3.027   1.388  0.0913 -0.4771  0.6616
  183SOL    HW110203   3.121   3.041   1.342  0.4970  3.2342  0.8964
  183SOL    HW210204   3.278   3.005   1.320 -0.1636  0.8148 -0.0298
  184SOL     OW10205   2.498   2.080   0.044  0.1680  0.2095 -0.6558
  184SOL    HW110206   2.508   2.179   0.047 -0.1083  0.3534 -3.1132
  184SOL    HW210207   2.403   2.054   0.061  0.0388  0.4418 -1.0223
  185SOL     OW10208   2.941   1.345   1.632  0.6122 -0.3733  0.3503
  185SOL    HW110209   3.009   1.418   1.626  1.1249 -0.9286 -0.6424
  185SOL    HW210210   2.938   1.295   1.545 -1.1992 -0.2266  0.3156
  186SOL     OW10211   4.358   3.943   2.293 -0.4382 -0.0951  0.1458
  186SOL    HW110212   4.403   4.025   2.327  0.4188 -0.7223  0.5259
  186SOL    HW210213   4.266   3.966   2.261  0.1187  1.1647 -0.5497
  187SOL     OW10214   3.051   2.207   2.351  0.2470 -0.1127 -0.3562
  187SOL    HW110215   3.087   2.114   2.356 -0.0866 -0.2554 -0.6058
  187SOL    HW210216   3.090   2.262   2.426  0.1833 -0.5386 -0.0086
  188SOL     OW10217   4.395   4.408   0.104 -0.0911  0.3026 -0.5458
  188SOL    HW110218   4.301   4.426   0.132  0.2479 -0.0568  0.8266
  188SOL    HW210219   4.451   4.489   0.119 -0.1336  0.4506 -1.1749
  189SOL     OW10220   3.600  10.519   0.930  0.2305  0.8187 -0.5202
  189SOL    HW110221   3.601  10.437   0.987 -1.6876  0.1217 -1.4498
  189SOL    HW210222   3.506  10.539   0.902  0.2271  4.9786  2.0376
  190SOL     OW10223   2.800   0.979   2.290 -0.0287 -0.3633 -0.2283
  190SOL    HW110224   2.831   0.884   2.294 -0.8664 -0.6299  0.0809
  190SOL    HW210225   2.805   1.012   2.195 -0.5598 -1.0024 -0.4848
  191SOL     OW10226   3.366   4.370   0.624 -0.2042  0.4221 -0.4365
  191SOL    HW110227   3.274   4.383   0.586 -0.9288 -1.2911  0.6673
  191SOL    HW210228   3.362   4.304   0.699  2.2525 -1.1280 -1.6157
  192SOL     OW10229   4.133   3.036   0.591  0.6918  0.2967  0.6393
  192SOL    HW110230   4.110   3.056   0.687 -0.0650  0.5753  0.4014
  192SOL    HW210231   4.150   3.121   0.542 -0.2476  0.2327  0.1959
  193SOL     OW10232   3.456   3.513   1.695  0.5570  0.2839 -0.7345
  193SOL    HW110233   3.537   3.512   1.637  0.9326  0.4918 -0.2213
  193SOL    HW210234   3.484   3.509   1.791 -0.0662 -0.6896 -0.5802
  194SOL     OW10235   3.135   3.851  -0.049  0.1998  0.5625  0.2011
  194SOL    HW110236   3.149   3.929   0.011 -1.0800  1.2260 -0.3470
  194SOL    HW210237   3.196   3.859  -0.128  0.4902  0.6989  0.4380
  195SOL     OW10238   2.968   3.772   1.895  0.1156 -0.0214  0.0529
  195SOL    HW110239   2.926   3.681   1.901 -0.2535  0.0929 -0.7131
  195SOL    HW210240   2.940   3.815   1.809  2.0782 -0.0758 -0.6342
  196SOL     OW10241   2.817  10.535   2.235 -0.3243 -0.3937  0.3814
  196SOL    HW110242   2.909  10.496   2.233 -0.7732 -1.4345 -0.8773
  196SOL    HW210243   2.808  10.594   2.315  1.0909 -1.1202  1.1091
  197SOL     OW10244   2.334   2.792   0.549 -0.4148  0.5383 -0.4753
  197SOL    HW110245   2.282   2.874   0.575  0.2790  0.7054  0.4020
  197SOL    HW210246   2.383   2.810   0.463 -0.1011  1.1164 -0.1792
  198SOL     OW10247   3.292   4.601   0.789  0.6012  0.0784  0.1414
  198SOL    HW110248   3.245   4.663   0.726  2.6725  2.4432  0.8358
  198SOL    HW210249   3.344   4.533   0.737 -0.0323  0.1931 -0.6561
  199SOL     OW10250   3.722   9.820   1.154  0.0939 -0.3337  0.2488
  199SOL    HW110251   3.794   9.883   1.186  0.3532  0.3991 -1.7091
  199SOL    HW210252   3.634   9.849   1.190  0.1225  1.5562 -1.1081
  200SOL     OW10253   3.715   2.660   1.813 -0.4064  0.6693 -0.1442
  200SOL    HW110254   3.659   2.695   1.888 -0.7517 -1.9275  0.8660
  200SOL    HW210255   3.664   2.666   1.727 -1.8093 -0.5817  0.5829
  201SOL     OW10256   3.106   3.214   0.393 -0.8994  0.2529  0.0801
  201SOL    HW110257   3.110   3.180   0.299 -1.6620 -0.5263  0.3222
  201SOL    HW210258   3.198   3.238   0.424 -0.6724  0.7014 -0.9355
  202SOL     OW10259   4.739   2.268   0.940 -0.5588  0.0763 -0.7828
  202SOL    HW110260   4.791   2.255   0.856  1.2729 -1.1419  0.4915
  202SOL    HW210261   4.656   2.212   0.938  0.4603 -1.4412 -0.9743
  203SOL     OW10262   3.790   1.445   1.604  0.0712 -0.2323 -0.1916
  203SOL    HW110263   3.759   1.513   1.537 -0.3529 -0.0170  0.2213
  203SOL    HW210264   3.875   1.403   1.572  0.5701  0.8033 -0.2381
  204SOL     OW10265   3.075  10.412   0.914 -0.1647 -0.0260 -0.2975
  204SOL    HW110266   2.985  10.412   0.958 -0.1120  1.1374 -0.1620
  204SOL    HW210267   3.063  10.419   0.814 -0.2388 -0.4251 -0.3155
  205SOL     OW10268   2.880   2.766  -0.039 -0.2332  0.5009 -0.3771
  205SOL    HW110269   2.957   2.817  -0.079  0.1381  0.5367  0.3585
  205SOL    HW210270   2.894   2.668  -0.053 -0.7341  0.5740 -1.4225
  206SOL     OW10271   4.388   4.415   0.847 -0.5272  0.0891 -0.0632
  206SOL    HW110272   4.330   4.476   0.792  1.1431  1.4030 -0.4347
  206SOL    HW210273   4.381   4.440   0.944  2.1706  2.7237 -0.4614
  207SOL     OW10274   4.129   1.523   0.813 -0.2034 -0.0694 -0.2249
  207SOL    HW110275   4.226   1.500   0.824 -0.4118 -1.7162 -1.5082
  207SOL    HW210276   4.120   1.604   0.756  0.4042 -1.0244 -1.7310
  208SOL     OW10277   3.849   4.798   1.261 -0.4092 -0.1338 -0.2649
  208SOL    HW110278   3.753   4.771   1.263 -0.6424  0.6994 -0.3640
  208SOL    HW210279   3.858   4.889   1.221  0.3298  0.1938  0.6279
  209SOL     OW10280   2.954   1.694   0.132  0.0411  0.1284  0.3290
  209SOL    HW110281   2.867   1.687   0.083  0.5077  0.1752 -0.5156
  209SOL    HW210282   2.960   1.785   0.174  0.9659  1.2888 -2.1448
  210SOL     OW10283   3.619  10.556   0.656 -0.1421 -0.6725 -0.4578
  210SOL    HW110284   3.615  10.560   0.756  2.7351 -0.6471 -0.2978
  210SOL    HW210285   3.653  10.466   0.628 -1.0600 -0.7226 -1.4202
  211SOL     OW10286   3.399   3.864   0.915 -0.3982 -0.1069 -0.0199
  211SOL    HW110287   3.382   3.884   1.012  1.5547 -0.6608  0.4635
  211SOL    HW210288   3.489   3.899   0.890  0.2638 -2.4139 -0.9091
  212SOL     OW10289   4.059  10.603   1.523 -0.2278 -0.6287  0.2788
  212SOL    HW110290   3.978  10.565   1.477  1.9037 -2.9442 -1.6730
  212SOL    HW210291   4.049  10.703   1.531 -4.0342 -1.0230  1.7043
  213SOL     OW10292   3.198   3.419   1.974  0.2764  0.2547  0.5977
  213SOL    HW110293   3.242   3.507   1.954 -1.3402  1.1911  1.0909
  213SOL    HW210294   3.117   3.408   1.916  0.2597 -0.7477  0.8022
  214SOL     OW10295   3.853   3.916   1.022  0.1725  0.2923 -0.0853
  214SOL    HW110296   3.839   3.926   1.120 -1.0686  0.1964 -0.2512
  214SOL    HW210297   3.929   3.975   0.993  1.1455 -0.3583  1.0684
  215SOL     OW10298   3.815   5.030   0.704 -0.5141  0.1480  0.0951
  215SOL    HW110299   3.796   4.939   0.739 -4.3301  0.1360 -1.8020
  215SOL    HW210300   3.792   5.098   0.774  0.6770 -0.2309  0.8763
  216SOL     OW10301   3.973   3.752   1.329 -0.0279 -0.0260  0.2249
  216SOL    HW110302   4.017   3.799   1.405  0.0378  0.4874 -0.1294
  216SOL    HW210303   4.001   3.656   1.328 -0.1539 -0.0694  0.9425
  217SOL     OW10304   3.654   1.630   1.427 -0.1713  0.2141  0.1276
  217SOL    HW110305   3.645   1.592   1.335 -0.2995 -0.9971  0.6386
  217SOL    HW210306   3.564   1.637   1.470  0.0817 -1.0811  0.8979
  218SOL     OW10307   3.857   2.916   1.625 -0.0886  0.3589 -0.1739
  218SOL    HW110308   3.822   2.886   1.714  0.0421  0.9009  0.0645
  218SOL    HW210309   3.943   2.869   1.605 -1.2846 -1.5110 -1.0858
  219SOL     OW10310   3.556   2.037   1.230  0.4284 -0.1593  0.0546
  219SOL    HW110311   3.574   1.953   1.178 -0.3758  0.8382 -1.8727
  219SOL    HW210312   3.497   2.015   1.308  1.2948 -1.5957  0.3388
  220SOL     OW10313   2.584   1.075   0.789 -0.0655  0.4134  0.1722
  220SOL    HW110314   2.562   0.985   0.752 -0.5488 -0.4759  2.5192
  220SOL    HW210315   2.500   1.129   0.797  0.2305  1.0927 -1.2713
  221SOL     OW10316   4.812   4.382   1.693  0.4674  0.3748 -1.1838
  221SOL    HW110317   4.776   4.289   1.697  0.6109  0.4082  3.0045
  221SOL    HW210318   4.736   4.447   1.685 -0.0685  0.1498  1.7225
  222SOL     OW10319   4.101   1.875   2.457  0.4032  0.5291 -0.1347
  222SOL    HW110320   4.144   1.804   2.513 -2.4442 -0.1417  1.2999
  222SOL    HW210321   4.141   1.964   2.479  0.9025 -0.0396  1.3170
  223SOL     OW10322   3.519   2.979   1.522  0.5291  0.5154  0.4616
  223SOL    HW110323   3.526   2.942   1.430  0.6267  0.6127  0.4297
  223SOL    HW210324   3.430   3.024   1.533  0.5177  0.5047  0.4148
  224SOL     OW10325   3.990   2.595   2.356  0.0605  0.4604 -0.2896
  224SOL    HW110326   3.981   2.657   2.278 -0.4341  1.8077  0.8161
  224SOL    HW210327   3.974   2.501   2.325  0.2861  0.9248 -1.8864
  225SOL     OW10328   2.908   4.590   1.383 -0.6603  0.1151  0.0921
  225SOL    HW110329   2.979   4.602   1.453 -1.1978  0.3923  0.5964
  225SOL    HW210330   2.850   4.513   1.407 -0.1205 -0.5296 -0.6732
  226SOL     OW10331   3.283   3.264   2.321 -0.6360  0.3970  0.0425
  226SOL    HW110332   3.266   3.207   2.241 -1.4242 -0.5467  0.8600
  226SOL    HW210333   3.311   3.206   2.398  1.6903  1.4441  0.0263
  227SOL     OW10334   2.598   1.143   0.533 -0.2924  0.1462 -0.3152
  227SOL    HW110335   2.638   1.232   0.512  1.2485 -0.7409 -1.2742
  227SOL    HW210336   2.612   1.123   0.630  1.1653  0.0975 -0.5128
  228SOL     OW10337   2.789   1.074   1.761  0.0963 -0.2205 -0.3701
  228SOL    HW110338   2.878   1.029   1.773 -0.2292 -0.7675  0.0540
  228SOL    HW210339   2.784   1.116   1.671  0.5457 -0.7453 -0.6404
  229SOL     OW10340   4.872   4.473   2.035  0.1114 -0.0222 -0.3213
  229SOL    HW110341   4.830   4.395   1.989  0.1541 -0.3508  0.1898
  229SOL    HW210342   4.971   4.472   2.022 -0.0028  0.6071 -1.3068
  230SOL     OW10343   3.695   3.499   0.754  0.2067  0.0994  0.2969
  230SOL    HW110344   3.713   3.560   0.831  0.6043  0.2604  0.0728
  230SOL    HW210345   3.599   3.508   0.727  0.0168 -0.0859  0.8836
  231SOL     OW10346   3.028   1.840   1.431 -0.1249 -0.2469  0.2470
  231SOL    HW110347   3.047   1.880   1.341  0.5869 -1.3188 -0.1005
  231SOL    HW210348   3.054   1.743   1.429  0.2837 -0.1744  1.7353
  232SOL     OW10349   2.567   1.452   0.819  0.1175  0.3479 -0.2188
  232SOL    HW110350   2.500   1.379   0.805 -1.0503  1.5785 -1.1777
  232SOL    HW210351   2.640   1.444   0.752 -1.1021  1.2725 -1.6859
  233SOL     OW10352   2.860  10.653   0.155  0.3315 -0.2516  0.0497
  233SOL    HW110353   2.938  10.697   0.111  0.4751 -0.4045  0.1515
  233SOL    HW210354   2.777  10.705   0.135  0.2841 -0.7161 -0.9874
  234SOL     OW10355   3.117   2.940   0.967  0.5194  0.3129  0.0630
  234SOL    HW110356   3.175   2.959   0.888  2.5105 -3.8947  0.3357
  234SOL    HW210357   3.069   2.854   0.952 -0.6296  0.4862  2.5896
  235SOL     OW10358   2.346   2.346   1.301 -0.4814 -0.6026  0.1218
  235SOL    HW110359   2.351   2.408   1.379 -0.4978 -0.7354  0.2269
  235SOL    HW210360   2.267   2.286   1.310 -0.2243 -0.9222  0.2266
  236SOL     OW10361   3.290   2.210   1.510 -0.2053  0.1168  0.2343
  236SOL    HW110362   3.261   2.282   1.447 -0.9374  0.0375  0.4759
  236SOL    HW210363   3.282   2.243   1.604 -0.5235 -0.2704  0.3458
  237SOL     OW10364   2.401   1.766   0.116  0.0203  0.5492  0.0400
  237SOL    HW110365   2.329   1.836   0.112 -1.2719 -0.7952 -0.8219
  237SOL    HW210366   2.406   1.730   0.209 -0.0101  1.0690  0.2459
  238SOL     OW10367   2.046   1.931   0.852 -0.3234  0.6977 -0.3191
  238SOL    HW110368   2.030   2.024   0.887  1.6927  1.3189 -0.9469
  238SOL    HW210369   2.093   1.937   0.764  0.6821 -0.9417  0.0861
  239SOL     OW10370   2.595   3.714   0.531 -0.0546  0.1287  0.5317
  239SOL    HW110371   2.598   3.616   0.554  0.0382 -0.1376 -0.6038
  239SOL    HW210372   2.677   3.738   0.480 -0.5547  0.5797 -0.0606
  240SOL     OW10373   3.114   1.015   0.998 -0.5100  0.2121 -0.1029
  240SOL    HW110374   3.185   0.993   0.931 -0.2942 -1.5425  0.6532
  240SOL    HW210375   3.118   0.948   1.073 -1.5202  1.4200  1.0552
  241SOL     OW10376   3.572   4.734   1.249  0.3526 -0.8918 -0.3969
  241SOL    HW110377   3.503   4.757   1.180 -1.1659  3.3490  2.2944
  241SOL    HW210378   3.531   4.675   1.319  0.6126 -1.6338 -0.8730
  242SOL     OW10379   2.969   3.412   2.133 -0.0298 -0.1130 -0.1297
  242SOL    HW110380   3.058   3.417   2.088  0.2525 -0.7206  0.3484
  242SOL    HW210381   2.952   3.318   2.163 -0.2842  0.2550  0.8978
  243SOL     OW10382   3.414   2.598   0.405 -0.3262  0.0096 -0.0418
  243SOL    HW110383   3.350   2.621   0.332  0.4992  0.8158 -0.5175
  243SOL    HW210384   3.481   2.532   0.371 -1.7886 -2.0286  0.8902
  244SOL     OW10385   4.496   4.390   1.905 -0.3242  0.1559  0.2780
  244SOL    HW110386   4.428   4.396   1.831  0.7800 -0.3814 -0.7988
  244SOL    HW210387   4.530   4.482   1.926  1.9884 -0.0239 -2.4011
  245SOL     OW10388   2.586   1.251   0.087  0.6287 -0.3616  0.5924
  245SOL    HW110389   2.598   1.174   0.150  0.3227 -0.3204  0.7027
  245SOL    HW210390   2.571   1.216  -0.006  0.5577 -0.4348  0.6310
  246SOL     OW10391   2.374   2.511   1.498  0.5357  0.4635  0.2024
  246SOL    HW110392   2.462   2.549   1.471  1.1840  0.0430  1.6448
  246SOL    HW210393   2.310   2.585   1.519  1.1315  0.7803  0.9321
  247SOL     OW10394   4.175   3.843   1.154 -0.4553 -0.2845 -0.2154
  247SOL    HW110395   4.211   3.786   1.080  2.5698 -0.0722  1.0214
  247SOL    HW210396   4.124   3.787   1.218  1.5101 -1.4548  0.3683
  248SOL     OW10397   3.919   3.784   1.673  0.3989 -0.1931 -0.2288
  248SOL    HW110398   3.847   3.728   1.714  0.5662  0.3667  0.8448
  248SOL    HW210399   4.004   3.772   1.725  0.9268 -0.4011 -1.1388
  249SOL     OW10400   4.026   2.854   0.856  0.4347  0.5522  0.0498
  249SOL    HW110401   3.927   2.861   0.846  0.3002 -0.9950  0.2640
  249SOL    HW210402   4.050   2.765   0.893  1.9497  0.7548 -0.4035
  250SOL     OW10403   4.104   1.299   0.950  0.3976  0.6878 -0.4232
  250SOL    HW110404   4.162   1.227   0.912 -0.1428  0.3973 -0.6946
  250SOL    HW210405   4.119   1.383   0.898  2.3280  1.2617  0.9857
  251SOL     OW10406   3.033   3.315   1.804 -0.2961 -0.0282 -0.3586
  251SOL    HW110407   2.947   3.356   1.773 -0.4894 -0.2682 -0.1430
  251SOL    HW210408   3.026   3.216   1.797  0.5785 -0.0061 -1.9797
  252SOL     OW10409   4.017   4.410   2.649 -0.2059 -1.0003 -0.6305
  252SOL    HW110410   4.057   4.383   2.562 -0.6504  2.8973 -2.1584
  252SOL    HW210411   3.919   4.390   2.648 -0.3568 -0.2427 -1.3505
  253SOL     OW10412   3.603   4.326   0.897 -0.5336  0.1332 -0.5293
  253SOL    HW110413   3.531   4.260   0.876 -0.2712 -0.3045 -0.0772
  253SOL    HW210414   3.653   4.348   0.813 -0.3445 -0.5754 -0.6052
  254SOL     OW10415   2.268   1.259   1.256  0.0523  0.1285  0.2579
  254SOL    HW110416   2.194   1.255   1.323  0.6113 -1.2655  0.8012
  254SOL    HW210417   2.354   1.282   1.302  0.5162 -1.2376  0.0993
  255SOL     OW10418   3.713   3.828   0.707 -0.2499 -0.2955 -0.1541
  255SOL    HW110419   3.792   3.780   0.746 -0.0619 -0.8417 -1.1807
  255SOL    HW210420   3.630   3.774   0.725 -0.2635 -0.1833  0.1218
  256SOL     OW10421   3.413   3.166   1.268  0.5801 -0.0129  0.0153
  256SOL    HW110422   3.328   3.203   1.305  0.7827 -0.4891  0.9730
  256SOL    HW210423   3.491   3.213   1.309  0.8067 -0.5877  0.2554
  257SOL     OW10424   2.449   3.454   0.374 -0.2670  0.0974  0.1154
  257SOL    HW110425   2.470   3.535   0.320 -1.4499  0.9548  0.9175
  257SOL    HW210426   2.525   3.434   0.436  0.0913  0.4950 -0.2012
  258SOL     OW10427   4.590   3.181   1.752  0.2271 -0.0929 -0.3056
  258SOL    HW110428   4.682   3.216   1.770  0.5727 -1.9358  1.6131
  258SOL    HW210429   4.572   3.183   1.653  1.9289  1.2231 -0.5971
  259SOL     OW10430   4.628   2.032   0.726 -0.3321 -0.2972 -0.5618
  259SOL    HW110431   4.605   1.941   0.690  0.0264 -0.4901 -0.3118
  259SOL    HW210432   4.728   2.039   0.737 -0.5067 -0.7350  1.6489
  260SOL     OW10433   3.923   2.806   2.153 -0.2886  0.5479 -0.3092
  260SOL    HW110434   3.959   2.793   2.061  0.9924 -0.4669  0.3144
  260SOL    HW210435   3.991   2.856   2.208 -1.6925  2.5605 -0.3439
  261SOL     OW10436   2.332   1.327   0.205 -0.1742 -0.2343  0.2693
  261SOL    HW110437   2.288   1.400   0.152 -2.1404 -2.5966 -1.4755
  261SOL    HW210438   2.420   1.304   0.163 -1.0341 -1.0410 -1.1696
  262SOL     OW10439   3.517   9.985   1.213  0.3370  0.0090 -0.3648
  262SOL    HW110440   3.504  10.000   1.311 -1.5579  0.1810 -0.6365
  262SOL    HW210441   3.436   9.940   1.175 -0.0264  2.2824 -2.3566
  263SOL     OW10442   3.453   3.911   0.130  0.0078 -0.0362  0.1366
  263SOL    HW110443   3.535   3.859   0.108 -0.0470 -0.5239  1.0519
  263SOL    HW210444   3.375   3.849   0.137 -0.4140  0.4062 -0.5924
  264SOL     OW10445   2.630  10.804   1.621  0.4635  0.0695  0.2213
  264SOL    HW110446   2.593  10.739   1.555 -2.1292  0.3655  1.3182
  264SOL    HW210447   2.633  10.895   1.579 -2.4217  0.5112  0.8751
  265SOL     OW10448   4.118   3.522   2.404  0.5574  0.3953 -0.9897
  265SOL    HW110449   4.186   3.590   2.433  0.2086  0.6196 -0.6866
  265SOL    HW210450   4.161   3.432   2.401  0.4364  0.2449  0.9790
  266SOL     OW10451   3.125   4.055   2.236 -0.6048  0.1663 -0.6042
  266SOL    HW110452   3.097   4.058   2.140 -0.9519  0.5871 -0.4922
  266SOL    HW210453   3.060   3.999   2.288 -1.3099  1.2345 -0.3233
  267SOL     OW10454   2.231   1.823   1.058 -0.0926 -0.0750  0.2908
  267SOL    HW110455   2.182   1.859   0.979  0.3484  0.4511  0.2555
  267SOL    HW210456   2.249   1.725   1.045  1.2057  0.3056 -0.8820
  268SOL     OW10457   4.501   1.591   0.392  0.1478 -0.4837 -0.1196
  268SOL    HW110458   4.406   1.601   0.419  0.1608  2.1096 -0.9009
  268SOL    HW210459   4.513   1.505   0.342 -1.8116 -0.6720 -0.2901
  269SOL     OW10460   2.617   2.725   2.198 -0.0148  0.1609 -0.8963
  269SOL    HW110461   2.571   2.656   2.142 -1.7200  1.7067 -1.4469
  269SOL    HW210462   2.633   2.807   2.142  0.7905  0.6941  0.1159
  270SOL     OW10463   3.549   1.474   0.745 -0.1927 -0.1361  0.6051
  270SOL    HW110464   3.609   1.430   0.678 -1.2450 -1.0782  0.2553
  270SOL    HW210465   3.542   1.571   0.725  1.0017 -0.0665  0.4913
  271SOL     OW10466   2.053   1.661   0.725  0.1551 -0.3476  0.2398
  271SOL    HW110467   2.046   1.660   0.626 -2.0260 -1.3079  0.3868
  271SOL    HW210468   2.017   1.747   0.761 -1.2126 -0.9522  0.3341
  272SOL     OW10469   3.876   1.200   1.021  0.1779 -0.2367 -1.0701
  272SOL    HW110470   3.970   1.231   1.006 -0.1281  0.9310 -0.6389
  272SOL    HW210471   3.855   1.125   0.958  2.0246 -1.8338  0.1562
  273SOL     OW10472   3.083   2.398   1.693  1.0266  0.3145 -0.0130
  273SOL    HW110473   3.038   2.410   1.781  0.6006  0.8459 -0.2989
  273SOL    HW210474   3.014   2.381   1.622  1.3058  0.6402 -0.3656
  274SOL     OW10475   2.891   4.166   0.579  0.5747 -0.2172 -0.4625
  274SOL    HW110476   2.859   4.216   0.659  2.2203  0.3407 -0.1424
  274SOL    HW210477   2.915   4.073   0.605 -1.9680 -1.0544 -0.9545
  275SOL     OW10478   3.557   0.918   0.771  0.9386  0.0111  0.1682
  275SOL    HW110479   3.504   0.892   0.691 -0.8000 -0.0440  1.3216
  275SOL    HW210480   3.628   0.983   0.744 -0.7220  1.3254 -1.1410
  276SOL     OW10481   3.944   0.901   0.815 -0.6025  0.3797  0.7768
  276SOL    HW110482   3.933   0.831   0.744  0.3063 -0.5556  1.5491
  276SOL    HW210483   3.870   0.893   0.881  0.5110 -1.0749  1.8814
  277SOL     OW10484   4.268   4.597   0.671 -0.0954  0.0959  0.0727
  277SOL    HW110485   4.255   4.604   0.572  0.2843 -0.3909 -0.0174
  277SOL    HW210486   4.313   4.679   0.705 -0.9865  0.6312 -0.0254
  278SOL     OW10487   4.124   2.946   2.247 -0.0878  0.6484  0.4607
  278SOL    HW110488   4.190   2.930   2.321  0.9763 -0.9209 -0.7731
  278SOL    HW210489   4.143   3.034   2.205 -0.2993  1.2707  1.6369
  279SOL     OW10490   3.233   3.741   2.037  0.0843 -0.0642 -0.2540
  279SOL    HW110491   3.138   3.764   2.017 -0.6220 -0.7939  2.1639
  279SOL    HW210492   3.269   3.803   2.106 -0.3157 -2.9929  2.7254
  280SOL     OW10493   4.292   3.665   2.138 -0.1691  0.3938 -0.1554
  280SOL    HW110494   4.345   3.749   2.125  1.4993 -0.5216  0.6864
  280SOL    HW210495   4.305   3.631   2.231 -1.1143 -0.6260 -0.3892
  281SOL     OW10496   3.003   1.164  -0.008 -0.3711  0.3961 -0.8754
  281SOL    HW110497   2.977   1.128  -0.098  1.1006 -1.1930 -0.6922
  281SOL    HW210498   3.016   1.263  -0.015 -0.9677  0.3965 -2.2374
  282SOL     OW10499   4.560   3.452   1.341 -0.3761  0.2975  0.2041
  282SOL    HW110500   4.541   3.426   1.247 -0.4460  2.6425 -0.4558
  282SOL    HW210501   4.644   3.506   1.345  1.1050 -1.9753  1.8671
  283SOL     OW10502   3.960   2.758  -0.014 -0.3166 -0.4432 -0.3467
  283SOL    HW110503   3.900   2.837  -0.027 -1.0091 -1.0475 -0.9130
  283SOL    HW210504   4.030   2.756  -0.085  0.5533  0.4159  0.4765
  284SOL     OW10505   4.733   5.032   0.715  0.3471  0.6030 -0.3390
  284SOL    HW110506   4.668   5.107   0.709  0.4071  0.6578 -0.3003
  284SOL    HW210507   4.715   4.966   0.641 -1.9825 -1.1546  1.7314
  285SOL     OW10508   2.766  10.325   1.496  0.0374  0.7081  0.2254
  285SOL    HW110509   2.790  10.230   1.517  0.5837  1.2578  2.1277
  285SOL    HW210510   2.814  10.386   1.558 -0.6682  2.2168 -0.6973
  286SOL     OW10511   4.389   2.704   2.549 -0.0235 -0.3603  0.8452
  286SOL    HW110512   4.442   2.729   2.630  1.0930 -1.8924  0.6265
  286SOL    HW210513   4.447   2.713   2.468 -1.4427  2.1327  0.0908
  287SOL     OW10514   4.780   4.059   1.847 -0.2131 -0.3209 -0.7754
  287SOL    HW110515   4.741   4.117   1.919  0.2335 -0.0537 -0.7492
  287SOL    HW210516   4.786   3.965   1.880  1.4109  0.0724  0.0862
  288SOL     OW10517   4.243   4.046   1.472 -0.0493  0.3375  0.6390
  288SOL    HW110518   4.214   4.064   1.378  0.9737  0.1767  0.2838
  288SOL    HW210519   4.260   3.949   1.484  1.3554  0.5496  0.5257
  289SOL     OW10520   2.931   9.957   1.293 -0.2866 -0.2024 -0.0522
  289SOL    HW110521   2.958   9.863   1.315 -0.5893 -0.3569 -0.3317
  289SOL    HW210522   2.885   9.958   1.204  2.9384  0.7530 -1.7948
  290SOL     OW10523   2.512   0.934   1.855  0.5540 -0.0852  0.5835
  290SOL    HW110524   2.590   0.993   1.874  0.6533 -0.0457  0.0763
  290SOL    HW210525   2.533   0.877   1.775  0.8535 -1.5259  1.6705
  291SOL     OW10526   3.855   2.469   1.647 -0.2454  0.0827 -0.1153
  291SOL    HW110527   3.848   2.547   1.709 -1.8166 -0.8000  0.8573
  291SOL    HW210528   3.771   2.414   1.653  0.1111 -0.7178 -2.0820
  292SOL     OW10529   3.379   4.148   0.771 -0.0780 -0.3160  0.3758
  292SOL    HW110530   3.414   4.097   0.693  0.6021 -0.6173  0.8744
  292SOL    HW210531   3.298   4.102   0.807 -2.4902  1.6929 -2.2809
  293SOL     OW10532   2.800   4.301   1.426  0.1765 -0.2136 -0.6746
  293SOL    HW110533   2.864   4.225   1.443 -1.1785 -1.4752 -1.0847
  293SOL    HW210534   2.718   4.289   1.482 -0.3802  0.5364 -1.3131
  294SOL     OW10535   2.812  10.338   0.979 -0.4036  0.0466 -0.3139
  294SOL    HW110536   2.791  10.413   1.042 -0.4549  0.3937 -0.7492
  294SOL    HW210537   2.827  10.254   1.032 -1.0112  0.2103  0.1253
  295SOL     OW10538   2.960   1.157   2.451 -0.1933 -0.0431  0.3015
  295SOL    HW110539   3.053   1.133   2.423  0.1823  2.9116 -1.1953
  295SOL    HW210540   2.895   1.100   2.401  0.7659 -1.1479  0.2921
  296SOL     OW10541   3.671   3.529   1.486 -0.0225 -0.3819  0.1749
  296SOL    HW110542   3.609   3.601   1.455 -0.0530 -0.0885  0.9081
  296SOL    HW210543   3.732   3.566   1.556  0.1956 -0.9813  0.3008
  297SOL     OW10544   4.077   1.616   1.801  0.6811 -0.2816 -0.5517
  297SOL    HW110545   4.134   1.569   1.734 -1.7159 -1.8875 -1.5288
  297SOL    HW210546   4.005   1.555   1.832 -0.1115  1.4768  1.1757
  298SOL     OW10547   4.487   3.886   2.061 -0.1545 -0.9133  0.3002
  298SOL    HW110548   4.443   3.914   2.146 -0.0012 -1.3671  0.5316
  298SOL    HW210549   4.584   3.867   2.078  0.4130  1.1412 -0.4241
  299SOL     OW10550   2.930   2.225   2.107 -0.1423  0.6595  0.6677
  299SOL    HW110551   2.867   2.303   2.110 -1.1434 -0.0902 -0.2148
  299SOL    HW210552   2.963   2.205   2.199 -0.4547  1.6718  1.0007
  300SOL     OW10553   3.920   1.396   1.848 -0.2400 -0.5709  0.3094
  300SOL    HW110554   3.833   1.390   1.898 -0.6039 -1.2469 -0.3890
  300SOL    HW210555   3.902   1.392   1.750  0.5422 -0.1673  0.1530
  301SOL     OW10556   2.737   2.463   1.868  0.3861 -0.7756  0.6073
  301SOL    HW110557   2.703   2.520   1.942  0.4340  3.3827 -2.4139
  301SOL    HW210558   2.666   2.399   1.839 -1.1043  0.4775  1.4259
  302SOL     OW10559   3.285   2.522   0.638 -0.2733 -0.8597  0.5397
  302SOL    HW110560   3.341   2.557   0.562 -0.1573 -4.8916 -1.3729
  302SOL    HW210561   3.191   2.556   0.628 -0.1544 -0.9541 -1.2006
  303SOL     OW10562   3.511   1.602   2.353  0.1182  1.0274  0.4803
  303SOL    HW110563   3.591   1.581   2.410  1.1862  0.7021 -1.1067
  303SOL    HW210564   3.514   1.698   2.326  2.1421  0.1294 -2.8103
  304SOL     OW10565   3.037   4.133   1.563  0.1878  0.1225  0.1482
  304SOL    HW110566   3.031   4.182   1.650 -0.9405 -0.6463  0.5164
  304SOL    HW210567   3.130   4.140   1.527  0.4737  1.0665  1.0478
  305SOL     OW10568   4.501   2.319  -0.069  0.0602  0.4303 -0.0733
  305SOL    HW110569   4.408   2.308  -0.101 -0.0719  1.1088  0.0666
  305SOL    HW210570   4.527   2.241  -0.012 -0.3898  0.2020 -0.1865
  306SOL     OW10571   2.448   2.472   1.798  0.4089  0.1681 -0.2379
  306SOL    HW110572   2.447   2.372   1.786 -0.4202  0.1892 -0.3643
  306SOL    HW210573   2.436   2.515   1.709  2.6701  0.4095 -0.4628
  307SOL     OW10574   2.531   1.626   1.168  0.0897  0.0844 -0.3639
  307SOL    HW110575   2.620   1.588   1.143  0.0008  0.6806 -1.6109
  307SOL    HW210576   2.524   1.720   1.135 -0.3955  0.5922  1.1047
  308SOL     OW10577   3.928   1.938   2.081  0.3880 -0.2291  0.5037
  308SOL    HW110578   3.983   1.922   1.998 -0.2647  1.4424 -0.2718
  308SOL    HW210579   3.980   1.909   2.161  0.3456 -3.5346 -0.5813
  309SOL     OW10580   4.326   4.486   1.657  0.5032 -0.2967 -0.0423
  309SOL    HW110581   4.264   4.534   1.596 -1.4051  0.2533  2.2455
  309SOL    HW210582   4.307   4.388   1.654  1.1621 -0.4003 -1.1254
  310SOL     OW10583   3.425  10.064   1.481 -0.0445  0.6055 -0.0905
  310SOL    HW110584   3.511  10.094   1.522  0.3707 -1.4188  0.5924
  310SOL    HW210585   3.361  10.036   1.553 -0.2737 -0.4661 -0.6930
  311SOL     OW10586   2.997  10.094   1.570  0.5395  0.8606 -0.3545
  311SOL    HW110587   3.074  10.041   1.606 -0.0102  1.0749  1.1936
  311SOL    HW210588   2.972  10.060   1.480  1.7059  0.0258 -0.3680
  312SOL     OW10589   2.533   3.371   1.992 -0.0837 -0.1130  0.0838
  312SOL    HW110590   2.522   3.360   2.091 -2.5286  1.2491  0.0138
  312SOL    HW210591   2.563   3.464   1.971 -0.8120  0.0048 -0.4980
  313SOL     OW10592   3.732   2.341   0.017 -0.3457  0.9144 -0.3244
  313SOL    HW110593   3.738   2.386  -0.072  1.1213  1.8207  0.2208
  313SOL    HW210594   3.652   2.375   0.066  0.3747  2.4662 -0.1910
  314SOL     OW10595   4.430   2.820   0.422  0.3480 -0.5261 -0.5868
  314SOL    HW110596   4.463   2.727   0.407 -1.5239 -1.1895 -0.7239
  314SOL    HW210597   4.417   2.834   0.520 -2.8398 -1.6879 -0.7760
  315SOL     OW10598   3.103   2.882   2.591  0.1591  0.2701 -0.2298
  315SOL    HW110599   3.186   2.883   2.536 -1.2887 -1.0537 -2.5375
  315SOL    HW210600   3.083   2.975   2.623  0.0863  1.4385 -3.4743
  316SOL     OW10601   3.134   4.008   0.943  0.0476 -0.0737 -0.0696
  316SOL    HW110602   3.095   4.098   0.929 -0.1643 -0.2836 -0.8495
  316SOL    HW210603   3.202   4.012   1.016 -1.1783  0.3639  1.0633
  317SOL     OW10604   3.751   3.187   1.597  0.2246 -0.2707 -0.4837
  317SOL    HW110605   3.663   3.186   1.550 -0.0730  0.2705  0.0517
  317SOL    HW210606   3.795   3.098   1.586 -0.7489 -0.8153 -0.0779
  318SOL     OW10607   2.921   1.077   0.255  0.2133 -0.4339 -0.4797
  318SOL    HW110608   2.821   1.084   0.252  0.2202 -0.3218 -0.4483
  318SOL    HW210609   2.959   1.097   0.165  0.2382  0.0318 -0.3691
  319SOL     OW10610   2.937   2.526   2.544 -0.3053 -0.3910 -0.2838
  319SOL    HW110611   2.878   2.446   2.537  0.5067 -0.9545 -0.8598
  319SOL    HW210612   2.911   2.593   2.474 -0.5762 -0.4178 -0.2100
  320SOL     OW10613   3.531   4.334   1.175 -0.0022  0.3353 -0.0326
  320SOL    HW110614   3.438   4.368   1.168  0.6034  2.1966  0.6480
  320SOL    HW210615   3.578   4.347   1.087 -0.4426 -0.8977 -0.4770
  321SOL     OW10616   2.928   1.581   1.344  0.4347  0.0139  0.2923
  321SOL    HW110617   2.842   1.619   1.377  0.9956  0.9496  0.7122
  321SOL    HW210618   2.917   1.550   1.249 -0.4420 -0.1441  0.4503
  322SOL     OW10619   4.357   3.252   1.884 -0.1172  0.2748  0.1059
  322SOL    HW110620   4.294   3.291   1.817 -0.8912 -1.8314 -0.4386
  322SOL    HW210621   4.438   3.216   1.836 -0.4204 -0.7420  0.3490
  323SOL     OW10622   3.797   9.727   0.893 -0.2207 -0.1421 -0.2025
  323SOL    HW110623   3.789   9.769   0.983 -0.7641 -0.2138 -0.2132
  323SOL    HW210624   3.868   9.773   0.841 -0.2420  0.2214  0.0856
  324SOL     OW10625   3.649   2.815   2.214 -0.1455 -0.3509 -0.1464
  324SOL    HW110626   3.609   2.843   2.302 -1.7097 -0.3967 -0.8193
  324SOL    HW210627   3.744   2.843   2.210  0.4507 -1.8906  2.2721
  325SOL     OW10628   3.540   2.625   2.063  0.1076  0.2823  0.3207
  325SOL    HW110629   3.574   2.702   2.118  1.4055 -0.6645  0.8547
  325SOL    HW210630   3.443   2.611   2.082  0.3054  0.6038  1.6151
  326SOL     OW10631   4.701   3.110   0.229  0.1035 -0.1723 -0.1413
  326SOL    HW110632   4.677   3.037   0.166 -0.8428  1.0525 -1.2214
  326SOL    HW210633   4.770   3.169   0.187 -0.8491  0.8989 -0.2130
  327SOL     OW10634   3.150   2.847   0.473  0.6606  1.1343 -0.0036
  327SOL    HW110635   3.082   2.866   0.402  0.9704  0.9980 -0.3415
  327SOL    HW210636   3.232   2.901   0.454  0.4666  1.6700  0.6776
  328SOL     OW10637   2.908   3.065   1.860  0.6079 -0.1725  0.0191
  328SOL    HW110638   2.816   3.098   1.840  0.4133 -0.9868 -0.4576
  328SOL    HW210639   2.910   2.965   1.852  1.4641 -0.1830  0.3038
  329SOL     OW10640   3.566   3.608   1.091  0.3319  0.3445 -0.1845
  329SOL    HW110641   3.472   3.605   1.057 -0.1617  0.6399  1.0899
  329SOL    HW210642   3.568   3.659   1.178  1.6711  0.3608 -0.2130
  330SOL     OW10643   4.287   4.008   1.876 -0.3309 -0.8474 -0.0349
  330SOL    HW110644   4.366   3.983   1.932  0.9064 -0.7272 -1.6932
  330SOL    HW210645   4.318   4.039   1.786 -2.2212  0.1839 -0.3568
  331SOL     OW10646   3.581   4.608   0.885  0.0684 -0.4973  0.0602
  331SOL    HW110647   3.598   4.515   0.920  3.5194  0.6387  1.7449
  331SOL    HW210648   3.499   4.645   0.927  1.0737 -1.2447  2.8013
  332SOL     OW10649   2.992   2.938   1.238 -0.2034  0.1026 -0.2680
  332SOL    HW110650   3.041   2.951   1.152  0.4458 -1.5006 -0.1612
  332SOL    HW210651   3.012   2.847   1.274 -0.6796  0.6650  1.4523
  333SOL     OW10652   4.361   4.213   1.658  0.2816 -0.1714 -0.1562
  333SOL    HW110653   4.451   4.252   1.641  0.0514  0.8508  0.9087
  333SOL    HW210654   4.337   4.150   1.584  0.5977  1.8267 -2.0178
  334SOL     OW10655   3.261   2.974   0.736  0.3853 -0.2123 -0.4404
  334SOL    HW110656   3.316   2.912   0.680  0.8146 -1.2946  1.1278
  334SOL    HW210657   3.319   3.049   0.768  0.7921 -0.9448  0.5878
  335SOL     OW10658   4.121   2.118   0.093  0.1880  0.2293  0.0982
  335SOL    HW110659   4.175   2.181   0.149 -0.0425  0.5631 -0.0520
  335SOL    HW210660   4.025   2.144   0.097 -0.0676 -0.7862  0.9411
  336SOL     OW10661   3.247   3.150   2.048  0.9096  0.6729  0.0509
  336SOL    HW110662   3.262   3.243   2.014  1.2590  0.1086 -1.3712
  336SOL    HW210663   3.297   3.086   1.990  0.9944 -0.3731  1.2713
  337SOL     OW10664   3.093   1.545   2.500  0.0408  0.7403 -0.0726
  337SOL    HW110665   3.007   1.494   2.505  1.0249 -0.8977  0.4431
  337SOL    HW210666   3.110   1.589   2.588 -1.1557  2.5538 -0.7331
  338SOL     OW10667   4.241   3.430   1.126  0.0986  0.1238  0.1839
  338SOL    HW110668   4.158   3.444   1.180 -0.8450 -0.1581 -1.1802
  338SOL    HW210669   4.274   3.518   1.092 -0.1738  0.1236 -0.0747
  339SOL     OW10670   3.310   9.819   1.114 -0.0533  0.1084  0.2494
  339SOL    HW110671   3.319   9.784   1.020  1.5908  2.8813 -0.6709
  339SOL    HW210672   3.242   9.764   1.163  0.1988 -2.3873 -2.0599
  340SOL     OW10673   3.801   4.435   2.277 -0.3320  0.5492 -0.3539
  340SOL    HW110674   3.765   4.474   2.362 -1.1219  1.0234 -0.8932
  340SOL    HW210675   3.882   4.486   2.248  2.2739 -2.0374  2.1552
  341SOL     OW10676   2.212   1.422   0.827  0.0026  0.3746  0.0821
  341SOL    HW110677   2.113   1.422   0.813 -0.0455  2.6022  0.2811
  341SOL    HW210678   2.235   1.478   0.906  1.5019  0.7014 -0.5621
  342SOL     OW10679   3.025  10.216   1.247 -0.1018  0.0415  0.2893
  342SOL    HW110680   2.942  10.271   1.249 -0.0766  0.0181  2.0693
  342SOL    HW210681   3.001  10.119   1.241 -0.1785  0.0760  0.0154
  343SOL     OW10682   2.866  10.418   1.250 -0.2731 -0.2245 -0.1963
  343SOL    HW110683   2.799  10.396   1.321 -0.0696 -0.7907 -0.1768
  343SOL    HW210684   2.914  10.501   1.274 -0.2506 -0.3796  0.2985
  344SOL     OW10685   2.537  10.799   0.312  0.1602 -0.6155  0.2365
  344SOL    HW110686   2.451  10.766   0.351 -0.4527 -0.3303 -0.8849
  344SOL    HW210687   2.566  10.738   0.238  1.6683 -1.5339  1.5222
  345SOL     OW10688   3.764   2.458   1.198  0.3312  0.5182 -0.2101
  345SOL    HW110689   3.819   2.407   1.131 -0.0614 -0.0666 -0.0899
  345SOL    HW210690   3.711   2.528   1.152 -0.5642 -0.4230 -0.6216
  346SOL     OW10691   4.162   1.089   0.775  0.0620  0.2309 -0.5988
  346SOL    HW110692   4.151   1.152   0.698 -0.8189 -1.0536 -1.5561
  346SOL    HW210693   4.076   1.039   0.789  1.2653 -2.0334 -1.0314
  347SOL     OW10694   2.880   1.878   2.173 -0.1799 -0.0477 -0.3759
  347SOL    HW110695   2.886   1.940   2.094 -1.1755 -0.9311 -1.1547
  347SOL    HW210696   2.969   1.834   2.188 -0.4716 -1.2780 -2.1620
  348SOL     OW10697   3.010   1.266   0.443  0.2706  0.0367  0.1457
  348SOL    HW110698   2.959   1.340   0.398  1.3275  0.8761  0.3146
  348SOL    HW210699   3.000   1.182   0.390 -0.2646  0.5035 -0.4978
  349SOL     OW10700   3.599  10.614   0.011 -0.3042 -0.1401 -0.1740
  349SOL    HW110701   3.581  10.707  -0.021  1.1839  0.2600  0.1305
  349SOL    HW210702   3.602  10.613   0.111  0.4829 -0.3602 -0.1994
  350SOL     OW10703   3.255   4.363   1.199  0.4079 -0.4106  0.1511
  350SOL    HW110704   3.224   4.453   1.169 -0.1859 -0.7681 -0.3124
  350SOL    HW210705   3.218   4.344   1.289  1.8477  0.4837  0.9550
  351SOL     OW10706   3.602   4.461   1.408 -0.5536  0.1392  0.8472
  351SOL    HW110707   3.691   4.461   1.452  0.3564  1.1161 -0.9466
  351SOL    HW210708   3.602   4.395   1.333 -1.9145 -1.1097  1.9033
  352SOL     OW10709   4.605   4.470   0.669 -0.6042 -0.0549 -0.1528
  352SOL    HW110710   4.543   4.445   0.744 -1.4854 -0.2300 -0.9382
  352SOL    HW210711   4.574   4.427   0.585 -0.0809  0.8180 -0.7905
  353SOL     OW10712   4.671   5.025   1.030 -0.8219 -0.1157 -0.0551
  353SOL    HW110713   4.681   4.969   1.112  0.2290  0.1486  0.0018
  353SOL    HW210714   4.758   5.031   0.982 -0.7681  1.9727  0.2639
  354SOL     OW10715   2.665   2.866   0.421 -0.3486  0.6838  0.0069
  354SOL    HW110716   2.578   2.854   0.373 -0.5457  2.7151 -0.1832
  354SOL    HW210717   2.713   2.946   0.385  0.9785  0.3663  1.0248
  355SOL     OW10718   4.099   2.108   1.788  0.0651 -0.5173  0.2214
  355SOL    HW110719   4.196   2.106   1.760  0.3541 -2.3019  1.2602
  355SOL    HW210720   4.065   2.014   1.796 -1.8674  0.1044 -0.4549
  356SOL     OW10721   4.704   4.571   1.136  0.4309  0.4939 -0.0290
  356SOL    HW110722   4.723   4.554   1.039  1.6600 -0.5766  0.3932
  356SOL    HW210723   4.605   4.562   1.152  0.4530 -1.4271 -0.7934
  357SOL     OW10724   3.259   9.981   1.676  0.2824 -0.3939  0.0862
  357SOL    HW110725   3.282   9.886   1.657  0.5666  0.0661 -1.9787
  357SOL    HW210726   3.287  10.004   1.769  1.9710 -1.7964 -0.0536
  358SOL     OW10727   2.442   1.696   0.853  0.1670  0.1642 -0.1776
  358SOL    HW110728   2.370   1.693   0.784  0.4208 -0.8110 -0.4059
  358SOL    HW210729   2.512   1.627   0.832 -0.1345 -0.6725  1.4461
  359SOL     OW10730   2.712   1.878  -0.005  0.5307  0.1541  0.3230
  359SOL    HW110731   2.711   1.787  -0.046  2.1240  0.2650 -0.0207
  359SOL    HW210732   2.619   1.908   0.014 -0.0034 -1.6037  0.5607
  360SOL     OW10733   2.365   2.290   0.879 -0.4691  0.5261  0.0697
  360SOL    HW110734   2.444   2.313   0.936 -0.1132 -1.3216  0.3385
  360SOL    HW210735   2.299   2.364   0.883  1.3053  2.1835 -0.2755
  361SOL     OW10736   2.903   3.670   0.836 -0.4331 -0.1690  0.8294
  361SOL    HW110737   2.830   3.736   0.854 -0.2719  0.2793 -0.1559
  361SOL    HW210738   2.932   3.677   0.741  1.3981  0.1542  1.3853
  362SOL     OW10739   2.539   2.717   2.491 -0.2134  0.3398 -0.3227
  362SOL    HW110740   2.512   2.746   2.399  0.6356 -1.9316 -1.3208
  362SOL    HW210741   2.638   2.727   2.501 -0.3406  0.8334  0.4449
  363SOL     OW10742   3.783   9.945   0.480  0.1876 -0.1155  0.2319
  363SOL    HW110743   3.784   9.909   0.573  1.1150  2.2267  1.1752
  363SOL    HW210744   3.688   9.951   0.448 -0.1443 -0.7747  1.0794
  364SOL     OW10745   2.513   1.773   2.302 -0.9263 -0.2825  0.1422
  364SOL    HW110746   2.479   1.683   2.330 -0.4885 -0.0825  1.3380
  364SOL    HW210747   2.521   1.832   2.382  0.3008  0.3145 -0.4089
  365SOL     OW10748   3.132  10.297   0.651 -0.4912 -0.1059  0.0594
  365SOL    HW110749   3.112  10.217   0.595 -1.3644  0.8025 -0.9544
  365SOL    HW210750   3.082  10.376   0.615  1.5060  1.2313  0.1384
  366SOL     OW10751   2.353   1.885   1.326 -0.1902 -0.0942 -0.2033
  366SOL    HW110752   2.310   1.841   1.248  1.8997 -0.3270 -1.2570
  366SOL    HW210753   2.397   1.970   1.297  1.1618 -0.5048  0.5640
  367SOL     OW10754   3.827   2.078   1.109 -0.2062 -0.6114  0.3550
  367SOL    HW110755   3.781   2.089   1.197  0.3152 -1.3931  0.7416
  367SOL    HW210756   3.760   2.064   1.037 -0.6152 -0.6361  0.7409
  368SOL     OW10757   3.894   1.120   2.433 -0.3346  0.0839 -0.7753
  368SOL    HW110758   3.807   1.074   2.448  0.4070 -1.1552 -0.2581
  368SOL    HW210759   3.943   1.076   2.357  1.2224 -1.2247  0.9572
  369SOL     OW10760   3.209  10.563   1.168 -0.0749 -0.0295 -0.2968
  369SOL    HW110761   3.169  10.485   1.118 -0.8151 -0.5820  1.1323
  369SOL    HW210762   3.198  10.548   1.266  0.5940  1.4704  0.0091
  370SOL     OW10763   2.536   2.521   2.061 -0.4014  0.1080 -0.4295
  370SOL    HW110764   2.494   2.509   1.971 -0.5461  1.2391 -0.5197
  370SOL    HW210765   2.522   2.439   2.116 -1.1403 -0.2225 -1.1051
  371SOL     OW10766   2.504   3.268   0.158 -0.0553  0.5646  0.0314
  371SOL    HW110767   2.451   3.259   0.074 -2.2891 -0.5701  1.5038
  371SOL    HW210768   2.454   3.325   0.223  0.3667 -0.7894  1.5773
  372SOL     OW10769   4.826   4.076   1.068 -0.1480  0.1203 -0.3641
  372SOL    HW110770   4.847   4.173   1.082 -0.0601  0.1983 -1.0078
  372SOL    HW210771   4.731   4.066   1.039 -0.7909 -0.1640  1.7084
  373SOL     OW10772   4.642   4.811   0.571  0.1804  0.1867 -0.2667
  373SOL    HW110773   4.638   4.732   0.509  1.1219  0.4106 -0.6280
  373SOL    HW210774   4.571   4.802   0.641 -0.9108 -0.0709 -1.3834
  374SOL     OW10775   3.426   2.845   0.542  0.0531 -0.2458 -0.8564
  374SOL    HW110776   3.434   2.775   0.471 -1.5289 -1.0345 -0.2781
  374SOL    HW210777   3.518   2.871   0.573  0.6602 -3.1067 -0.0894
  375SOL     OW10778   3.525   3.745   1.324  0.1789  0.1728 -0.2345
  375SOL    HW110779   3.591   3.821   1.333  2.6474 -2.0347  0.9508
  375SOL    HW210780   3.432   3.782   1.323  1.3097  3.2121  0.3600
  376SOL     OW10781   3.070   1.521   0.828 -0.6989 -1.1098 -0.4348
  376SOL    HW110782   3.053   1.531   0.926 -0.2855 -0.7963 -0.3970
  376SOL    HW210783   3.157   1.474   0.813 -1.2566 -2.1108 -0.6444
  377SOL     OW10784   3.552   9.583   1.111 -0.4773  0.0654 -0.1666
  377SOL    HW110785   3.624   9.649   1.128 -0.2510  0.0740 -1.1147
  377SOL    HW210786   3.525   9.587   1.015 -0.1679 -1.4979 -0.3447
  378SOL     OW10787   2.875  10.683   0.435 -0.0595 -0.5114 -0.1716
  378SOL    HW110788   2.855  10.676   0.338 -2.2857 -1.9948  0.3566
  378SOL    HW210789   2.798  10.727   0.482  1.5387  1.3960  0.7614
  379SOL     OW10790   3.956   9.904   0.783 -0.0212 -0.2019  0.3459
  379SOL    HW110791   4.031   9.917   0.718  0.3259 -0.5369  0.6821
  379SOL    HW210792   3.924   9.993   0.815  0.4873 -0.0705  0.4927
  380SOL     OW10793   3.878   3.257   0.414  0.1521  0.5440  0.1338
  380SOL    HW110794   3.871   3.293   0.507 -1.0359  1.1924 -0.1920
  380SOL    HW210795   3.975   3.247   0.389  0.4734  0.5017  1.3794
  381SOL     OW10796   3.233   2.253   2.548 -0.0603 -0.0412 -0.0222
  381SOL    HW110797   3.310   2.196   2.577 -1.9629 -1.9510  1.4120
  381SOL    HW210798   3.261   2.349   2.547  1.7666 -0.5082  2.4063
  382SOL     OW10799   4.626   3.842   1.337  0.0433  0.0464  0.2446
  382SOL    HW110800   4.666   3.752   1.355 -1.2688 -1.1025 -2.3736
  382SOL    HW210801   4.571   3.870   1.416 -1.1497 -2.3549  0.3142
  383SOL     OW10802   3.425   3.124   0.960  0.4677 -0.6464  0.4100
  383SOL    HW110803   3.440   3.167   1.049 -1.0803  0.2354  0.2659
  383SOL    HW210804   3.407   3.026   0.972  1.8454 -0.8353  0.9291
  384SOL     OW10805   2.702   2.181   0.548  0.1764 -0.9214 -0.4398
  384SOL    HW110806   2.764   2.115   0.591  0.6205 -0.1954  0.0461
  384SOL    HW210807   2.609   2.168   0.583  0.0439 -2.0221 -1.1803
  385SOL     OW10808   2.941   3.592   2.385  0.3554 -0.8289  0.7010
  385SOL    HW110809   3.011   3.579   2.455 -0.1914  0.7212  1.5627
  385SOL    HW210810   2.957   3.528   2.309  2.6597 -0.5404  0.9062
  386SOL     OW10811   3.310   1.778   1.059  0.1799  0.2008  0.5794
  386SOL    HW110812   3.277   1.700   1.112  0.3042  0.2148  0.6764
  386SOL    HW210813   3.410   1.779   1.060  0.2135 -0.3247 -0.4012
  387SOL     OW10814   3.994   2.425   2.587  0.8771 -0.3762  0.7429
  387SOL    HW110815   3.941   2.346   2.618  3.2217 -2.9348 -1.5105
  387SOL    HW210816   3.932   2.495   2.553 -1.2062 -1.6923  1.6992
  388SOL     OW10817   4.169   4.582   0.373 -0.1933 -0.0981 -0.1357
  388SOL    HW110818   4.143   4.533   0.289 -0.2424  1.0515 -0.8054
  388SOL    HW210819   4.089   4.629   0.410 -0.2432 -0.8660  0.7481
  389SOL     OW10820   2.613   3.453   0.600 -0.5247 -0.3201  0.0188
  389SOL    HW110821   2.708   3.435   0.627 -0.7600  0.5123  1.4346
  389SOL    HW210822   2.552   3.421   0.672 -1.2664  0.3782 -0.3009
  390SOL     OW10823   3.750   4.158   2.315  0.4565  0.2277 -0.3989
  390SOL    HW110824   3.754   4.125   2.409  1.9667 -2.1336 -1.2526
  390SOL    HW210825   3.816   4.233   2.303  1.3295 -0.4543  0.0632
  391SOL     OW10826   4.301   1.769   1.863  0.1405 -0.6654  0.0030
  391SOL    HW110827   4.317   1.840   1.794  0.3358 -0.0331  0.7014
  391SOL    HW210828   4.214   1.724   1.845 -0.1333 -0.0373 -0.2563
  392SOL     OW10829   3.653   2.873   0.238 -0.9278 -0.6150  0.1544
  392SOL    HW110830   3.701   2.956   0.210 -0.2087 -1.6412 -1.7832
  392SOL    HW210831   3.683   2.845   0.329  1.3326 -0.6369 -0.5779
  393SOL     OW10832   3.141   1.287   1.133 -0.1966  0.7050 -0.1671
  393SOL    HW110833   3.160   1.213   1.068 -0.4469  0.9228 -0.4843
  393SOL    HW210834   3.203   1.279   1.211  0.5074  0.8069 -0.7157
  394SOL     OW10835   5.232   4.432   0.986 -0.3779  0.2745  0.2459
  394SOL    HW110836   5.150   4.478   0.952  0.3111 -0.0927 -1.9671
  394SOL    HW210837   5.290   4.406   0.909  0.1406 -2.6262  1.5513
  395SOL     OW10838   2.741  10.738   2.060 -0.0241  0.9549  0.6725
  395SOL    HW110839   2.779  10.667   2.120 -1.2713 -1.7043 -1.6184
  395SOL    HW210840   2.661  10.779   2.104 -0.0161  0.1050  1.5011
  396SOL     OW10841   3.215  10.677   2.307  0.0315 -0.1735 -0.6072
  396SOL    HW110842   3.234  10.736   2.228  1.9875  1.3240  0.9625
  396SOL    HW210843   3.204  10.733   2.389  0.9951 -1.9303  0.7498
  397SOL     OW10844   2.521   2.294   2.205  0.0865 -0.0768  0.2274
  397SOL    HW110845   2.603   2.247   2.236 -0.1285 -1.0772 -0.6908
  397SOL    HW210846   2.440   2.242   2.233 -0.1773  0.0513 -0.2920
  398SOL     OW10847   3.062   1.421   0.064 -0.0384 -0.0216 -0.6493
  398SOL    HW110848   2.964   1.440   0.058 -0.6230 -2.0430  1.7184
  398SOL    HW210849   3.101   1.472   0.141  0.2455 -1.1025 -0.0647
  399SOL     OW10850   3.687   0.970   2.484  0.2788  0.1228 -0.1231
  399SOL    HW110851   3.656   0.895   2.426  2.0868 -1.4609  0.9030
  399SOL    HW210852   3.656   0.954   2.578 -0.8135  1.5799 -0.2092
  400SOL     OW10853   2.861  10.369   2.599 -0.2153  0.2297 -0.0933
  400SOL    HW110854   2.950  10.366   2.553 -0.2477 -0.2168 -0.1304
  400SOL    HW210855   2.875  10.385   2.697 -0.0987  0.3079 -0.1229
  401SOL     OW10856   3.287   3.588   2.493 -1.0153  0.6512  0.0561
  401SOL    HW110857   3.351   3.529   2.444 -1.0632 -0.0798  0.8711
  401SOL    HW210858   3.335   3.669   2.526 -0.5900  0.2798  0.3479
  402SOL     OW10859   3.136   4.597   1.536  0.1402  0.4351 -0.0352
  402SOL    HW110860   3.197   4.525   1.501  0.0343  0.3549 -0.0542
  402SOL    HW210861   3.191   4.675   1.566  0.2524  0.3708 -0.0706
  403SOL     OW10862   3.948   2.383   0.753 -0.0075  0.2835  0.3860
  403SOL    HW110863   3.862   2.416   0.715  0.3638  0.3177 -0.4458
  403SOL    HW210864   4.024   2.429   0.707  0.4815 -0.6673  0.2342
  404SOL     OW10865   4.272   2.392   2.533 -0.3049  0.3397 -0.1762
  404SOL    HW110866   4.314   2.479   2.505 -1.1250  1.4632  1.9583
  404SOL    HW210867   4.174   2.406   2.550 -0.3056 -0.8386  0.8704
  405SOL     OW10868   2.756   3.387   1.174  0.3441 -0.3135  0.3397
  405SOL    HW110869   2.807   3.412   1.256 -0.2609 -2.2180  1.3070
  405SOL    HW210870   2.781   3.295   1.145 -0.5371 -0.2225 -0.7727
  406SOL     OW10871   3.004   3.039   0.588 -1.0966 -0.2069 -0.2366
  406SOL    HW110872   3.052   2.953   0.570 -0.4480 -0.1852  1.3119
  406SOL    HW210873   3.022   3.103   0.514  1.3397 -0.1921  0.3206
  407SOL     OW10874   2.620   1.046   0.278 -0.2454 -0.2344  0.2815
  407SOL    HW110875   2.608   1.073   0.373 -0.8123 -0.5444  0.2976
  407SOL    HW210876   2.595   0.951   0.266 -3.9140  0.8065 -0.9073
  408SOL     OW10877   3.496  10.679   1.233 -0.5420 -0.1666 -0.1409
  408SOL    HW110878   3.466  10.725   1.317  0.0595  0.2271 -0.1407
  408SOL    HW210879   3.457  10.726   1.153  0.9169  0.9962 -0.1882
  409SOL     OW10880   2.246   2.538   0.357 -0.0895  0.0717 -0.7371
  409SOL    HW110881   2.293   2.465   0.406 -0.6140  0.6358  0.6284
  409SOL    HW210882   2.195   2.595   0.422  0.1796  1.5526 -1.7936
  410SOL     OW10883   3.194   4.148   2.522  0.0048  0.1867  0.1994
  410SOL    HW110884   3.122   4.132   2.591 -0.2561 -1.0769 -0.3525
  410SOL    HW210885   3.160   4.122   2.432  1.3117 -0.8638 -0.0015
  411SOL     OW10886   3.504   3.382   2.226  0.6784 -0.2816  0.3403
  411SOL    HW110887   3.489   3.412   2.131 -1.0015  0.5997  0.8734
  411SOL    HW210888   3.419   3.346   2.264  1.4213 -0.9281  1.4352
  412SOL     OW10889   2.776   2.365   0.831  0.5725  0.0149  0.0648
  412SOL    HW110890   2.804   2.459   0.850 -0.2099  0.4529 -0.9228
  412SOL    HW210891   2.679   2.354   0.852  0.2248 -0.0793 -1.5223
  413SOL     OW10892   3.347   4.433   1.984 -0.3557  0.2668  0.4713
  413SOL    HW110893   3.393   4.499   2.044 -1.0802  1.5226 -0.3066
  413SOL    HW210894   3.330   4.348   2.034  1.5907  0.2515  1.1664
  414SOL     OW10895   4.581   2.585   0.054 -0.3823 -0.2667 -0.4031
  414SOL    HW110896   4.540   2.495   0.040 -0.6594 -0.2644  0.3640
  414SOL    HW210897   4.641   2.607  -0.022 -2.7733  0.2757 -2.1795
  415SOL     OW10898   4.034   4.906   0.926 -0.0072 -0.7776  0.1529
  415SOL    HW110899   4.067   4.987   0.878  0.1051 -2.2530 -2.3368
  415SOL    HW210900   3.940   4.887   0.897  0.8156 -2.9471 -1.1982
  416SOL     OW10901   4.318   2.514   0.316 -0.0146 -0.1113  0.5246
  416SOL    HW110902   4.266   2.590   0.276 -1.5598 -0.2166  2.2333
  416SOL    HW210903   4.399   2.550   0.362  1.1258  0.1238 -1.6123
  417SOL     OW10904   3.870   3.042   2.426 -0.3178  0.3505 -0.1391
  417SOL    HW110905   3.957   3.052   2.475 -0.2622  0.0944 -0.1846
  417SOL    HW210906   3.888   3.008   2.334 -0.5241 -0.4459  0.1081
  418SOL     OW10907   2.833   4.210   0.849  0.0852  0.4546 -0.2927
  418SOL    HW110908   2.922   4.242   0.880  0.5504 -0.5882 -0.5338
  418SOL    HW210909   2.770   4.206   0.926  1.2309 -2.1054  0.5910
  419SOL     OW10910   2.484   0.858   2.132 -0.1651 -0.0398  0.0047
  419SOL    HW110911   2.466   0.868   2.034 -0.6695  1.4935  0.2463
  419SOL    HW210912   2.420   0.914   2.184 -0.4292 -1.4646  1.2622
  420SOL     OW10913   2.803   1.541   0.686 -0.4742  0.6183 -1.2693
  420SOL    HW110914   2.884   1.484   0.702 -1.5646 -0.8334 -0.8474
  420SOL    HW210915   2.827   1.637   0.698  0.8237  0.1043  0.4070
  421SOL     OW10916   2.672   0.850   0.598 -0.0430 -0.6159  0.2228
  421SOL    HW110917   2.625   0.902   0.527  0.5062 -0.9072 -0.3616
  421SOL    HW210918   2.756   0.898   0.624  0.7859 -1.4943 -0.7580
  422SOL     OW10919   3.674   3.041   0.581  0.5310 -0.0955 -0.1164
  422SOL    HW110920   3.741   3.112   0.604 -0.3102  0.9352 -0.8131
  422SOL    HW210921   3.586   3.063   0.622 -0.2181  0.2309 -1.8507
  423SOL     OW10922   2.912  10.512   1.623 -0.1500 -0.2534 -0.1129
  423SOL    HW110923   2.879  10.579   1.690 -1.4628 -2.0279  1.0774
  423SOL    HW210924   2.973  10.447   1.668  1.7386  0.5462 -1.4272
  424SOL     OW10925   2.331   1.053   2.240 -0.0716 -0.0255  0.0915
  424SOL    HW110926   2.398   1.123   2.265 -0.1711  0.3286 -0.6070
  424SOL    HW210927   2.286   1.080   2.154 -1.4347 -0.0388  0.7907
  425SOL     OW10928   4.775   3.629   1.335  0.3849  0.4621  0.2380
  425SOL    HW110929   4.847   3.682   1.381  0.3653 -0.4554  1.3389
  425SOL    HW210930   4.808   3.600   1.245  0.7718  1.4661  0.0410
  426SOL     OW10931   3.925   4.726  -0.007  0.5194 -0.3682  0.6280
  426SOL    HW110932   3.913   4.782   0.074  1.3966 -0.8238  1.0775
  426SOL    HW210933   4.020   4.693  -0.012  0.1704 -1.3241  0.0634
  427SOL     OW10934   4.909   2.508   0.826  0.5911 -0.1197  0.5169
  427SOL    HW110935   4.922   2.510   0.925 -0.2911  0.7000  0.6285
  427SOL    HW210936   4.845   2.580   0.800  0.5229 -0.5798 -0.6079
  428SOL     OW10937   2.294   1.153   1.965  0.6044  0.0747  0.3419
  428SOL    HW110938   2.342   1.226   1.917  0.7558  0.7201  1.4655
  428SOL    HW210939   2.327   1.064   1.932  1.6075  0.5088  0.1529
  429SOL     OW10940   3.372   0.887   0.577 -0.6476  0.1697 -0.4412
  429SOL    HW110941   3.366   0.788   0.564  0.9754  0.3458 -2.8893
  429SOL    HW210942   3.290   0.930   0.539 -0.6081 -0.1223 -0.8669
  430SOL     OW10943   4.280   2.278   1.211 -0.1253  0.5437 -0.1733
  430SOL    HW110944   4.276   2.256   1.114  0.3759  1.3581 -0.3858
  430SOL    HW210945   4.230   2.209   1.263 -1.1084  0.5529 -1.0867
  431SOL     OW10946   2.932   1.448   1.121  0.2805 -0.4355  0.2387
  431SOL    HW110947   2.846   1.420   1.079 -0.2272  2.1102 -0.4962
  431SOL    HW210948   3.001   1.377   1.107 -1.2426 -1.7770 -0.5800
  432SOL     OW10949   2.586   1.886   2.069 -0.3598 -0.3620  0.1282
  432SOL    HW110950   2.675   1.857   2.035 -0.4834  0.0631 -0.5816
  432SOL    HW210951   2.558   1.828   2.145  0.7840 -0.1248  0.7302
  433SOL     OW10952   2.601  10.541   1.453 -0.1635 -0.3091 -0.3885
  433SOL    HW110953   2.667  10.467   1.464 -2.3219 -2.0719  1.3567
  433SOL    HW210954   2.534  10.516   1.384 -1.5576 -0.5231  1.0077
  434SOL     OW10955   3.790   1.466   0.295 -0.1581  0.3556 -0.2920
  434SOL    HW110956   3.719   1.469   0.366 -0.2754  1.5194 -0.4427
  434SOL    HW210957   3.784   1.549   0.238 -0.2061 -0.6611 -1.7976
  435SOL     OW10958   2.881   3.411   0.669 -0.2752  0.1459  0.2057
  435SOL    HW110959   2.904   3.379   0.761 -1.7309  0.3963  0.6747
  435SOL    HW210960   2.943   3.485   0.643 -2.7583  3.3555  2.9383
  436SOL     OW10961   2.767   4.153   0.058 -0.0206  0.0028  0.8526
  436SOL    HW110962   2.731   4.063   0.032 -0.4520  0.8839 -1.6685
  436SOL    HW210963   2.692   4.215   0.079  0.2325  0.2604  1.0062
  437SOL     OW10964   4.423   4.236   1.130  0.0841  0.5063 -0.3044
  437SOL    HW110965   4.336   4.190   1.150  0.2872 -0.7304 -2.1688
  437SOL    HW210966   4.480   4.177   1.073  0.8863  2.5500 -1.7044
  438SOL     OW10967   3.383   2.851   0.162  0.3551  0.1952 -0.1298
  438SOL    HW110968   3.347   2.758   0.167  0.1536  0.2343 -0.8030
  438SOL    HW210969   3.475   2.853   0.199  0.0446 -0.1033  0.6774
  439SOL     OW10970   4.434   4.847   0.761  0.2537 -0.2551 -0.1518
  439SOL    HW110971   4.373   4.808   0.829  1.1873  0.1687  0.9412
  439SOL    HW210972   4.477   4.930   0.797  1.0157 -0.2104 -1.1272
  440SOL     OW10973   2.700   2.691   0.881 -0.1660  0.3118  0.2353
  440SOL    HW110974   2.616   2.653   0.842  0.6306 -0.5798 -0.6813
  440SOL    HW210975   2.699   2.790   0.873 -0.2980  0.1942 -1.5593
  441SOL     OW10976   3.171   1.694  -0.015 -0.9345  0.1298 -0.0436
  441SOL    HW110977   3.115   1.691   0.068 -2.1036  1.4019 -0.7672
  441SOL    HW210978   3.187   1.789  -0.041 -0.4848 -0.2591 -1.2209
  442SOL     OW10979   3.066  10.157   0.399  0.0506  0.1671 -0.1062
  442SOL    HW110980   2.977  10.189   0.364  0.1715 -0.8037 -1.3469
  442SOL    HW210981   3.090  10.071   0.354  0.2102 -1.1560  2.4326
  443SOL     OW10982   4.025   2.753   0.598 -0.4157 -0.3134  0.4124
  443SOL    HW110983   4.090   2.682   0.623  1.4216  0.9496 -0.6568
  443SOL    HW210984   4.023   2.823   0.669  0.0634  0.0849  0.0393
  444SOL     OW10985   2.839   4.029   1.142 -0.0309  0.4261 -0.0234
  444SOL    HW110986   2.824   3.969   1.220  0.7695 -0.9297 -0.8885
  444SOL    HW210987   2.815   3.981   1.057 -0.1062  1.5867 -0.6706
  445SOL     OW10988   4.134   2.780   2.503 -1.0284 -0.1645  0.0612
  445SOL    HW110989   4.218   2.735   2.535  0.6212  1.3675 -2.0203
  445SOL    HW210990   4.091   2.724   2.433 -0.0396  0.5186 -1.1108
  446SOL     OW10991   3.387   3.230   1.682  0.4153  0.4345  0.5900
  446SOL    HW110992   3.431   3.217   1.771  1.4182  1.1186  0.1938
  446SOL    HW210993   3.399   3.325   1.652  0.8498 -0.0219 -0.7016
  447SOL     OW10994   2.829   3.745   0.367  0.4280  0.0198 -0.1387
  447SOL    HW110995   2.784   3.682   0.304  1.9422 -0.7750 -0.4418
  447SOL    HW210996   2.816   3.839   0.335 -3.4686  0.1063  1.3151
  448SOL     OW10997   3.210   2.618   0.219  0.4215  0.1351 -0.5128
  448SOL    HW110998   3.175   2.545   0.161 -0.4718  0.9589 -1.0184
  448SOL    HW210999   3.134   2.670   0.257  0.9430 -1.1998  2.4836
  449SOL     OW11000   3.194   3.353   0.041  0.5867  0.0342  0.1890
  449SOL    HW111001   3.165   3.447   0.020 -0.6091 -0.7187 -1.5902
  449SOL    HW211002   3.277   3.332  -0.011  0.4268 -0.1297 -0.0055
  450SOL     OW11003   4.199   2.933   0.332  0.1284 -0.1541 -0.1138
  450SOL    HW111004   4.288   2.892   0.353 -0.0568 -0.7271 -0.4478
  450SOL    HW211005   4.135   2.913   0.407 -0.3499 -1.6503 -0.9138
  451SOL     OW11006   2.769  10.696   2.462 -0.0919 -0.2633  0.2125
  451SOL    HW111007   2.821  10.715   2.546 -0.6732 -1.1786  0.7903
  451SOL    HW211008   2.702  10.624   2.480  0.6889 -1.4355 -1.3907
  452SOL     OW11009   4.303  10.611   1.348  0.0320 -0.0736 -0.2715
  452SOL    HW111010   4.333  10.564   1.431 -1.9453 -1.3123 -0.2110
  452SOL    HW211011   4.379  10.662   1.309  1.1365  0.1141  2.0236
  453SOL     OW11012   4.272   4.971   1.917 -0.2048  0.0533 -0.3540
  453SOL    HW111013   4.274   4.912   1.998 -0.8773  0.3936 -0.0892
  453SOL    HW211014   4.196   4.943   1.858 -1.8122  1.9879  0.7723
  454SOL     OW11015   4.217   3.191   2.128 -0.6628 -0.1993 -0.2859
  454SOL    HW111016   4.277   3.192   2.048 -0.1890  1.5346  0.0573
  454SOL    HW211017   4.146   3.260   2.117 -1.3930 -0.8693  0.2015
  455SOL     OW11018   3.428   1.685   0.123  0.3580  0.7200  0.1486
  455SOL    HW111019   3.426   1.777   0.084 -1.7014  0.5139 -0.2788
  455SOL    HW211020   3.412   1.618   0.051 -1.1802  0.2095  0.9419
  456SOL     OW11021   3.989   4.644   2.266  0.3506  0.2856 -0.4637
  456SOL    HW111022   3.914   4.691   2.313  0.4431 -0.3538  0.3483
  456SOL    HW211023   4.031   4.579   2.329 -0.6434 -1.8812 -1.9740
  457SOL     OW11024   4.264   1.967   0.408  0.3774  0.6917 -0.4632
  457SOL    HW111025   4.280   2.062   0.380  0.3796  0.5601 -0.9161
  457SOL    HW211026   4.174   1.961   0.451  1.1124  1.2357  1.1811
  458SOL     OW11027   3.576   1.574   1.155  0.3023  0.1223  0.2292
  458SOL    HW111028   3.493   1.520   1.144 -0.2460  0.9113  0.4426
  458SOL    HW211029   3.655   1.523   1.119 -0.6274  0.3879 -2.3011
  459SOL     OW11030   3.105   4.012   1.972 -0.4210 -0.2357  0.5183
  459SOL    HW111031   3.101   4.082   1.902 -1.1008  0.1258  0.9189
  459SOL    HW211032   3.044   3.936   1.948  0.0361 -0.5296  0.2684
  460SOL     OW11033   3.080  10.808   0.601  0.0010  0.3410 -0.1988
  460SOL    HW111034   3.024  10.735   0.560  1.1252 -0.3430 -0.5537
  460SOL    HW211035   3.090  10.791   0.699  0.5276 -0.1681 -0.3372
  461SOL     OW11036   3.609   2.186   0.688  0.1498  0.6795  0.2142
  461SOL    HW111037   3.646   2.195   0.595 -0.5769 -1.6527 -0.3414
  461SOL    HW211038   3.528   2.244   0.697 -1.5643 -1.3004 -1.6366
  462SOL     OW11039   2.576   3.397   2.482 -0.3605  0.1164 -0.6810
  462SOL    HW111040   2.607   3.312   2.440  0.9777  0.1910  0.1505
  462SOL    HW211041   2.519   3.376   2.562  1.4136 -0.0004  0.5682
  463SOL     OW11042   3.845   4.427   1.549 -0.1411  0.4969 -0.1125
  463SOL    HW111043   3.919   4.489   1.577 -1.3820  1.6581  0.6381
  463SOL    HW211044   3.860   4.337   1.589 -0.0314  1.1944  1.4435
  464SOL     OW11045   2.797   4.000   0.312 -0.0586  0.4208 -0.1908
  464SOL    HW111046   2.803   4.084   0.366  0.2497  0.7709 -0.7720
  464SOL    HW211047   2.780   4.023   0.216 -0.0378 -0.1841 -0.3400
  465SOL     OW11048   2.639   0.883   2.630 -0.1103 -0.2947  0.3909
  465SOL    HW111049   2.607   0.975   2.608 -0.7626 -0.3731  0.9788
  465SOL    HW211050   2.647   0.830   2.546  0.9226  0.4948 -0.0219
  466SOL     OW11051   2.667   2.938   1.477 -0.4760  0.0695 -0.0522
  466SOL    HW111052   2.682   2.962   1.382 -1.5637 -0.7576 -0.4483
  466SOL    HW211053   2.743   2.882   1.510  0.3628  1.1512 -0.1488
  467SOL     OW11054   3.343  10.569   0.854  0.1675 -0.6231  0.1950
  467SOL    HW111055   3.309  10.594   0.763 -1.0669  2.2630  1.3959
  467SOL    HW211056   3.272  10.519   0.904  0.4865 -1.3241 -0.0425
  468SOL     OW11057   2.288   3.242   0.552 -0.8323  0.4971  0.1939
  468SOL    HW111058   2.361   3.241   0.485 -0.7010 -0.1386  0.3420
  468SOL    HW211059   2.270   3.336   0.581 -0.9412  0.7847 -0.7806
  469SOL     OW11060   3.105   4.349   0.488 -0.1029  0.3368  0.0425
  469SOL    HW111061   3.128   4.307   0.401  0.5386  1.4599 -0.3453
  469SOL    HW211062   3.030   4.299   0.531 -0.4152 -0.2268 -1.1514
  470SOL     OW11063   2.232   2.742   1.540  0.5229 -0.3473 -0.7554
  470SOL    HW111064   2.321   2.780   1.569  0.4704  0.6364 -1.8489
  470SOL    HW211065   2.171   2.817   1.515 -1.0000 -0.9573  0.9969
  471SOL     OW11066   2.793  10.308   0.668 -0.8179  0.0953 -0.0052
  471SOL    HW111067   2.839  10.219   0.659 -0.1166  0.5711 -1.2290
  471SOL    HW211068   2.788  10.333   0.765  0.9973 -0.2251  0.1980
  472SOL     OW11069   2.295   1.524   1.066  0.2670 -0.3335  0.1574
  472SOL    HW111070   2.386   1.553   1.095 -0.0040 -0.8400  1.5393
  472SOL    HW211071   2.248   1.480   1.142 -2.0395  2.0527  0.2062
  473SOL     OW11072   2.367   3.049   0.860 -0.0760 -0.0403  0.1264
  473SOL    HW111073   2.315   3.017   0.781 -0.3255 -0.3779  0.4223
  473SOL    HW211074   2.395   3.144   0.846  0.2314 -0.2257 -0.5410
  474SOL     OW11075   3.377   3.078   2.527  0.8118 -0.6505  0.0814
  474SOL    HW111076   3.369   2.986   2.491  0.3085 -0.9987  1.0552
  474SOL    HW211077   3.361   3.077   2.626 -0.6467  0.6845 -0.1208
  475SOL     OW11078   2.817   3.525   1.915  0.2197  0.0615  0.0624
  475SOL    HW111079   2.787   3.468   1.838 -1.8763  1.6469 -0.3550
  475SOL    HW211080   2.842   3.467   1.992  0.5327 -1.4851 -1.1773
  476SOL     OW11081   4.138   1.756   0.637 -0.0186  0.5301 -0.0083
  476SOL    HW111082   4.086   1.825   0.587 -1.1861 -1.2152 -1.3003
  476SOL    HW211083   4.188   1.699   0.572 -0.0109 -0.5577  0.9276
  477SOL     OW11084   3.069   9.960   0.210  0.2939  0.1286  0.1132
  477SOL    HW111085   3.089   9.864   0.190 -0.1048  0.0615  0.0468
  477SOL    HW211086   3.027  10.003   0.131  1.1376  0.5515 -0.1138
  478SOL     OW11087   2.637   2.063   2.292 -0.9627  0.0819  0.1433
  478SOL    HW111088   2.734   2.052   2.311 -0.4787  2.2978 -0.9253
  478SOL    HW211089   2.612   2.006   2.213 -0.1169  0.8457 -0.6942
  479SOL     OW11090   3.594   9.545   0.842 -0.1299  0.1161 -0.0164
  479SOL    HW111091   3.610   9.461   0.893  1.9916 -0.0911 -0.9512
  479SOL    HW211092   3.669   9.610   0.858 -0.4636  0.8417 -1.2380
  480SOL     OW11093   3.248   2.846   2.196 -0.5012 -0.2753  0.8357
  480SOL    HW111094   3.311   2.883   2.128  0.1952 -0.1025  1.5636
  480SOL    HW211095   3.154   2.850   2.162 -0.1726 -0.0179 -0.0315
  481SOL     OW11096   4.151   3.711   1.789 -0.9538  0.0847 -0.0469
  481SOL    HW111097   4.182   3.627   1.833 -1.5760  0.2249  0.6537
  481SOL    HW211098   4.220   3.782   1.803  0.5543 -0.8377 -2.3739
  482SOL     OW11099   3.231   1.097   2.449  0.4610 -0.3227  0.0773
  482SOL    HW111100   3.272   1.106   2.358  0.2056 -1.0123 -0.1054
  482SOL    HW211101   3.282   1.154   2.514 -0.0598  1.0973 -0.7203
  483SOL     OW11102   4.801   4.318   1.257  0.3151 -0.0158  0.3173
  483SOL    HW111103   4.768   4.406   1.223  1.6087  0.8278  1.1756
  483SOL    HW211104   4.862   4.333   1.335  2.1827 -1.5334 -0.8066
  484SOL     OW11105   4.012   4.596   0.779  0.2726 -0.5656  0.0091
  484SOL    HW111106   4.108   4.611   0.757  0.6755 -0.1072  1.9135
  484SOL    HW211107   4.006   4.549   0.868 -1.2735  1.3102  0.9387
  485SOL     OW11108   3.448   2.894   1.238 -0.2394 -0.3266  0.3844
  485SOL    HW111109   3.460   2.867   1.143  2.3196 -0.6257  0.7523
  485SOL    HW211110   3.447   2.994   1.244 -0.8271 -0.3092 -0.0036
  486SOL     OW11111   2.705   3.516   0.945  0.1611 -0.7465 -0.1649
  486SOL    HW111112   2.788   3.559   0.909 -0.9784  0.5356 -1.2699
  486SOL    HW211113   2.729   3.459   1.024  2.1388 -0.6571 -0.6762
  487SOL     OW11114   2.968   3.159   0.979  0.0541  0.0236 -0.3407
  487SOL    HW111115   3.012   3.069   0.979 -1.7699 -0.8963 -0.3108
  487SOL    HW211116   3.017   3.220   1.041  1.1841 -1.0217 -0.1855
  488SOL     OW11117   4.507   3.264   1.502  1.0275 -0.1599 -0.1924
  488SOL    HW111118   4.527   3.328   1.428 -0.7220 -0.0565 -0.6157
  488SOL    HW211119   4.536   3.172   1.476  0.2798 -0.1548 -1.0879
  489SOL     OW11120   4.620   4.121   1.619  0.5006  0.7960 -0.2352
  489SOL    HW111121   4.670   4.076   1.693  1.7664  2.7888  0.1718
  489SOL    HW211122   4.658   4.092   1.531  1.0222  0.7168  0.0131
  490SOL     OW11123   4.328   2.240   0.314  0.1790 -0.2190  0.2635
  490SOL    HW111124   4.422   2.214   0.291 -0.2069 -1.2807 -0.1445
  490SOL    HW211125   4.319   2.340   0.309  2.1016  0.1737  3.4764
  491SOL     OW11126   2.793   2.014   1.113  0.8034 -0.1608 -0.1334
  491SOL    HW111127   2.849   2.067   1.050  0.2646 -0.8517 -1.1995
  491SOL    HW211128   2.703   1.998   1.073  0.2884 -0.2027  1.0051
  492SOL     OW11129   2.982   2.539   1.928 -0.2322  0.6716  0.3648
  492SOL    HW111130   2.892   2.497   1.918  1.0898 -2.3606  0.7777
  492SOL    HW211131   3.018   2.519   2.019  1.1403  1.3205 -0.0253
  493SOL     OW11132   2.131   2.230   0.132 -0.1555  0.0956  0.1034
  493SOL    HW111133   2.203   2.284   0.088 -0.4148 -0.3676 -0.9063
  493SOL    HW211134   2.051   2.287   0.148  0.6545  0.7804  1.8150
  494SOL     OW11135   3.623   2.615   0.150 -0.1186 -0.1894  0.3802
  494SOL    HW111136   3.533   2.595   0.112 -0.6373  0.0184  1.4870
  494SOL    HW211137   3.636   2.714   0.154  0.5056 -0.2201 -0.5570
  495SOL     OW11138   4.496   4.428   0.421 -0.1659 -0.2013 -0.0133
  495SOL    HW111139   4.545   4.461   0.341  0.7480  2.0425  1.4151
  495SOL    HW211140   4.403   4.464   0.420 -0.5413 -1.1653 -0.6629
  496SOL     OW11141   2.211   2.592   0.908  0.4999 -0.4844 -0.3735
  496SOL    HW111142   2.168   2.682   0.906 -1.2966 -1.3095  0.0129
  496SOL    HW211143   2.271   2.585   0.988  1.2679  0.6364 -0.8461
  497SOL     OW11144   3.882   5.132   0.449  0.1754 -0.1617 -0.3853
  497SOL    HW111145   3.889   5.226   0.482 -1.4543 -0.1675  0.0441
  497SOL    HW211146   3.864   5.071   0.525 -0.4238 -0.5995 -0.8674
  498SOL     OW11147   2.099   1.674   0.447 -0.1152  0.2673  0.1627
  498SOL    HW111148   2.080   1.770   0.430  0.3225  0.4678  0.7865
  498SOL    HW211149   2.198   1.659   0.449 -0.1751 -0.4638 -1.4121
  499SOL     OW11150   4.317   4.574   2.102  0.2919  0.3553 -0.0718
  499SOL    HW111151   4.407   4.578   2.059  2.4278 -0.5965  4.0177
  499SOL    HW211152   4.276   4.665   2.102  1.1643  0.7676 -2.1233
  500SOL     OW11153   3.836   3.940   1.925  0.1089  0.2490  0.0390
  500SOL    HW111154   3.777   3.962   2.003  0.0705  1.2390 -0.2610
  500SOL    HW211155   3.919   3.996   1.929  1.6966 -2.1262  1.2227
  501SOL     OW11156   3.397  10.267   0.759 -0.2686 -0.2489 -0.0429
  501SOL    HW111157   3.386  10.217   0.845  1.0190 -0.5067 -0.0164
  501SOL    HW211158   3.308  10.298   0.727 -0.9291 -1.4307  0.6159
  502SOL     OW11159   4.189   4.650  -0.071  0.1349  0.2009 -0.5247
  502SOL    HW111160   4.191   4.571  -0.009 -2.7755  1.7470  1.7050
  502SOL    HW211161   4.190   4.618  -0.166  0.7975 -2.4178  0.3111
  503SOL     OW11162   3.146   4.250   1.823  0.5014 -0.4381  0.2020
  503SOL    HW111163   3.234   4.209   1.797  1.1420  0.4348  0.9124
  503SOL    HW211164   3.163   4.324   1.888 -0.8371 -0.7484  0.9156
  504SOL     OW11165   3.340   4.097   1.132 -0.3303 -0.1438 -0.4771
  504SOL    HW111166   3.317   4.182   1.180 -0.7166 -1.2031  1.2705
  504SOL    HW211167   3.439   4.088   1.126 -0.2915  1.2704 -2.2305
  505SOL     OW11168   3.379   2.922   1.958  0.0125  0.0699  0.8041
  505SOL    HW111169   3.318   2.862   1.906 -1.4801  2.9117 -0.8546
  505SOL    HW211170   3.474   2.896   1.942 -0.4694  0.1477 -2.4887
  506SOL     OW11171   2.894   2.687   2.267 -0.0588 -0.3443  0.3670
  506SOL    HW111172   2.945   2.723   2.188 -0.0372 -1.6734 -0.2351
  506SOL    HW211173   2.796   2.694   2.248 -0.1528  2.1584  1.5016
  507SOL     OW11174   3.003   2.844   2.074  0.0250 -0.6742  0.1603
  507SOL    HW111175   2.981   2.939   2.096 -2.0654 -0.9007 -0.8083
  507SOL    HW211176   3.003   2.831   1.975  1.6699 -1.3802  0.2453
  508SOL     OW11177   4.312   3.707   2.425  0.4627 -0.0295  0.0279
  508SOL    HW111178   4.283   3.733   2.516 -0.8252  0.2317 -0.4530
  508SOL    HW211179   4.340   3.788   2.374  1.9421 -0.2616  0.4401
  509SOL     OW11180   3.708   4.685   0.343  0.6370 -0.0705  0.1245
  509SOL    HW111181   3.626   4.629   0.336 -0.5861  1.3005  2.6729
  509SOL    HW211182   3.715   4.745   0.263 -1.3008  0.3907  0.2920
  510SOL     OW11183   3.203   4.333   0.236  0.6450 -0.1942 -0.3853
  510SOL    HW111184   3.284   4.288   0.272  0.9190 -0.8144 -1.7205
  510SOL    HW211185   3.231   4.413   0.181  0.2187  1.0172  1.1221
  511SOL     OW11186   2.496   1.114   2.562 -0.4770 -0.0100  0.0049
  511SOL    HW111187   2.402   1.080   2.552  0.5063 -2.7445 -0.4893
  511SOL    HW211188   2.533   1.137   2.473 -0.5993  0.8293  0.1723
  512SOL     OW11189   2.764   1.025   1.444 -0.2905 -0.2427  0.8447
  512SOL    HW111190   2.787   1.085   1.367 -0.0262  0.5785  1.5697
  512SOL    HW211191   2.672   0.988   1.430  0.2465 -1.1385 -0.5218
  513SOL     OW11192   3.563   4.443   0.395  0.0539  0.0561 -0.0045
  513SOL    HW111193   3.635   4.384   0.433 -0.0020 -0.5157 -0.7636
  513SOL    HW211194   3.504   4.475   0.469  0.6882 -0.0157  0.5426
  514SOL     OW11195   4.254   1.767   1.492  0.3569  0.0710 -1.1058
  514SOL    HW111196   4.201   1.751   1.409  0.1464 -0.7464 -0.8122
  514SOL    HW211197   4.244   1.690   1.554 -0.8164  1.3949  0.4048
  515SOL     OW11198   5.091   3.511   1.285  0.2728 -0.1458  0.0332
  515SOL    HW111199   5.183   3.474   1.277  0.2275 -0.2634  0.0652
  515SOL    HW211200   5.045   3.470   1.363  0.1482 -0.1826 -0.0594
  516SOL     OW11201   3.721   2.517   2.543  0.2534 -0.6587 -0.1715
  516SOL    HW111202   3.730   2.614   2.564 -3.2291 -0.6165  1.5129
  516SOL    HW211203   3.649   2.506   2.473  0.2984 -2.0409  0.0011
  517SOL     OW11204   3.626   2.173   2.222  0.0391 -0.0326 -0.1768
  517SOL    HW111205   3.660   2.258   2.182  2.3832 -0.7233  0.2744
  517SOL    HW211206   3.647   2.097   2.161 -0.4707 -0.5210  0.2519
  518SOL     OW11207   3.502   2.774   1.675  0.3570 -0.5885  0.1812
  518SOL    HW111208   3.460   2.707   1.614  0.2817 -0.3323 -0.0500
  518SOL    HW211209   3.519   2.859   1.625 -0.4601 -0.0941  0.7252
  519SOL     OW11210   3.621   2.264   1.414  0.6441 -0.2855  0.2780
  519SOL    HW111211   3.680   2.187   1.391  1.3342  0.7583 -1.5463
  519SOL    HW211212   3.615   2.326   1.336 -0.4827  1.1414  1.4695
  520SOL     OW11213   2.883   4.280   1.136 -0.0492  0.3966  0.2963
  520SOL    HW111214   2.868   4.181   1.127  0.6624  0.4114 -1.3435
  520SOL    HW211215   2.845   4.312   1.222 -0.1787 -1.3406  0.9070
  521SOL     OW11216   2.372   3.255  -0.068  0.1331  0.0170  0.2037
  521SOL    HW111217   2.380   3.155  -0.072 -1.8273 -0.1276 -0.6124
  521SOL    HW211218   2.299   3.285  -0.129  1.3072  2.0475 -0.2549
  522SOL     OW11219   2.813   3.086   0.770 -0.0787 -0.1193  0.1654
  522SOL    HW111220   2.860   3.131   0.846 -1.0076  0.9849  0.1076
  522SOL    HW211221   2.875   3.081   0.691  0.3098  0.2943  0.4410
  523SOL     OW11222   2.925   3.888   1.641 -0.2695 -0.5675  0.0466
  523SOL    HW111223   2.825   3.883   1.640 -0.3789  0.8324 -2.5337
  523SOL    HW211224   2.955   3.966   1.584  2.2563 -0.3671  1.5612
  524SOL     OW11225   3.403   0.809   1.006 -0.6297  0.5703 -0.0413
  524SOL    HW111226   3.339   0.741   0.971  0.5742 -1.5914  1.8747
  524SOL    HW211227   3.425   0.874   0.933  0.3799 -2.7112 -2.8088
  525SOL     OW11228   4.181   3.057   2.577  0.3565 -0.5453 -0.5383
  525SOL    HW111229   4.222   3.091   2.662  0.0404 -0.9007 -0.2416
  525SOL    HW211230   4.171   2.957   2.582 -0.5996 -0.4588 -0.5750
  526SOL     OW11231   3.087   4.285   0.966 -0.1321  0.6632 -0.4054
  526SOL    HW111232   3.166   4.333   1.004  0.6758 -0.6731 -0.3534
  526SOL    HW211233   3.015   4.281   1.035  1.5996 -2.3896  1.3481
  527SOL     OW11234   3.591   4.018   1.093 -0.0552 -0.1448 -0.0469
  527SOL    HW111235   3.661   3.948   1.081  0.5684  0.3283  0.7782
  527SOL    HW211236   3.635   4.106   1.109 -0.8370  0.1658  0.4306
  528SOL     OW11237   3.124   2.407   0.068 -1.0342 -0.0645 -0.3139
  528SOL    HW111238   3.089   2.427  -0.023  1.2592 -2.3000 -1.7769
  528SOL    HW211239   3.092   2.317   0.098  0.3874 -0.5131 -0.0885
  529SOL     OW11240   3.790   4.771   0.872  0.4064 -0.0203  0.0570
  529SOL    HW111241   3.697   4.735   0.883 -0.5590  2.1538 -0.5124
  529SOL    HW211242   3.851   4.699   0.842 -1.0876 -1.5148  0.5218
  530SOL     OW11243   2.952   9.864   0.489 -0.3923  0.0085 -0.3251
  530SOL    HW111244   2.961   9.897   0.395  0.4421  1.0391  0.1082
  530SOL    HW211245   3.006   9.781   0.501 -0.8762 -0.3864 -0.8826
  531SOL     OW11246   3.651  10.275   0.631  0.1422 -0.0672 -0.2248
  531SOL    HW111247   3.563  10.273   0.679  0.0705 -0.7756 -0.3777
  531SOL    HW211248   3.724  10.253   0.696  0.3272  1.6400  0.1535
  532SOL     OW11249   2.626   3.849   1.702 -0.0532  0.2689  0.1394
  532SOL    HW111250   2.648   3.820   1.795  0.1887 -0.5858 -0.1795
  532SOL    HW211251   2.531   3.879   1.698 -0.3527 -0.6476  0.4352
  533SOL     OW11252   3.406   2.433   0.097 -0.5409 -0.6732 -0.2549
  533SOL    HW111253   3.384   2.363   0.030 -0.6587 -2.8613  1.9964
  533SOL    HW211254   3.322   2.468   0.138 -0.3600 -2.0545  1.3819
  534SOL     OW11255   4.181   2.119   2.497  0.0523 -0.1994  0.2642
  534SOL    HW111256   4.211   2.109   2.402  3.4952  1.6595  1.0771
  534SOL    HW211257   4.201   2.212   2.529 -0.2350 -1.0433  3.0784
  535SOL     OW11258   3.933   4.033   0.650  0.5970  0.1017  0.4454
  535SOL    HW111259   3.905   4.086   0.569  1.8449 -0.2095 -0.2018
  535SOL    HW211260   3.852   4.013   0.705 -0.2638  0.4208 -0.6661
  536SOL     OW11261   3.086   3.587  -0.053 -0.2016 -0.0937 -0.4192
  536SOL    HW111262   3.083   3.671   0.001  0.6002 -0.9871  1.0565
  536SOL    HW211263   3.170   3.586  -0.108  0.1375 -0.2574  0.1041
  537SOL     OW11264   3.792   2.859   1.335  0.2593 -0.5096 -0.4753
  537SOL    HW111265   3.760   2.777   1.382  1.0303 -0.1808  0.6258
  537SOL    HW211266   3.833   2.922   1.401  1.5447 -0.1367 -1.6201
  538SOL     OW11267   3.299  10.188   1.236  0.2900 -0.6457  0.2306
  538SOL    HW111268   3.200  10.195   1.250 -0.0742 -1.0357 -1.9628
  538SOL    HW211269   3.341  10.150   1.318 -1.2076  0.7315  1.6792
  539SOL     OW11270   4.002   1.860   1.085  0.5135  0.6512  0.1589
  539SOL    HW111271   3.941   1.939   1.079 -0.5558 -0.2339 -0.6983
  539SOL    HW211272   4.049   1.849   0.997 -0.1732 -0.3300 -0.0893
  540SOL     OW11273   3.605  10.169   1.025 -0.5334  0.1959  0.2976
  540SOL    HW111274   3.589  10.116   1.108 -1.4948  1.4777  0.9553
  540SOL    HW211275   3.559  10.257   1.033  0.1307  0.6951 -1.2269
  541SOL     OW11276   3.602   2.354   1.663  0.3624 -0.0460  0.6658
  541SOL    HW111277   3.512   2.388   1.688  0.2739 -0.5884  1.0828
  541SOL    HW211278   3.599   2.313   1.572  0.5674  1.4454 -0.0381
  542SOL     OW11279   3.634   3.162   2.474 -0.6056  0.1013  0.3931
  542SOL    HW111280   3.541   3.125   2.476 -0.2851 -0.6356  2.1614
  542SOL    HW211281   3.698   3.091   2.443 -0.6099  0.6106 -0.8333
  543SOL     OW11282   3.239   2.008   0.624  0.0478 -0.0250 -0.0174
  543SOL    HW111283   3.251   1.991   0.722  2.8994 -0.6041 -0.4368
  543SOL    HW211284   3.277   1.932   0.572  0.8652  1.4764 -1.6409
  544SOL     OW11285   4.488   4.164   0.748 -0.0157 -0.8316  0.2512
  544SOL    HW111286   4.492   4.260   0.775 -1.0059  0.4673 -3.8677
  544SOL    HW211287   4.394   4.132   0.754 -0.0113 -0.9423 -0.2088
  545SOL     OW11288   3.752   3.895   1.284  0.2262  0.1949 -0.0988
  545SOL    HW111289   3.829   3.832   1.298  0.6142  0.9873  1.4537
  545SOL    HW211290   3.753   3.965   1.355 -0.1241  2.0568 -1.8745
  546SOL     OW11291   3.840   3.278   0.689 -0.4082 -0.7452  0.0976
  546SOL    HW111292   3.775   3.353   0.703 -0.0559 -0.5187  0.5798
  546SOL    HW211293   3.861   3.236   0.777  0.7692 -0.2381  0.0754
  547SOL     OW11294   4.039   1.313   1.517 -0.2935 -0.3876 -0.1676
  547SOL    HW111295   3.995   1.226   1.538  3.0149 -1.6912  1.6852
  547SOL    HW211296   4.076   1.310   1.424 -1.2310 -0.4771 -0.5465
  548SOL     OW11297   4.147   4.611   1.488  0.7900  0.4147  0.5619
  548SOL    HW111298   4.198   4.688   1.450 -0.7617  1.1718 -0.0148
  548SOL    HW211299   4.049   4.626   1.476  0.4646 -1.6249  0.5061
  549SOL     OW11300   3.798   4.705   2.472  0.1484  0.2315  0.0836
  549SOL    HW111301   3.716   4.650   2.489  0.0492 -0.2509 -1.8441
  549SOL    HW211302   3.853   4.709   2.556  0.5104 -3.4533  0.1416
  550SOL     OW11303   3.817   4.009   1.555 -0.2266  0.1830 -0.4419
  550SOL    HW111304   3.844   3.920   1.591 -0.2689  0.1470 -0.5000
  550SOL    HW211305   3.875   4.080   1.596  0.4120  0.0348 -1.0739
  551SOL     OW11306   3.154   4.620   0.551 -0.7306  0.0132 -0.1802
  551SOL    HW111307   3.065   4.665   0.556 -1.0531 -0.4433 -1.8746
  551SOL    HW211308   3.145   4.531   0.509  0.8358  0.7966 -2.2504
  552SOL     OW11309   2.766   3.956   0.898 -0.1107  0.1796  0.1408
  552SOL    HW111310   2.700   3.891   0.861 -0.8289  1.1473 -0.3117
  552SOL    HW211311   2.788   4.024   0.829 -0.6377  1.3846  1.1311
  553SOL     OW11312   3.110   2.587   1.094  0.2095 -0.0888  0.0721
  553SOL    HW111313   3.129   2.490   1.080  1.9481  0.2497 -0.1078
  553SOL    HW211314   3.070   2.626   1.012 -0.3714 -0.6268  0.1013
  554SOL     OW11315   3.134   3.241   0.765  0.4175 -0.3696  0.1174
  554SOL    HW111316   3.109   3.171   0.698  0.0422  1.9761 -2.2552
  554SOL    HW211317   3.063   3.247   0.834 -0.9720 -0.3246 -1.2920
  555SOL     OW11318   2.669   3.888  -0.026  0.1144 -0.0268  0.3201
  555SOL    HW111319   2.651   3.842  -0.113 -3.0428 -0.1087  0.9842
  555SOL    HW211320   2.692   3.819   0.043  2.1430  0.0007 -0.2887
  556SOL     OW11321   3.889   4.954   2.462 -0.1617 -0.1928 -0.5200
  556SOL    HW111322   3.980   4.960   2.420  0.1101 -1.4086 -0.1351
  556SOL    HW211323   3.848   4.867   2.436 -1.3490  0.4853 -0.9375
  557SOL     OW11324   3.949  10.223   1.826  0.0226  0.1181 -0.0438
  557SOL    HW111325   3.975  10.319   1.822 -1.4497  0.6039  1.7003
  557SOL    HW211326   3.945  10.186   1.733  1.1431  1.5700 -0.6888
  558SOL     OW11327   3.019   2.651   0.596 -0.0724 -0.2851 -0.5944
  558SOL    HW111328   3.073   2.719   0.547 -0.7982  0.4315 -0.4121
  558SOL    HW211329   2.926   2.650   0.561 -1.5487  2.5853  2.8610
  559SOL     OW11330   4.216   3.261   2.399 -0.1947  0.0307  0.4224
  559SOL    HW111331   4.208   3.187   2.466  0.9640 -1.3245 -0.8915
  559SOL    HW211332   4.246   3.224   2.312 -0.9734  1.8786 -0.6664
  560SOL     OW11333   3.059   4.134   0.062  0.1002 -0.0626  0.0257
  560SOL    HW111334   3.103   4.192   0.131 -1.3829 -0.2856  1.1892
  560SOL    HW211335   2.961   4.133   0.078 -0.0732 -1.4850 -1.0796
  561SOL     OW11336   2.361   1.836   2.589  0.1315  0.1368 -0.5808
  561SOL    HW111337   2.265   1.862   2.593  0.1559  0.5540 -2.3331
  561SOL    HW211338   2.386   1.789   2.674 -1.9333 -1.0605 -0.5910
  562SOL     OW11339   4.541   2.150   0.147  0.5111  0.2978  0.0169
  562SOL    HW111340   4.630   2.109   0.169  0.4064  0.5022  0.8238
  562SOL    HW211341   4.479   2.079   0.114  1.0188  0.1793 -0.6999
  563SOL     OW11342   2.694   1.394   1.729 -0.3871  0.4355  0.1756
  563SOL    HW111343   2.790   1.365   1.721 -0.2500  0.4128  1.7034
  563SOL    HW211344   2.689   1.493   1.714 -0.0828  0.4819  0.3605
  564SOL     OW11345   3.205   3.494   1.635  0.1478  0.1009  0.5014
  564SOL    HW111346   3.155   3.433   1.697  1.0480 -1.8972 -0.6794
  564SOL    HW211347   3.289   3.525   1.680 -0.2672  0.3937  1.0764
  565SOL     OW11348   3.011   3.655   1.510  0.6677 -0.0361  0.6580
  565SOL    HW111349   3.089   3.617   1.559  1.0267  1.0989  0.9830
  565SOL    HW211350   2.982   3.740   1.554 -0.4485 -0.2056  0.2577
  566SOL     OW11351   3.469   3.166   0.692 -0.1969  0.1382 -0.1981
  566SOL    HW111352   3.460   3.165   0.791 -1.7215 -2.4156 -0.3083
  566SOL    HW211353   3.434   3.252   0.656  1.4325  1.5722  1.5341
  567SOL     OW11354   4.421   2.481   1.296 -0.1324  0.2116 -0.6791
  567SOL    HW111355   4.493   2.446   1.357  1.2795  0.2409 -2.3098
  567SOL    HW211356   4.364   2.404   1.265 -0.5475  0.1305  0.2632
  568SOL     OW11357   3.781   2.954  -0.029 -0.5544  0.5208  0.2189
  568SOL    HW111358   3.807   2.985  -0.121 -0.4672 -0.2837 -0.0353
  568SOL    HW211359   3.754   3.033   0.026  1.0010  1.1890  0.0319
  569SOL     OW11360   3.908   2.132   0.670  0.1912  0.7455  0.0280
  569SOL    HW111361   3.810   2.121   0.684  0.2639  0.8837  0.6272
  569SOL    HW211362   3.938   2.220   0.706  0.6494  0.4256  0.4444
  570SOL     OW11363   4.054   2.734   1.531  0.2342  0.0241  0.3680
  570SOL    HW111364   4.089   2.668   1.598 -0.8031  1.4003  2.3173
  570SOL    HW211365   4.100   2.720   1.443  0.8309 -2.5373  1.0531
  571SOL     OW11366   2.628   1.661   1.661 -0.3539 -0.6481 -0.5582
  571SOL    HW111367   2.529   1.650   1.665 -0.3789 -0.8254 -1.5920
  571SOL    HW211368   2.658   1.665   1.566  0.6166 -0.4271 -0.2562
  572SOL     OW11369   2.602  10.470   2.546  0.1819  0.5361 -0.1825
  572SOL    HW111370   2.573  10.409   2.471  0.1158  0.8470 -0.4095
  572SOL    HW211371   2.686  10.433   2.587 -1.0465 -0.8802  1.0987
  573SOL     OW11372   4.409   2.796   0.085  0.2909 -0.0857 -0.0624
  573SOL    HW111373   4.318   2.791   0.126 -0.2993 -1.2414 -1.4892
  573SOL    HW211374   4.455   2.708   0.093  0.1871 -0.3146 -1.8223
  574SOL     OW11375   3.762   4.453   0.649 -0.4523  0.0284  0.1419
  574SOL    HW111376   3.709   4.524   0.602 -0.4937  0.7709  1.2800
  574SOL    HW211377   3.842   4.495   0.692  0.0381 -0.7814  0.0188
  575SOL     OW11378   2.861   1.575   2.094 -0.4404  0.2241 -0.2496
  575SOL    HW111379   2.839   1.652   2.035  1.9979 -0.0235 -1.5156
  575SOL    HW211380   2.922   1.606   2.167 -2.9461  0.3977  1.8632
  576SOL     OW11381   3.753   1.681   0.161 -0.3244  0.4601  0.4703
  576SOL    HW111382   3.731   1.767   0.206  2.5776  0.9701  0.9757
  576SOL    HW211383   3.775   1.698   0.065 -2.6942 -0.1531 -0.2389
  577SOL     OW11384   2.365   1.214   0.746 -0.0560 -0.8583  0.3803
  577SOL    HW111385   2.292   1.265   0.792 -0.4896 -0.4012 -0.8032
  577SOL    HW211386   2.342   1.202   0.650  1.8289  0.0687 -0.2135
  578SOL     OW11387   3.979   4.612   1.706  0.6164  0.1315  0.2047
  578SOL    HW111388   3.894   4.635   1.753  0.2990 -0.2802 -0.1622
  578SOL    HW211389   4.046   4.684   1.721  0.8331 -0.4327  2.0815
  579SOL     OW11390   2.845   3.297   0.411  0.0093 -0.3201  0.0509
  579SOL    HW111391   2.851   3.339   0.502  2.6653  1.2561 -0.7686
  579SOL    HW211392   2.932   3.252   0.390  0.3360  1.4537 -2.6548
  580SOL     OW11393   2.976  10.326   1.809  0.1992 -0.0297 -0.0510
  580SOL    HW111394   2.983  10.232   1.774  0.4043  0.1345 -0.4420
  580SOL    HW211395   3.038  10.337   1.887  1.2987  0.2296 -0.9628
  581SOL     OW11396   2.737   2.941   1.206 -0.5223  0.6197 -1.0687
  581SOL    HW111397   2.835   2.939   1.225 -0.5334 -0.6082 -1.1400
  581SOL    HW211398   2.723   2.946   1.107 -0.5415  0.2702 -1.0826
  582SOL     OW11399   2.516   0.955   1.389  0.6719  0.5416 -0.2704
  582SOL    HW111400   2.488   0.927   1.297 -0.8913 -1.2468  0.7096
  582SOL    HW211401   2.444   1.009   1.431  1.1572  0.8888  0.1259
  583SOL     OW11402   3.470   1.015   1.211 -0.2338 -0.0873  0.1463
  583SOL    HW111403   3.562   0.981   1.230 -0.6768 -0.9358  0.7760
  583SOL    HW211404   3.426   0.955   1.144 -0.2145  0.5089 -0.4081
  584SOL     OW11405   2.372   2.579   1.154 -0.2353  0.7218 -0.1105
  584SOL    HW111406   2.325   2.506   1.202 -1.3947  1.9767  0.6928
  584SOL    HW211407   2.381   2.659   1.214  2.9009  0.5449 -0.2482
  585SOL     OW11408   4.476   5.059   2.109  0.1698 -0.0628  0.1128
  585SOL    HW111409   4.427   5.074   2.023 -2.1413 -0.8027  1.2692
  585SOL    HW211410   4.494   5.147   2.153 -1.2496  0.1570  0.2785
  586SOL     OW11411   4.276   4.856   2.166  0.3294 -0.0275  0.3721
  586SOL    HW111412   4.355   4.915   2.156 -0.2155  0.5828 -0.3995
  586SOL    HW211413   4.242   4.861   2.260  2.2327 -1.6304  1.1823
  587SOL     OW11414   3.069   2.482   2.192 -0.1687  0.1752  0.0480
  587SOL    HW111415   3.036   2.389   2.209 -2.1716  0.6201 -1.1115
  587SOL    HW211416   3.011   2.547   2.241  0.4647  0.8627 -0.1139
  588SOL     OW11417   3.281   1.030   1.634  0.4711  0.1260 -0.2030
  588SOL    HW111418   3.324   1.101   1.578  0.9226  0.3780  0.4522
  588SOL    HW211419   3.205   0.989   1.584 -0.3338  1.6675 -0.2601
  589SOL     OW11420   4.141   4.387   0.179  0.2884 -0.2369  0.0293
  589SOL    HW111421   4.084   4.370   0.099 -0.1703 -0.3980  0.3822
  589SOL    HW211422   4.159   4.301   0.226 -0.3824 -0.0130  0.7174
  590SOL     OW11423   2.188   2.998   0.638 -0.3177  0.8541  0.2539
  590SOL    HW111424   2.090   2.991   0.655 -0.6006 -1.5871 -2.0302
  590SOL    HW211425   2.208   3.085   0.594 -2.3078 -0.8321 -4.2133
  591SOL     OW11426   3.758   3.543   1.739 -0.2314  0.0839 -0.4167
  591SOL    HW111427   3.740   3.586   1.827  0.2757 -0.5792  0.0275
  591SOL    HW211428   3.825   3.469   1.752  0.7030  0.7168 -1.5440
  592SOL     OW11429   3.045  10.737   0.899 -0.1388 -0.0824  0.3585
  592SOL    HW111430   2.945  10.742   0.902 -0.0753  0.3925  1.8096
  592SOL    HW211431   3.083  10.779   0.981  1.2862  0.3503 -0.5127
  593SOL     OW11432   4.336   2.833   0.673  0.3223 -0.3529 -0.9131
  593SOL    HW111433   4.342   2.883   0.760  0.9867  0.2715 -1.3129
  593SOL    HW211434   4.253   2.861   0.625  1.4588  1.5236 -1.8327
  594SOL     OW11435   2.439   1.338   1.796  0.4904 -0.8472 -0.1674
  594SOL    HW111436   2.536   1.354   1.778  0.6024 -0.2964  0.8692
  594SOL    HW211437   2.404   1.411   1.855 -1.0671  0.0968 -2.2233
  595SOL     OW11438   2.469   2.115   1.255  0.3350  0.1626 -0.2979
  595SOL    HW111439   2.437   2.207   1.234  0.6151  0.3289  0.0065
  595SOL    HW211440   2.566   2.118   1.280 -0.1019  0.0378  1.4920
  596SOL     OW11441   3.910   5.372   0.598  0.1041  0.4018 -0.0534
  596SOL    HW111442   3.973   5.427   0.543  0.4114  0.9378  0.8140
  596SOL    HW211443   3.898   5.415   0.688  0.2428 -0.8775  0.5893
  597SOL     OW11444   2.770  10.786   0.889  0.3822  0.4575  0.3788
  597SOL    HW111445   2.784  10.878   0.924  1.3891 -0.1841  1.7189
  597SOL    HW211446   2.710  10.789   0.810 -1.7187  2.0054  1.9650
  598SOL     OW11447   4.629   2.784   1.348  0.2837 -0.2421 -0.7330
  598SOL    HW111448   4.627   2.780   1.248 -0.3544 -0.2182 -0.7246
  598SOL    HW211449   4.541   2.752   1.384 -0.4129  2.1359 -0.2579
  599SOL     OW11450   3.724   4.107   2.596 -0.3841 -0.6126 -0.3538
  599SOL    HW111451   3.737   4.185   2.657 -0.5422 -1.5881  0.9329
  599SOL    HW211452   3.636   4.117   2.548  0.3256  0.7964 -1.4091
  600SOL     OW11453   3.986   1.870   1.794  0.5483  0.1989 -0.1306
  600SOL    HW111454   4.016   1.781   1.760  1.3344 -0.1557  1.4335
  600SOL    HW211455   3.890   1.886   1.769  0.5750 -0.8504 -0.8821
  601SOL     OW11456   2.397   2.975   2.612 -0.0143  1.0444  0.3226
  601SOL    HW111457   2.386   2.908   2.539  0.4510  1.0791  0.2171
  601SOL    HW211458   2.472   2.948   2.672  0.5947  1.7818 -0.0835
  602SOL     OW11459   2.506   2.183   2.522  0.6642  0.0190  0.2437
  602SOL    HW111460   2.524   2.116   2.449 -1.2326 -2.2261  1.7484
  602SOL    HW211461   2.498   2.135   2.609 -0.7656  2.2345  1.3647
  603SOL     OW11462   2.828   1.818   2.451  0.1886  0.0756 -0.0611
  603SOL    HW111463   2.837   1.904   2.502 -0.0156 -0.3251  0.6479
  603SOL    HW211464   2.857   1.833   2.357  0.5596  0.8218  0.1648
  604SOL     OW11465   2.629   2.919   0.028 -0.0769 -0.2432 -0.9128
  604SOL    HW111466   2.698   2.858  -0.012 -0.2493  0.9149 -3.0670
  604SOL    HW211467   2.657   2.944   0.120  2.3046  0.0099 -1.6639
  605SOL     OW11468   2.242   1.983   0.151  0.5236  0.1135 -0.1711
  605SOL    HW111469   2.194   2.068   0.130  2.7642  1.2843 -0.7056
  605SOL    HW211470   2.236   1.965   0.250 -0.0677  0.8106 -0.0789
  606SOL     OW11471   2.628   2.969   0.937 -0.0088  0.6146  1.0513
  606SOL    HW111472   2.688   3.011   0.869 -0.7039 -1.2181 -0.7384
  606SOL    HW211473   2.536   3.006   0.928 -0.6443 -1.2726 -0.5896
  607SOL     OW11474   4.573   2.475   2.406 -0.4282  0.0996  0.1740
  607SOL    HW111475   4.580   2.408   2.333  1.2663 -0.4201  0.7897
  607SOL    HW211476   4.524   2.434   2.484 -1.3021  0.3028 -0.2665
  608SOL     OW11477   3.937   2.343   1.034 -0.1813  0.4218 -0.0433
  608SOL    HW111478   3.915   2.249   1.058  2.4790  0.0717  1.1520
  608SOL    HW211479   3.941   2.352   0.934 -1.2804 -0.5088 -0.1790
  609SOL     OW11480   2.993   2.703   0.885  0.1466  0.1913  0.1829
  609SOL    HW111481   3.004   2.695   0.786  0.1402 -0.3038  0.2187
  609SOL    HW211482   2.897   2.694   0.909  0.2420 -0.5167  0.3041
  610SOL     OW11483   4.807   4.052   1.388 -0.0142 -0.6232 -0.0271
  610SOL    HW111484   4.754   3.974   1.353 -0.4683 -0.0647 -0.6144
  610SOL    HW211485   4.817   4.120   1.315  1.6287 -0.7765  0.0550
  611SOL     OW11486   4.597   4.170   0.489  0.0589 -0.1305 -0.2056
  611SOL    HW111487   4.564   4.153   0.582  0.5883 -0.8959 -0.1543
  611SOL    HW211488   4.600   4.268   0.472 -1.7317 -0.0325 -0.0193
  612SOL     OW11489   3.459   3.593   1.985  0.3710 -0.4466  0.4325
  612SOL    HW111490   3.383   3.658   1.988 -1.1946 -2.2876  1.2497
  612SOL    HW211491   3.545   3.643   1.969 -0.9472  1.6796 -0.1738
  613SOL     OW11492   4.565   4.042   0.979  0.2417 -0.4676 -1.0000
  613SOL    HW111493   4.555   3.942   0.980  2.5785 -0.7612 -2.0652
  613SOL    HW211494   4.538   4.077   0.890  0.8331 -0.3370 -1.1312
  614SOL     OW11495   2.770   2.399   2.308 -0.0161  0.0415  0.0831
  614SOL    HW111496   2.747   2.353   2.393 -0.9048 -2.1509 -1.3086
  614SOL    HW211497   2.695   2.459   2.280  0.8123  1.7758  1.4804
  615SOL     OW11498   2.410   2.597   0.706 -0.0587 -0.0607 -0.3244
  615SOL    HW111499   2.384   2.673   0.646 -1.4293 -0.2504 -0.0053
  615SOL    HW211500   2.337   2.581   0.772  1.1982 -0.2205  1.0345
  616SOL     OW11501   3.428   9.582   0.635 -0.5265 -0.8244  0.1384
  616SOL    HW111502   3.502   9.590   0.702 -0.5021 -0.7112  0.0980
  616SOL    HW211503   3.429   9.662   0.575 -0.7352 -0.7816  0.1926
  617SOL     OW11504   3.321   3.073   0.062 -0.0373  0.0483 -0.0706
  617SOL    HW111505   3.310   3.140   0.136 -1.5550 -0.4100  0.1528
  617SOL    HW211506   3.338   2.983   0.102  0.1752 -0.0144 -0.3089
  618SOL     OW11507   3.969   3.021   1.201 -0.6181 -0.1812  0.1747
  618SOL    HW111508   3.934   2.931   1.226 -0.4016 -0.1731  0.5184
  618SOL    HW211509   4.050   3.041   1.256 -0.4216  0.0471 -0.1969
  619SOL     OW11510   2.363   2.389   0.548 -0.1395  0.1564  0.0289
  619SOL    HW111511   2.415   2.462   0.592 -1.5140  0.2988  1.4307
  619SOL    HW211512   2.380   2.302   0.595  0.4616 -0.1953 -0.8188
  620SOL     OW11513   3.280   9.700   0.864  0.2284  0.8848 -0.6916
  620SOL    HW111514   3.297   9.687   0.766 -2.5216 -2.7271 -0.8393
  620SOL    HW211515   3.203   9.762   0.876  0.4658  1.2059 -0.8314
  621SOL     OW11516   4.399   3.515   1.941 -0.2595 -0.1948  0.4301
  621SOL    HW111517   4.369   3.419   1.935 -2.5903  0.5784 -1.1548
  621SOL    HW211518   4.353   3.560   2.017  0.2107 -0.1171  0.6696
  622SOL     OW11519   4.158   4.949   2.406 -0.4003  0.2926  0.0986
  622SOL    HW111520   4.177   5.044   2.382 -0.8886  0.1725 -0.7960
  622SOL    HW211521   4.227   4.916   2.470  1.0550  0.5578 -1.2969
  623SOL     OW11522   3.483   4.162   2.519  0.0029 -0.6459  0.3408
  623SOL    HW111523   3.516   4.232   2.456 -0.9894 -0.7961 -0.3515
  623SOL    HW211524   3.389   4.184   2.548  0.3561 -0.7102  1.5656
  624SOL     OW11525   3.801   2.434   0.307 -0.6040 -0.0638 -0.3062
  624SOL    HW111526   3.756   2.521   0.285 -1.0312 -0.6703 -1.8583
  624SOL    HW211527   3.844   2.396   0.225  2.4967  0.3174  1.0683
  625SOL     OW11528   4.199   3.765   1.514  0.1497  0.6544  0.2873
  625SOL    HW111529   4.177   3.764   1.611 -0.3848 -0.5984  0.1716
  625SOL    HW211530   4.284   3.716   1.498 -1.0564 -1.3671 -0.1371
  626SOL     OW11531   4.239   1.507   1.614  0.0335 -0.0960 -0.1349
  626SOL    HW111532   4.212   1.411   1.612  0.4661 -0.2868  1.9806
  626SOL    HW211533   4.336   1.515   1.592  0.2620 -0.2699  0.7783
  627SOL     OW11534   2.982  10.494   0.575  0.0460 -0.3965  0.5882
  627SOL    HW111535   2.952  10.549   0.497  0.7934 -1.1494 -0.2378
  627SOL    HW211536   2.905  10.441   0.610  0.1039 -1.4264 -0.7888
  628SOL     OW11537   2.278   2.854   1.046  0.1578 -0.7461  0.2870
  628SOL    HW111538   2.303   2.930   0.986  0.1080 -0.1922  0.9622
  628SOL    HW211539   2.349   2.784   1.041  0.0759 -0.7781 -0.5412
  629SOL     OW11540   3.382   3.843   2.518  0.4625 -0.1996  0.2928
  629SOL    HW111541   3.432   3.919   2.559  0.0133 -0.1721  0.7955
  629SOL    HW211542   3.390   3.847   2.419 -0.0471  0.8433  0.2879
  630SOL     OW11543   4.210   4.500   2.399 -0.0405 -0.4169  0.3473
  630SOL    HW111544   4.297   4.463   2.433 -0.2937 -1.3924 -0.0526
  630SOL    HW211545   4.187   4.455   2.313 -0.5514  0.4082  0.0529
  631SOL     OW11546   4.436   1.851   0.590  0.0898 -0.3253 -0.5138
  631SOL    HW111547   4.513   1.825   0.533 -0.3722 -0.4323 -1.0912
  631SOL    HW211548   4.360   1.883   0.533  0.5710  2.1456  0.1553
  632SOL     OW11549   2.850   2.760   1.551 -0.5360 -0.1285 -0.3233
  632SOL    HW111550   2.902   2.743   1.467  0.2237  1.7452 -0.2530
  632SOL    HW211551   2.903   2.726   1.629 -1.6460 -2.7037 -0.6402
  633SOL     OW11552   2.825  10.728   1.797 -0.4502  0.6320 -0.4520
  633SOL    HW111553   2.746  10.749   1.740 -1.3925 -0.0397  0.5881
  633SOL    HW211554   2.799  10.732   1.893  0.7243  0.2053 -0.1054
  634SOL     OW11555   3.957   4.868   2.048  0.4058  0.3844  0.3100
  634SOL    HW111556   4.022   4.813   2.101 -1.0268 -0.6718  1.0293
  634SOL    HW211557   3.935   4.951   2.099  0.3150  0.1707  0.6278
  635SOL     OW11558   3.761   2.813   0.485  0.3053 -0.1671  0.2108
  635SOL    HW111559   3.860   2.810   0.498  0.8005  2.8471 -2.3288
  635SOL    HW211560   3.725   2.900   0.517 -1.3209 -0.6617 -0.1943
  636SOL     OW11561   2.530   1.890   1.063  0.4662  0.6215  0.0521
  636SOL    HW111562   2.476   1.965   1.102 -0.7586 -0.2645  0.0503
  636SOL    HW211563   2.487   1.857   0.979  0.7203 -0.4438  0.3336
  637SOL     OW11564   3.491  10.719   2.092 -0.3450  0.1932  0.2613
  637SOL    HW111565   3.493  10.706   1.993 -1.9606  1.3839  0.0489
  637SOL    HW211566   3.398  10.742   2.121  0.1188 -0.0607  2.0541
  638SOL     OW11567   4.981   3.652   1.082 -0.4471  0.0987  0.5469
  638SOL    HW111568   5.025   3.742   1.071 -1.0404  0.3945  0.5771
  638SOL    HW211569   5.020   3.606   1.162  1.7973 -0.8216 -1.0421
  639SOL     OW11570   3.323  10.101  -0.012  0.5083 -0.3601 -0.4121
  639SOL    HW111571   3.366  10.015   0.019 -1.7449 -0.9772  1.1380
  639SOL    HW211572   3.227  10.101   0.014 -0.0607  1.7123 -2.3768
  640SOL     OW11573   4.065   4.914   0.333  0.5199  0.0422  0.1913
  640SOL    HW111574   3.995   4.985   0.335  1.1384  0.6737 -0.1549
  640SOL    HW211575   4.041   4.841   0.398  0.8332  1.4969  1.9904
  641SOL     OW11576   3.180  10.359   1.988 -0.3167 -0.1023  0.4666
  641SOL    HW111577   3.212  10.403   1.905 -1.6903 -1.6373 -0.9028
  641SOL    HW211578   3.229  10.274   2.003 -0.2499  0.0396  1.1031
  642SOL     OW11579   4.258   1.854   2.117 -0.4727 -0.3380 -0.0649
  642SOL    HW111580   4.187   1.788   2.142 -1.1349  0.4685  0.2137
  642SOL    HW211581   4.295   1.831   2.027  1.3300 -2.7608  1.2736
  643SOL     OW11582   3.371   4.673   1.045  0.1762 -0.1525 -0.2750
  643SOL    HW111583   3.314   4.647   1.123  0.7692 -2.0781 -0.4729
  643SOL    HW211584   3.327   4.644   0.960  1.0665 -0.9106 -0.4757
  644SOL     OW11585   3.321   1.962   1.423  0.5989 -0.5082  0.1043
  644SOL    HW111586   3.286   2.041   1.473  1.5156  0.1637 -0.3048
  644SOL    HW211587   3.271   1.952   1.337  2.1647  1.1944 -1.0697
  645SOL     OW11588   3.295   1.450   2.356 -0.0754 -0.2511  0.2311
  645SOL    HW111589   3.211   1.480   2.401 -0.8083  0.4851 -1.5658
  645SOL    HW211590   3.368   1.515   2.374 -0.9919  1.3102 -1.5639
  646SOL     OW11591   2.390   1.117   1.562  0.1464 -0.0046  0.3096
  646SOL    HW111592   2.396   1.087   1.657 -2.1080  0.4725  0.6211
  646SOL    HW211593   2.447   1.198   1.549  1.3317 -0.7127  0.9649
  647SOL     OW11594   3.891   4.531   1.278  0.3669 -0.5532 -0.3884
  647SOL    HW111595   3.871   4.629   1.271 -0.0325 -0.5929  0.1470
  647SOL    HW211596   3.841   4.493   1.356  1.4390 -0.9438  0.1178
  648SOL     OW11597   3.036   3.142   0.095 -0.2171 -0.3156 -0.4839
  648SOL    HW111598   3.095   3.219   0.072  0.0266  0.3220  2.1248
  648SOL    HW211599   2.944   3.159   0.061  0.1940  0.4294 -1.2354
  649SOL     OW11600   2.688   3.098   0.262 -0.0111 -0.6666  0.0270
  649SOL    HW111601   2.749   3.159   0.313 -0.5828  0.1986 -0.3337
  649SOL    HW211602   2.611   3.149   0.226 -0.0960 -1.4550 -0.9381
  650SOL     OW11603   3.760  10.654   1.114  0.4837  0.0155  0.5611
  650SOL    HW111604   3.667  10.640   1.081  0.6203  2.4038 -0.9568
  650SOL    HW211605   3.775  10.599   1.196 -2.1494 -0.6325  0.6524
  651SOL     OW11606   3.705   3.709   1.966 -0.1567  0.9195 -0.1994
  651SOL    HW111607   3.715   3.680   2.062 -0.1128 -1.5128 -0.9291
  651SOL    HW211608   3.765   3.788   1.950  0.7985  0.5590  1.4446
  652SOL     OW11609   2.976   0.824  -0.050  0.3396 -0.5519  0.8252
  652SOL    HW111610   3.064   0.868  -0.068  0.6480 -1.0386  1.1229
  652SOL    HW211611   2.903   0.893  -0.049  1.0138  0.1692  2.7425
  653SOL     OW11612   3.065  10.441   2.234 -0.0435 -0.3780 -0.0337
  653SOL    HW111613   3.103  10.421   2.144  0.8686  1.9981 -0.2045
  653SOL    HW211614   3.118  10.514   2.277 -1.6249 -0.1969  1.6469
  654SOL     OW11615   3.529   4.365   2.347  0.3766  0.0963 -0.2628
  654SOL    HW111616   3.603   4.349   2.282  1.4450 -1.9303  1.3775
  654SOL    HW211617   3.441   4.341   2.306  0.9929 -0.7008 -1.1073
  655SOL     OW11618   2.979   2.776   1.825  0.3954  0.1882  0.0504
  655SOL    HW111619   2.964   2.685   1.865  0.4888  0.0861 -0.1476
  655SOL    HW211620   3.059   2.774   1.765 -0.0470  0.2176 -0.5439
  656SOL     OW11621   3.001   1.225   1.389  0.0199  0.6262  0.1554
  656SOL    HW111622   2.996   1.133   1.428  2.7301  0.3468 -0.0813
  656SOL    HW211623   2.932   1.234   1.316 -1.6858 -0.4838  1.5938
  657SOL     OW11624   2.791   1.456   0.066  0.2061 -0.2569  0.1203
  657SOL    HW111625   2.778   1.510  -0.017 -0.2647  0.4251  0.6311
  657SOL    HW211626   2.716   1.390   0.075 -0.0104  0.0101  0.2661
  658SOL     OW11627   2.401   1.517   2.009 -0.2482 -0.1906  0.5433
  658SOL    HW111628   2.395   1.616   2.022  0.5231 -0.2251  1.2431
  658SOL    HW211629   2.475   1.481   2.066  0.2059 -1.0164 -0.5521
  659SOL     OW11630   2.654   1.715   1.395  0.2963  0.1170 -0.7725
  659SOL    HW111631   2.674   1.810   1.373  2.2051  0.1077  0.7477
  659SOL    HW211632   2.585   1.680   1.333  0.0350  2.3058 -1.7551
  660SOL     OW11633   4.139   2.678   0.194 -0.1956 -0.0591 -0.1064
  660SOL    HW111634   4.066   2.658   0.129 -1.3990  0.9584  0.9023
  660SOL    HW211635   4.133   2.774   0.222  1.2451 -0.0882  0.3495
  661SOL     OW11636   2.732   3.516   0.227 -0.3571 -0.4638 -0.3195
  661SOL    HW111637   2.764   3.432   0.271  1.1831  0.2460 -0.0483
  661SOL    HW211638   2.768   3.520   0.134  1.0550  0.7443  0.2656
  662SOL     OW11639   3.839   1.825   1.370 -0.6228  0.3032  0.2627
  662SOL    HW111640   3.922   1.772   1.354 -1.2364 -0.7590  0.5609
  662SOL    HW211641   3.761   1.763   1.380 -1.5414  1.2987 -0.5166
  663SOL     OW11642   3.963   4.723   0.503  0.5307  0.3160  0.3139
  663SOL    HW111643   3.866   4.726   0.476  0.3967 -0.6966  0.6884
  663SOL    HW211644   3.969   4.703   0.601  1.1583 -0.7049  0.0600
  664SOL     OW11645   2.566   2.403   1.022  0.1944  0.0035 -0.1187
  664SOL    HW111646   2.519   2.478   1.067  0.5707  0.2458 -0.1263
  664SOL    HW211647   2.634   2.363   1.084 -2.5856 -2.8166  1.2713
  665SOL     OW11648   4.674   3.107   0.722 -0.3371  0.0064  0.7699
  665SOL    HW111649   4.664   3.206   0.733  0.9553  0.0754  1.4673
  665SOL    HW211650   4.642   3.080   0.631 -1.9363  0.8707  1.0555
  666SOL     OW11651   3.470   9.737   1.861 -0.6928 -0.0537  0.5009
  666SOL    HW111652   3.456   9.831   1.893 -0.1008 -0.6255  2.4974
  666SOL    HW211653   3.563   9.727   1.828  0.4333 -0.8375  3.6921
  667SOL     OW11654   4.205   1.610   0.388  0.2382 -0.1436 -0.5151
  667SOL    HW111655   4.179   1.693   0.340  0.3853 -0.0159 -0.3744
  667SOL    HW211656   4.162   1.531   0.344  3.1839 -0.4300 -3.0619
  668SOL     OW11657   4.497   1.549   1.571  0.0109  0.2584  0.1095
  668SOL    HW111658   4.565   1.551   1.644  0.4185  0.8931 -0.2836
  668SOL    HW211659   4.522   1.615   1.500  0.7085 -1.7780 -1.5884
  669SOL     OW11660   2.510   3.287   0.840 -0.4266  0.2643 -0.6771
  669SOL    HW111661   2.604   3.256   0.825 -0.2493 -0.1286  1.1298
  669SOL    HW211662   2.508   3.355   0.913 -1.6799 -0.5639  0.0835
  670SOL     OW11663   3.834   4.238   0.469 -0.0712  0.6104 -0.0198
  670SOL    HW111664   3.763   4.243   0.399  0.5057  2.1740 -0.5207
  670SOL    HW211665   3.808   4.296   0.547 -0.7128 -1.1202  1.0848
  671SOL     OW11666   3.208   1.567   1.189  0.2584  0.1424 -0.4733
  671SOL    HW111667   3.125   1.520   1.158  0.5864 -0.4195 -0.5047
  671SOL    HW211668   3.205   1.578   1.288 -0.7866  1.9288 -0.6896
  672SOL     OW11669   3.187   3.047   1.680 -0.8360 -0.0669 -0.3443
  672SOL    HW111670   3.164   3.021   1.586 -0.1477  2.4267 -1.2420
  672SOL    HW211671   3.255   3.120   1.679  0.2590 -0.9904  2.1343
  673SOL     OW11672   3.264   3.836   1.329  0.4026 -0.0707 -0.2849
  673SOL    HW111673   3.189   3.901   1.316 -0.2082 -0.6903  0.0853
  673SOL    HW211674   3.245   3.752   1.278  0.7012 -0.3493  0.0587
  674SOL     OW11675   2.915   1.260   0.702 -0.2248  0.0419 -0.2118
  674SOL    HW111676   2.840   1.322   0.725 -0.9070 -0.8442 -0.0214
  674SOL    HW211677   2.951   1.284   0.612  2.2390  3.3110  1.5521
  675SOL     OW11678   3.204   1.971  -0.069  0.1787  0.3989 -0.3933
  675SOL    HW111679   3.254   2.049  -0.031 -0.7180  0.1749  1.3015
  675SOL    HW211680   3.107   1.980  -0.046  0.3516 -2.2443  1.6430
  676SOL     OW11681   3.967   5.112   2.154 -0.1423  0.1855 -0.2784
  676SOL    HW111682   4.065   5.116   2.133 -0.1017  0.3285 -0.0699
  676SOL    HW211683   3.947   5.173   2.231 -0.4271  0.2991 -0.4420
  677SOL     OW11684   2.431   2.729   0.268  0.1635  0.1732 -0.6548
  677SOL    HW111685   2.421   2.724   0.168 -2.0814  1.1444 -0.5106
  677SOL    HW211686   2.374   2.660   0.311  2.1002 -1.0866 -0.0479
  678SOL     OW11687   3.251   1.763   1.629  0.3189 -0.0523 -0.1913
  678SOL    HW111688   3.281   1.813   1.548  0.1274  0.7430  0.2175
  678SOL    HW211689   3.242   1.827   1.705 -0.6777 -0.5810  0.1425
  679SOL     OW11690   2.603  10.680   0.053 -0.1966 -0.1569  0.3924
  679SOL    HW111691   2.592  10.605  -0.012  0.9905 -0.4543  0.5333
  679SOL    HW211692   2.605  10.767   0.004 -1.7764 -0.1880  0.2454
  680SOL     OW11693   2.953   3.887   2.374  0.5974  0.0894  0.4186
  680SOL    HW111694   2.998   3.799   2.359  1.2982  0.2104  1.6839
  680SOL    HW211695   2.895   3.880   2.455 -2.2289 -0.2568 -1.5658
  681SOL     OW11696   2.832   1.035   0.982  0.7614 -0.2105 -0.3762
  681SOL    HW111697   2.795   1.073   0.897  0.7839  3.6016  1.2254
  681SOL    HW211698   2.932   1.035   0.978  0.7665  0.2266 -0.2387
  682SOL     OW11699   3.907  10.690   0.636  0.1779 -0.7419  0.0818
  682SOL    HW111700   3.892  10.778   0.591  0.5523 -0.3359  0.7382
  682SOL    HW211701   3.822  10.638   0.636 -0.3772  0.1547  0.8348
  683SOL     OW11702   4.544   3.763   1.082 -0.3262  0.3238 -0.0803
  683SOL    HW111703   4.554   3.825   1.159  2.0330  0.5075 -0.4676
  683SOL    HW211704   4.630   3.713   1.069 -1.5121 -1.5118 -1.0507
  684SOL     OW11705   2.318   1.194   0.478 -0.5091 -0.1575 -0.7369
  684SOL    HW111706   2.287   1.212   0.385 -1.3200 -0.5516 -0.5485
  684SOL    HW211707   2.411   1.156   0.476  1.3563  4.1232 -1.1423
  685SOL     OW11708   2.878   0.998   0.685 -0.5113  0.5051 -0.6016
  685SOL    HW111709   2.889   1.097   0.687 -0.8425  0.5357  1.9887
  685SOL    HW211710   2.964   0.955   0.657  0.4034  1.4384  0.7405
  686SOL     OW11711   4.619   4.550   0.196  0.3972 -0.3577  0.2796
  686SOL    HW111712   4.646   4.639   0.235  0.4477 -1.0462  1.8464
  686SOL    HW211713   4.683   4.525   0.124  1.4931  0.0216  1.0945
  687SOL     OW11714   2.910   1.480   0.350 -0.2678 -0.1433 -0.1987
  687SOL    HW111715   2.978   1.553   0.351 -0.7970  0.3544 -0.4778
  687SOL    HW211716   2.887   1.456   0.256 -1.2345  0.3967 -0.1052
  688SOL     OW11717   3.651  10.751   2.338 -0.3600 -0.1125 -0.0240
  688SOL    HW111718   3.617  10.738   2.245  1.2412  0.7450 -0.7528
  688SOL    HW211719   3.649  10.664   2.387  1.3575 -1.1857 -1.7832
  689SOL     OW11720   3.453   9.967   0.834 -0.5329 -0.1814 -0.2074
  689SOL    HW111721   3.439   9.995   0.929 -0.2989 -2.7324  0.6106
  689SOL    HW211722   3.537   9.912   0.827  0.9208  2.1472 -2.3736
  690SOL     OW11723   3.236   2.787   1.743 -0.4332 -0.0336  0.0167
  690SOL    HW111724   3.328   2.763   1.710 -0.8094 -1.4191 -0.0708
  690SOL    HW211725   3.218   2.883   1.724  0.7627  0.0934 -0.5487
  691SOL     OW11726   3.727   2.603   1.449 -0.0808  0.1520  0.0763
  691SOL    HW111727   3.736   2.564   1.357  0.0068 -0.5194  0.3705
  691SOL    HW211728   3.759   2.537   1.517 -0.6131  0.4620  0.6306
  692SOL     OW11729   4.034   2.390   0.152  0.0734 -0.4397  0.1998
  692SOL    HW111730   4.080   2.442   0.224 -0.9916 -0.4567  0.8967
  692SOL    HW211731   4.068   2.421   0.063  0.8254  0.1277  0.6687
  693SOL     OW11732   3.770   2.499   0.576  0.0818  0.2590  0.1605
  693SOL    HW111733   3.737   2.593   0.587  1.0619  0.5211  1.0279
  693SOL    HW211734   3.821   2.491   0.490  0.5649  0.7036  0.4002
  694SOL     OW11735   3.155   0.920   0.367 -0.1042  0.0490  0.4202
  694SOL    HW111736   3.134   0.867   0.449  1.0950 -1.3520 -0.1527
  694SOL    HW211737   3.073   0.968   0.336 -1.2591 -1.6381  0.8270
  695SOL     OW11738   4.598   3.015   0.480  0.0904 -0.1376 -0.7116
  695SOL    HW111739   4.648   3.057   0.404  0.2238 -0.6443 -0.9113
  695SOL    HW211740   4.551   2.933   0.447 -2.3829  1.3139 -0.9428
  696SOL     OW11741   3.491   3.689   0.725  0.1685 -0.2418 -0.1087
  696SOL    HW111742   3.427   3.677   0.650 -2.2375 -0.6916  1.9529
  696SOL    HW211743   3.453   3.754   0.791  2.5167  0.6228  0.4329
  697SOL     OW11744   3.094   4.607   1.180  0.1952  0.1818  0.3817
  697SOL    HW111745   3.040   4.606   1.264  0.3706 -2.6705  0.4992
  697SOL    HW211746   3.057   4.676   1.117 -2.1025 -0.1035  1.3752
  698SOL     OW11747   3.431   2.119  -0.015 -0.7554 -0.5410 -0.2017
  698SOL    HW111748   3.507   2.122  -0.081 -1.6581 -0.6809 -1.2622
  698SOL    HW211749   3.466   2.090   0.074  0.5142 -0.1999 -0.5647
  699SOL     OW11750   3.537   1.107   0.416  0.2339 -0.0079  1.1215
  699SOL    HW111751   3.561   1.089   0.320 -0.9807 -0.8339  0.9639
  699SOL    HW211752   3.456   1.054   0.441  0.4665  0.3023  2.5791
  700SOL     OW11753   3.603   3.996   1.770 -0.3682  0.1051 -0.4747
  700SOL    HW111754   3.676   3.962   1.829 -1.3911  1.8950  1.8995
  700SOL    HW211755   3.641   4.022   1.681  1.4830 -1.0268 -0.0498
  701SOL     OW11756   2.622   3.768   0.805 -0.1481 -0.6570  0.1633
  701SOL    HW111757   2.573   3.774   0.718 -1.9263  0.4186  1.2157
  701SOL    HW211758   2.634   3.672   0.830 -0.1015 -0.9600 -1.0007
  702SOL     OW11759   3.023   1.771   0.730  0.2195  0.0639  0.0776
  702SOL    HW111760   3.081   1.781   0.650  2.2787  0.6006  1.6121
  702SOL    HW211761   3.054   1.693   0.784 -0.7239  0.1225  0.7206
  703SOL     OW11762   4.028   4.126   1.694  0.5430  0.1040  0.0290
  703SOL    HW111763   4.088   4.099   1.619  1.0171 -0.1825  0.5032
  703SOL    HW211764   4.061   4.212   1.733  1.0851 -0.4212  0.7570
  704SOL     OW11765   3.981  10.474   1.800 -0.1174 -0.0374 -0.2218
  704SOL    HW111766   3.906  10.536   1.826 -0.8357 -1.2841  0.7680
  704SOL    HW211767   4.046  10.523   1.741 -1.6071  1.1289 -0.9460
  705SOL     OW11768   3.491  10.384   1.166  0.2572  0.2219 -0.3203
  705SOL    HW111769   3.473  10.477   1.199  0.4495 -0.2985  1.3158
  705SOL    HW211770   3.417  10.324   1.195  1.3359 -0.6170  0.7609
  706SOL     OW11771   3.800  10.147   0.841 -0.2439 -0.2425 -0.1347
  706SOL    HW111772   3.720  10.152   0.900  0.1245  1.6347  0.2595
  706SOL    HW211773   3.871  10.208   0.877  0.7740 -0.6958 -1.3483
  707SOL     OW11774   4.628   2.942   0.032  0.3390  0.1049  0.1003
  707SOL    HW111775   4.543   2.910   0.073  0.1811  0.4174  0.0205
  707SOL    HW211776   4.651   2.885  -0.047 -0.9735  1.3787 -1.2364
  10.00000  10.00000   2.87400
