chitosan Film  in water:acetic acid 2%
12803
    1CHTO  H203    1   5.254   6.740   2.100
    1CHTO   O82    2   5.242   6.659   2.145
    1CHTO  C123    3   5.366   6.614   2.202
    1CHTO  H227    4   5.402   6.690   2.272
    1CHTO   O77    5   5.327   6.493   2.274
    1CHTO  C118    6   5.433   6.435   2.352
    1CHTO  H222    7   5.473   6.508   2.423
    1CHTO  C125    8   5.367   6.316   2.432
    1CHTO   O84    9   5.454   6.261   2.532
    1CHTO  H205   10   5.525   6.216   2.490
    1CHTO  C114   11   5.544   6.386   2.256
    1CHTO  H218   12   5.504   6.307   2.193
    1CHTO  C116   13   5.594   6.500   2.162
    1CHTO  H220   14   5.655   6.572   2.222
    1CHTO   O79   15   5.683   6.443   2.065
    1CHTO  H201   16   5.722   6.511   2.012
    1CHTO  C120   17   5.474   6.577   2.093
    1CHTO  H224   18   5.431   6.508   2.018
    1CHTO   N21   19   5.524   6.697   2.020
    1CHTO  H211   20   5.550   6.671   1.919
    1CHTO  H212   21   5.449   6.775   2.020
    1CHTO   O75   22   5.649   6.336   2.341
    1CHTO  C112   23   5.716   6.196   2.290
    1CHTO  H216   24   5.701   6.187   2.181
    1CHTO   O73   25   5.654   6.089   2.362
    1CHTO  C113   26   5.700   5.958   2.325
    1CHTO  H217   27   5.681   5.944   2.217
    1CHTO  C124   28   5.615   5.853   2.399
    1CHTO   O83   29   5.623   5.863   2.542
    1CHTO  H204   30   5.569   5.797   2.581
    1CHTO  C109   31   5.852   5.942   2.354
    1CHTO  H213   32   5.865   5.947   2.463
    1CHTO  C110   33   5.932   6.057   2.285
    1CHTO  H214   34   5.929   6.041   2.177
    1CHTO   O78   35   6.070   6.048   2.326
    1CHTO  H200   36   6.078   6.061   2.418
    1CHTO  C111   37   5.872   6.197   2.319
    1CHTO  H215   38   5.884   6.215   2.427
    1CHTO   N19   39   5.940   6.310   2.249
    1CHTO  H207   40   5.872   6.363   2.184
    1CHTO  H208   41   6.025   6.275   2.193
    1CHTO   O74   42   5.898   5.811   2.305
    1CHTO  C115   43   5.990   5.728   2.410
    1CHTO  H219   44   5.992   5.776   2.509
    1CHTO   O76   45   5.934   5.584   2.436
    1CHTO  C122   46   5.918   5.508   2.315
    1CHTO  H226   47   5.827   5.544   2.267
    1CHTO  C126   48   5.889   5.358   2.354
    1CHTO   O85   49   5.995   5.297   2.428
    1CHTO  H206   50   6.071   5.289   2.374
    1CHTO  C121   51   6.041   5.519   2.215
    1CHTO  H225   52   6.067   5.418   2.178
    1CHTO   O81   53   6.003   5.596   2.100
    1CHTO  H202   54   5.934   5.552   2.053
    1CHTO  C119   55   6.166   5.581   2.284
    1CHTO  H223   56   6.191   5.510   2.364
    1CHTO  C117   57   6.137   5.722   2.350
    1CHTO  H221   58   6.141   5.805   2.280
    1CHTO   N20   59   6.240   5.755   2.454
    1CHTO  H209   60   6.237   5.683   2.534
    1CHTO  H210   61   6.338   5.757   2.409
    1CHTO   O80   62   6.300   5.576   2.194
    1CHTO  C103   63   6.411   5.469   2.225
    1CHTO  H190   64   6.415   5.450   2.332
    1CHTO  C101   65   6.396   5.332   2.150
    1CHTO  H188   66   6.381   5.351   2.044
    1CHTO   O68   67   6.269   5.260   2.205
    1CHTO  H168   68   6.253   5.182   2.155
    1CHTO   C99   69   6.527   5.240   2.167
    1CHTO  H186   70   6.534   5.209   2.273
    1CHTO   N17   71   6.523   5.112   2.088
    1CHTO  H174   72   6.611   5.102   2.026
    1CHTO  H175   73   6.433   5.107   2.028
    1CHTO   C97   74   6.655   5.323   2.139
    1CHTO  H184   75   6.661   5.344   2.031
    1CHTO   O64   76   6.656   5.444   2.217
    1CHTO  C104   77   6.549   5.535   2.185
    1CHTO  H191   78   6.548   5.560   2.079
    1CHTO  C108   79   6.579   5.666   2.260
    1CHTO   O71   80   6.501   5.775   2.209
    1CHTO  H171   81   6.523   5.853   2.256
    1CHTO   O62   82   6.774   5.255   2.185
    1CHTO   C91   83   6.885   5.238   2.094
    1CHTO  H178   84   6.845   5.223   1.993
    1CHTO   C92   85   6.955   5.104   2.135
    1CHTO  H179   86   6.965   5.102   2.244
    1CHTO   O66   87   6.864   4.997   2.104
    1CHTO  H166   88   6.850   4.991   2.011
    1CHTO   C93   89   7.096   5.083   2.067
    1CHTO  H180   90   7.080   5.072   1.958
    1CHTO   N16   91   7.165   4.959   2.111
    1CHTO  H172   92   7.186   4.895   2.026
    1CHTO  H173   93   7.256   4.981   2.164
    1CHTO   C94   94   7.182   5.212   2.092
    1CHTO  H181   95   7.191   5.234   2.199
    1CHTO   O61   96   7.115   5.323   2.031
    1CHTO   C95   97   6.990   5.358   2.091
    1CHTO  H182   98   7.008   5.391   2.194
    1CHTO  C106   99   6.934   5.484   2.014
    1CHTO   O69  100   6.913   5.457   1.875
    1CHTO  H169  101   6.842   5.395   1.865
    1CHTO   O63  102   7.330   5.203   2.025
    1CHTO   C96  103   7.437   5.281   2.110
    1CHTO  H183  104   7.384   5.358   2.167
    1CHTO   C98  105   7.545   5.355   2.024
    1CHTO  H185  106   7.496   5.421   1.952
    1CHTO   O67  107   7.621   5.441   2.111
    1CHTO  H167  108   7.666   5.391   2.177
    1CHTO  C102  109   7.645   5.252   1.951
    1CHTO  H189  110   7.740   5.307   1.939
    1CHTO   N18  111   7.605   5.214   1.813
    1CHTO  H176  112   7.514   5.264   1.784
    1CHTO  H177  113   7.590   5.107   1.805
    1CHTO  C105  114   7.672   5.129   2.043
    1CHTO  H192  115   7.608   5.046   2.013
    1CHTO   O65  116   7.646   5.156   2.182
    1CHTO  C100  117   7.506   5.179   2.211
    1CHTO  H187  118   7.455   5.082   2.204
    1CHTO  C107  119   7.497   5.226   2.358
    1CHTO   O70  120   7.361   5.236   2.402
    1CHTO  H170  121   7.323   5.151   2.409
    1CHTO   O57  122   7.828   5.090   2.018
    1CHTO   C85  123   7.858   4.974   1.939
    1CHTO  H157  124   7.768   4.956   1.877
    1CHTO   C83  125   7.870   4.849   2.032
    1CHTO  H155  126   7.775   4.837   2.085
    1CHTO   O56  127   7.971   4.872   2.132
    1CHTO  H135  128   7.946   4.942   2.188
    1CHTO   C81  129   7.894   4.723   1.944
    1CHTO  H153  130   7.811   4.714   1.873
    1CHTO   N14  131   7.889   4.596   2.021
    1CHTO  H141  132   7.796   4.589   2.074
    1CHTO  H142  133   7.896   4.512   1.954
    1CHTO   C79  134   8.027   4.739   1.860
    1CHTO  H151  135   8.032   4.655   1.792
    1CHTO   O52  136   8.019   4.860   1.777
    1CHTO   C86  137   7.989   4.983   1.851
    1CHTO  H158  138   8.079   5.001   1.913
    1CHTO   C90  139   7.983   5.099   1.748
    1CHTO   O60  140   7.977   5.227   1.812
    1CHTO  H138  141   8.058   5.245   1.856
    1CHTO   O50  142   8.147   4.742   1.939
    1CHTO   C73  143   8.277   4.693   1.899
    1CHTO  H145  144   8.291   4.705   1.791
    1CHTO   C74  145   8.291   4.541   1.933
    1CHTO  H146  146   8.211   4.489   1.879
    1CHTO   O54  147   8.415   4.492   1.880
    1CHTO  H133  148   8.414   4.495   1.786
    1CHTO   C75  149   8.277   4.522   2.089
    1CHTO  H147  150   8.177   4.557   2.120
    1CHTO   N13  151   8.284   4.380   2.133
    1CHTO  H139  152   8.379   4.337   2.106
    1CHTO  H140  153   8.272   4.374   2.240
    1CHTO   C76  154   8.384   4.614   2.164
    1CHTO  H148  155   8.483   4.573   2.145
    1CHTO   O49  156   8.380   4.753   2.116
    1CHTO   C77  157   8.389   4.770   1.973
    1CHTO  H149  158   8.486   4.735   1.938
    1CHTO   C88  159   8.384   4.920   1.941
    1CHTO   O58  160   8.500   4.993   2.002
    1CHTO  H136  161   8.580   4.966   1.960
    1CHTO   O51  162   8.348   4.618   2.328
    1CHTO   C78  163   8.288   4.757   2.383
    1CHTO  H150  164   8.251   4.821   2.300
    1CHTO   C80  165   8.397   4.833   2.460
    1CHTO  H152  166   8.434   4.768   2.544
    1CHTO   O55  167   8.507   4.857   2.369
    1CHTO  H134  168   8.550   4.776   2.349
    1CHTO   C84  169   8.341   4.969   2.519
    1CHTO  H156  170   8.318   5.033   2.434
    1CHTO   N15  171   8.442   5.042   2.603
    1CHTO  H143  172   8.529   5.064   2.544
    1CHTO  H144  173   8.401   5.134   2.637
    1CHTO   C87  174   8.211   4.941   2.599
    1CHTO  H159  175   8.235   4.888   2.691
    1CHTO   O53  176   8.113   4.857   2.514
    1CHTO   C82  177   8.167   4.730   2.474
    1CHTO  H154  178   8.194   4.670   2.561
    1CHTO   C89  179   8.054   4.654   2.399
    1CHTO   O59  180   8.083   4.515   2.387
    1CHTO  H137  181   8.014   4.472   2.341
    1CHTO   O45  182   8.134   5.081   2.640
    1CHTO   C67  183   8.078   5.155   2.530
    1CHTO  H124  184   8.128   5.129   2.436
    1CHTO   C65  185   7.926   5.125   2.517
    1CHTO  H122  186   7.917   5.016   2.520
    1CHTO   O44  187   7.878   5.172   2.390
    1CHTO  H102  188   7.789   5.144   2.377
    1CHTO   C63  189   7.853   5.179   2.644
    1CHTO  H120  190   7.901   5.138   2.733
    1CHTO   N11  191   7.712   5.130   2.662
    1CHTO  H108  192   7.674   5.162   2.757
    1CHTO  H109  193   7.650   5.169   2.584
    1CHTO   C61  194   7.871   5.335   2.652
    1CHTO  H118  195   7.836   5.363   2.752
    1CHTO   O40  196   8.010   5.376   2.644
    1CHTO   C68  197   8.105   5.310   2.553
    1CHTO  H125  198   8.205   5.318   2.602
    1CHTO   C72  199   8.114   5.391   2.422
    1CHTO   O48  200   8.218   5.345   2.334
    1CHTO  H105  201   8.198   5.259   2.302
    1CHTO   O38  202   7.794   5.406   2.551
    1CHTO   C55  203   7.734   5.531   2.591
    1CHTO  H112  204   7.804   5.585   2.657
    1CHTO   C56  205   7.592   5.508   2.660
    1CHTO  H113  206   7.533   5.446   2.591
    1CHTO   O42  207   7.607   5.432   2.781
    1CHTO  H100  208   7.638   5.346   2.762
    1CHTO   C57  209   7.519   5.645   2.689
    1CHTO  H114  210   7.576   5.695   2.767
    1CHTO   N10  211   7.380   5.629   2.739
    1CHTO  H106  212   7.380   5.621   2.846
    1CHTO  H107  213   7.334   5.541   2.696
    1CHTO   C58  214   7.521   5.735   2.562
    1CHTO  H115  215   7.453   5.692   2.485
    1CHTO   O37  216   7.654   5.747   2.509
    1CHTO   C59  217   7.713   5.623   2.467
    1CHTO  H116  218   7.649   5.574   2.393
    1CHTO   C70  219   7.847   5.656   2.399
    1CHTO   O46  220   7.831   5.734   2.279
    1CHTO  H103  221   7.792   5.681   2.212
    1CHTO   O39  222   7.474   5.886   2.601
    1CHTO   C60  223   7.431   5.967   2.491
    1CHTO  H117  224   7.468   5.926   2.397
    1CHTO   C62  225   7.275   5.974   2.482
    1CHTO  H119  226   7.241   5.871   2.457
    1CHTO   O43  227   7.220   6.010   2.610
    1CHTO  H101  228   7.248   6.096   2.634
    1CHTO   C66  229   7.231   6.074   2.363
    1CHTO  H123  230   7.275   6.039   2.270
    1CHTO   N12  231   7.084   6.076   2.340
    1CHTO  H110  232   7.061   6.142   2.258
    1CHTO  H111  233   7.033   6.105   2.430
    1CHTO   C69  234   7.289   6.214   2.395
    1CHTO  H126  235   7.251   6.248   2.495
    1CHTO   O41  236   7.444   6.202   2.398
    1CHTO   C64  237   7.493   6.109   2.506
    1CHTO  H121  238   7.464   6.150   2.605
    1CHTO   C71  239   7.648   6.105   2.501
    1CHTO   O47  240   7.696   6.057   2.374
    1CHTO  H104  241   7.790   6.057   2.374
    1CHTO   O34  242   7.251   6.323   2.291
    1CHTO   C49  243   7.243   6.479   2.287
    1CHTO   H91  244   7.227   6.505   2.182
    1CHTO   C47  245   7.376   6.541   2.336
    1CHTO   H89  246   7.370   6.649   2.309
    1CHTO   O33  247   7.484   6.481   2.262
    1CHTO   H70  248   7.564   6.525   2.281
    1CHTO   C45  249   7.390   6.526   2.496
    1CHTO   H87  250   7.385   6.420   2.522
    1CHTO    N8  251   7.520   6.578   2.547
    1CHTO   H75  252   7.602   6.528   2.497
    1CHTO   H76  253   7.527   6.685   2.529
    1CHTO   C43  254   7.263   6.593   2.567
    1CHTO   H85  255   7.274   6.573   2.674
    1CHTO   O29  256   7.142   6.537   2.514
    1CHTO   C50  257   7.124   6.533   2.371
    1CHTO   H92  258   7.039   6.465   2.352
    1CHTO   C54  259   7.073   6.669   2.314
    1CHTO   O36  260   6.947   6.706   2.369
    1CHTO   H72  261   6.880   6.648   2.338
    1CHTO   O27  262   7.263   6.737   2.553
    1CHTO   C37  263   7.255   6.861   2.624
    1CHTO   H79  264   7.289   6.848   2.728
    1CHTO   C38  265   7.349   6.966   2.557
    1CHTO   H80  266   7.331   6.964   2.448
    1CHTO   O31  267   7.485   6.923   2.581
    1CHTO   H68  268   7.503   6.845   2.533
    1CHTO   C39  269   7.325   7.112   2.611
    1CHTO   H81  270   7.357   7.114   2.716
    1CHTO    N7  271   7.407   7.216   2.538
    1CHTO   H73  272   7.379   7.218   2.434
    1CHTO   H74  273   7.391   7.313   2.583
    1CHTO   C40  274   7.172   7.146   2.608
    1CHTO   H82  275   7.136   7.152   2.505
    1CHTO   O26  276   7.100   7.046   2.683
    1CHTO   C41  277   7.108   6.912   2.626
    1CHTO   H83  278   7.068   6.913   2.523
    1CHTO   C52  279   7.019   6.819   2.711
    1CHTO   O35  280   6.878   6.862   2.714
    1CHTO   H71  281   6.841   6.853   2.628
    1CHTO   O28  282   7.137   7.266   2.680
    1CHTO   C42  283   7.087   7.386   2.612
    1CHTO   H84  284   7.121   7.378   2.509
    1CHTO   C44  285   7.146   7.520   2.667
    1CHTO   H86  286   7.122   7.527   2.773
    1CHTO   O32  287   7.290   7.511   2.657
    1CHTO   H69  288   7.316   7.507   2.567
    1CHTO   C48  289   7.089   7.648   2.594
    1CHTO   H90  290   7.128   7.648   2.492
    1CHTO    N9  291   7.140   7.776   2.656
    1CHTO   H77  292   7.107   7.782   2.759
    1CHTO   H78  293   7.104   7.861   2.601
    1CHTO   C51  294   6.932   7.642   2.589
    1CHTO   H93  295   6.897   7.647   2.692
    1CHTO   O30  296   6.893   7.519   2.526
    1CHTO   C46  297   6.931   7.396   2.608
    1CHTO   H88  298   6.893   7.408   2.710
    1CHTO   C53  299   6.864   7.274   2.541
    1CHTO   O72  300   6.722   7.285   2.545
    1CHTO  H199  301   6.684   7.209   2.506
    1CHTO   O22  302   6.872   7.751   2.515
    1CHTO   C31  303   6.844   7.764   2.370
    1CHTO   H59  304   6.809   7.869   2.356
    1CHTO   C29  305   6.965   7.745   2.275
    1CHTO   H57  306   7.001   7.642   2.287
    1CHTO   O21  307   7.070   7.833   2.319
    1CHTO   H37  308   7.149   7.816   2.271
    1CHTO   C27  309   6.926   7.770   2.124
    1CHTO   H55  310   6.901   7.877   2.112
    1CHTO    N5  311   7.036   7.737   2.030
    1CHTO   H43  312   7.060   7.632   2.037
    1CHTO   H44  313   7.123   7.797   2.051
    1CHTO   C25  314   6.794   7.692   2.087
    1CHTO   H53  315   6.817   7.584   2.080
    1CHTO   O17  316   6.690   7.711   2.187
    1CHTO   C32  317   6.727   7.674   2.320
    1CHTO   H60  318   6.760   7.570   2.320
    1CHTO   C36  319   6.602   7.686   2.411
    1CHTO   O25  320   6.502   7.590   2.376
    1CHTO   H40  321   6.531   7.504   2.398
    1CHTO   O15  322   6.737   7.742   1.948
    1CHTO   C19  323   6.697   7.702   1.814
    1CHTO   H47  324   6.608   7.763   1.794
    1CHTO   C20  325   6.804   7.731   1.704
    1CHTO   H48  326   6.900   7.681   1.726
    1CHTO   O19  327   6.828   7.873   1.707
    1CHTO   H35  328   6.898   7.895   1.649
    1CHTO   C21  329   6.755   7.684   1.561
    1CHTO   H49  330   6.670   7.745   1.531
    1CHTO    N4  331   6.859   7.700   1.456
    1CHTO   H41  332   6.886   7.804   1.447
    1CHTO   H42  333   6.947   7.643   1.481
    1CHTO   C22  334   6.705   7.537   1.571
    1CHTO   H50  335   6.789   7.472   1.594
    1CHTO   O14  336   6.604   7.526   1.673
    1CHTO   C23  337   6.651   7.554   1.805
    1CHTO   H51  338   6.734   7.484   1.827
    1CHTO   C34  339   6.537   7.524   1.903
    1CHTO   O23  340   6.503   7.385   1.902
    1CHTO   H38  341   6.461   7.363   1.821
    1CHTO   O16  342   6.635   7.492   1.453
    1CHTO   C24  343   6.703   7.365   1.379
    1CHTO   H52  344   6.808   7.353   1.407
    1CHTO   C26  345   6.692   7.387   1.227
    1CHTO   H54  346   6.587   7.411   1.203
    1CHTO   O20  347   6.771   7.503   1.191
    1CHTO   H36  348   6.862   7.488   1.209
    1CHTO   C30  349   6.734   7.262   1.145
    1CHTO   H58  350   6.843   7.249   1.149
    1CHTO    N6  351   6.700   7.279   1.000
    1CHTO   H45  352   6.733   7.192   0.944
    1CHTO   H46  353   6.594   7.290   0.988
    1CHTO   C33  354   6.673   7.131   1.204
    1CHTO   H61  355   6.564   7.129   1.185
    1CHTO   O18  356   6.694   7.126   1.346
    1CHTO   C28  357   6.631   7.233   1.418
    1CHTO   H56  358   6.525   7.241   1.391
    1CHTO   C35  359   6.640   7.205   1.570
    1CHTO   O24  360   6.575   7.083   1.610
    1CHTO   H39  361   6.483   7.092   1.600
    1CHTO    O9  362   6.726   7.014   1.139
    1CHTO   C13  363   6.649   6.877   1.175
    1CHTO   H26  364   6.541   6.900   1.184
    1CHTO   C11  365   6.708   6.816   1.311
    1CHTO   H24  366   6.657   6.866   1.395
    1CHTO    O8  367   6.849   6.845   1.322
    1CHTO    H3  368   6.896   6.805   1.252
    1CHTO    C9  369   6.677   6.664   1.314
    1CHTO   H22  370   6.569   6.655   1.294
    1CHTO    N2  371   6.695   6.602   1.448
    1CHTO   H10  372   6.660   6.500   1.445
    1CHTO   H11  373   6.799   6.606   1.477
    1CHTO    C7  374   6.756   6.595   1.196
    1CHTO   H20  375   6.695   6.504   1.173
    1CHTO    O4  376   6.765   6.677   1.077
    1CHTO   C14  377   6.659   6.772   1.056
    1CHTO   H27  378   6.565   6.714   1.051
    1CHTO   C18  379   6.680   6.836   0.916
    1CHTO   O13  380   6.573   6.925   0.884
    1CHTO    H7  381   6.588   6.963   0.799
    1CHTO    O2  382   6.909   6.552   1.237
    1CHTO    C1  383   6.950   6.422   1.191
    1CHTO   H14  384   6.867   6.373   1.135
    1CHTO    C2  385   6.991   6.327   1.311
    1CHTO   H15  386   7.063   6.384   1.372
    1CHTO    O6  387   6.874   6.299   1.389
    1CHTO    H1  388   6.897   6.251   1.466
    1CHTO    C3  389   7.059   6.191   1.259
    1CHTO   H16  390   6.980   6.127   1.216
    1CHTO    N1  391   7.121   6.113   1.372
    1CHTO    H8  392   7.166   6.022   1.334
    1CHTO    H9  393   7.046   6.089   1.445
    1CHTO    C4  394   7.161   6.218   1.142
    1CHTO   H17  395   7.252   6.261   1.183
    1CHTO    O1  396   7.104   6.305   1.042
    1CHTO    C5  397   7.069   6.435   1.092
    1CHTO   H18  398   7.153   6.479   1.145
    1CHTO   C16  399   7.035   6.524   0.969
    1CHTO   O11  400   7.149   6.545   0.886
    1CHTO    H5  401   7.173   6.465   0.843
    1CHTO    O3  402   7.191   6.095   1.072
    1CHTO    C6  403   7.299   6.100   0.973
    1CHTO   H19  404   7.320   6.201   0.938
    1CHTO    C8  405   7.430   6.042   1.035
    1CHTO   H21  406   7.407   5.945   1.080
    1CHTO    O7  407   7.474   6.134   1.136
    1CHTO    H2  408   7.415   6.133   1.209
    1CHTO   C12  409   7.540   6.021   0.923
    1CHTO   H25  410   7.569   6.122   0.887
    1CHTO    N3  411   7.664   5.958   0.979
    1CHTO   H12  412   7.739   5.948   0.901
    1CHTO   H13  413   7.641   5.861   1.021
    1CHTO   C15  414   7.479   5.941   0.802
    1CHTO   H28  415   7.454   5.839   0.831
    1CHTO   O10  416   7.572   5.938   0.678
    1CHTO    H4  417   7.596   6.025   0.652
    1CHTO    O5  418   7.362   6.009   0.752
    1CHTO   C10  419   7.256   6.017   0.849
    1CHTO   H23  420   7.230   5.915   0.880
    1CHTO   C17  421   7.131   6.075   0.779
    1CHTO   O12  422   7.154   6.207   0.727
    1CHTO    H6  423   7.213   6.202   0.654
    2CHTO  H203  424   6.505   4.381   2.439
    2CHTO   O82  425   6.466   4.326   2.504
    2CHTO  C123  426   6.349   4.390   2.559
    2CHTO  H227  427   6.374   4.495   2.583
    2CHTO   O77  428   6.253   4.385   2.449
    2CHTO  C118  429   6.130   4.453   2.477
    2CHTO  H222  430   6.151   4.556   2.507
    2CHTO  C125  431   6.044   4.454   2.345
    2CHTO   O84  432   6.012   4.322   2.298
    2CHTO  H205  433   5.953   4.281   2.358
    2CHTO  C114  434   6.057   4.382   2.593
    2CHTO  H218  435   6.033   4.280   2.562
    2CHTO  C116  436   6.148   4.372   2.720
    2CHTO  H220  437   6.158   4.474   2.764
    2CHTO   O79  438   6.080   4.293   2.819
    2CHTO  H201  439   6.069   4.205   2.789
    2CHTO  C120  440   6.291   4.314   2.684
    2CHTO  H224  441   6.276   4.207   2.659
    2CHTO   N21  442   6.384   4.321   2.800
    2CHTO  H211  443   6.360   4.405   0.003
    2CHTO  H212  444   6.378   4.229   2.857
    2CHTO   O75  445   5.937   4.459   2.615
    2CHTO  C112  446   5.806   4.368   2.638
    2CHTO  H216  447   5.834   4.274   2.687
    2CHTO   O73  448   5.748   4.345   2.508
    2CHTO  C113  449   5.630   4.264   2.509
    2CHTO  H217  450   5.652   4.167   2.557
    2CHTO  C124  451   5.589   4.236   2.363
    2CHTO   O83  452   5.688   4.161   2.292
    2CHTO  H204  453   5.693   4.074   2.326
    2CHTO  C109  454   5.517   4.335   2.588
    2CHTO  H213  455   5.494   4.428   2.533
    2CHTO  C110  456   5.566   4.369   2.732
    2CHTO  H214  457   5.577   4.275   2.787
    2CHTO   O78  458   5.465   4.447   2.798
    2CHTO  H200  459   5.388   4.395   2.812
    2CHTO  C111  460   5.702   4.445   2.729
    2CHTO  H215  461   5.686   4.544   2.685
    2CHTO   N19  462   5.760   4.467   0.005
    2CHTO  H207  463   5.693   4.528   0.064
    2CHTO  H208  464   5.776   4.372   0.054
    2CHTO   O74  465   5.397   4.251   2.593
    2CHTO  C115  466   5.267   4.326   2.546
    2CHTO  H219  467   5.273   4.434   2.564
    2CHTO   O76  468   5.245   4.312   2.386
    2CHTO  C122  469   5.168   4.197   2.347
    2CHTO  H226  470   5.224   4.109   2.378
    2CHTO  C126  471   5.163   4.193   2.190
    2CHTO   O85  472   5.096   4.077   2.141
    2CHTO  H206  473   5.093   4.080   2.047
    2CHTO  C121  474   5.023   4.199   2.411
    2CHTO  H225  475   4.951   4.237   2.336
    2CHTO   O81  476   4.986   4.065   2.445
    2CHTO  H202  477   4.896   4.061   2.471
    2CHTO  C119  478   5.016   4.291   2.537
    2CHTO  H223  479   5.025   4.393   2.499
    2CHTO  C117  480   5.143   4.269   2.627
    2CHTO  H221  481   5.168   4.165   2.649
    2CHTO   N20  482   5.133   4.337   2.761
    2CHTO  H209  483   5.039   4.387   2.772
    2CHTO  H210  484   5.147   4.265   2.840
    2CHTO   O80  485   4.873   4.294   2.603
    2CHTO  C103  486   4.782   4.423   2.585
    2CHTO  H190  487   4.832   4.511   2.626
    2CHTO  C101  488   4.736   4.456   2.437
    2CHTO  H188  489   4.693   4.366   2.393
    2CHTO   O68  490   4.861   4.500   2.352
    2CHTO  H168  491   4.924   4.430   2.349
    2CHTO   C99  492   4.624   4.571   2.437
    2CHTO  H186  493   4.671   4.665   2.473
    2CHTO   N17  494   4.570   4.600   2.300
    2CHTO  H174  495   4.518   4.513   2.262
    2CHTO  H175  496   4.650   4.630   2.234
    2CHTO   C97  497   4.511   4.538   2.539
    2CHTO  H184  498   4.454   4.452   2.501
    2CHTO   O64  499   4.568   4.511   2.669
    2CHTO  C104  500   4.654   4.396   2.673
    2CHTO  H191  501   4.604   4.307   2.636
    2CHTO  C108  502   4.693   4.367   2.819
    2CHTO   O71  503   4.577   4.332   0.036
    2CHTO  H171  504   4.603   4.312   0.124
    2CHTO   O62  505   4.423   4.651   2.559
    2CHTO   C91  506   4.302   4.628   2.633
    2CHTO  H178  507   4.322   4.550   2.707
    2CHTO   C92  508   4.189   4.571   2.539
    2CHTO  H179  509   4.227   4.482   2.486
    2CHTO   O66  510   4.082   4.522   2.622
    2CHTO  H166  511   4.046   4.590   2.674
    2CHTO   C93  512   4.130   4.679   2.441
    2CHTO  H180  513   4.024   4.653   2.423
    2CHTO   N16  514   4.193   4.678   2.307
    2CHTO  H172  515   4.298   4.699   2.315
    2CHTO  H173  516   4.144   4.749   2.242
    2CHTO   C94  517   4.135   4.823   2.506
    2CHTO  H181  518   4.227   4.877   2.480
    2CHTO   O61  519   4.131   4.815   2.649
    2CHTO   C95  520   4.249   4.759   2.709
    2CHTO  H182  521   4.328   4.834   2.708
    2CHTO  C106  522   4.216   4.729   2.859
    2CHTO   O69  523   4.333   4.688   0.072
    2CHTO  H169  524   4.391   4.761   0.081
    2CHTO   O63  525   4.011   4.905   2.456
    2CHTO   C96  526   4.022   5.060   2.477
    2CHTO  H183  527   4.111   5.081   2.537
    2CHTO   C98  528   3.899   5.119   2.552
    2CHTO  H185  529   3.806   5.078   2.508
    2CHTO   O67  530   3.903   5.069   2.687
    2CHTO  H167  531   3.826   5.094   2.733
    2CHTO  C102  532   3.894   5.280   2.550
    2CHTO  H189  533   3.977   5.313   2.614
    2CHTO   N18  534   3.771   5.339   2.608
    2CHTO  H176  535   3.777   5.447   2.605
    2CHTO  H177  536   3.684   5.306   2.553
    2CHTO  C105  537   3.921   5.330   2.405
    2CHTO  H192  538   3.837   5.303   2.341
    2CHTO   O65  539   4.041   5.273   2.350
    2CHTO  C100  540   4.038   5.130   2.337
    2CHTO  H187  541   3.952   5.103   2.274
    2CHTO  C107  542   4.167   5.085   2.262
    2CHTO   O70  543   4.286   5.116   2.335
    2CHTO  H170  544   4.291   5.064   2.412
    2CHTO   O57  545   3.939   5.493   2.411
    2CHTO   C85  546   3.888   5.575   2.304
    2CHTO  H157  547   3.779   5.555   2.298
    2CHTO   C83  548   3.949   5.531   2.167
    2CHTO  H155  549   3.915   5.429   2.146
    2CHTO   O56  550   4.092   5.525   2.180
    2CHTO  H135  551   4.130   5.488   2.102
    2CHTO   C81  552   3.900   5.624   2.053
    2CHTO  H153  553   3.791   5.622   2.052
    2CHTO   N14  554   3.938   5.577   1.918
    2CHTO  H141  555   3.893   5.639   1.843
    2CHTO  H142  556   4.044   5.581   1.906
    2CHTO   C79  557   3.945   5.772   2.083
    2CHTO  H151  558   3.901   5.835   2.005
    2CHTO   O52  559   3.888   5.816   2.210
    2CHTO   C86  560   3.918   5.730   2.326
    2CHTO  H158  561   4.025   5.747   2.346
    2CHTO   C90  562   3.842   5.787   2.448
    2CHTO   O60  563   3.880   5.724   2.571
    2CHTO  H138  564   3.851   5.635   2.571
    2CHTO   O50  565   4.088   5.791   2.082
    2CHTO   C73  566   4.174   5.902   2.056
    2CHTO  H145  567   4.118   5.997   2.066
    2CHTO   C74  568   4.233   5.895   1.911
    2CHTO  H146  569   4.147   5.889   1.842
    2CHTO   O54  570   4.299   6.020   1.884
    2CHTO  H133  571   4.330   6.021   1.795
    2CHTO   C75  572   4.328   5.769   1.899
    2CHTO  H147  573   4.267   5.678   1.914
    2CHTO   N13  574   4.389   5.753   1.764
    2CHTO  H139  575   4.448   5.840   1.740
    2CHTO  H140  576   4.312   5.741   1.690
    2CHTO   C76  577   4.438   5.772   2.015
    2CHTO  H148  578   4.503   5.858   1.999
    2CHTO   O49  579   4.372   5.785   2.146
    2CHTO   C77  580   4.292   5.903   2.158
    2CHTO  H149  581   4.353   5.992   2.141
    2CHTO   C88  582   4.242   5.914   2.303
    2CHTO   O58  583   4.170   6.039   2.327
    2CHTO  H136  584   4.141   6.042   2.416
    2CHTO   O51  585   4.523   5.629   2.016
    2CHTO   C78  586   4.595   5.592   2.154
    2CHTO  H150  587   4.561   5.657   2.237
    2CHTO   C80  588   4.748   5.606   2.140
    2CHTO  H152  589   4.782   5.543   2.054
    2CHTO   O55  590   4.776   5.744   2.109
    2CHTO  H134  591   4.748   5.764   2.022
    2CHTO   C84  592   4.823   5.559   2.271
    2CHTO  H156  593   4.797   5.629   2.351
    2CHTO   N15  594   4.973   5.563   2.258
    2CHTO  H143  595   5.019   5.533   2.350
    2CHTO  H144  596   5.004   5.496   2.180
    2CHTO   C87  597   4.773   5.418   2.314
    2CHTO  H159  598   4.807   5.343   2.243
    2CHTO   O53  599   4.618   5.420   2.320
    2CHTO   C82  600   4.560   5.447   2.192
    2CHTO  H154  601   4.597   5.376   2.117
    2CHTO   C89  602   4.408   5.424   2.204
    2CHTO   O59  603   4.344   5.417   2.076
    2CHTO  H137  604   4.371   5.339   2.031
    2CHTO   O45  605   4.834   5.379   2.464
    2CHTO   C67  606   4.746   5.310   2.555
    2CHTO  H124  607   4.645   5.350   2.546
    2CHTO   C65  608   4.742   5.155   2.527
    2CHTO  H122  609   4.831   5.133   2.467
    2CHTO   O44  610   4.625   5.131   2.446
    2CHTO  H102  611   4.547   5.139   2.498
    2CHTO   C63  612   4.759   5.068   2.658
    2CHTO  H120  613   4.862   5.077   2.692
    2CHTO   N11  614   4.747   4.919   2.640
    2CHTO  H108  615   4.710   4.896   2.543
    2CHTO  H109  616   4.683   4.877   2.714
    2CHTO   C61  617   4.670   5.129   2.773
    2CHTO  H118  618   4.696   5.074   0.005
    2CHTO   O40  619   4.701   5.270   2.798
    2CHTO   C68  620   4.788   5.341   2.704
    2CHTO  H125  621   4.893   5.310   2.722
    2CHTO   C72  622   4.778   5.491   2.738
    2CHTO   O48  623   4.869   5.575   2.667
    2CHTO  H105  624   4.957   5.557   2.694
    2CHTO   O38  625   4.529   5.114   2.745
    2CHTO   C55  626   4.435   5.171   2.839
    2CHTO  H112  627   4.475   5.265   0.020
    2CHTO   C56  628   4.396   5.068   0.093
    2CHTO  H113  629   4.365   4.975   0.043
    2CHTO   O42  630   4.512   5.035   0.171
    2CHTO  H100  631   4.547   5.111   0.213
    2CHTO   C57  632   4.280   5.125   0.184
    2CHTO  H114  633   4.324   5.206   0.243
    2CHTO   N10  634   4.226   5.027   0.282
    2CHTO  H106  635   4.282   5.031   0.374
    2CHTO  H107  636   4.231   4.927   0.242
    2CHTO   C58  637   4.165   5.184   0.098
    2CHTO  H115  638   4.107   5.101   0.052
    2CHTO   O37  639   4.214   5.272   2.855
    2CHTO   C59  640   4.306   5.211   2.762
    2CHTO  H116  641   4.259   5.124   2.717
    2CHTO   C70  642   4.335   5.312   2.649
    2CHTO   O46  643   4.393   5.435   2.694
    2CHTO  H103  644   4.480   5.419   2.727
    2CHTO   O39  645   4.069   5.277   0.191
    2CHTO   C60  646   3.943   5.312   0.132
    2CHTO  H117  647   3.942   5.284   0.026
    2CHTO   C62  648   3.826   5.238   0.203
    2CHTO  H119  649   3.844   5.130   0.189
    2CHTO   O43  650   3.829   5.266   0.345
    2CHTO  H101  651   3.814   5.357   0.361
    2CHTO   C66  652   3.687   5.279   0.133
    2CHTO  H123  653   3.692   5.253   0.027
    2CHTO   N12  654   3.572   5.201   0.187
    2CHTO  H110  655   3.481   5.231   0.137
    2CHTO  H111  656   3.589   5.096   0.175
    2CHTO   C69  657   3.666   5.432   0.143
    2CHTO  H126  658   3.656   5.463   0.250
    2CHTO   O41  659   3.788   5.506   0.078
    2CHTO   C64  660   3.922   5.466   0.138
    2CHTO  H121  661   3.926   5.497   0.244
    2CHTO   C71  662   4.034   5.543   0.063
    2CHTO   O47  663   4.034   5.517   2.783
    2CHTO  H104  664   4.104   5.565   2.742
    2CHTO   O34  665   3.537   5.478   0.067
    2CHTO   C49  666   3.440   5.597   0.072
    2CHTO   H91  667   3.357   5.568   0.136
    2CHTO   C47  668   3.388   5.624   2.789
    2CHTO   H89  669   3.308   5.700   2.797
    2CHTO   O33  670   3.331   5.502   2.737
    2CHTO   H70  671   3.253   5.480   2.785
    2CHTO   C45  672   3.509   5.681   2.699
    2CHTO   H87  673   3.593   5.610   2.705
    2CHTO    N8  674   3.472   5.697   2.556
    2CHTO   H75  675   3.395   5.772   2.546
    2CHTO   H76  676   3.559   5.726   2.499
    2CHTO   C43  677   3.563   5.817   2.765
    2CHTO   H85  678   3.649   5.849   2.706
    2CHTO   O29  679   3.600   5.794   0.043
    2CHTO   C50  680   3.507   5.726   0.130
    2CHTO   H92  681   3.563   5.694   0.219
    2CHTO   C54  682   3.401   5.823   0.189
    2CHTO   O36  683   3.461   5.922   0.273
    2CHTO   H72  684   3.493   5.883   0.351
    2CHTO   O27  685   3.467   5.924   2.756
    2CHTO   C37  686   3.450   6.062   2.720
    2CHTO   H79  687   3.524   6.091   2.643
    2CHTO   C38  688   3.308   6.084   2.659
    2CHTO   H80  689   3.234   6.036   2.724
    2CHTO   O31  690   3.305   6.018   2.531
    2CHTO   H68  691   3.366   6.057   2.472
    2CHTO   C39  692   3.271   6.238   2.644
    2CHTO   H81  693   3.336   6.279   2.567
    2CHTO    N7  694   3.129   6.261   2.601
    2CHTO   H73  695   3.127   6.316   2.508
    2CHTO   H74  696   3.076   6.168   2.589
    2CHTO   C40  697   3.304   6.315   2.778
    2CHTO   H82  698   3.237   6.281   2.857
    2CHTO   O26  699   3.442   6.291   2.811
    2CHTO   C41  700   3.470   6.152   2.845
    2CHTO   H83  701   3.403   6.119   0.065
    2CHTO   C52  702   3.615   6.147   0.037
    2CHTO   O35  703   3.631   6.226   0.159
    2CHTO   H71  704   3.620   6.317   0.139
    2CHTO   O28  705   3.288   6.458   2.765
    2CHTO   C42  706   3.334   6.558   0.002
    2CHTO   H84  707   3.282   6.649   2.831
    2CHTO   C44  708   3.486   6.592   2.859
    2CHTO   H86  709   3.543   6.504   0.028
    2CHTO   O32  710   3.518   6.624   2.722
    2CHTO   H69  711   3.610   6.637   2.712
    2CHTO   C48  712   3.524   6.710   0.098
    2CHTO   H90  713   3.476   6.800   0.062
    2CHTO    N9  714   3.672   6.741   0.097
    2CHTO   H77  715   3.725   6.677   0.028
    2CHTO   H78  716   3.714   6.731   0.196
    2CHTO   C51  717   3.469   6.678   0.243
    2CHTO   H93  718   3.525   6.594   0.283
    2CHTO   O30  719   3.328   6.651   0.236
    2CHTO   C46  720   3.291   6.530   0.150
    2CHTO   H88  721   3.344   6.442   0.187
    2CHTO   C53  722   3.138   6.509   0.162
    2CHTO   O72  723   3.100   6.479   0.296
    2CHTO  H199  724   3.113   6.554   0.351
    2CHTO   O22  725   3.480   6.793   0.330
    2CHTO   C31  726   3.491   6.782   0.477
    2CHTO   H59  727   3.487   6.887   0.515
    2CHTO   C29  728   3.376   6.706   0.546
    2CHTO   H57  729   3.375   6.603   0.505
    2CHTO   O21  730   3.251   6.767   0.507
    2CHTO   H37  731   3.244   6.853   0.543
    2CHTO   C27  732   3.394   6.699   0.703
    2CHTO   H55  733   3.388   6.802   0.743
    2CHTO    N5  734   3.289   6.617   0.768
    2CHTO   H43  735   3.303   6.618   0.875
    2CHTO   H44  736   3.192   6.655   0.744
    2CHTO   C25  737   3.539   6.647   0.737
    2CHTO   H53  738   3.547   6.541   0.705
    2CHTO   O17  739   3.640   6.725   0.666
    2CHTO   C32  740   3.628   6.725   0.523
    2CHTO   H60  741   3.638   6.623   0.486
    2CHTO   C36  742   3.744   6.810   0.465
    2CHTO   O25  743   3.867   6.738   0.468
    2CHTO   H40  744   3.933   6.788   0.424
    2CHTO   O15  745   3.572   6.657   0.895
    2CHTO   C19  746   3.531   6.609   1.027
    2CHTO   H47  747   3.421   6.613   1.024
    2CHTO   C20  748   3.573   6.462   1.059
    2CHTO   H48  749   3.682   6.449   1.056
    2CHTO   O19  750   3.515   6.380   0.956
    2CHTO   H35  751   3.560   6.394   0.874
    2CHTO   C21  752   3.521   6.416   1.201
    2CHTO   H49  753   3.412   6.412   1.199
    2CHTO    N4  754   3.568   6.280   1.240
    2CHTO   H41  755   3.676   6.278   1.245
    2CHTO   H42  756   3.527   6.253   1.336
    2CHTO   C22  757   3.558   6.524   1.307
    2CHTO   H50  758   3.667   6.524   1.321
    2CHTO   O14  759   3.514   6.654   1.265
    2CHTO   C23  760   3.574   6.702   1.144
    2CHTO   H51  761   3.684   6.703   1.157
    2CHTO   C34  762   3.527   6.846   1.120
    2CHTO   O23  763   3.563   6.933   1.228
    2CHTO   H38  764   3.513   6.910   1.305
    2CHTO   O16  765   3.492   6.500   1.433
    2CHTO   C24  766   3.535   6.601   1.550
    2CHTO   H52  767   3.586   6.689   1.512
    2CHTO   C26  768   3.626   6.527   1.650
    2CHTO   H54  769   3.577   6.432   1.681
    2CHTO   O20  770   3.749   6.496   1.582
    2CHTO   H36  771   3.734   6.430   1.517
    2CHTO   C30  772   3.652   6.613   1.779
    2CHTO   H58  773   3.711   6.702   1.753
    2CHTO    N6  774   3.732   6.539   1.880
    2CHTO   H45  775   3.679   6.450   1.912
    2CHTO   H46  776   3.751   6.602   1.965
    2CHTO   C33  777   3.516   6.664   1.836
    2CHTO   H61  778   3.455   6.579   1.870
    2CHTO   O18  779   3.444   6.733   1.732
    2CHTO   C28  780   3.406   6.651   1.621
    2CHTO   H56  781   3.348   6.565   1.655
    2CHTO   C35  782   3.317   6.734   1.525
    2CHTO   O24  783   3.380   6.854   1.476
    2CHTO   H39  784   3.452   6.832   1.421
    2CHTO    O9  785   3.534   6.748   1.952
    2CHTO   C13  786   3.397   6.798   2.018
    2CHTO   H26  787   3.320   6.719   2.003
    2CHTO   C11  788   3.353   6.935   1.952
    2CHTO   H24  789   3.324   6.914   1.847
    2CHTO    O8  790   3.464   7.027   1.947
    2CHTO    H3  791   3.533   6.993   1.893
    2CHTO    C9  792   3.229   6.988   2.028
    2CHTO   H22  793   3.156   6.906   2.025
    2CHTO    N2  794   3.161   7.101   1.959
    2CHTO   H10  795   3.068   7.124   2.009
    2CHTO   H11  796   3.226   7.187   1.957
    2CHTO    C7  797   3.268   7.015   2.177
    2CHTO   H20  798   3.173   7.045   2.226
    2CHTO    O4  799   3.317   6.896   2.242
    2CHTO   C14  800   3.414   6.811   2.176
    2CHTO   H27  801   3.397   6.710   2.218
    2CHTO   C18  802   3.558   6.853   2.216
    2CHTO   O13  803   3.584   6.823   2.354
    2CHTO    H7  804   3.671   6.849   2.376
    2CHTO    O2  805   3.380   7.134   2.194
    2CHTO    C1  806   3.349   7.233   2.294
    2CHTO   H14  807   3.281   7.190   2.371
    2CHTO    C2  808   3.279   7.363   2.233
    2CHTO   H15  809   3.338   7.390   2.144
    2CHTO    O6  810   3.145   7.329   2.193
    2CHTO    H1  811   3.106   7.401   2.147
    2CHTO    C3  812   3.277   7.486   2.338
    2CHTO   H16  813   3.205   7.463   2.417
    2CHTO    N1  814   3.233   7.614   2.273
    2CHTO    H8  815   3.231   7.694   2.346
    2CHTO    H9  816   3.134   7.602   2.231
    2CHTO    C4  817   3.417   7.500   2.409
    2CHTO   H17  818   3.491   7.534   2.336
    2CHTO    O1  819   3.455   7.374   2.465
    2CHTO    C5  820   3.480   7.272   2.368
    2CHTO   H18  821   3.552   7.307   2.294
    2CHTO   C16  822   3.542   7.152   2.442
    2CHTO   O11  823   3.670   7.185   2.497
    2CHTO    H5  824   3.706   7.111   2.542
    2CHTO    O3  825   3.412   7.591   2.521
    2CHTO    C6  826   3.543   7.625   2.577
    2CHTO   H19  827   3.622   7.557   2.544
    2CHTO    C8  828   3.585   7.770   2.534
    2CHTO   H21  829   3.506   7.839   2.564
    2CHTO    O7  830   3.597   7.771   2.390
    2CHTO    H2  831   3.666   7.714   2.362
    2CHTO   C12  832   3.721   7.811   2.605
    2CHTO   H25  833   3.799   7.744   2.563
    2CHTO    N3  834   3.762   7.952   2.572
    2CHTO   H12  835   3.857   7.952   2.522
    2CHTO   H13  836   3.687   8.002   2.512
    2CHTO   C15  837   3.710   7.785   2.760
    2CHTO   H28  838   3.642   7.855   2.808
    2CHTO   O10  839   3.846   7.788   2.830
    2CHTO    H4  840   3.882   7.874   2.826
    2CHTO    O5  841   3.667   7.650   2.787
    2CHTO   C10  842   3.538   7.618   2.732
    2CHTO   H23  843   3.465   7.689   2.770
    2CHTO   C17  844   3.497   7.479   2.781
    2CHTO   O12  845   3.480   7.477   0.064
    2CHTO    H6  846   3.451   7.392   0.091
    3CHTO  H203  847   7.734   1.154   1.276
    3CHTO   O82  848   7.659   1.196   1.314
    3CHTO  C123  849   7.593   1.106   1.403
    3CHTO  H227  850   7.664   1.075   1.482
    3CHTO   O77  851   7.488   1.190   1.461
    3CHTO  C118  852   7.408   1.124   1.561
    3CHTO  H222  853   7.473   1.087   1.642
    3CHTO  C125  854   7.309   1.231   1.622
    3CHTO   O84  855   7.220   1.287   1.524
    3CHTO  H205  856   7.161   1.221   1.494
    3CHTO  C114  857   7.333   1.006   1.497
    3CHTO  H218  858   7.269   1.044   1.418
    3CHTO  C116  859   7.433   0.906   1.431
    3CHTO  H220  860   7.493   0.856   1.511
    3CHTO   O79  861   7.356   0.803   1.366
    3CHTO  H201  862   7.414   0.737   1.332
    3CHTO  C120  863   7.528   0.982   1.331
    3CHTO  H224  864   7.464   1.017   1.248
    3CHTO   N21  865   7.632   0.892   1.273
    3CHTO  H211  866   7.595   0.845   1.183
    3CHTO  H212  867   7.662   0.817   1.344
    3CHTO   O75  868   7.254   0.947   1.603
    3CHTO  C112  869   7.106   0.909   1.552
    3CHTO  H216  870   7.112   0.868   1.450
    3CHTO   O73  871   7.028   1.030   1.555
    3CHTO  C113  872   6.898   1.016   1.496
    3CHTO  H217  873   6.910   0.985   1.390
    3CHTO  C124  874   6.833   1.155   1.494
    3CHTO   O83  875   6.817   1.212   1.625
    3CHTO  H204  876   6.754   1.163   1.673
    3CHTO  C109  877   6.813   0.911   1.573
    3CHTO  H213  878   6.788   0.955   1.670
    3CHTO  C110  879   6.891   0.778   1.593
    3CHTO  H214  880   6.895   0.725   1.497
    3CHTO   O78  881   6.815   0.695   1.683
    3CHTO  H200  882   6.855   0.611   1.692
    3CHTO  C111  883   7.036   0.804   1.645
    3CHTO  H215  884   7.029   0.846   1.747
    3CHTO   N19  885   7.118   0.680   1.656
    3CHTO  H207  886   7.125   0.632   1.560
    3CHTO  H208  887   7.074   0.612   1.728
    3CHTO   O74  888   6.689   0.885   1.499
    3CHTO  C115  889   6.555   0.940   1.570
    3CHTO  H219  890   6.567   0.950   1.678
    3CHTO   O76  891   6.518   1.083   1.520
    3CHTO  C122  892   6.400   1.142   1.574
    3CHTO  H226  893   6.380   1.233   1.517
    3CHTO  C126  894   6.426   1.189   1.722
    3CHTO   O85  895   6.316   1.263   1.776
    3CHTO  H206  896   6.337   1.291   1.863
    3CHTO  C121  897   6.275   1.047   1.559
    3CHTO  H225  898   6.195   1.089   1.623
    3CHTO   O81  899   6.229   1.050   1.423
    3CHTO  H202  900   6.294   1.014   1.366
    3CHTO  C119  901   6.302   0.900   1.605
    3CHTO  H223  902   6.314   0.904   1.713
    3CHTO  C117  903   6.435   0.841   1.543
    3CHTO  H221  904   6.435   0.827   1.435
    3CHTO   N20  905   6.467   0.706   1.601
    3CHTO  H209  906   6.394   0.676   1.676
    3CHTO  H210  907   6.471   0.632   1.523
    3CHTO   O80  908   6.175   0.804   1.589
    3CHTO  C103  909   6.039   0.839   1.658
    3CHTO  H190  910   6.055   0.898   1.749
    3CHTO  C101  911   5.933   0.913   1.565
    3CHTO  H188  912   5.945   0.875   1.463
    3CHTO   O68  913   5.962   1.065   1.562
    3CHTO  H168  914   5.951   1.101   1.648
    3CHTO   C99  915   5.781   0.886   1.609
    3CHTO  H186  916   5.762   0.936   1.706
    3CHTO   N17  917   5.679   0.939   1.512
    3CHTO  H174  918   5.727   0.979   1.424
    3CHTO  H175  919   5.617   1.014   1.560
    3CHTO   C97  920   5.762   0.735   1.635
    3CHTO  H184  921   5.785   0.680   1.542
    3CHTO   O64  922   5.850   0.696   1.742
    3CHTO  C104  923   5.988   0.696   1.703
    3CHTO  H191  924   6.004   0.625   1.622
    3CHTO  C108  925   6.073   0.644   1.820
    3CHTO   O71  926   6.043   0.507   1.851
    3CHTO  H171  927   5.957   0.501   1.887
    3CHTO   O62  928   5.631   0.700   1.685
    3CHTO   C91  929   5.570   0.582   1.630
    3CHTO  H178  930   5.606   0.568   1.528
    3CHTO   C92  931   5.417   0.610   1.618
    3CHTO  H179  932   5.380   0.652   1.712
    3CHTO   O66  933   5.400   0.716   1.521
    3CHTO  H166  934   5.430   0.689   1.436
    3CHTO   C93  935   5.334   0.482   1.578
    3CHTO  H180  936   5.358   0.461   1.473
    3CHTO   N16  937   5.187   0.505   1.577
    3CHTO  H172  938   5.136   0.415   1.546
    3CHTO  H173  939   5.154   0.535   1.676
    3CHTO   C94  940   5.373   0.356   1.665
    3CHTO  H181  941   5.291   0.324   1.729
    3CHTO   O61  942   5.481   0.381   1.757
    3CHTO   C95  943   5.600   0.450   1.714
    3CHTO  H182  944   5.656   0.479   1.803
    3CHTO  C106  945   5.694   0.350   1.637
    3CHTO   O69  946   5.821   0.409   1.606
    3CHTO  H169  947   5.810   0.477   1.543
    3CHTO   O63  948   5.413   0.237   1.563
    3CHTO   C96  949   5.324   0.107   1.573
    3CHTO  H183  950   5.358   0.039   1.495
    3CHTO   C98  951   5.171   0.127   1.552
    3CHTO  H185  952   5.134   0.207   1.619
    3CHTO   O67  953   5.154   0.178   1.418
    3CHTO  H167  954   5.064   0.201   1.404
    3CHTO  C102  955   5.087   9.992   1.574
    3CHTO  H189  956   5.114   9.926   1.490
    3CHTO   N18  957   4.940   0.009   1.567
    3CHTO  H176  958   4.911   0.046   1.470
    3CHTO  H177  959   4.907   0.078   1.643
    3CHTO  C105  960   5.133   9.923   1.705
    3CHTO  H192  961   5.097   9.980   1.791
    3CHTO   O65  962   5.276   9.910   1.715
    3CHTO  C100  963   5.347   0.035   1.712
    3CHTO  H187  964   5.309   0.099   1.792
    3CHTO  C107  965   5.497   0.008   1.740
    3CHTO   O70  966   5.556   9.921   1.643
    3CHTO  H170  967   5.561   9.965   1.560
    3CHTO   O57  968   5.066   9.770   1.704
    3CHTO   C85  969   5.024   9.703   1.825
    3CHTO  H157  970   5.008   9.598   1.792
    3CHTO   C83  971   4.883   9.753   1.869
    3CHTO  H155  972   4.811   9.729   1.790
    3CHTO   O56  973   4.881   9.897   1.882
    3CHTO  H135  974   4.897   9.937   1.799
    3CHTO   C81  975   4.841   9.679   2.000
    3CHTO  H153  976   4.845   9.572   1.980
    3CHTO   N14  977   4.700   9.704   2.039
    3CHTO  H141  978   4.675   9.644   2.123
    3CHTO  H142  979   4.635   9.679   1.957
    3CHTO   C79  980   4.944   9.712   2.114
    3CHTO  H151  981   4.914   9.656   2.202
    3CHTO   O52  982   5.077   9.663   2.076
    3CHTO   C86  983   5.126   9.711   1.946
    3CHTO  H158  984   5.154   9.817   1.966
    3CHTO   C90  985   5.258   9.638   1.912
    3CHTO   O60  986   5.239   9.496   1.905
    3CHTO  H138  987   5.319   9.455   1.882
    3CHTO   O50  988   4.952   9.852   2.147
    3CHTO   C73  989   4.981   9.937   2.259
    3CHTO  H145  990   5.058   9.891   2.323
    3CHTO   C74  991   4.852   9.958   2.345
    3CHTO  H146  992   4.818   9.859   2.377
    3CHTO   O54  993   4.889   0.029   2.465
    3CHTO  H133  994   4.943   9.976   2.519
    3CHTO   C75  995   4.744   0.033   2.257
    3CHTO  H147  996   4.720   9.969   2.171
    3CHTO   N13  997   4.616   0.055   2.328
    3CHTO  H139  998   4.593   0.161   2.336
    3CHTO  H140  999   4.534   0.007   2.275
    3CHTO   C76 1000   4.807   0.168   2.198
    3CHTO  H148 1001   4.825   0.236   2.281
    3CHTO   O49 1002   4.934   0.141   2.128
    3CHTO   C77 1003   5.033   0.075   2.208
    3CHTO  H149 1004   5.059   0.137   2.294
    3CHTO   C88 1005   5.161   0.063   2.124
    3CHTO   O58 1006   5.273   0.001   2.200
    3CHTO  H136 1007   5.253   9.911   2.218
    3CHTO   O51 1008   4.712   0.229   2.085
    3CHTO   C78 1009   4.744   0.380   2.058
    3CHTO  H150 1010   4.846   0.407   2.093
    3CHTO   C80 1011   4.641   0.470   2.131
    3CHTO  H152 1012   4.539   0.442   2.098
    3CHTO   O55 1013   4.652   0.442   2.272
    3CHTO  H134 1014   4.619   0.356   2.291
    3CHTO   C84 1015   4.667   0.623   2.101
    3CHTO  H156 1016   4.763   0.650   2.146
    3CHTO   N15 1017   4.563   0.711   2.164
    3CHTO  H143 1018   4.466   0.689   2.125
    3CHTO  H144 1019   4.586   0.814   2.145
    3CHTO   C87 1020   4.677   0.648   1.948
    3CHTO  H159 1021   4.578   0.640   1.903
    3CHTO   O53 1022   4.774   0.544   1.882
    3CHTO   C82 1023   4.738   0.407   1.907
    3CHTO  H154 1024   4.638   0.387   1.867
    3CHTO   C89 1025   4.836   0.314   1.831
    3CHTO   O59 1026   4.829   0.334   1.690
    3CHTO  H137 1027   4.747   0.303   1.657
    3CHTO   O45 1028   4.734   0.805   1.919
    3CHTO   C67 1029   4.877   0.820   1.914
    3CHTO  H124 1030   4.925   0.732   1.958
    3CHTO   C65 1031   4.926   0.835   1.765
    3CHTO  H122 1032   4.843   0.883   1.712
    3CHTO   O44 1033   4.942   0.701   1.716
    3CHTO  H102 1034   4.958   0.703   1.623
    3CHTO   C63 1035   5.048   0.935   1.749
    3CHTO  H120 1036   5.009   1.037   1.753
    3CHTO   N11 1037   5.115   0.935   1.615
    3CHTO  H108 1038   5.167   0.842   1.600
    3CHTO  H109 1039   5.185   1.016   1.609
    3CHTO   C61 1040   5.144   0.919   1.872
    3CHTO  H118 1041   5.222   0.996   1.861
    3CHTO   O40 1042   5.076   0.945   1.999
    3CHTO   C68 1043   4.930   0.942   2.000
    3CHTO  H125 1044   4.891   1.037   1.957
    3CHTO   C72 1045   4.882   0.937   2.147
    3CHTO   O48 1046   4.918   1.054   2.221
    3CHTO  H105 1047   4.870   1.128   2.189
    3CHTO   O38 1048   5.205   0.788   1.872
    3CHTO   C55 1049   5.288   0.746   1.982
    3CHTO  H112 1050   5.242   0.777   2.077
    3CHTO   C56 1051   5.437   0.799   1.968
    3CHTO  H113 1052   5.470   0.774   1.866
    3CHTO   O42 1053   5.439   0.942   1.974
    3CHTO  H100 1054   5.408   0.972   2.057
    3CHTO   C57 1055   5.533   0.733   2.075
    3CHTO  H114 1056   5.503   0.771   2.173
    3CHTO   N10 1057   5.676   0.768   2.055
    3CHTO  H106 1058   5.724   0.698   1.989
    3CHTO  H107 1059   5.727   0.767   2.150
    3CHTO   C58 1060   5.512   0.579   2.073
    3CHTO  H115 1061   5.544   0.540   1.974
    3CHTO   O37 1062   5.373   0.546   2.094
    3CHTO   C59 1063   5.290   0.590   1.985
    3CHTO  H116 1064   5.328   0.550   1.892
    3CHTO   C70 1065   5.148   0.533   2.004
    3CHTO   O46 1066   5.145   0.390   1.996
    3CHTO  H103 1067   5.164   0.363   1.908
    3CHTO   O39 1068   5.592   0.505   2.189
    3CHTO   C60 1069   5.621   0.368   2.158
    3CHTO  H117 1070   5.553   0.332   2.081
    3CHTO   C62 1071   5.766   0.352   2.102
    3CHTO  H119 1072   5.771   0.413   2.009
    3CHTO   O43 1073   5.861   0.406   2.197
    3CHTO  H101 1074   5.851   0.499   2.204
    3CHTO   C66 1075   5.793   0.198   2.066
    3CHTO  H123 1076   5.716   0.165   1.996
    3CHTO   N12 1077   5.922   0.177   1.997
    3CHTO  H110 1078   5.936   0.073   1.973
    3CHTO  H111 1079   5.927   0.238   1.907
    3CHTO   C69 1080   5.778   0.112   2.195
    3CHTO  H126 1081   5.854   0.145   2.270
    3CHTO   O41 1082   5.634   0.133   2.254
    3CHTO   C64 1083   5.599   0.279   2.283
    3CHTO  H121 1084   5.662   0.317   2.366
    3CHTO   C71 1085   5.451   0.288   2.327
    3CHTO   O47 1086   5.430   0.220   2.451
    3CHTO  H104 1087   5.339   0.225   2.474
    3CHTO   O34 1088   5.798   9.957   2.167
    3CHTO   C49 1089   5.882   9.831   2.136
    3CHTO   H91 1090   5.963   9.866   2.072
    3CHTO   C47 1091   5.797   9.730   2.056
    3CHTO   H89 1092   5.793   9.771   1.952
    3CHTO   O33 1093   5.662   9.724   2.107
    3CHTO   H70 1094   5.607   9.677   2.048
    3CHTO   C45 1095   5.859   9.580   2.058
    3CHTO   H87 1096   5.808   9.524   2.139
    3CHTO    N8 1097   5.833   9.509   1.930
    3CHTO   H75 1098   5.727   9.511   1.908
    3CHTO   H76 1099   5.887   9.557   1.850
    3CHTO   C43 1100   6.012   9.581   2.103
    3CHTO   H85 1101   6.047   9.478   2.103
    3CHTO   O29 1102   6.021   9.640   2.235
    3CHTO   C50 1103   5.945   9.761   2.261
    3CHTO   H92 1104   5.865   9.738   2.333
    3CHTO   C54 1105   6.042   9.853   2.339
    3CHTO   O36 1106   5.978   9.968   2.394
    3CHTO   H72 1107   6.041   0.020   2.440
    3CHTO   O27 1108   6.095   9.652   2.010
    3CHTO   C37 1109   6.201   9.736   1.963
    3CHTO   H79 1110   6.182   9.841   1.990
    3CHTO   C38 1111   6.338   9.697   2.028
    3CHTO   H80 1112   6.352   9.588   2.014
    3CHTO   O31 1113   6.327   9.725   2.168
    3CHTO   H68 1114   6.404   9.694   2.213
    3CHTO   C39 1115   6.458   9.775   1.962
    3CHTO   H81 1116   6.445   9.881   1.985
    3CHTO    N7 1117   6.593   9.734   2.015
    3CHTO   H73 1118   6.584   9.657   2.090
    3CHTO   H74 1119   6.645   9.819   2.056
    3CHTO   C40 1120   6.451   9.760   1.804
    3CHTO   H82 1121   6.470   9.656   1.778
    3CHTO   O26 1122   6.321   9.804   1.759
    3CHTO   C41 1123   6.210   9.724   1.809
    3CHTO   H83 1124   6.224   9.619   1.782
    3CHTO   C52 1125   6.082   9.775   1.740
    3CHTO   O35 1126   6.088   9.758   1.592
    3CHTO   H71 1127   6.155   9.814   1.556
    3CHTO   O28 1128   6.552   9.836   1.734
    3CHTO   C42 1129   6.536   9.966   1.667
    3CHTO   H84 1130   6.638   9.992   1.639
    3CHTO   C44 1131   6.485   0.084   1.757
    3CHTO   H86 1132   6.385   0.059   1.795
    3CHTO   O32 1133   6.575   0.095   1.869
    3CHTO   H69 1134   6.567   0.020   1.925
    3CHTO   C48 1135   6.474   0.220   1.676
    3CHTO   H90 1136   6.576   0.252   1.651
    3CHTO    N9 1137   6.415   0.331   1.758
    3CHTO   H77 1138   6.478   0.352   1.843
    3CHTO   H78 1139   6.316   0.305   1.790
    3CHTO   C51 1140   6.396   0.197   1.542
    3CHTO   H93 1141   6.292   0.172   1.567
    3CHTO   O30 1142   6.459   0.092   1.467
    3CHTO   C46 1143   6.452   9.959   1.535
    3CHTO   H88 1144   6.348   9.938   1.558
    3CHTO   C53 1145   6.507   9.855   1.434
    3CHTO   O72 1146   6.481   9.721   1.477
    3CHTO  H199 1147   6.533   9.700   1.552
    3CHTO   O22 1148   6.401   0.311   1.455
    3CHTO   C31 1149   6.292   0.335   1.358
    3CHTO   H59 1150   6.240   0.238   1.346
    3CHTO   C29 1151   6.188   0.437   1.407
    3CHTO   H57 1152   6.242   0.531   1.430
    3CHTO   O21 1153   6.132   0.391   1.531
    3CHTO   H37 1154   6.082   0.313   1.518
    3CHTO   C27 1155   6.076   0.468   1.299
    3CHTO   H55 1156   6.014   0.378   1.286
    3CHTO    N5 1157   5.987   0.580   1.338
    3CHTO   H43 1158   5.939   0.557   1.431
    3CHTO   H44 1159   6.045   0.671   1.348
    3CHTO   C25 1160   6.144   0.496   1.160
    3CHTO   H53 1161   6.201   0.590   1.165
    3CHTO   O17 1162   6.234   0.388   1.125
    3CHTO   C32 1163   6.345   0.373   1.216
    3CHTO   H60 1164   6.400   0.468   1.223
    3CHTO   C36 1165   6.438   0.266   1.154
    3CHTO   O25 1166   6.563   0.258   1.223
    3CHTO   H40 1167   6.616   0.192   1.184
    3CHTO   O15 1168   6.036   0.508   1.045
    3CHTO   C19 1169   6.020   0.608   0.939
    3CHTO   H47 1170   5.935   0.570   0.880
    3CHTO   C20 1171   5.985   0.750   0.991
    3CHTO   H48 1172   6.061   0.788   1.061
    3CHTO   O19 1173   5.861   0.739   1.064
    3CHTO   H35 1174   5.840   0.820   1.106
    3CHTO   C21 1175   5.970   0.855   0.873
    3CHTO   H49 1176   5.879   0.831   0.817
    3CHTO    N4 1177   5.954   0.995   0.921
    3CHTO   H41 1178   6.039   1.023   0.980
    3CHTO   H42 1179   5.865   1.003   0.982
    3CHTO   C22 1180   6.088   0.841   0.773
    3CHTO   H50 1181   6.179   0.881   0.818
    3CHTO   O14 1182   6.108   0.704   0.734
    3CHTO   C23 1183   6.141   0.615   0.842
    3CHTO   H51 1184   6.231   0.654   0.892
    3CHTO   C34 1185   6.175   0.477   0.784
    3CHTO   O23 1186   6.294   0.483   0.704
    3CHTO   H38 1187   6.314   0.398   0.671
    3CHTO   O16 1188   6.058   0.903   0.646
    3CHTO   C24 1189   6.156   1.024   0.604
    3CHTO   H52 1190   6.213   1.062   0.690
    3CHTO   C26 1191   6.072   1.138   0.544
    3CHTO   H54 1192   6.012   1.096   0.459
    3CHTO   O20 1193   5.980   1.184   0.645
    3CHTO   H36 1194   5.922   1.249   0.609
    3CHTO   C30 1195   6.162   1.254   0.490
    3CHTO   H58 1196   6.207   1.306   0.575
    3CHTO    N6 1197   6.081   1.356   0.417
    3CHTO   H45 1198   6.146   1.435   0.382
    3CHTO   H46 1199   6.007   1.399   0.484
    3CHTO   C33 1200   6.280   1.200   0.403
    3CHTO   H61 1201   6.242   1.169   0.304
    3CHTO   O18 1202   6.344   1.087   0.464
    3CHTO   C28 1203   6.260   0.976   0.499
    3CHTO   H56 1204   6.207   0.939   0.411
    3CHTO   C35 1205   6.351   0.862   0.552
    3CHTO   O24 1206   6.427   0.898   0.668
    3CHTO   H39 1207   6.370   0.911   0.741
    3CHTO    O9 1208   6.375   1.306   0.375
    3CHTO   C13 1209   6.481   1.337   0.501
    3CHTO   H26 1210   6.434   1.303   0.596
    3CHTO   C11 1211   6.514   1.492   0.504
    3CHTO   H24 1212   6.420   1.545   0.528
    3CHTO    O8 1213   6.557   1.537   0.374
    3CHTO    H3 1214   6.487   1.527   0.312
    3CHTO    C9 1215   6.617   1.517   0.617
    3CHTO   H22 1216   6.572   1.474   0.708
    3CHTO    N2 1217   6.637   1.660   0.648
    3CHTO   H10 1218   6.703   1.671   0.733
    3CHTO   H11 1219   6.542   1.708   0.668
    3CHTO    C7 1220   6.750   1.439   0.586
    3CHTO   H20 1221   6.809   1.449   0.680
    3CHTO    O4 1222   6.728   1.299   0.560
    3CHTO   C14 1223   6.614   1.251   0.485
    3CHTO   H27 1224   6.592   1.150   0.528
    3CHTO   C18 1225   6.652   1.228   0.337
    3CHTO   O13 1226   6.750   1.124   0.324
    3CHTO    H7 1227   6.770   1.112   0.233
    3CHTO    O2 1228   6.837   1.508   0.461
    3CHTO    C1 1229   6.947   1.433   0.407
    3CHTO   H14 1230   6.912   1.332   0.378
    3CHTO    C2 1231   7.073   1.416   0.503
    3CHTO   H15 1232   7.105   1.517   0.532
    3CHTO    O6 1233   7.035   1.342   0.620
    3CHTO    H1 1234   6.975   1.391   0.672
    3CHTO    C3 1235   7.193   1.340   0.425
    3CHTO   H16 1236   7.160   1.237   0.403
    3CHTO    N1 1237   7.319   1.330   0.505
    3CHTO    H8 1238   7.307   1.375   0.603
    3CHTO    H9 1239   7.348   1.226   0.516
    3CHTO    C4 1240   7.217   1.408   0.285
    3CHTO   H17 1241   7.261   1.507   0.300
    3CHTO    O1 1242   7.094   1.419   0.212
    3CHTO    C5 1243   6.994   1.501   0.274
    3CHTO   H18 1244   7.036   1.599   0.298
    3CHTO   C16 1245   6.882   1.518   0.169
    3CHTO   O11 1246   6.791   1.623   0.204
    3CHTO    H5 1247   6.726   1.631   0.138
    3CHTO    O3 1248   7.303   1.328   0.200
    3CHTO    C6 1249   7.354   1.395   0.081
    3CHTO   H19 1250   7.301   1.489   0.059
    3CHTO    C8 1251   7.505   1.429   0.099
    3CHTO   H21 1252   7.558   1.337   0.126
    3CHTO    O7 1253   7.514   1.524   0.207
    3CHTO    H2 1254   7.604   1.539   0.229
    3CHTO   C12 1255   7.567   1.487   2.825
    3CHTO   H25 1256   7.519   1.586   2.808
    3CHTO    N3 1257   7.714   1.511   2.838
    3CHTO   H12 1258   7.733   1.582   0.058
    3CHTO   H13 1259   7.755   1.547   2.745
    3CHTO   C15 1260   7.530   1.393   2.705
    3CHTO   H28 1261   7.583   1.297   2.710
    3CHTO   O10 1262   7.556   1.458   2.567
    3CHTO    H4 1263   7.648   1.469   2.555
    3CHTO    O5 1264   7.388   1.370   2.699
    3CHTO   C10 1265   7.336   1.304   2.816
    3CHTO   H23 1266   7.389   1.210   2.829
    3CHTO   C17 1267   7.189   1.270   2.784
    3CHTO   O12 1268   7.133   1.181   0.021
    3CHTO    H6 1269   7.045   1.160   2.856
    4CHTO  H203 1270   5.893   6.775   2.127
    4CHTO   O82 1271   5.923   6.819   2.050
    4CHTO  C123 1272   5.870   6.952   2.044
    4CHTO  H227 1273   5.762   6.948   2.063
    4CHTO   O77 1274   5.938   7.023   2.153
    4CHTO  C118 1275   5.883   7.153   2.179
    4CHTO  H222 1276   5.776   7.142   2.204
    4CHTO  C125 1277   5.958   7.214   2.304
    4CHTO   O84 1278   6.100   7.225   2.284
    4CHTO  H205 1279   6.118   7.288   2.217
    4CHTO  C114 1280   5.898   7.245   2.055
    4CHTO  H218 1281   6.004   7.267   2.041
    4CHTO  C116 1282   5.847   7.177   1.924
    4CHTO  H220 1283   5.736   7.176   1.925
    4CHTO   O79 1284   5.885   7.261   1.813
    4CHTO  H201 1285   5.850   7.226   1.733
    4CHTO  C120 1286   5.901   7.029   1.910
    4CHTO  H224 1287   6.011   7.036   1.894
    4CHTO   N21 1288   5.844   6.960   1.791
    4CHTO  H211 1289   5.744   6.995   1.770
    4CHTO  H212 1290   5.845   6.852   1.804
    4CHTO   O75 1291   5.825   7.363   2.092
    4CHTO  C112 1292   5.888   7.502   2.039
    4CHTO  H216 1293   5.911   7.493   1.931
    4CHTO   O73 1294   6.007   7.527   2.116
    4CHTO  C113 1295   6.078   7.646   2.079
    4CHTO  H217 1296   6.106   7.640   1.971
    4CHTO  C124 1297   6.208   7.653   2.161
    4CHTO   O83 1298   6.293   7.540   2.139
    4CHTO  H204 1299   6.253   7.462   2.175
    4CHTO  C109 1300   5.989   7.772   2.103
    4CHTO  H213 1301   5.972   7.778   2.211
    4CHTO  C110 1302   5.854   7.757   2.027
    4CHTO  H214 1303   5.874   7.763   1.920
    4CHTO   O78 1304   5.771   7.869   2.062
    4CHTO  H200 1305   5.692   7.868   2.012
    4CHTO  C111 1306   5.786   7.621   2.061
    4CHTO  H215 1307   5.758   7.621   2.167
    4CHTO   N19 1308   5.661   7.597   1.984
    4CHTO  H207 1309   5.617   7.503   2.013
    4CHTO  H208 1310   5.682   7.596   1.878
    4CHTO   O74 1311   6.059   7.892   2.058
    4CHTO  C115 1312   6.074   8.006   2.170
    4CHTO  H219 1313   6.009   7.987   2.256
    4CHTO   O76 1314   6.219   8.010   2.230
    4CHTO  C122 1315   6.317   8.037   2.129
    4CHTO  H226 1316   6.317   7.953   2.060
    4CHTO  C126 1317   6.460   8.038   2.195
    4CHTO   O85 1318   6.473   8.135   2.299
    4CHTO  H206 1319   6.558   8.130   2.337
    4CHTO  C121 1320   6.288   8.172   2.050
    4CHTO  H225 1321   6.374   8.242   2.064
    4CHTO   O81 1322   6.278   8.144   1.910
    4CHTO  H202 1323   6.275   8.224   1.861
    4CHTO  C119 1324   6.158   8.243   2.102
    4CHTO  H223 1325   6.179   8.269   2.205
    4CHTO  C117 1326   6.034   8.145   2.103
    4CHTO  H221 1327   5.997   8.118   2.004
    4CHTO   N20 1328   5.917   8.208   2.173
    4CHTO  H209 1329   5.891   8.301   2.124
    4CHTO  H210 1330   5.942   8.227   2.276
    4CHTO   O80 1331   6.136   8.386   2.035
    4CHTO  C103 1332   6.165   8.518   2.119
    4CHTO  H190 1333   6.099   8.523   2.206
    4CHTO  C101 1334   6.314   8.540   2.167
    4CHTO  H188 1335   6.381   8.523   2.082
    4CHTO   O68 1336   6.348   8.436   2.277
    4CHTO  H168 1337   6.439   8.443   2.300
    4CHTO   C99 1338   6.335   8.690   2.219
    4CHTO  H186 1339   6.272   8.706   2.309
    4CHTO   N17 1340   6.477   8.721   2.259
    4CHTO  H174 1341   6.509   8.652   2.336
    4CHTO  H175 1342   6.542   8.715   2.173
    4CHTO   C97 1343   6.283   8.791   2.113
    4CHTO  H184 1344   6.347   8.783   2.023
    4CHTO   O64 1345   6.145   8.763   2.083
    4CHTO  C104 1346   6.123   8.635   2.022
    4CHTO  H191 1347   6.180   8.627   1.929
    4CHTO  C108 1348   5.975   8.626   1.981
    4CHTO   O71 1349   5.886   8.637   2.093
    4CHTO  H171 1350   5.798   8.631   2.064
    4CHTO   O62 1351   6.281   8.927   2.161
    4CHTO   C91 1352   6.279   9.029   2.059
    4CHTO  H178 1353   6.256   8.984   1.963
    4CHTO   C92 1354   6.421   9.094   2.044
    4CHTO  H179 1355   6.446   9.143   2.139
    4CHTO   O66 1356   6.521   8.992   2.028
    4CHTO  H166 1357   6.505   8.941   1.950
    4CHTO   C93 1358   6.427   9.195   1.923
    4CHTO  H180 1359   6.454   9.134   1.836
    4CHTO   N16 1360   6.536   9.295   1.934
    4CHTO  H172 1361   6.594   9.280   2.023
    4CHTO  H173 1362   6.600   9.291   1.846
    4CHTO   C94 1363   6.287   9.263   1.895
    4CHTO  H181 1364   6.297   9.367   1.864
    4CHTO   O61 1365   6.202   9.268   2.012
    4CHTO   C95 1366   6.177   9.147   2.087
    4CHTO  H182 1367   6.184   9.171   2.193
    4CHTO  C106 1368   6.028   9.100   2.066
    4CHTO   O69 1369   6.001   9.059   1.931
    4CHTO  H169 1370   6.049   8.982   1.910
    4CHTO   O63 1371   6.212   9.183   1.781
    4CHTO   C96 1372   6.273   9.197   1.634
    4CHTO  H183 1373   6.382   9.193   1.641
    4CHTO   C98 1374   6.235   9.328   1.559
    4CHTO  H185 1375   6.126   9.345   1.570
    4CHTO   O67 1376   6.298   9.438   1.627
    4CHTO  H167 1377   6.391   9.431   1.622
    4CHTO  C102 1378   6.276   9.326   1.404
    4CHTO  H189 1379   6.386   9.331   1.402
    4CHTO   N18 1380   6.230   9.444   1.325
    4CHTO  H176 1381   6.177   9.514   1.388
    4CHTO  H177 1382   6.166   9.414   1.243
    4CHTO  C105 1383   6.235   9.191   1.340
    4CHTO  H192 1384   6.126   9.187   1.331
    4CHTO   O65 1385   6.279   9.077   1.417
    4CHTO  C100 1386   6.226   9.072   1.550
    4CHTO  H187 1387   6.117   9.074   1.544
    4CHTO  C107 1388   6.267   8.938   1.616
    4CHTO   O70 1389   6.409   8.921   1.625
    4CHTO  H170 1390   6.445   8.911   1.540
    4CHTO   O57 1391   6.304   9.185   1.193
    4CHTO   C85 1392   6.244   9.104   1.091
    4CHTO  H157 1393   6.134   9.110   1.108
    4CHTO   C83 1394   6.282   8.954   1.111
    4CHTO  H155 1395   6.242   8.921   1.207
    4CHTO   O56 1396   6.426   8.943   1.121
    4CHTO  H135 1397   6.450   8.854   1.142
    4CHTO   C81 1398   6.218   8.870   0.998
    4CHTO  H153 1399   6.110   8.886   1.000
    4CHTO   N14 1400   6.233   8.724   1.020
    4CHTO  H141 1401   6.178   8.670   0.945
    4CHTO  H142 1402   6.336   8.696   1.014
    4CHTO   C79 1403   6.271   8.918   0.858
    4CHTO  H151 1404   6.217   8.862   0.781
    4CHTO   O52 1405   6.238   9.059   0.837
    4CHTO   C86 1406   6.283   9.149   0.944
    4CHTO  H158 1407   6.394   9.151   0.932
    4CHTO   C90 1408   6.234   9.293   0.916
    4CHTO   O60 1409   6.091   9.301   0.913
    4CHTO  H138 1410   6.065   9.389   0.897
    4CHTO   O50 1411   6.412   8.897   0.838
    4CHTO   C73 1412   6.491   8.883   0.719
    4CHTO  H145 1413   6.460   8.957   0.644
    4CHTO   C74 1414   6.473   8.740   0.658
    4CHTO  H146 1415   6.366   8.727   0.637
    4CHTO   O54 1416   6.539   8.737   0.530
    4CHTO  H133 1417   6.632   8.749   0.540
    4CHTO   C75 1418   6.527   8.633   0.761
    4CHTO  H147 1419   6.468   8.640   0.853
    4CHTO   N13 1420   6.511   8.493   0.713
    4CHTO  H139 1421   6.606   8.444   0.703
    4CHTO  H140 1422   6.451   8.436   0.784
    4CHTO   C76 1423   6.679   8.668   0.800
    4CHTO  H148 1424   6.741   8.653   0.712
    4CHTO   O49 1425   6.690   8.807   0.845
    4CHTO   C77 1426   6.642   8.906   0.753
    4CHTO  H149 1427   6.700   8.903   0.661
    4CHTO   C88 1428   6.667   9.044   0.815
    4CHTO   O58 1429   6.625   9.155   0.724
    4CHTO  H136 1430   6.531   9.155   0.715
    4CHTO   O51 1431   6.726   8.584   0.929
    4CHTO   C78 1432   6.860   8.488   0.919
    4CHTO  H150 1433   6.911   8.487   1.018
    4CHTO   C80 1434   6.962   8.533   0.812
    4CHTO  H152 1435   6.912   8.533   0.713
    4CHTO   O55 1436   7.002   8.667   0.847
    4CHTO  H134 1437   7.058   8.702   0.780
    4CHTO   C84 1438   7.085   8.433   0.806
    4CHTO  H156 1439   7.135   8.438   0.903
    4CHTO   N15 1440   7.186   8.471   0.701
    4CHTO  H143 1441   7.282   8.487   0.746
    4CHTO  H144 1442   7.194   8.396   0.626
    4CHTO   C87 1443   7.033   8.288   0.788
    4CHTO  H159 1444   6.989   8.276   0.688
    4CHTO   O53 1445   6.928   8.256   0.895
    4CHTO   C82 1446   6.815   8.344   0.892
    4CHTO  H154 1447   6.763   8.336   0.797
    4CHTO   C89 1448   6.715   8.299   1.001
    4CHTO   O59 1449   6.662   8.169   0.973
    4CHTO  H137 1450   6.730   8.104   0.982
    4CHTO   O45 1451   7.152   8.180   0.809
    4CHTO   C67 1452   7.142   8.063   0.727
    4CHTO  H124 1453   7.043   8.056   0.681
    4CHTO   C65 1454   7.251   8.063   0.615
    4CHTO  H122 1455   7.274   8.168   0.595
    4CHTO   O44 1456   7.197   8.004   0.496
    4CHTO  H102 1457   7.182   7.912   0.509
    4CHTO   C63 1458   7.383   7.998   0.669
    4CHTO  H120 1459   7.408   8.043   0.765
    4CHTO   N11 1460   7.508   8.024   0.591
    4CHTO  H108 1461   7.521   8.129   0.577
    4CHTO  H109 1462   7.593   7.984   0.642
    4CHTO   C61 1463   7.353   7.845   0.699
    4CHTO  H118 1464   7.423   7.814   0.777
    4CHTO   O40 1465   7.218   7.823   0.751
    4CHTO   C68 1466   7.155   7.934   0.821
    4CHTO  H125 1467   7.216   7.958   0.911
    4CHTO   C72 1468   7.019   7.882   0.871
    4CHTO   O48 1469   6.944   7.978   0.945
    4CHTO  H105 1470   6.863   7.940   0.973
    4CHTO   O38 1471   7.365   7.760   0.582
    4CHTO   C55 1472   7.350   7.618   0.603
    4CHTO  H112 1473   7.280   7.599   0.686
    4CHTO   C56 1474   7.490   7.548   0.627
    4CHTO  H113 1475   7.554   7.570   0.539
    4CHTO   O42 1476   7.556   7.606   0.741
    4CHTO  H100 1477   7.578   7.695   0.724
    4CHTO   C57 1478   7.470   7.392   0.644
    4CHTO  H114 1479   7.419   7.379   0.740
    4CHTO   N10 1480   7.599   7.318   0.654
    4CHTO  H106 1481   7.586   7.228   0.713
    4CHTO  H107 1482   7.635   7.290   0.556
    4CHTO   C58 1483   7.381   7.334   0.531
    4CHTO  H115 1484   7.440   7.326   0.437
    4CHTO   O37 1485   7.262   7.413   0.507
    4CHTO   C59 1486   7.285   7.552   0.478
    4CHTO  H116 1487   7.351   7.560   0.391
    4CHTO   C70 1488   7.152   7.618   0.440
    4CHTO   O46 1489   7.053   7.616   0.544
    4CHTO  H103 1490   7.025   7.528   0.560
    4CHTO   O39 1491   7.322   7.189   0.577
    4CHTO   C60 1492   7.372   7.074   0.507
    4CHTO  H117 1493   7.447   7.104   0.434
    4CHTO   C62 1494   7.438   6.974   0.607
    4CHTO  H119 1495   7.523   7.029   0.653
    4CHTO   O43 1496   7.344   6.940   0.711
    4CHTO  H101 1497   7.271   6.894   0.676
    4CHTO   C66 1498   7.494   6.847   0.526
    4CHTO  H123 1499   7.561   6.882   0.448
    4CHTO   N12 1500   7.575   6.757   0.613
    4CHTO  H110 1501   7.515   6.719   0.694
    4CHTO  H111 1502   7.617   6.677   0.554
    4CHTO   C69 1503   7.375   6.775   0.458
    4CHTO  H126 1504   7.303   6.741   0.535
    4CHTO   O41 1505   7.305   6.875   0.361
    4CHTO   C64 1506   7.257   7.005   0.428
    4CHTO  H121 1507   7.175   6.981   0.499
    4CHTO   C71 1508   7.201   7.098   0.318
    4CHTO   O47 1509   7.087   7.041   0.254
    4CHTO  H104 1510   7.112   6.966   0.203
    4CHTO   O34 1511   7.420   6.651   0.375
    4CHTO   C49 1512   7.342   6.523   0.341
    4CHTO   H91 1513   7.237   6.550   0.335
    4CHTO   C47 1514   7.364   6.420   0.454
    4CHTO   H89 1515   7.300   6.332   0.430
    4CHTO   O33 1516   7.319   6.477   0.578
    4CHTO   H70 1517   7.328   6.415   0.647
    4CHTO   C45 1518   7.519   6.377   0.455
    4CHTO   H87 1519   7.580   6.468   0.466
    4CHTO    N8 1520   7.553   6.285   0.568
    4CHTO   H75 1521   7.601   6.195   0.532
    4CHTO   H76 1522   7.466   6.259   0.625
    4CHTO   C43 1523   7.560   6.318   0.310
    4CHTO   H85 1524   7.668   6.303   0.313
    4CHTO   O29 1525   7.522   6.408   0.204
    4CHTO   C50 1526   7.389   6.464   0.205
    4CHTO   H92 1527   7.389   6.548   0.133
    4CHTO   C54 1528   7.284   6.366   0.145
    4CHTO   O36 1529   7.313   6.334   0.009
    4CHTO   H72 1530   7.298   6.408   2.814
    4CHTO   O27 1531   7.502   6.188   0.285
    4CHTO   C37 1532   7.533   6.063   0.221
    4CHTO   H79 1533   7.463   6.045   0.138
    4CHTO   C38 1534   7.677   6.062   0.160
    4CHTO   H80 1535   7.747   6.099   0.236
    4CHTO   O31 1536   7.677   6.155   0.050
    4CHTO   H68 1537   7.620   6.126   2.841
    4CHTO   C39 1538   7.722   5.918   0.115
    4CHTO   H81 1539   7.658   5.888   0.031
    4CHTO    N7 1540   7.864   5.914   0.066
    4CHTO   H73 1541   7.925   5.850   0.128
    4CHTO   H74 1542   7.868   5.880   2.823
    4CHTO   C40 1543   7.696   5.816   0.232
    4CHTO   H82 1544   7.761   5.841   0.316
    4CHTO   O26 1545   7.557   5.821   0.269
    4CHTO   C41 1546   7.516   5.949   0.325
    4CHTO   H83 1547   7.578   5.972   0.414
    4CHTO   C52 1548   7.369   5.937   0.372
    4CHTO   O35 1549   7.351   5.839   0.480
    4CHTO   H71 1550   7.392   5.870   0.558
    4CHTO   O28 1551   7.718   5.678   0.194
    4CHTO   C42 1552   7.778   5.582   0.288
    4CHTO   H84 1553   7.794   5.638   0.381
    4CHTO   C44 1554   7.918   5.527   0.246
    4CHTO   H86 1555   7.907   5.475   0.150
    4CHTO   O32 1556   8.004   5.640   0.225
    4CHTO   H69 1557   8.019   5.686   0.306
    4CHTO   C48 1558   7.978   5.425   0.352
    4CHTO   H90 1559   8.004   5.482   0.441
    4CHTO    N9 1560   8.106   5.363   0.303
    4CHTO   H77 1561   8.090   5.311   0.210
    4CHTO   H78 1562   8.182   5.440   0.290
    4CHTO   C51 1563   7.872   5.316   0.392
    4CHTO   H93 1564   7.857   5.251   0.305
    4CHTO   O30 1565   7.749   5.379   0.431
    4CHTO   C46 1566   7.685   5.463   0.323
    4CHTO   H88 1567   7.671   5.401   0.234
    4CHTO   C53 1568   7.546   5.509   0.375
    4CHTO   O72 1569   7.557   5.587   0.495
    4CHTO  H199 1570   7.471   5.614   0.522
    4CHTO   O22 1571   7.917   5.234   0.504
    4CHTO   C31 1572   7.892   5.262   0.647
    4CHTO   H59 1573   7.862   5.369   0.654
    4CHTO   C29 1574   7.778   5.179   0.709
    4CHTO   H57 1575   7.805   5.072   0.700
    4CHTO   O21 1576   7.659   5.198   0.629
    4CHTO   H37 1577   7.592   5.138   0.657
    4CHTO   C27 1578   7.754   5.214   0.861
    4CHTO   H55 1579   7.718   5.318   0.867
    4CHTO    N5 1580   7.654   5.126   0.926
    4CHTO   H43 1581   7.561   5.130   0.872
    4CHTO   H44 1582   7.638   5.158   1.028
    4CHTO   C25 1583   7.891   5.208   0.938
    4CHTO   H53 1584   7.926   5.103   0.943
    4CHTO   O17 1585   7.993   5.287   0.871
    4CHTO   C32 1586   8.020   5.247   0.736
    4CHTO   H60 1587   8.050   5.143   0.737
    4CHTO   C36 1588   8.140   5.331   0.686
    4CHTO   O25 1589   8.113   5.472   0.690
    4CHTO   H40 1590   8.189   5.519   0.660
    4CHTO   O15 1591   7.876   5.264   1.084
    4CHTO   C19 1592   7.832   5.369   1.175
    4CHTO   H47 1593   7.722   5.366   1.168
    4CHTO   C20 1594   7.874   5.343   1.323
    4CHTO   H48 1595   7.983   5.332   1.333
    4CHTO   O19 1596   7.814   5.218   1.362
    4CHTO   H35 1597   7.843   5.193   1.448
    4CHTO   C21 1598   7.828   5.460   1.420
    4CHTO   H49 1599   7.720   5.458   1.428
    4CHTO    N4 1600   7.880   5.445   1.559
    4CHTO   H41 1601   7.844   5.525   1.621
    4CHTO   H42 1602   7.988   5.446   1.558
    4CHTO   C22 1603   7.864   5.598   1.358
    4CHTO   H50 1604   7.973   5.610   1.359
    4CHTO   O14 1605   7.815   5.606   1.223
    4CHTO   C23 1606   7.874   5.512   1.133
    4CHTO   H51 1607   7.984   5.525   1.136
    4CHTO   C34 1608   7.826   5.550   0.992
    4CHTO   O23 1609   7.880   5.676   0.950
    4CHTO   H38 1610   7.972   5.668   0.934
    4CHTO   O16 1611   7.803   5.706   1.432
    4CHTO   C24 1612   7.767   5.845   1.356
    4CHTO   H52 1613   7.734   5.828   1.253
    4CHTO   C26 1614   7.890   5.938   1.354
    4CHTO   H54 1615   7.935   5.939   1.455
    4CHTO   O20 1616   7.987   5.881   1.264
    4CHTO   H36 1617   8.066   5.931   1.266
    4CHTO   C30 1618   7.851   6.085   1.315
    4CHTO   H58 1619   7.822   6.089   1.209
    4CHTO    N6 1620   7.967   6.178   1.330
    4CHTO   H45 1621   8.003   6.177   1.432
    4CHTO   H46 1622   8.047   6.147   1.264
    4CHTO   C33 1623   7.727   6.131   1.398
    4CHTO   H61 1624   7.753   6.129   1.505
    4CHTO   O18 1625   7.621   6.037   1.375
    4CHTO   C28 1626   7.647   5.908   1.430
    4CHTO   H56 1627   7.671   5.916   1.536
    4CHTO   C35 1628   7.520   5.820   1.418
    4CHTO   O24 1629   7.476   5.802   1.283
    4CHTO   H39 1630   7.399   5.748   1.282
    4CHTO    O9 1631   7.685   6.266   1.370
    4CHTO   C13 1632   7.550   6.310   1.450
    4CHTO   H26 1633   7.474   6.230   1.435
    4CHTO   C11 1634   7.499   6.449   1.396
    4CHTO   H24 1635   7.471   6.435   1.291
    4CHTO    O8 1636   7.604   6.548   1.399
    4CHTO    H3 1637   7.631   6.564   1.488
    4CHTO    C9 1638   7.371   6.487   1.477
    4CHTO   H22 1639   7.302   6.402   1.464
    4CHTO    N2 1640   7.297   6.603   1.421
    4CHTO   H10 1641   7.274   6.585   1.317
    4CHTO   H11 1642   7.355   6.693   1.432
    4CHTO    C7 1643   7.408   6.499   1.630
    4CHTO   H20 1644   7.309   6.514   1.680
    4CHTO    O4 1645   7.465   6.377   1.679
    4CHTO   C14 1646   7.573   6.314   1.608
    4CHTO   H27 1647   7.576   6.208   1.643
    4CHTO   C18 1648   7.709   6.378   1.649
    4CHTO   O13 1649   7.736   6.354   1.788
    4CHTO    H7 1650   7.819   6.391   1.810
    4CHTO    O2 1651   7.509   6.623   1.668
    4CHTO    C1 1652   7.444   6.744   1.711
    4CHTO   H14 1653   7.337   6.744   1.682
    4CHTO    C2 1654   7.513   6.872   1.649
    4CHTO   H15 1655   7.618   6.872   1.683
    4CHTO    O6 1656   7.508   6.861   1.506
    4CHTO    H1 1657   7.564   6.791   1.476
    4CHTO    C3 1658   7.439   7.005   1.701
    4CHTO   H16 1659   7.336   7.004   1.662
    4CHTO    N1 1660   7.503   7.131   1.649
    4CHTO    H8 1661   7.586   7.108   1.584
    4CHTO    H9 1662   7.536   7.194   1.731
    4CHTO    C4 1663   7.425   7.003   1.858
    4CHTO   H17 1664   7.522   7.025   1.903
    4CHTO    O1 1665   7.376   6.877   1.907
    4CHTO    C5 1666   7.449   6.759   1.866
    4CHTO   H18 1667   7.553   6.771   1.896
    4CHTO   C16 1668   7.389   6.639   1.943
    4CHTO   O11 1669   7.249   6.620   1.917
    4CHTO    H5 1670   7.237   6.593   1.828
    4CHTO    O3 1671   7.325   7.097   1.902
    4CHTO    C6 1672   7.353   7.173   2.024
    4CHTO   H19 1673   7.435   7.131   2.082
    4CHTO    C8 1674   7.390   7.319   1.984
    4CHTO   H21 1675   7.318   7.355   1.911
    4CHTO    O7 1676   7.521   7.315   1.924
    4CHTO    H2 1677   7.517   7.272   1.841
    4CHTO   C12 1678   7.389   7.417   2.109
    4CHTO   H25 1679   7.474   7.387   2.174
    4CHTO    N3 1680   7.413   7.560   2.067
    4CHTO   H12 1681   7.511   7.568   2.021
    4CHTO   H13 1682   7.336   7.592   1.999
    4CHTO   C15 1683   7.256   7.398   2.189
    4CHTO   H28 1684   7.169   7.429   2.131
    4CHTO   O10 1685   7.256   7.472   2.325
    4CHTO    H4 1686   7.332   7.448   2.375
    4CHTO    O5 1687   7.242   7.260   2.227
    4CHTO   C10 1688   7.227   7.169   2.117
    4CHTO   H23 1689   7.137   7.196   2.061
    4CHTO   C17 1690   7.203   7.031   2.180
    4CHTO   O12 1691   7.160   6.933   2.084
    4CHTO    H6 1692   7.074   6.954   2.053
    5CHTO  H203 1693   8.030   3.746   1.090
    5CHTO   O82 1694   8.017   3.681   1.023
    5CHTO  C123 1695   7.959   3.561   1.079
    5CHTO  H227 1696   7.941   3.490   0.997
    5CHTO   O77 1697   8.063   3.511   1.168
    5CHTO  C118 1698   8.033   3.381   1.222
    5CHTO  H222 1699   8.010   3.311   1.140
    5CHTO  C125 1700   8.160   3.330   1.299
    5CHTO   O84 1701   8.269   3.307   1.210
    5CHTO  H205 1702   8.298   3.389   1.173
    5CHTO  C114 1703   7.910   3.390   1.315
    5CHTO  H218 1704   7.936   3.452   1.401
    5CHTO  C116 1705   7.788   3.458   1.244
    5CHTO  H220 1706   7.741   3.383   1.176
    5CHTO   O79 1707   7.687   3.490   1.342
    5CHTO  H201 1708   7.721   3.550   1.405
    5CHTO  C120 1709   7.828   3.588   1.162
    5CHTO  H224 1710   7.848   3.667   1.237
    5CHTO   N21 1711   7.717   3.636   1.075
    5CHTO  H211 1712   7.656   3.553   1.042
    5CHTO  H212 1713   7.657   3.708   1.129
    5CHTO   O75 1714   7.892   3.254   1.358
    5CHTO  C112 1715   7.762   3.217   1.452
    5CHTO  H216 1716   7.671   3.225   1.390
    5CHTO   O73 1717   7.759   3.309   1.563
    5CHTO  C113 1718   7.643   3.293   1.646
    5CHTO  H217 1719   7.552   3.305   1.583
    5CHTO  C124 1720   7.639   3.406   1.750
    5CHTO   O83 1721   7.748   3.402   1.843
    5CHTO  H204 1722   7.828   3.420   1.799
    5CHTO  C109 1723   7.642   3.152   1.711
    5CHTO  H213 1724   7.731   3.146   1.776
    5CHTO  C110 1725   7.650   3.042   1.600
    5CHTO  H214 1726   7.558   3.045   1.541
    5CHTO   O78 1727   7.658   2.913   1.664
    5CHTO  H200 1728   7.656   2.845   1.600
    5CHTO  C111 1729   7.773   3.070   1.508
    5CHTO  H215 1730   7.865   3.064   1.569
    5CHTO   N19 1731   7.788   2.972   1.398
    5CHTO  H207 1732   7.800   2.872   1.439
    5CHTO  H208 1733   7.876   2.996   1.339
    5CHTO   O74 1734   7.523   3.136   1.793
    5CHTO  C115 1735   7.548   3.053   1.926
    5CHTO  H219 1736   7.639   2.993   1.920
    5CHTO   O76 1737   7.571   3.148   2.051
    5CHTO  C122 1738   7.464   3.242   2.068
    5CHTO  H226 1739   7.479   3.321   1.994
    5CHTO  C126 1740   7.478   3.312   2.208
    5CHTO   O85 1741   7.458   3.222   2.317
    5CHTO  H206 1742   7.526   3.157   2.319
    5CHTO  C121 1743   7.320   3.178   2.049
    5CHTO  H225 1744   7.254   3.214   2.131
    5CHTO   O81 1745   7.262   3.226   1.927
    5CHTO  H202 1746   7.173   3.198   1.920
    5CHTO  C119 1747   7.326   3.021   2.056
    5CHTO  H223 1748   7.370   3.001   2.154
    5CHTO  C117 1749   7.422   2.960   1.947
    5CHTO  H221 1750   7.378   2.951   1.848
    5CHTO   N20 1751   7.463   2.820   1.984
    5CHTO  H209 1752   7.525   2.778   1.907
    5CHTO  H210 1753   7.375   2.759   1.996
    5CHTO   O80 1754   7.183   2.950   2.072
    5CHTO  C103 1755   7.075   2.961   1.956
    5CHTO  H190 1756   7.101   3.041   1.886
    5CHTO  C101 1757   7.049   2.829   1.874
    5CHTO  H188 1758   7.034   2.746   1.943
    5CHTO   O68 1759   7.174   2.798   1.789
    5CHTO  H168 1760   7.187   2.865   1.724
    5CHTO   C99 1761   6.917   2.843   1.784
    5CHTO  H186 1762   6.931   2.927   1.712
    5CHTO   N17 1763   6.883   2.722   1.701
    5CHTO  H174 1764   6.950   2.640   1.724
    5CHTO  H175 1765   6.780   2.693   1.714
    5CHTO   C97 1766   6.800   2.887   1.877
    5CHTO  H184 1767   6.785   2.807   1.951
    5CHTO   O64 1768   6.833   3.012   1.939
    5CHTO  C104 1769   6.943   3.005   2.031
    5CHTO  H191 1770   6.923   2.935   2.112
    5CHTO  C108 1771   6.961   3.143   2.096
    5CHTO   O71 1772   6.844   3.183   2.169
    5CHTO  H171 1773   6.859   3.268   2.206
    5CHTO   O62 1774   6.678   2.916   1.806
    5CHTO   C91 1775   6.556   2.896   1.881
    5CHTO  H178 1776   6.580   2.890   1.987
    5CHTO   C92 1777   6.495   2.757   1.843
    5CHTO  H179 1778   6.489   2.750   1.733
    5CHTO   O66 1779   6.587   2.654   1.884
    5CHTO  H166 1780   6.666   2.658   1.833
    5CHTO   C93 1781   6.352   2.734   1.907
    5CHTO  H180 1782   6.367   2.730   2.015
    5CHTO   N16 1783   6.289   2.605   1.870
    5CHTO  H172 1784   6.353   2.547   1.805
    5CHTO  H173 1785   6.193   2.620   1.823
    5CHTO   C94 1786   6.262   2.858   1.873
    5CHTO  H181 1787   6.253   2.874   1.765
    5CHTO   O61 1788   6.324   2.976   1.927
    5CHTO   C95 1789   6.449   3.010   1.863
    5CHTO  H182 1790   6.431   3.027   1.757
    5CHTO  C106 1791   6.503   3.144   1.924
    5CHTO   O69 1792   6.414   3.254   1.899
    5CHTO  H169 1793   6.334   3.242   1.947
    5CHTO   O63 1794   6.112   2.847   1.940
    5CHTO   C96 1795   5.997   2.843   1.826
    5CHTO  H183 1796   6.040   2.797   1.737
    5CHTO   C98 1797   5.939   2.981   1.784
    5CHTO  H185 1798   5.900   3.033   1.873
    5CHTO   O67 1799   6.047   3.062   1.736
    5CHTO  H167 1800   6.017   3.149   1.717
    5CHTO  C102 1801   5.824   2.966   1.672
    5CHTO  H189 1802   5.877   2.942   1.578
    5CHTO   N18 1803   5.748   3.091   1.644
    5CHTO  H176 1804   5.784   3.172   1.705
    5CHTO  H177 1805   5.756   3.118   1.539
    5CHTO  C105 1806   5.728   2.847   1.701
    5CHTO  H192 1807   5.650   2.879   1.770
    5CHTO   O65 1808   5.792   2.731   1.757
    5CHTO  C100 1809   5.876   2.754   1.871
    5CHTO  H187 1810   5.819   2.807   1.949
    5CHTO  C107 1811   5.921   2.618   1.928
    5CHTO   O70 1812   5.809   2.538   1.967
    5CHTO  H170 1813   5.768   2.575   2.043
    5CHTO   O57 1814   5.663   2.807   1.552
    5CHTO   C85 1815   5.545   2.727   1.536
    5CHTO  H157 1816   5.463   2.784   1.584
    5CHTO   C83 1817   5.555   2.592   1.616
    5CHTO  H155 1818   5.558   2.616   1.723
    5CHTO   O56 1819   5.680   2.527   1.585
    5CHTO  H135 1820   5.752   2.579   1.614
    5CHTO   C81 1821   5.430   2.505   1.588
    5CHTO  H153 1822   5.341   2.564   1.611
    5CHTO   N14 1823   5.419   2.386   1.676
    5CHTO  H141 1824   5.421   2.417   1.779
    5CHTO  H142 1825   5.327   2.335   1.657
    5CHTO   C79 1826   5.426   2.469   1.435
    5CHTO  H151 1827   5.335   2.410   1.418
    5CHTO   O52 1828   5.412   2.592   1.357
    5CHTO   C86 1829   5.513   2.695   1.384
    5CHTO  H158 1830   5.604   2.657   1.332
    5CHTO   C90 1831   5.474   2.826   1.311
    5CHTO   O60 1832   5.470   2.807   1.169
    5CHTO  H138 1833   5.447   2.887   1.127
    5CHTO   O50 1834   5.539   2.391   1.389
    5CHTO   C73 1835   5.565   2.296   1.286
    5CHTO  H145 1836   5.502   2.317   1.198
    5CHTO   C74 1837   5.535   2.150   1.334
    5CHTO  H146 1838   5.431   2.148   1.369
    5CHTO   O54 1839   5.540   2.065   1.219
    5CHTO  H133 1840   5.517   1.977   1.242
    5CHTO   C75 1841   5.636   2.108   1.449
    5CHTO  H147 1842   5.619   2.174   1.535
    5CHTO   N13 1843   5.620   1.969   1.499
    5CHTO  H139 1844   5.540   1.919   1.447
    5CHTO  H140 1845   5.597   1.970   1.604
    5CHTO   C76 1846   5.787   2.134   1.400
    5CHTO  H148 1847   5.809   2.064   1.319
    5CHTO   O49 1848   5.802   2.271   1.351
    5CHTO   C77 1849   5.715   2.305   1.242
    5CHTO  H149 1850   5.732   2.236   1.159
    5CHTO   C88 1851   5.754   2.444   1.191
    5CHTO   O58 1852   5.672   2.486   1.073
    5CHTO  H136 1853   5.583   2.499   1.100
    5CHTO   O51 1854   5.892   2.120   1.526
    5CHTO   C78 1855   6.040   2.140   1.480
    5CHTO  H150 1856   6.043   2.184   1.379
    5CHTO   C80 1857   6.115   2.005   1.477
    5CHTO  H152 1858   6.103   1.955   1.575
    5CHTO   O55 1859   6.049   1.922   1.378
    5CHTO  H134 1860   6.086   1.836   1.378
    5CHTO   C84 1861   6.268   2.024   1.444
    5CHTO  H156 1862   6.276   2.058   1.340
    5CHTO   N15 1863   6.347   1.896   1.453
    5CHTO  H143 1864   6.449   1.914   1.427
    5CHTO  H144 1865   6.342   1.857   1.552
    5CHTO   C87 1866   6.329   2.134   1.535
    5CHTO  H159 1867   6.335   2.098   1.638
    5CHTO   O53 1868   6.244   2.260   1.528
    5CHTO   C82 1869   6.111   2.239   1.575
    5CHTO  H154 1870   6.112   2.203   1.677
    5CHTO   C89 1871   6.043   2.378   1.576
    5CHTO   O59 1872   5.920   2.375   1.649
    5CHTO  H137 1873   5.880   2.460   1.648
    5CHTO   O45 1874   6.477   2.178   1.482
    5CHTO   C67 1875   6.569   2.210   1.588
    5CHTO  H124 1876   6.515   2.219   1.682
    5CHTO   C65 1877   6.678   2.098   1.601
    5CHTO  H122 1878   6.680   2.046   1.505
    5CHTO   O44 1879   6.629   2.007   1.702
    5CHTO  H102 1880   6.684   1.931   1.705
    5CHTO   C63 1881   6.824   2.155   1.619
    5CHTO  H120 1882   6.856   2.195   1.523
    5CHTO   N11 1883   6.930   2.052   1.645
    5CHTO  H108 1884   6.994   2.041   1.560
    5CHTO  H109 1885   6.989   2.079   1.730
    5CHTO   C61 1886   6.821   2.277   1.718
    5CHTO  H118 1887   6.923   2.319   1.716
    5CHTO   O40 1888   6.732   2.383   1.671
    5CHTO   C68 1889   6.635   2.352   1.565
    5CHTO  H125 1890   6.688   2.354   1.467
    5CHTO   C72 1891   6.529   2.464   1.561
    5CHTO   O48 1892   6.584   2.592   1.529
    5CHTO  H105 1893   6.638   2.621   1.600
    5CHTO   O38 1894   6.788   2.237   1.853
    5CHTO   C55 1895   6.751   2.338   1.949
    5CHTO  H112 1896   6.687   2.413   1.901
    5CHTO   C56 1897   6.877   2.404   2.020
    5CHTO  H113 1898   6.936   2.323   2.066
    5CHTO   O42 1899   6.963   2.465   1.921
    5CHTO  H100 1900   6.917   2.533   1.876
    5CHTO   C57 1901   6.830   2.508   2.129
    5CHTO  H114 1902   6.779   2.589   2.076
    5CHTO   N10 1903   6.941   2.569   2.207
    5CHTO  H106 1904   6.977   2.658   2.158
    5CHTO  H107 1905   7.022   2.499   2.218
    5CHTO   C58 1906   6.727   2.441   2.225
    5CHTO  H115 1907   6.780   2.364   2.286
    5CHTO   O37 1908   6.620   2.377   2.152
    5CHTO   C59 1909   6.662   2.275   2.061
    5CHTO  H116 1910   6.718   2.198   2.114
    5CHTO   C70 1911   6.537   2.207   2.002
    5CHTO   O46 1912   6.451   2.296   1.931
    5CHTO  H103 1913   6.493   2.325   1.852
    5CHTO   O39 1914   6.658   2.554   2.330
    5CHTO   C60 1915   6.542   2.624   2.282
    5CHTO  H117 1916   6.538   2.619   2.173
    5CHTO   C62 1917   6.411   2.560   2.339
    5CHTO  H119 1918   6.406   2.457   2.299
    5CHTO   O43 1919   6.421   2.552   2.483
    5CHTO  H101 1920   6.426   2.638   2.521
    5CHTO   C66 1921   6.282   2.643   2.290
    5CHTO  H123 1922   6.277   2.638   2.181
    5CHTO   N12 1923   6.153   2.585   2.337
    5CHTO  H110 1924   6.150   2.586   2.445
    5CHTO  H111 1925   6.070   2.640   2.295
    5CHTO   C69 1926   6.298   2.793   2.329
    5CHTO  H126 1927   6.302   2.803   2.439
    5CHTO   O41 1928   6.429   2.845   2.267
    5CHTO   C64 1929   6.549   2.774   2.321
    5CHTO  H121 1930   6.551   2.783   2.432
    5CHTO   C71 1931   6.676   2.843   2.266
    5CHTO   O47 1932   6.685   2.978   2.313
    5CHTO  H104 1933   6.620   3.030   2.270
    5CHTO   O34 1934   6.180   2.883   2.275
    5CHTO   C49 1935   6.151   3.037   2.252
    5CHTO   H91 1936   6.199   3.063   2.158
    5CHTO   C47 1937   6.211   3.121   2.367
    5CHTO   H89 1938   6.194   3.228   2.341
    5CHTO   O33 1939   6.353   3.098   2.372
    5CHTO   H70 1940   6.392   3.154   2.436
    5CHTO   C45 1941   6.133   3.085   2.503
    5CHTO   H87 1942   6.137   2.976   2.518
    5CHTO    N8 1943   6.193   3.150   2.622
    5CHTO   H75 1944   6.142   3.116   2.712
    5CHTO   H76 1945   6.184   3.257   2.614
    5CHTO   C43 1946   5.976   3.119   2.485
    5CHTO   H85 1947   5.927   3.081   2.575
    5CHTO   O29 1948   5.924   3.055   2.365
    5CHTO   C50 1949   5.999   3.064   2.242
    5CHTO   H92 1950   5.958   2.988   2.174
    5CHTO   C54 1951   5.971   3.197   2.166
    5CHTO   O36 1952   5.834   3.207   2.126
    5CHTO   H72 1953   5.821   3.287   2.080
    5CHTO   O27 1954   5.949   3.260   2.481
    5CHTO   C37 1955   5.844   3.354   2.515
    5CHTO   H79 1956   5.838   3.432   2.437
    5CHTO   C38 1957   5.704   3.285   2.520
    5CHTO   H80 1958   5.709   3.202   2.592
    5CHTO   O31 1959   5.677   3.231   2.390
    5CHTO   H68 1960   5.671   3.299   2.326
    5CHTO   C39 1961   5.592   3.386   2.565
    5CHTO   H81 1962   5.583   3.461   2.486
    5CHTO    N7 1963   5.456   3.323   2.581
    5CHTO   H73 1964   5.385   3.369   2.514
    5CHTO   H74 1965   5.460   3.217   2.563
    5CHTO   C40 1966   5.634   3.462   2.696
    5CHTO   H82 1967   5.625   3.395   2.782
    5CHTO   O26 1968   5.766   3.517   2.684
    5CHTO   C41 1969   5.872   3.421   2.651
    5CHTO   H83 1970   5.878   3.344   2.730
    5CHTO   C52 1971   6.006   3.498   2.650
    5CHTO   O35 1972   6.041   3.553   2.784
    5CHTO   H71 1973   5.979   3.619   2.808
    5CHTO   O28 1974   5.550   3.578   2.717
    5CHTO   C42 1975   5.528   3.652   2.841
    5CHTO   H84 1976   5.468   3.736   2.806
    5CHTO   C44 1977   5.655   3.716   0.049
    5CHTO   H86 1978   5.738   3.711   2.838
    5CHTO   O32 1979   5.631   3.857   0.070
    5CHTO   H69 1980   5.709   3.900   0.100
    5CHTO   C48 1981   5.701   3.647   0.185
    5CHTO   H90 1982   5.643   3.689   0.267
    5CHTO    N9 1983   5.844   3.679   0.218
    5CHTO   H77 1984   5.857   3.785   0.229
    5CHTO   H78 1985   5.872   3.629   0.310
    5CHTO   C51 1986   5.670   3.493   0.179
    5CHTO   H93 1987   5.726   3.452   0.095
    5CHTO   O30 1988   5.528   3.470   0.164
    5CHTO   C46 1989   5.441   3.573   0.083
    5CHTO   H88 1990   5.368   3.514   0.027
    5CHTO   C53 1991   5.365   3.663   0.184
    5CHTO   O72 1992   5.276   3.753   0.118
    5CHTO  H199 1993   5.232   3.807   0.181
    5CHTO   O22 1994   5.705   3.423   0.300
    5CHTO   C31 1995   5.727   3.277   0.301
    5CHTO   H59 1996   5.754   3.251   0.406
    5CHTO   C29 1997   5.603   3.192   0.265
    5CHTO   H57 1998   5.569   3.225   0.165
    5CHTO   O21 1999   5.498   3.227   0.358
    5CHTO   H37 2000   5.417   3.188   0.331
    5CHTO   C27 2001   5.633   3.037   0.261
    5CHTO   H55 2002   5.659   3.004   0.362
    5CHTO    N5 2003   5.517   2.957   0.213
    5CHTO   H43 2004   5.489   2.987   0.113
    5CHTO   H44 2005   5.433   2.970   0.281
    5CHTO   C25 2006   5.758   3.015   0.169
    5CHTO   H53 2007   5.735   3.050   0.067
    5CHTO   O17 2008   5.871   3.092   0.221
    5CHTO   C32 2009   5.851   3.234   0.215
    5CHTO   H60 2010   5.833   3.262   0.111
    5CHTO   C36 2011   5.980   3.303   0.263
    5CHTO   O25 2012   6.091   3.275   0.176
    5CHTO   H40 2013   6.117   3.186   0.186
    5CHTO   O15 2014   5.800   2.867   0.162
    5CHTO   C19 2015   5.902   2.778   0.213
    5CHTO   H47 2016   5.956   2.838   0.288
    5CHTO   C20 2017   5.844   2.650   0.282
    5CHTO   H48 2018   5.780   2.593   0.213
    5CHTO   O19 2019   5.763   2.695   0.392
    5CHTO   H35 2020   5.720   2.623   0.432
    5CHTO   C21 2021   5.960   2.553   0.332
    5CHTO   H49 2022   6.014   2.603   0.412
    5CHTO    N4 2023   5.908   2.425   0.387
    5CHTO   H41 2024   5.846   2.445   0.473
    5CHTO   H42 2025   5.850   2.373   0.313
    5CHTO   C22 2026   6.060   2.531   0.216
    5CHTO   H50 2027   6.011   2.474   0.136
    5CHTO   O14 2028   6.107   2.657   0.165
    5CHTO   C23 2029   6.005   2.738   0.105
    5CHTO   H51 2030   5.959   2.679   0.023
    5CHTO   C34 2031   6.072   2.861   0.042
    5CHTO   O23 2032   6.153   2.825   2.790
    5CHTO   H38 2033   6.190   2.902   2.752
    5CHTO   O16 2034   6.181   2.466   0.260
    5CHTO   C24 2035   6.243   2.360   0.155
    5CHTO   H52 2036   6.175   2.340   0.072
    5CHTO   C26 2037   6.271   2.229   0.231
    5CHTO   H54 2038   6.324   2.254   0.327
    5CHTO   O20 2039   6.144   2.170   0.265
    5CHTO   H36 2040   6.100   2.222   0.329
    5CHTO   C30 2041   6.362   2.131   0.150
    5CHTO   H58 2042   6.308   2.094   0.062
    5CHTO    N6 2043   6.398   2.010   0.230
    5CHTO   H45 2044   6.451   2.039   0.320
    5CHTO   H46 2045   6.309   1.955   0.257
    5CHTO   C33 2046   6.487   2.207   0.098
    5CHTO   H61 2047   6.545   2.246   0.184
    5CHTO   O18 2048   6.442   2.319   0.020
    5CHTO   C28 2049   6.373   2.420   0.093
    5CHTO   H56 2050   6.436   2.460   0.173
    5CHTO   C35 2051   6.342   2.536   2.854
    5CHTO   O24 2052   6.259   2.498   2.744
    5CHTO   H39 2053   6.173   2.476   2.774
    5CHTO    O9 2054   6.580   2.126   0.024
    5CHTO   C13 2055   6.541   2.091   2.727
    5CHTO   H26 2056   6.431   2.085   2.720
    5CHTO   C11 2057   6.611   1.955   2.690
    5CHTO   H24 2058   6.560   1.875   2.747
    5CHTO    O8 2059   6.748   1.957   2.732
    5CHTO    H3 2060   6.788   1.873   2.718
    5CHTO    C9 2061   6.590   1.928   2.539
    5CHTO   H22 2062   6.481   1.931   2.522
    5CHTO    N2 2063   6.630   1.791   2.497
    5CHTO   H10 2064   6.737   1.779   2.507
    5CHTO   H11 2065   6.601   1.774   2.394
    5CHTO    C7 2066   6.657   2.043   2.456
    5CHTO   H20 2067   6.629   2.022   2.350
    5CHTO    O4 2068   6.603   2.172   2.491
    5CHTO   C14 2069   6.585   2.210   2.629
    5CHTO   H27 2070   6.501   2.283   2.628
    5CHTO   C18 2071   6.710   2.286   2.679
    5CHTO   O13 2072   6.724   2.411   2.610
    5CHTO    H7 2073   6.801   2.455   2.640
    5CHTO    O2 2074   6.822   2.047   2.473
    5CHTO    C1 2075   6.894   2.078   2.353
    5CHTO   H14 2076   6.839   2.155   2.296
    5CHTO    C2 2077   6.919   1.953   2.257
    5CHTO   H15 2078   6.964   1.875   2.320
    5CHTO    O6 2079   6.793   1.906   2.207
    5CHTO    H1 2080   6.751   1.972   2.155
    5CHTO    C3 2081   7.018   1.990   2.136
    5CHTO   H16 2082   6.968   2.063   2.070
    5CHTO    N1 2083   7.056   1.871   2.052
    5CHTO    H8 2084   7.008   1.781   2.088
    5CHTO    H9 2085   7.028   1.888   1.949
    5CHTO    C4 2086   7.145   2.065   2.193
    5CHTO   H17 2087   7.204   1.995   2.252
    5CHTO    O1 2088   7.104   2.177   2.273
    5CHTO    C5 2089   7.031   2.140   2.391
    5CHTO   H18 2090   7.087   2.066   2.447
    5CHTO   C16 2091   7.017   2.268   2.478
    5CHTO   O11 2092   7.144   2.315   2.524
    5CHTO    H5 2093   7.180   2.254   2.586
    5CHTO    O3 2094   7.226   2.122   2.088
    5CHTO    C6 2095   7.358   2.167   2.131
    5CHTO   H19 2096   7.367   2.176   2.240
    5CHTO    C8 2097   7.468   2.066   2.083
    5CHTO   H21 2098   7.457   2.052   1.975
    5CHTO    O7 2099   7.444   1.942   2.151
    5CHTO    H2 2100   7.366   1.901   2.119
    5CHTO   C12 2101   7.612   2.123   2.113
    5CHTO   H25 2102   7.623   2.125   2.223
    5CHTO    N3 2103   7.719   2.032   2.059
    5CHTO   H12 2104   7.711   1.935   2.105
    5CHTO   H13 2105   7.817   2.075   2.079
    5CHTO   C15 2106   7.624   2.271   2.059
    5CHTO   H28 2107   7.625   2.274   1.950
    5CHTO   O10 2108   7.748   2.344   2.113
    5CHTO    H4 2109   7.826   2.302   2.083
    5CHTO    O5 2110   7.518   2.353   2.109
    5CHTO   C10 2111   7.387   2.308   2.072
    5CHTO   H23 2112   7.382   2.303   1.963
    5CHTO   C17 2113   7.283   2.411   2.118
    5CHTO   O12 2114   7.292   2.532   2.043
    5CHTO    H6 2115   7.371   2.578   2.064
    6CHTO  H203 2116   6.837   4.373   0.043
    6CHTO   O82 2117   6.889   4.442   0.008
    6CHTO  C123 2118   6.842   4.570   0.056
    6CHTO  H227 2119   6.909   4.648   0.018
    6CHTO   O77 2120   6.710   4.583   2.854
    6CHTO  C118 2121   6.644   4.708   0.022
    6CHTO  H222 2122   6.709   4.792   2.853
    6CHTO  C125 2123   6.511   4.715   2.798
    6CHTO   O84 2124   6.539   4.717   2.658
    6CHTO  H205 2125   6.458   4.717   2.610
    6CHTO  C114 2126   6.616   4.716   0.173
    6CHTO  H218 2127   6.552   4.632   0.201
    6CHTO  C116 2128   6.748   4.705   0.256
    6CHTO  H220 2129   6.809   4.797   0.238
    6CHTO   O79 2130   6.715   4.704   0.396
    6CHTO  H201 2131   6.681   4.787   0.422
    6CHTO  C120 2132   6.830   4.576   0.213
    6CHTO  H224 2133   6.772   4.489   0.250
    6CHTO   N21 2134   6.963   4.572   0.280
    6CHTO  H211 2135   6.995   4.470   0.293
    6CHTO  H212 2136   7.036   4.628   0.223
    6CHTO   O75 2137   6.546   4.841   0.193
    6CHTO  C112 2138   6.425   4.829   0.301
    6CHTO  H216 2139   6.456   4.762   0.383
    6CHTO   O73 2140   6.310   4.777   0.232
    6CHTO  C113 2141   6.198   4.749   0.316
    6CHTO  H217 2142   6.227   4.673   0.392
    6CHTO  C124 2143   6.092   4.684   0.225
    6CHTO   O83 2144   5.979   4.632   0.294
    6CHTO  H204 2145   6.005   4.559   0.346
    6CHTO  C109 2146   6.146   4.879   0.385
    6CHTO  H213 2147   6.106   4.943   0.305
    6CHTO  C110 2148   6.264   4.955   0.454
    6CHTO  H214 2149   6.293   4.900   0.544
    6CHTO   O78 2150   6.215   5.083   0.496
    6CHTO  H200 2151   6.280   5.128   0.548
    6CHTO  C111 2152   6.388   4.969   0.361
    6CHTO  H215 2153   6.362   5.036   0.278
    6CHTO   N19 2154   6.506   5.030   0.428
    6CHTO  H207 2155   6.536   4.969   0.513
    6CHTO  H208 2156   6.482   5.130   0.462
    6CHTO   O74 2157   6.035   4.844   0.475
    6CHTO  C115 2158   6.038   4.879   0.639
    6CHTO  H219 2159   6.139   4.875   0.679
    6CHTO   O76 2160   5.988   5.024   0.668
    6CHTO  C122 2161   5.860   5.046   0.606
    6CHTO  H226 2162   5.875   5.047   0.498
    6CHTO  C126 2163   5.810   5.190   0.643
    6CHTO   O85 2164   5.892   5.291   0.586
    6CHTO  H206 2165   5.859   5.376   0.609
    6CHTO  C121 2166   5.753   4.935   0.646
    6CHTO  H225 2167   5.662   4.985   0.687
    6CHTO   O81 2168   5.713   4.864   0.528
    6CHTO  H202 2169   5.669   4.922   0.468
    6CHTO  C119 2170   5.808   4.835   0.751
    6CHTO  H223 2171   5.823   4.894   0.841
    6CHTO  C117 2172   5.947   4.771   0.711
    6CHTO  H221 2173   5.939   4.691   0.638
    6CHTO   N20 2174   6.016   4.710   0.829
    6CHTO  H209 2175   5.964   4.731   0.921
    6CHTO  H210 2176   6.026   4.603   0.816
    6CHTO   O80 2177   5.698   4.733   0.798
    6CHTO  C103 2178   5.653   4.726   0.950
    6CHTO  H190 2179   5.736   4.694   1.014
    6CHTO  C101 2180   5.585   4.854   1.013
    6CHTO  H188 2181   5.510   4.891   0.943
    6CHTO   O68 2182   5.693   4.966   1.032
    6CHTO  H168 2183   5.758   4.939   1.094
    6CHTO   C99 2184   5.513   4.820   1.153
    6CHTO  H186 2185   5.590   4.792   1.227
    6CHTO   N17 2186   5.438   4.937   1.210
    6CHTO  H174 2187   5.505   5.021   1.222
    6CHTO  H175 2188   5.355   4.963   1.146
    6CHTO   C97 2189   5.421   4.695   1.139
    6CHTO  H184 2190   5.334   4.725   1.077
    6CHTO   O64 2191   5.494   4.587   1.079
    6CHTO  C104 2192   5.548   4.609   0.948
    6CHTO  H191 2193   5.468   4.635   0.879
    6CHTO  C108 2194   5.607   4.477   0.897
    6CHTO   O71 2195   5.711   4.426   0.982
    6CHTO  H171 2196   5.674   4.399   1.064
    6CHTO   O62 2197   5.369   4.654   1.269
    6CHTO   C91 2198   5.395   4.527   1.333
    6CHTO  H178 2199   5.345   4.531   1.429
    6CHTO   C92 2200   5.548   4.512   1.366
    6CHTO  H179 2201   5.609   4.542   1.279
    6CHTO   O66 2202   5.580   4.608   1.469
    6CHTO  H166 2203   5.573   4.695   1.435
    6CHTO   C93 2204   5.589   4.366   1.411
    6CHTO  H180 2205   5.545   4.349   1.511
    6CHTO   N16 2206   5.735   4.347   1.428
    6CHTO  H172 2207   5.786   4.365   1.334
    6CHTO  H173 2208   5.756   4.248   1.464
    6CHTO   C94 2209   5.527   4.263   1.310
    6CHTO  H181 2210   5.559   4.282   1.208
    6CHTO   O61 2211   5.384   4.277   1.315
    6CHTO   C95 2212   5.336   4.399   1.258
    6CHTO  H182 2213   5.363   4.401   1.152
    6CHTO  C106 2214   5.180   4.395   1.265
    6CHTO   O69 2215   5.122   4.508   1.199
    6CHTO  H169 2216   5.028   4.503   1.204
    6CHTO   O63 2217   5.561   4.111   1.350
    6CHTO   C96 2218   5.512   4.007   1.243
    6CHTO  H183 2219   5.454   4.060   1.167
    6CHTO   C98 2220   5.421   3.896   1.304
    6CHTO  H185 2221   5.468   3.859   1.397
    6CHTO   O67 2222   5.298   3.958   1.345
    6CHTO  H167 2223   5.251   3.991   1.271
    6CHTO  C102 2224   5.394   3.773   1.203
    6CHTO  H189 2225   5.328   3.813   1.124
    6CHTO   N18 2226   5.320   3.659   1.263
    6CHTO  H176 2227   5.376   3.619   1.346
    6CHTO  H177 2228   5.223   3.691   1.297
    6CHTO  C105 2229   5.528   3.730   1.137
    6CHTO  H192 2230   5.593   3.687   1.214
    6CHTO   O65 2231   5.594   3.843   1.078
    6CHTO  C100 2232   5.636   3.942   1.172
    6CHTO  H187 2233   5.698   3.892   1.248
    6CHTO  C107 2234   5.727   4.044   1.100
    6CHTO   O70 2235   5.659   4.112   0.993
    6CHTO  H170 2236   5.593   4.169   1.028
    6CHTO   O57 2237   5.494   3.616   1.020
    6CHTO   C85 2238   5.589   3.572   0.921
    6CHTO  H157 2239   5.540   3.482   0.878
    6CHTO   C83 2240   5.724   3.519   0.982
    6CHTO  H155 2241   5.700   3.436   1.049
    6CHTO   O56 2242   5.788   3.620   1.062
    6CHTO  H135 2243   5.734   3.643   1.135
    6CHTO   C81 2244   5.813   3.466   0.866
    6CHTO  H153 2245   5.756   3.390   0.811
    6CHTO   N14 2246   5.934   3.394   0.912
    6CHTO  H141 2247   5.906   3.315   0.979
    6CHTO  H142 2248   5.986   3.352   0.828
    6CHTO   C79 2249   5.845   3.584   0.765
    6CHTO  H151 2250   5.901   3.541   0.683
    6CHTO   O52 2251   5.720   3.635   0.708
    6CHTO   C86 2252   5.622   3.679   0.808
    6CHTO  H158 2253   5.667   3.770   0.851
    6CHTO   C90 2254   5.493   3.725   0.736
    6CHTO   O60 2255   5.433   3.620   0.659
    6CHTO  H138 2256   5.400   3.553   0.716
    6CHTO   O50 2257   5.920   3.693   0.822
    6CHTO   C73 2258   6.039   3.752   0.767
    6CHTO  H145 2259   6.047   3.727   0.660
    6CHTO   C74 2260   6.164   3.694   0.841
    6CHTO  H146 2261   6.159   3.585   0.834
    6CHTO   O54 2262   6.282   3.733   0.768
    6CHTO  H133 2263   6.284   3.691   0.684
    6CHTO   C75 2264   6.165   3.745   0.990
    6CHTO  H147 2265   6.074   3.709   1.040
    6CHTO   N13 2266   6.278   3.692   1.071
    6CHTO  H139 2267   6.273   3.584   1.075
    6CHTO  H140 2268   6.372   3.721   1.027
    6CHTO   C76 2269   6.160   3.905   0.990
    6CHTO  H148 2270   6.247   3.939   0.934
    6CHTO   O49 2271   6.039   3.950   0.921
    6CHTO   C77 2272   6.035   3.908   0.783
    6CHTO  H149 2273   6.121   3.950   0.730
    6CHTO   C88 2274   5.912   3.968   0.714
    6CHTO   O58 2275   5.920   4.117   0.709
    6CHTO  H136 2276   5.913   4.153   0.796
    6CHTO   O51 2277   6.155   3.965   1.143
    6CHTO   C78 2278   6.206   4.122   1.171
    6CHTO  H150 2279   6.250   4.129   1.273
    6CHTO   C80 2280   6.085   4.218   1.163
    6CHTO  H152 2281   6.038   4.207   1.063
    6CHTO   O55 2282   5.990   4.175   1.262
    6CHTO  H134 2283   6.025   4.186   1.349
    6CHTO   C84 2284   6.128   4.369   1.186
    6CHTO  H156 2285   6.165   4.377   1.288
    6CHTO   N15 2286   6.015   4.467   1.172
    6CHTO  H143 2287   5.923   4.417   1.149
    6CHTO  H144 2288   6.003   4.523   1.262
    6CHTO   C87 2289   6.245   4.404   1.091
    6CHTO  H159 2290   6.210   4.406   0.988
    6CHTO   O53 2291   6.357   4.301   1.108
    6CHTO   C82 2292   6.315   4.168   1.073
    6CHTO  H154 2293   6.280   4.165   0.970
    6CHTO   C89 2294   6.440   4.077   1.080
    6CHTO   O59 2295   6.537   4.114   0.982
    6CHTO  H137 2296   6.611   4.057   0.988
    6CHTO   O45 2297   6.308   4.553   1.129
    6CHTO   C67 2298   6.434   4.583   1.068
    6CHTO  H124 2299   6.507   4.509   1.100
    6CHTO   C65 2300   6.427   4.582   0.911
    6CHTO  H122 2301   6.322   4.569   0.885
    6CHTO   O44 2302   6.501   4.467   0.866
    6CHTO  H102 2303   6.487   4.454   0.774
    6CHTO   C63 2304   6.466   4.720   0.846
    6CHTO  H120 2305   6.392   4.795   0.876
    6CHTO   N11 2306   6.459   4.728   0.697
    6CHTO  H108 2307   6.377   4.789   0.665
    6CHTO  H109 2308   6.449   4.630   0.655
    6CHTO   C61 2309   6.603   4.768   0.906
    6CHTO  H118 2310   6.615   4.874   0.875
    6CHTO   O40 2311   6.607   4.767   1.051
    6CHTO   C68 2312   6.488   4.721   1.124
    6CHTO  H125 2313   6.410   4.799   1.116
    6CHTO   C72 2314   6.524   4.708   1.274
    6CHTO   O48 2315   6.574   4.830   1.330
    6CHTO  H105 2316   6.595   4.816   1.421
    6CHTO   O38 2317   6.714   4.688   0.861
    6CHTO   C55 2318   6.842   4.755   0.866
    6CHTO  H112 2319   6.836   4.842   0.933
    6CHTO   C56 2320   6.888   4.796   0.720
    6CHTO  H113 2321   6.890   4.705   0.659
    6CHTO   O42 2322   6.789   4.883   0.661
    6CHTO  H100 2323   6.812   4.902   0.572
    6CHTO   C57 2324   7.031   4.864   0.725
    6CHTO  H114 2325   7.019   4.958   0.779
    6CHTO   N10 2326   7.087   4.898   0.592
    6CHTO  H106 2327   7.007   4.924   0.523
    6CHTO  H107 2328   7.142   4.814   0.551
    6CHTO   C58 2329   7.128   4.773   0.806
    6CHTO  H115 2330   7.151   4.682   0.746
    6CHTO   O37 2331   7.074   4.734   0.933
    6CHTO   C59 2332   6.949   4.662   0.928
    6CHTO  H116 2333   6.961   4.571   0.869
    6CHTO   C70 2334   6.909   4.624   1.071
    6CHTO   O46 2335   7.003   4.537   1.136
    6CHTO  H103 2336   7.083   4.584   1.152
    6CHTO   O39 2337   7.261   4.852   0.841
    6CHTO   C60 2338   7.378   4.770   0.849
    6CHTO  H117 2339   7.351   4.665   0.855
    6CHTO   C62 2340   7.467   4.788   0.722
    6CHTO  H119 2341   7.406   4.750   0.636
    6CHTO   O43 2342   7.492   4.928   0.700
    6CHTO  H101 2343   7.539   4.941   0.620
    6CHTO   C66 2344   7.601   4.701   0.735
    6CHTO  H123 2345   7.573   4.597   0.752
    6CHTO   N12 2346   7.684   4.702   0.612
    6CHTO  H110 2347   7.637   4.761   0.534
    6CHTO  H111 2348   7.702   4.601   0.578
    6CHTO   C69 2349   7.680   4.747   0.861
    6CHTO  H126 2350   7.707   4.854   0.851
    6CHTO   O41 2351   7.588   4.728   0.986
    6CHTO   C64 2352   7.457   4.804   0.978
    6CHTO  H121 2353   7.478   4.913   0.979
    6CHTO   C71 2354   7.374   4.774   1.105
    6CHTO   O47 2355   7.348   4.634   1.121
    6CHTO  H104 2356   7.428   4.589   1.142
    6CHTO   O34 2357   7.812   4.666   0.887
    6CHTO   C49 2358   7.954   4.665   0.830
    6CHTO   H91 2359   7.950   4.609   0.737
    6CHTO   C47 2360   8.047   4.594   0.930
    6CHTO   H89 2361   8.146   4.588   0.878
    6CHTO   O33 2362   8.000   4.460   0.954
    6CHTO   H70 2363   8.063   4.413   1.005
    6CHTO   C45 2364   8.060   4.678   1.069
    6CHTO   H87 2365   7.981   4.644   1.137
    6CHTO    N8 2366   8.192   4.646   1.130
    6CHTO   H75 2367   8.201   4.540   1.145
    6CHTO   H76 2368   8.272   4.682   1.067
    6CHTO   C43 2369   8.029   4.835   1.044
    6CHTO   H85 2370   7.921   4.844   1.051
    6CHTO   O29 2371   8.077   4.875   0.914
    6CHTO   C50 2372   8.013   4.808   0.803
    6CHTO   H92 2373   7.931   4.872   0.768
    6CHTO   C54 2374   8.111   4.804   0.683
    6CHTO   O36 2375   8.144   4.935   0.636
    6CHTO   H72 2376   8.068   4.974   0.596
    6CHTO   O27 2377   8.077   4.924   1.147
    6CHTO   C37 2378   8.188   5.003   1.195
    6CHTO   H79 2379   8.281   4.946   1.188
    6CHTO   C38 2380   8.206   5.132   1.108
    6CHTO   H80 2381   8.108   5.181   1.101
    6CHTO   O31 2382   8.247   5.092   0.976
    6CHTO   H68 2383   8.330   5.049   0.979
    6CHTO   C39 2384   8.310   5.233   1.171
    6CHTO   H81 2385   8.409   5.188   1.161
    6CHTO    N7 2386   8.314   5.365   1.097
    6CHTO   H73 2387   8.387   5.430   1.143
    6CHTO   H74 2388   8.339   5.348   0.994
    6CHTO   C40 2389   8.283   5.254   1.324
    6CHTO   H82 2390   8.191   5.311   1.338
    6CHTO   O26 2391   8.276   5.126   1.390
    6CHTO   C41 2392   8.165   5.043   1.344
    6CHTO   H83 2393   8.070   5.097   1.355
    6CHTO   C52 2394   8.161   4.921   1.439
    6CHTO   O35 2395   8.041   4.841   1.425
    6CHTO   H71 2396   8.041   4.799   1.341
    6CHTO   O28 2397   8.391   5.324   1.389
    6CHTO   C42 2398   8.376   5.391   1.519
    6CHTO   H84 2399   8.474   5.435   1.536
    6CHTO   C44 2400   8.348   5.299   1.642
    6CHTO   H86 2401   8.252   5.249   1.627
    6CHTO   O32 2402   8.453   5.200   1.643
    6CHTO   H69 2403   8.437   5.137   1.711
    6CHTO   C48 2404   8.340   5.382   1.776
    6CHTO   H90 2405   8.438   5.429   1.793
    6CHTO    N9 2406   8.315   5.296   1.896
    6CHTO   H77 2407   8.311   5.357   1.985
    6CHTO   H78 2408   8.393   5.221   1.905
    6CHTO   C51 2409   8.233   5.496   1.759
    6CHTO   H93 2410   8.136   5.448   1.741
    6CHTO   O30 2411   8.272   5.581   1.651
    6CHTO   C46 2412   8.273   5.509   1.516
    6CHTO   H88 2413   8.173   5.469   1.498
    6CHTO   C53 2414   8.306   5.614   1.407
    6CHTO   O72 2415   8.434   5.676   1.429
    6CHTO  H199 2416   8.452   5.737   1.361
    6CHTO   O22 2417   8.225   5.583   1.874
    6CHTO   C31 2418   8.103   5.659   1.907
    6CHTO   H59 2419   8.127   5.716   1.999
    6CHTO   C29 2420   8.060   5.761   1.800
    6CHTO   H57 2421   8.041   5.707   1.706
    6CHTO   O21 2422   8.172   5.849   1.776
    6CHTO   H37 2423   8.243   5.802   1.736
    6CHTO   C27 2424   7.930   5.839   1.843
    6CHTO   H55 2425   7.951   5.894   1.935
    6CHTO    N5 2426   7.883   5.935   1.740
    6CHTO   H43 2427   7.797   5.989   1.776
    6CHTO   H44 2428   7.859   5.883   1.648
    6CHTO   C25 2429   7.819   5.733   1.878
    6CHTO   H53 2430   7.796   5.673   1.788
    6CHTO   O17 2431   7.867   5.643   1.982
    6CHTO   C32 2432   7.983   5.566   1.946
    6CHTO   H60 2433   7.958   5.502   1.862
    6CHTO   C36 2434   8.021   5.478   2.067
    6CHTO   O25 2435   7.919   5.383   2.101
    6CHTO   H40 2436   7.912   5.318   2.033
    6CHTO   O15 2437   7.691   5.796   1.930
    6CHTO   C19 2438   7.569   5.868   1.961
    6CHTO   H47 2439   7.542   5.831   2.061
    6CHTO   C20 2440   7.587   6.023   1.968
    6CHTO   H48 2441   7.618   6.064   1.871
    6CHTO   O19 2442   7.691   6.049   2.064
    6CHTO   H35 2443   7.774   6.023   2.029
    6CHTO   C21 2444   7.452   6.093   2.011
    6CHTO   H49 2445   7.428   6.064   2.113
    6CHTO    N4 2446   7.462   6.242   2.010
    6CHTO   H41 2447   7.440   6.282   2.108
    6CHTO   H42 2448   7.395   6.286   1.938
    6CHTO   C22 2449   7.336   6.040   1.921
    6CHTO   H50 2450   7.352   6.077   1.819
    6CHTO   O14 2451   7.331   5.897   1.921
    6CHTO   C23 2452   7.449   5.834   1.868
    6CHTO   H51 2453   7.465   5.872   1.765
    6CHTO   C34 2454   7.421   5.684   1.859
    6CHTO   O23 2455   7.519   5.617   1.780
    6CHTO   H38 2456   7.500   5.525   1.778
    6CHTO   O16 2457   7.208   6.082   1.972
    6CHTO   C24 2458   7.095   6.103   1.861
    6CHTO   H52 2459   7.111   6.038   1.774
    6CHTO   C26 2460   7.096   6.250   1.816
    6CHTO   H54 2461   7.102   6.315   1.907
    6CHTO   O20 2462   7.216   6.270   1.739
    6CHTO   H36 2463   7.226   6.361   1.719
    6CHTO   C30 2464   6.970   6.290   1.734
    6CHTO   H58 2465   6.973   6.242   1.635
    6CHTO    N6 2466   6.966   6.437   1.708
    6CHTO   H45 2467   7.054   6.467   1.653
    6CHTO   H46 2468   6.878   6.462   1.651
    6CHTO   C33 2469   6.842   6.239   1.805
    6CHTO   H61 2470   6.830   6.290   1.902
    6CHTO   O18 2471   6.855   6.097   1.829
    6CHTO   C28 2472   6.959   6.064   1.923
    6CHTO   H56 2473   6.945   6.117   2.017
    6CHTO   C35 2474   6.954   5.912   1.951
    6CHTO   O24 2475   6.832   5.871   2.013
    6CHTO   H39 2476   6.833   5.778   2.028
    6CHTO    O9 2477   6.721   6.268   1.731
    6CHTO   C13 2478   6.592   6.305   1.824
    6CHTO   H26 2479   6.616   6.400   1.876
    6CHTO   C11 2480   6.562   6.187   1.926
    6CHTO   H24 2481   6.644   6.186   2.000
    6CHTO    O8 2482   6.563   6.060   1.860
    6CHTO    H3 2483   6.494   6.055   1.797
    6CHTO    C9 2484   6.431   6.222   2.000
    6CHTO   H22 2485   6.445   6.323   2.041
    6CHTO    N2 2486   6.406   6.138   2.120
    6CHTO   H10 2487   6.388   6.035   2.090
    6CHTO   H11 2488   6.321   6.176   2.175
    6CHTO    C7 2489   6.314   6.225   1.896
    6CHTO   H20 2490   6.223   6.253   1.954
    6CHTO    O4 2491   6.337   6.327   1.796
    6CHTO   C14 2492   6.466   6.337   1.731
    6CHTO   H27 2493   6.475   6.444   1.702
    6CHTO   C18 2494   6.466   6.255   1.600
    6CHTO   O13 2495   6.377   6.312   1.504
    6CHTO    H7 2496   6.378   6.261   1.425
    6CHTO    O2 2497   6.291   6.078   1.820
    6CHTO    C1 2498   6.156   6.037   1.789
    6CHTO   H14 2499   6.164   5.941   1.734
    6CHTO    C2 2500   6.072   6.137   1.701
    6CHTO   H15 2501   6.072   6.234   1.754
    6CHTO    O6 2502   6.137   6.152   1.574
    6CHTO    H1 2503   6.139   6.071   1.528
    6CHTO    C3 2504   5.921   6.084   1.683
    6CHTO   H16 2505   5.923   5.992   1.624
    6CHTO    N1 2506   5.833   6.181   1.609
    6CHTO    H8 2507   5.830   6.275   1.661
    6CHTO    H9 2508   5.872   6.196   1.509
    6CHTO    C4 2509   5.861   6.044   1.822
    6CHTO   H17 2510   5.847   6.134   1.883
    6CHTO    O1 2511   5.947   5.951   1.890
    6CHTO    C5 2512   6.078   6.004   1.920
    6CHTO   H18 2513   6.066   6.096   1.977
    6CHTO   C16 2514   6.151   5.900   2.009
    6CHTO   O11 2515   6.178   5.776   1.942
    6CHTO    H5 2516   6.097   5.732   1.925
    6CHTO    O3 2517   5.735   5.974   1.808
    6CHTO    C6 2518   5.645   5.984   1.923
    6CHTO   H19 2519   5.696   6.019   2.013
    6CHTO    C8 2520   5.529   6.084   1.893
    6CHTO   H21 2521   5.481   6.055   1.799
    6CHTO    O7 2522   5.589   6.215   1.878
    6CHTO    H2 2523   5.523   6.277   1.853
    6CHTO   C12 2524   5.422   6.080   2.009
    6CHTO   H25 2525   5.473   6.117   2.100
    6CHTO    N3 2526   5.307   6.174   1.983
    6CHTO   H12 2527   5.237   6.171   2.066
    6CHTO   H13 2528   5.257   6.147   1.891
    6CHTO   C15 2529   5.377   5.931   2.033
    6CHTO   H28 2530   5.322   5.891   1.948
    6CHTO   O10 2531   5.291   5.913   2.163
    6CHTO    H4 2532   5.336   5.949   2.237
    6CHTO    O5 2533   5.492   5.849   2.061
    6CHTO   C10 2534   5.588   5.843   1.955
    6CHTO   H23 2535   5.539   5.804   1.866
    6CHTO   C17 2536   5.699   5.746   1.995
    6CHTO   O12 2537   5.650   5.613   2.018
    6CHTO    H6 2538   5.597   5.612   2.095
    7CHTO  H203 2539   4.769   2.328   2.379
    7CHTO   O82 2540   4.819   2.308   2.302
    7CHTO  C123 2541   4.952   2.361   2.312
    7CHTO  H227 2542   4.945   2.465   2.349
    7CHTO   O77 2543   5.015   2.277   2.413
    7CHTO  C118 2544   5.147   2.320   2.449
    7CHTO  H222 2545   5.147   2.426   2.477
    7CHTO  C125 2546   5.192   2.234   2.574
    7CHTO   O84 2547   5.311   2.285   2.635
    7CHTO  H205 2548   5.384   2.275   2.577
    7CHTO  C114 2549   5.239   2.298   2.326
    7CHTO  H218 2550   5.239   2.192   2.302
    7CHTO  C116 2551   5.185   2.376   2.202
    7CHTO  H220 2552   5.203   2.485   2.220
    7CHTO   O79 2553   5.264   2.340   2.087
    7CHTO  H201 2554   5.352   2.371   2.096
    7CHTO  C120 2555   5.031   2.352   2.177
    7CHTO  H224 2556   5.022   2.250   2.134
    7CHTO   N21 2557   4.978   2.446   2.074
    7CHTO  H211 2558   4.989   2.403   1.975
    7CHTO  H212 2559   4.874   2.469   2.092
    7CHTO   O75 2560   5.369   2.342   2.367
    7CHTO  C112 2561   5.491   2.249   2.314
    7CHTO  H216 2562   5.473   2.222   2.208
    7CHTO   O73 2563   5.496   2.133   2.398
    7CHTO  C113 2564   5.602   2.040   2.368
    7CHTO  H217 2565   5.590   2.006   2.263
    7CHTO  C124 2566   5.586   1.916   2.457
    7CHTO   O83 2567   5.593   1.945   2.598
    7CHTO  H204 2568   5.519   1.996   2.623
    7CHTO  C109 2569   5.740   2.109   2.385
    7CHTO  H213 2570   5.748   2.138   2.491
    7CHTO  C110 2571   5.747   2.235   2.294
    7CHTO  H214 2572   5.744   2.203   2.190
    7CHTO   O78 2573   5.874   2.301   2.315
    7CHTO  H200 2574   5.882   2.331   2.403
    7CHTO  C111 2575   5.627   2.329   2.324
    7CHTO  H215 2576   5.636   2.366   2.428
    7CHTO   N19 2577   5.623   2.450   2.237
    7CHTO  H207 2578   5.539   2.512   2.264
    7CHTO  H208 2579   5.614   2.420   2.133
    7CHTO   O74 2580   5.848   2.015   2.354
    7CHTO  C115 2581   5.969   2.025   2.456
    7CHTO  H219 2582   5.981   2.127   2.495
    7CHTO   O76 2583   5.941   1.933   2.590
    7CHTO  C122 2584   6.052   1.921   2.682
    7CHTO  H226 2585   6.034   1.829   2.738
    7CHTO  C126 2586   6.047   2.036   2.789
    7CHTO   O85 2587   6.063   2.167   2.733
    7CHTO  H206 2588   6.058   2.231   2.802
    7CHTO  C121 2589   6.193   1.911   2.612
    7CHTO  H225 2590   6.244   2.009   2.616
    7CHTO   O81 2591   6.276   1.817   2.681
    7CHTO  H202 2592   6.363   1.817   2.645
    7CHTO  C119 2593   6.174   1.870   2.462
    7CHTO  H223 2594   6.273   1.855   2.420
    7CHTO  C117 2595   6.101   1.982   2.379
    7CHTO  H221 2596   6.066   1.951   2.281
    7CHTO   N20 2597   6.191   2.100   2.352
    7CHTO  H209 2598   6.207   2.111   2.245
    7CHTO  H210 2599   6.151   2.191   2.393
    7CHTO   O80 2600   6.112   1.730   2.446
    7CHTO  C103 2601   6.111   1.661   2.306
    7CHTO  H190 2602   6.088   1.732   2.227
    7CHTO  C101 2603   6.243   1.583   2.267
    7CHTO  H188 2604   6.273   1.521   2.352
    7CHTO   O68 2605   6.356   1.686   2.239
    7CHTO  H168 2606   6.437   1.642   2.225
    7CHTO   C99 2607   6.219   1.486   2.141
    7CHTO  H186 2608   6.197   1.549   2.053
    7CHTO   N17 2609   6.336   1.400   2.106
    7CHTO  H174 2610   6.316   1.345   2.015
    7CHTO  H175 2611   6.359   1.334   2.187
    7CHTO   C97 2612   6.091   1.401   2.165
    7CHTO  H184 2613   6.112   1.331   2.247
    7CHTO   O64 2614   5.978   1.485   2.193
    7CHTO  C104 2615   5.990   1.560   2.315
    7CHTO  H191 2616   6.003   1.495   2.401
    7CHTO  C108 2617   5.858   1.635   2.338
    7CHTO   O71 2618   5.748   1.545   2.354
    7CHTO  H171 2619   5.729   1.502   2.272
    7CHTO   O62 2620   6.044   1.332   2.047
    7CHTO   C91 2621   6.004   1.194   2.057
    7CHTO  H178 2622   6.094   1.135   2.039
    7CHTO   C92 2623   5.908   1.164   1.936
    7CHTO  H179 2624   5.953   1.201   1.842
    7CHTO   O66 2625   5.900   1.021   1.919
    7CHTO  H166 2626   5.866   0.980   1.996
    7CHTO   C93 2627   5.761   1.219   1.958
    7CHTO  H180 2628   5.694   1.158   1.895
    7CHTO   N16 2629   5.743   1.358   1.909
    7CHTO  H172 2630   5.641   1.389   1.924
    7CHTO  H173 2631   5.810   1.424   1.961
    7CHTO   C94 2632   5.716   1.204   2.109
    7CHTO  H181 2633   5.728   1.297   2.165
    7CHTO   O61 2634   5.796   1.105   2.176
    7CHTO   C95 2635   5.934   1.144   2.193
    7CHTO  H182 2636   5.938   1.222   2.268
    7CHTO  C106 2637   6.013   1.022   2.252
    7CHTO   O69 2638   5.969   0.988   2.384
    7CHTO  H169 2639   5.883   0.952   2.381
    7CHTO   O63 2640   5.568   1.155   2.115
    7CHTO   C96 2641   5.474   1.237   2.214
    7CHTO  H183 2642   5.473   1.340   2.178
    7CHTO   C98 2643   5.519   1.239   2.364
    7CHTO  H185 2644   5.622   1.278   2.372
    7CHTO   O67 2645   5.437   1.334   2.433
    7CHTO  H167 2646   5.467   1.346   2.521
    7CHTO  C102 2647   5.504   1.095   2.435
    7CHTO  H189 2648   5.472   1.116   2.538
    7CHTO   N18 2649   5.630   1.018   2.447
    7CHTO  H176 2650   5.672   1.000   2.350
    7CHTO  H177 2651   5.701   1.072   2.508
    7CHTO  C105 2652   5.392   1.012   2.367
    7CHTO  H192 2653   5.434   0.956   2.283
    7CHTO   O65 2654   5.287   1.096   2.315
    7CHTO  C100 2655   5.326   1.176   2.201
    7CHTO  H187 2656   5.322   1.111   2.113
    7CHTO  C107 2657   5.218   1.285   2.182
    7CHTO   O70 2658   5.240   1.360   2.062
    7CHTO  H170 2659   5.317   1.413   2.071
    7CHTO   O57 2660   5.336   0.912   2.480
    7CHTO   C85 2661   5.304   0.777   2.443
    7CHTO  H157 2662   5.347   0.760   2.342
    7CHTO   C83 2663   5.150   0.761   2.426
    7CHTO  H155 2664   5.117   0.830   2.347
    7CHTO   O56 2665   5.082   0.802   2.547
    7CHTO  H135 2666   5.096   0.893   2.563
    7CHTO   C81 2667   5.119   0.615   2.381
    7CHTO  H153 2668   5.171   0.597   2.288
    7CHTO   N14 2669   4.976   0.594   2.347
    7CHTO  H141 2670   4.962   0.497   2.305
    7CHTO  H142 2671   4.915   0.604   2.434
    7CHTO   C79 2672   5.172   0.512   2.488
    7CHTO  H151 2673   5.161   0.412   2.443
    7CHTO   O52 2674   5.315   0.531   2.511
    7CHTO   C86 2675   5.353   0.667   2.546
    7CHTO  H158 2676   5.308   0.684   2.646
    7CHTO   C90 2677   5.506   0.674   2.568
    7CHTO   O60 2678   5.579   0.640   2.450
    7CHTO  H138 2679   5.568   0.549   2.430
    7CHTO   O50 2680   5.102   0.513   2.613
    7CHTO   C73 2681   5.096   0.398   2.699
    7CHTO  H145 2682   5.188   0.338   2.689
    7CHTO   C74 2683   4.974   0.308   2.659
    7CHTO  H146 2684   4.986   0.283   2.552
    7CHTO   O54 2685   4.985   0.184   2.732
    7CHTO  H133 2686   4.917   0.125   2.705
    7CHTO   C75 2687   4.840   0.387   2.687
    7CHTO  H147 2688   4.839   0.478   2.625
    7CHTO   N13 2689   4.717   0.312   2.649
    7CHTO  H139 2690   4.712   0.219   2.704
    7CHTO  H140 2691   4.718   0.290   2.543
    7CHTO   C76 2692   4.838   0.433   2.840
    7CHTO  H148 2693   4.838   0.343   0.042
    7CHTO   O49 2694   4.957   0.512   0.010
    7CHTO   C77 2695   5.081   0.443   2.848
    7CHTO  H149 2696   5.086   0.354   0.052
    7CHTO   C88 2697   5.197   0.533   0.032
    7CHTO   O58 2698   5.191   0.562   0.179
    7CHTO  H136 2699   5.116   0.615   0.197
    7CHTO   O51 2700   4.717   0.529   0.013
    7CHTO   C78 2701   4.692   0.535   0.170
    7CHTO  H150 2702   4.780   0.495   0.226
    7CHTO   C80 2703   4.568   0.450   0.206
    7CHTO  H152 2704   4.482   0.489   0.148
    7CHTO   O55 2705   4.596   0.315   0.164
    7CHTO  H134 2706   4.520   0.262   0.174
    7CHTO   C84 2707   4.536   0.458   0.361
    7CHTO  H156 2708   4.619   0.411   0.414
    7CHTO   N15 2709   4.412   0.381   0.398
    7CHTO  H143 2710   4.424   0.278   0.371
    7CHTO  H144 2711   4.396   0.387   0.503
    7CHTO   C87 2712   4.527   0.606   0.406
    7CHTO  H159 2713   4.438   0.653   0.363
    7CHTO   O53 2714   4.657   0.681   0.358
    7CHTO   C82 2715   4.672   0.681   0.216
    7CHTO  H154 2716   4.584   0.725   0.168
    7CHTO   C89 2717   4.793   0.771   0.182
    7CHTO   O59 2718   4.803   0.799   0.042
    7CHTO  H137 2719   4.824   0.721   2.855
    7CHTO   O45 2720   4.514   0.613   0.573
    7CHTO   C67 2721   4.582   0.720   0.640
    7CHTO  H124 2722   4.679   0.736   0.593
    7CHTO   C65 2723   4.500   0.854   0.631
    7CHTO  H122 2724   4.395   0.825   0.618
    7CHTO   O44 2725   4.545   0.921   0.512
    7CHTO  H102 2726   4.490   0.995   0.494
    7CHTO   C63 2727   4.501   0.936   0.766
    7CHTO  H120 2728   4.434   0.887   0.837
    7CHTO   N11 2729   4.442   1.074   0.760
    7CHTO  H108 2730   4.434   1.115   0.859
    7CHTO  H109 2731   4.503   1.137   0.699
    7CHTO   C61 2732   4.645   0.928   0.830
    7CHTO  H118 2733   4.639   0.980   0.927
    7CHTO   O40 2734   4.684   0.790   0.859
    7CHTO   C68 2735   4.613   0.682   0.790
    7CHTO  H125 2736   4.518   0.661   0.845
    7CHTO   C72 2737   4.702   0.555   0.804
    7CHTO   O48 2738   4.640   0.436   0.755
    7CHTO  H105 2739   4.567   0.413   0.809
    7CHTO   O38 2740   4.746   0.991   0.748
    7CHTO   C55 2741   4.879   0.999   0.802
    7CHTO  H112 2742   4.891   0.928   0.885
    7CHTO   C56 2743   4.912   1.149   0.847
    7CHTO  H113 2744   4.887   1.214   0.762
    7CHTO   O42 2745   4.824   1.187   0.955
    7CHTO  H100 2746   4.735   1.191   0.924
    7CHTO   C57 2747   5.064   1.165   0.888
    7CHTO  H114 2748   5.080   1.109   0.980
    7CHTO   N10 2749   5.103   1.306   0.914
    7CHTO  H106 2750   5.208   1.323   0.892
    7CHTO  H107 2751   5.085   1.332   1.017
    7CHTO   C58 2752   5.153   1.103   0.777
    7CHTO  H115 2753   5.141   1.162   0.683
    7CHTO   O37 2754   5.113   0.967   0.753
    7CHTO   C59 2755   4.983   0.957   0.695
    7CHTO  H116 2756   4.976   1.021   0.607
    7CHTO   C70 2757   4.962   0.812   0.649
    7CHTO   O46 2758   5.050   0.774   0.542
    7CHTO  H103 2759   5.139   0.773   0.573
    7CHTO   O39 2760   5.318   1.100   0.820
    7CHTO   C60 2761   5.396   1.007   0.742
    7CHTO  H117 2762   5.361   0.906   0.762
    7CHTO   C62 2763   5.385   1.032   0.588
    7CHTO  H119 2764   5.277   1.030   0.563
    7CHTO   O43 2765   5.435   1.164   0.556
    7CHTO  H101 2766   5.424   1.181   0.465
    7CHTO   C66 2767   5.458   0.914   0.511
    7CHTO  H123 2768   5.420   0.819   0.549
    7CHTO   N12 2769   5.426   0.915   0.366
    7CHTO  H110 2770   5.460   1.007   0.321
    7CHTO  H111 2771   5.470   0.829   0.318
    7CHTO   C69 2772   5.610   0.919   0.542
    7CHTO  H126 2773   5.654   1.015   0.503
    7CHTO   O41 2774   5.632   0.911   0.700
    7CHTO   C64 2775   5.546   1.012   0.784
    7CHTO  H121 2776   5.584   1.115   0.767
    7CHTO   C71 2777   5.564   0.980   0.934
    7CHTO   O47 2778   5.539   0.842   0.963
    7CHTO  H104 2779   5.605   0.788   0.923
    7CHTO   O34 2780   5.689   0.799   0.476
    7CHTO   C49 2781   5.748   0.716   0.362
    7CHTO   H91 2782   5.817   0.647   0.410
    7CHTO   C47 2783   5.830   0.807   0.266
    7CHTO   H89 2784   5.928   0.822   0.319
    7CHTO   O33 2785   5.767   0.935   0.249
    7CHTO   H70 2786   5.683   0.926   0.208
    7CHTO   C45 2787   5.851   0.741   0.120
    7CHTO   H87 2788   5.769   0.776   0.055
    7CHTO    N8 2789   5.979   0.785   0.060
    7CHTO   H75 2790   5.983   0.893   0.058
    7CHTO   H76 2791   5.988   0.747   2.820
    7CHTO   C43 2792   5.831   0.583   0.125
    7CHTO   H85 2793   5.848   0.544   0.025
    7CHTO   O29 2794   5.697   0.555   0.170
    7CHTO   C50 2795   5.645   0.631   0.281
    7CHTO   H92 2796   5.566   0.697   0.243
    7CHTO   C54 2797   5.569   0.529   0.370
    7CHTO   O36 2798   5.493   0.589   0.475
    7CHTO   H72 2799   5.422   0.638   0.439
    7CHTO   O27 2800   5.927   0.518   0.211
    7CHTO   C37 2801   5.966   0.408   0.293
    7CHTO   H79 2802   5.933   0.424   0.396
    7CHTO   C38 2803   5.901   0.274   0.244
    7CHTO   H80 2804   5.915   0.266   0.135
    7CHTO   O31 2805   5.759   0.281   0.271
    7CHTO   H68 2806   5.719   0.345   0.217
    7CHTO   C39 2807   5.965   0.148   0.315
    7CHTO   H81 2808   5.939   0.152   0.420
    7CHTO    N7 2809   5.913   0.017   0.261
    7CHTO   H73 2810   5.936   0.008   0.156
    7CHTO   H74 2811   5.956   9.935   0.316
    7CHTO   C40 2812   6.122   0.157   0.304
    7CHTO   H82 2813   6.151   0.152   0.199
    7CHTO   O26 2814   6.165   0.280   0.365
    7CHTO   C41 2815   6.121   0.398   0.291
    7CHTO   H83 2816   6.156   0.391   0.187
    7CHTO   C52 2817   6.186   0.523   0.354
    7CHTO   O35 2818   6.334   0.521   0.344
    7CHTO   H71 2819   6.360   0.528   0.254
    7CHTO   O28 2820   6.192   0.054   0.377
    7CHTO   C42 2821   6.322   0.008   0.328
    7CHTO   H84 2822   6.359   9.944   0.409
    7CHTO   C44 2823   6.431   0.119   0.307
    7CHTO   H86 2824   6.391   0.194   0.238
    7CHTO   O32 2825   6.452   0.182   0.435
    7CHTO   H69 2826   6.376   0.232   0.460
    7CHTO   C48 2827   6.565   0.063   0.245
    7CHTO   H90 2828   6.612   9.998   0.318
    7CHTO    N9 2829   6.665   0.172   0.216
    7CHTO   H77 2830   6.756   0.157   0.272
    7CHTO   H78 2831   6.624   0.270   0.237
    7CHTO   C51 2832   6.530   9.979   0.117
    7CHTO   H93 2833   6.481   0.045   0.046
    7CHTO   O30 2834   6.445   9.871   0.158
    7CHTO   C46 2835   6.310   9.917   0.201
    7CHTO   H88 2836   6.265   9.975   0.120
    7CHTO   C53 2837   6.224   9.792   0.230
    7CHTO   O72 2838   6.201   9.716   0.110
    7CHTO  H199 2839   6.281   9.677   0.082
    7CHTO   O22 2840   6.643   9.914   0.056
    7CHTO   C31 2841   6.646   9.895   2.769
    7CHTO   H59 2842   6.728   9.823   2.749
    7CHTO   C29 2843   6.517   9.833   2.709
    7CHTO   H57 2844   6.432   9.895   2.743
    7CHTO   O21 2845   6.499   9.703   2.769
    7CHTO   H37 2846   6.415   9.668   2.746
    7CHTO   C27 2847   6.518   9.829   2.551
    7CHTO   H55 2848   6.596   9.759   2.519
    7CHTO    N5 2849   6.388   9.783   2.496
    7CHTO   H43 2850   6.309   9.852   2.522
    7CHTO   H44 2851   6.395   9.773   2.389
    7CHTO   C25 2852   6.556   9.971   2.497
    7CHTO   H53 2853   6.480   0.044   2.530
    7CHTO   O17 2854   6.685   0.010   2.552
    7CHTO   C32 2855   6.686   0.026   2.694
    7CHTO   H60 2856   6.616   0.105   2.722
    7CHTO   C36 2857   6.828   0.071   2.736
    7CHTO   O25 2858   6.861   0.199   2.681
    7CHTO   H40 2859   6.812   0.266   2.724
    7CHTO   O15 2860   6.567   9.975   2.338
    7CHTO   C19 2861   6.545   0.089   2.248
    7CHTO   H47 2862   6.557   0.045   2.148
    7CHTO   C20 2863   6.404   0.153   2.259
    7CHTO   H48 2864   6.384   0.191   2.361
    7CHTO   O19 2865   6.308   0.048   2.232
    7CHTO   H35 2866   6.317   0.017   2.144
    7CHTO   C21 2867   6.386   0.273   2.158
    7CHTO   H49 2868   6.387   0.234   2.056
    7CHTO    N4 2869   6.255   0.343   2.174
    7CHTO   H41 2870   6.247   0.383   2.274
    7CHTO   H42 2871   6.174   0.275   2.157
    7CHTO   C22 2872   6.506   0.371   2.169
    7CHTO   H50 2873   6.501   0.424   2.264
    7CHTO   O14 2874   6.631   0.300   2.159
    7CHTO   C23 2875   6.654   0.200   2.260
    7CHTO   H51 2876   6.651   0.250   2.358
    7CHTO   C34 2877   6.794   0.142   2.239
    7CHTO   O23 2878   6.896   0.242   2.257
    7CHTO   H38 2879   6.901   0.266   2.347
    7CHTO   O16 2880   6.511   0.463   2.057
    7CHTO   C24 2881   6.548   0.618   2.095
    7CHTO   H52 2882   6.572   0.630   2.201
    7CHTO   C26 2883   6.428   0.707   2.058
    7CHTO   H54 2884   6.401   0.688   1.951
    7CHTO   O20 2885   6.316   0.668   2.140
    7CHTO   H36 2886   6.238   0.712   2.112
    7CHTO   C30 2887   6.460   0.859   2.075
    7CHTO   H58 2888   6.469   0.883   2.182
    7CHTO    N6 2889   6.350   0.945   2.023
    7CHTO   H45 2890   6.373   1.049   2.040
    7CHTO   H46 2891   6.336   0.928   1.917
    7CHTO   C33 2892   6.598   0.896   2.011
    7CHTO   H61 2893   6.591   0.893   1.901
    7CHTO   O18 2894   6.698   0.801   2.053
    7CHTO   C28 2895   6.673   0.665   2.015
    7CHTO   H56 2896   6.652   0.658   1.908
    7CHTO   C35 2897   6.800   0.584   2.049
    7CHTO   O24 2898   6.802   0.456   1.985
    7CHTO   H39 2899   6.881   0.411   2.009
    7CHTO    O9 2900   6.636   1.031   2.045
    7CHTO   C13 2901   6.758   1.097   1.958
    7CHTO   H26 2902   6.736   1.080   1.851
    7CHTO   C11 2903   6.897   1.033   2.001
    7CHTO   H24 2904   6.898   0.928   1.966
    7CHTO    O8 2905   6.906   1.031   2.145
    7CHTO    H3 2906   6.984   0.985   2.171
    7CHTO    C9 2907   7.011   1.109   1.930
    7CHTO   H22 2908   6.989   1.103   1.822
    7CHTO    N2 2909   7.144   1.045   1.946
    7CHTO   H10 2910   7.181   1.009   1.851
    7CHTO   H11 2911   7.215   1.112   1.991
    7CHTO    C7 2912   7.008   1.260   1.973
    7CHTO   H20 2913   7.083   1.308   1.907
    7CHTO    O4 2914   6.881   1.321   1.946
    7CHTO   C14 2915   6.757   1.255   1.978
    7CHTO   H27 2916   6.681   1.296   1.908
    7CHTO   C18 2917   6.712   1.296   2.121
    7CHTO   O13 2918   6.693   1.437   2.132
    7CHTO    H7 2919   6.618   1.463   2.082
    7CHTO    O2 2920   7.049   1.282   2.137
    7CHTO    C1 2921   7.103   1.412   2.171
    7CHTO   H14 2922   7.044   1.490   2.119
    7CHTO    C2 2923   7.257   1.432   2.134
    7CHTO   H15 2924   7.311   1.351   2.186
    7CHTO    O6 2925   7.276   1.418   1.993
    7CHTO    H1 2926   7.367   1.420   1.972
    7CHTO    C3 2927   7.309   1.575   2.186
    7CHTO   H16 2928   7.260   1.654   2.127
    7CHTO    N1 2929   7.457   1.592   2.166
    7CHTO    H8 2930   7.511   1.516   2.219
    7CHTO    H9 2931   7.481   1.587   2.061
    7CHTO    C4 2932   7.266   1.600   2.335
    7CHTO   H17 2933   7.326   1.535   2.400
    7CHTO    O1 2934   7.126   1.572   2.352
    7CHTO    C5 2935   7.089   1.437   2.324
    7CHTO   H18 2936   7.156   1.368   2.376
    7CHTO   C16 2937   6.946   1.419   2.381
    7CHTO   O11 2938   6.912   1.280   2.392
    7CHTO    H5 2939   6.826   1.272   2.429
    7CHTO    O3 2940   7.278   1.739   2.374
    7CHTO    C6 2941   7.336   1.765   2.507
    7CHTO   H19 2942   7.372   1.675   2.557
    7CHTO    C8 2943   7.457   1.863   2.493
    7CHTO   H21 2944   7.423   1.952   2.438
    7CHTO    O7 2945   7.558   1.795   2.417
    7CHTO    H2 2946   7.629   1.854   2.398
    7CHTO   C12 2947   7.511   1.908   2.635
    7CHTO   H25 2948   7.555   1.817   2.681
    7CHTO    N3 2949   7.620   2.010   2.625
    7CHTO   H12 2950   7.642   2.034   2.521
    7CHTO   H13 2951   7.709   1.975   2.675
    7CHTO   C15 2952   7.391   1.956   2.726
    7CHTO   H28 2953   7.351   2.052   2.692
    7CHTO   O10 2954   7.431   1.968   0.017
    7CHTO    H4 2955   7.469   1.887   0.047
    7CHTO    O5 2956   7.287   1.857   2.730
    7CHTO   C10 2957   7.230   1.829   2.601
    7CHTO   H23 2958   7.193   1.922   2.558
    7CHTO   C17 2959   7.108   1.738   2.625
    7CHTO   O12 2960   7.005   1.806   2.698
    7CHTO    H6 2961   6.967   1.873   2.644
    8CHTO  H203 2962   7.088   8.245   1.047
    8CHTO   O82 2963   7.155   8.243   1.114
    8CHTO  C123 2964   7.096   8.245   1.245
    8CHTO  H227 2965   7.177   8.240   1.320
    8CHTO   O77 2966   7.032   8.376   1.252
    8CHTO  C118 2967   6.972   8.405   1.379
    8CHTO  H222 2968   7.046   8.391   1.460
    8CHTO  C125 2969   6.929   8.556   1.374
    8CHTO   O84 2970   6.892   8.605   1.504
    8CHTO  H205 2971   6.871   8.696   1.498
    8CHTO  C114 2972   6.854   8.307   1.399
    8CHTO  H218 2973   6.785   8.319   1.315
    8CHTO  C116 2974   6.905   8.160   1.398
    8CHTO  H220 2975   6.968   8.142   1.488
    8CHTO   O79 2976   6.792   8.072   1.409
    8CHTO  H201 2977   6.752   8.080   1.493
    8CHTO  C120 2978   6.990   8.131   1.267
    8CHTO  H224 2979   6.918   8.130   1.183
    8CHTO   N21 2980   7.053   7.996   1.272
    8CHTO  H211 2981   7.150   8.001   1.319
    8CHTO  H212 2982   7.062   7.956   1.172
    8CHTO   O75 2983   6.790   8.343   1.523
    8CHTO  C112 2984   6.628   8.363   1.506
    8CHTO  H216 2985   6.586   8.274   1.456
    8CHTO   O73 2986   6.607   8.482   1.428
    8CHTO  C113 2987   6.470   8.506   1.393
    8CHTO  H217 2988   6.432   8.419   1.336
    8CHTO  C124 2989   6.467   8.628   1.299
    8CHTO   O83 2990   6.535   8.602   1.175
    8CHTO  H204 2991   6.531   8.678   1.121
    8CHTO  C109 2992   6.386   8.531   1.522
    8CHTO  H213 2993   6.426   8.623   1.568
    8CHTO  C110 2994   6.405   8.412   1.622
    8CHTO  H214 2995   6.356   8.324   1.581
    8CHTO   O78 2996   6.337   8.447   1.744
    8CHTO  H200 2997   6.340   8.376   1.804
    8CHTO  C111 2998   6.556   8.382   1.646
    8CHTO  H215 2999   6.602   8.469   1.695
    8CHTO   N19 3000   6.581   8.265   1.734
    8CHTO  H207 3001   6.488   8.221   1.769
    8CHTO  H208 3002   6.640   8.189   1.685
    8CHTO   O74 3003   6.245   8.555   1.489
    8CHTO  C115 3004   6.164   8.431   1.422
    8CHTO  H219 3005   6.229   8.368   1.362
    8CHTO   O76 3006   6.101   8.335   1.532
    8CHTO  C122 3007   6.002   8.398   1.614
    8CHTO  H226 3008   6.049   8.479   1.670
    8CHTO  C126 3009   5.957   8.291   1.720
    8CHTO   O85 3010   5.867   8.342   1.819
    8CHTO  H206 3011   5.911   8.405   1.873
    8CHTO  C121 3012   5.883   8.452   1.524
    8CHTO  H225 3013   5.836   8.366   1.472
    8CHTO   O81 3014   5.782   8.515   1.603
    8CHTO  H202 3015   5.743   8.453   1.662
    8CHTO  C119 3016   5.938   8.552   1.417
    8CHTO  H223 3017   5.854   8.575   1.352
    8CHTO  C117 3018   6.053   8.492   1.327
    8CHTO  H221 3019   6.107   8.565   1.267
    8CHTO   N20 3020   6.003   8.390   1.228
    8CHTO  H209 3021   6.084   8.356   1.166
    8CHTO  H210 3022   5.959   8.306   1.281
    8CHTO   O80 3023   5.975   8.695   1.473
    8CHTO  C103 3024   5.868   8.816   1.462
    8CHTO  H190 3025   5.769   8.778   1.441
    8CHTO  C101 3026   5.860   8.910   1.589
    8CHTO  H188 3027   5.962   8.937   1.618
    8CHTO   O68 3028   5.797   8.828   1.705
    8CHTO  H168 3029   5.801   8.878   1.784
    8CHTO   C99 3030   5.779   9.045   1.558
    8CHTO  H186 3031   5.673   9.018   1.537
    8CHTO   N17 3032   5.777   9.142   1.672
    8CHTO  H174 3033   5.877   9.177   1.693
    8CHTO  H175 3034   5.733   9.096   1.759
    8CHTO   C97 3035   5.832   9.112   1.428
    8CHTO  H184 3036   5.933   9.150   1.447
    8CHTO   O64 3037   5.830   9.017   1.320
    8CHTO  C104 3038   5.913   8.902   1.336
    8CHTO  H191 3039   6.018   8.931   1.349
    8CHTO  C108 3040   5.907   8.822   1.205
    8CHTO   O71 3041   5.775   8.777   1.173
    8CHTO  H171 3042   5.747   8.712   1.235
    8CHTO   O62 3043   5.745   9.218   1.380
    8CHTO   C91 3044   5.806   9.321   1.299
    8CHTO  H178 3045   5.911   9.297   1.282
    8CHTO   C92 3046   5.803   9.455   1.380
    8CHTO  H179 3047   5.701   9.470   1.419
    8CHTO   O66 3048   5.886   9.439   1.496
    8CHTO  H166 3049   5.976   9.425   1.471
    8CHTO   C93 3050   5.847   9.581   1.295
    8CHTO  H180 3051   5.956   9.573   1.278
    8CHTO   N16 3052   5.827   9.710   1.366
    8CHTO  H172 3053   5.722   9.724   1.388
    8CHTO  H173 3054   5.864   9.792   1.306
    8CHTO   C94 3055   5.775   9.581   1.155
    8CHTO  H181 3056   5.667   9.594   1.165
    8CHTO   O61 3057   5.797   9.455   1.090
    8CHTO   C95 3058   5.737   9.343   1.159
    8CHTO  H182 3059   5.631   9.363   1.173
    8CHTO  C106 3060   5.750   9.217   1.067
    8CHTO   O69 3061   5.678   9.233   0.944
    8CHTO  H169 3062   5.586   9.236   0.961
    8CHTO   O63 3063   5.836   9.699   1.057
    8CHTO   C96 3064   5.768   9.699   0.912
    8CHTO  H183 3065   5.694   9.618   0.909
    8CHTO   C98 3066   5.868   9.677   0.796
    8CHTO  H185 3067   5.949   9.751   0.803
    8CHTO   O67 3068   5.929   9.549   0.817
    8CHTO  H167 3069   5.997   9.535   0.754
    8CHTO  C102 3070   5.796   9.685   0.652
    8CHTO  H189 3071   5.731   9.596   0.646
    8CHTO   N18 3072   5.889   9.674   0.536
    8CHTO  H176 3073   5.886   9.763   0.475
    8CHTO  H177 3074   5.864   9.588   0.476
    8CHTO  C105 3075   5.705   9.811   0.645
    8CHTO  H192 3076   5.767   9.900   0.636
    8CHTO   O65 3077   5.621   9.826   0.761
    8CHTO  C100 3078   5.691   9.834   0.886
    8CHTO  H187 3079   5.763   9.917   0.881
    8CHTO  C107 3080   5.586   9.867   0.995
    8CHTO   O70 3081   5.646   9.905   1.119
    8CHTO  H170 3082   5.688   9.989   1.110
    8CHTO   O57 3083   5.609   9.793   0.511
    8CHTO   C85 3084   5.569   9.909   0.436
    8CHTO  H157 3085   5.663   9.965   0.416
    8CHTO   C83 3086   5.482   0.003   0.524
    8CHTO  H155 3087   5.542   0.036   0.609
    8CHTO   O56 3088   5.372   9.928   0.580
    8CHTO  H135 3089   5.324   9.981   0.641
    8CHTO   C81 3090   5.440   0.127   0.441
    8CHTO  H153 3091   5.530   0.175   0.404
    8CHTO   N14 3092   5.374   0.232   0.523
    8CHTO  H141 3093   5.282   0.195   0.564
    8CHTO  H142 3094   5.438   0.261   0.604
    8CHTO   C79 3095   5.354   0.082   0.317
    8CHTO  H151 3096   5.335   0.172   0.257
    8CHTO   O52 3097   5.431   9.991   0.233
    8CHTO   C86 3098   5.491   9.875   0.301
    8CHTO  H158 3099   5.405   9.808   0.321
    8CHTO   C90 3100   5.580   9.803   0.197
    8CHTO   O60 3101   5.636   9.681   0.247
    8CHTO  H138 3102   5.569   9.618   0.261
    8CHTO   O50 3103   5.227   0.024   0.351
    8CHTO   C73 3104   5.092   9.990   0.315
    8CHTO  H145 3105   5.091   9.949   0.212
    8CHTO   C74 3106   4.998   0.113   0.321
    8CHTO  H146 3107   5.039   0.189   0.252
    8CHTO   O54 3108   4.869   0.075   0.267
    8CHTO  H133 3109   4.877   0.057   0.175
    8CHTO   C75 3110   4.990   0.166   0.469
    8CHTO  H147 3111   5.090   0.205   0.497
    8CHTO   N13 3112   4.900   0.282   0.489
    8CHTO  H139 3113   4.798   0.254   0.464
    8CHTO  H140 3114   4.902   0.315   0.592
    8CHTO   C76 3115   4.958   0.047   0.572
    8CHTO  H148 3116   4.853   0.019   0.561
    8CHTO   O49 3117   5.042   9.929   0.548
    8CHTO   C77 3118   5.039   9.881   0.412
    8CHTO  H149 3119   4.937   9.855   0.384
    8CHTO   C88 3120   5.120   9.751   0.405
    8CHTO   O58 3121   5.111   9.688   0.269
    8CHTO  H136 3122   5.154   9.742   0.206
    8CHTO   O51 3123   4.994   0.097   0.723
    8CHTO   C78 3124   4.993   9.988   0.840
    8CHTO  H150 3125   5.029   9.889   0.803
    8CHTO   C80 3126   4.851   9.971   0.897
    8CHTO  H152 3127   4.809   0.073   0.917
    8CHTO   O55 3128   4.769   9.911   0.795
    8CHTO  H134 3129   4.798   9.823   0.777
    8CHTO   C84 3130   4.849   9.887   1.031
    8CHTO  H156 3131   4.876   9.784   1.006
    8CHTO   N15 3132   4.711   9.880   1.094
    8CHTO  H143 3133   4.640   9.935   1.036
    8CHTO  H144 3134   4.712   9.919   1.194
    8CHTO   C87 3135   4.955   9.944   1.129
    8CHTO  H159 3136   4.926   0.045   1.158
    8CHTO   O53 3137   5.090   9.946   1.060
    8CHTO   C82 3138   5.091   0.036   0.948
    8CHTO  H154 3139   5.066   0.137   0.981
    8CHTO   C89 3140   5.235   0.043   0.891
    8CHTO   O59 3141   5.324   0.104   0.985
    8CHTO  H137 3142   5.411   0.105   0.950
    8CHTO   O45 3143   4.969   9.856   1.269
    8CHTO   C67 3144   5.031   9.726   1.263
    8CHTO  H124 3145   5.002   9.677   1.170
    8CHTO   C65 3146   5.188   9.736   1.268
    8CHTO  H122 3147   5.212   9.840   1.291
    8CHTO   O44 3148   5.237   9.705   1.137
    8CHTO  H102 3149   5.329   9.722   1.132
    8CHTO   C63 3150   5.250   9.652   1.387
    8CHTO  H120 3151   5.218   9.698   1.481
    8CHTO   N11 3152   5.399   9.658   1.401
    8CHTO  H108 3153   5.430   9.611   1.493
    8CHTO  H109 3154   5.446   9.608   1.319
    8CHTO   C61 3155   5.190   9.507   1.385
    8CHTO  H118 3156   5.221   9.458   1.478
    8CHTO   O40 3157   5.043   9.506   1.385
    8CHTO   C68 3158   4.974   9.635   1.380
    8CHTO  H125 3159   4.991   9.687   1.476
    8CHTO   C72 3160   4.822   9.611   1.367
    8CHTO   O48 3161   4.783   9.544   1.247
    8CHTO  H105 3162   4.799   9.600   1.173
    8CHTO   O38 3163   5.234   9.430   1.271
    8CHTO   C55 3164   5.214   9.288   1.281
    8CHTO  H112 3165   5.141   9.265   1.361
    8CHTO   C56 3166   5.351   9.212   1.304
    8CHTO  H113 3167   5.414   9.229   1.215
    8CHTO   O42 3168   5.422   9.269   1.416
    8CHTO  H100 3169   5.372   9.259   1.495
    8CHTO   C57 3170   5.322   9.058   1.323
    8CHTO  H114 3171   5.265   9.048   1.415
    8CHTO   N10 3172   5.444   8.974   1.340
    8CHTO  H106 3173   5.427   8.873   1.304
    8CHTO  H107 3174   5.527   9.017   1.285
    8CHTO   C58 3175   5.235   9.004   1.205
    8CHTO  H115 3176   5.300   8.990   1.115
    8CHTO   O37 3177   5.126   9.090   1.170
    8CHTO   C59 3178   5.152   9.230   1.151
    8CHTO  H116 3179   5.219   9.244   1.067
    8CHTO   C70 3180   5.018   9.298   1.116
    8CHTO   O46 3181   4.915   9.276   1.213
    8CHTO  H103 3182   4.837   9.318   1.185
    8CHTO   O39 3183   5.168   8.852   1.252
    8CHTO   C60 3184   5.028   8.856   1.287
    8CHTO  H117 3185   5.003   8.954   1.328
    8CHTO   C62 3186   4.938   8.832   1.162
    8CHTO  H119 3187   4.966   8.911   1.089
    8CHTO   O43 3188   4.969   8.705   1.102
    8CHTO  H101 3189   4.948   8.635   1.160
    8CHTO   C66 3190   4.784   8.849   1.203
    8CHTO  H123 3191   4.771   8.947   1.249
    8CHTO   N12 3192   4.694   8.847   1.085
    8CHTO  H110 3193   4.705   8.754   1.032
    8CHTO  H111 3194   4.716   8.931   1.021
    8CHTO   C69 3195   4.747   8.742   1.309
    8CHTO  H126 3196   4.756   8.640   1.266
    8CHTO   O41 3197   4.844   8.755   1.434
    8CHTO   C64 3198   4.995   8.752   1.398
    8CHTO  H121 3199   5.023   8.651   1.362
    8CHTO   C71 3200   5.078   8.778   1.527
    8CHTO   O47 3201   5.042   8.902   1.588
    8CHTO  H104 3202   5.095   8.915   1.665
    8CHTO   O34 3203   4.599   8.762   1.359
    8CHTO   C49 3204   4.522   8.841   1.465
    8CHTO   H91 3205   4.540   8.791   1.560
    8CHTO   C47 3206   4.372   8.836   1.430
    8CHTO   H89 3207   4.318   8.884   1.514
    8CHTO   O33 3208   4.331   8.698   1.421
    8CHTO   H70 3209   4.335   8.658   1.506
    8CHTO   C45 3210   4.350   8.921   1.295
    8CHTO   H87 3211   4.420   8.883   1.219
    8CHTO    N8 3212   4.212   8.907   1.240
    8CHTO   H75 3213   4.141   8.948   1.310
    8CHTO   H76 3214   4.190   8.803   1.222
    8CHTO   C43 3215   4.394   9.075   1.319
    8CHTO   H85 3216   4.387   9.124   1.222
    8CHTO   O29 3217   4.529   9.080   1.372
    8CHTO   C50 3218   4.569   8.989   1.476
    8CHTO   H92 3219   4.679   8.986   1.473
    8CHTO   C54 3220   4.539   9.044   1.618
    8CHTO   O36 3221   4.626   9.154   1.650
    8CHTO   H72 3222   4.606   9.185   1.736
    8CHTO   O27 3223   4.303   9.147   1.406
    8CHTO   C37 3224   4.245   9.275   1.435
    8CHTO   H79 3225   4.188   9.267   1.528
    8CHTO   C38 3226   4.353   9.385   1.458
    8CHTO   H80 3227   4.424   9.383   1.373
    8CHTO   O31 3228   4.425   9.351   1.578
    8CHTO   H68 3229   4.478   9.275   1.564
    8CHTO   C39 3230   4.292   9.530   1.472
    8CHTO   H81 3231   4.239   9.535   1.567
    8CHTO    N7 3232   4.396   9.639   1.476
    8CHTO   H73 3233   4.349   9.735   1.489
    8CHTO   H74 3234   4.455   9.638   1.385
    8CHTO   C40 3235   4.186   9.558   1.359
    8CHTO   H82 3236   4.235   9.572   1.263
    8CHTO   O26 3237   4.091   9.451   1.355
    8CHTO   C41 3238   4.149   9.321   1.322
    8CHTO   H83 3239   4.204   9.328   1.227
    8CHTO   C52 3240   4.032   9.222   1.301
    8CHTO   O35 3241   3.945   9.261   1.189
    8CHTO   H71 3242   3.899   9.339   1.211
    8CHTO   O28 3243   4.105   9.675   1.388
    8CHTO   C42 3244   4.045   9.756   1.282
    8CHTO   H84 3245   3.976   9.822   1.337
    8CHTO   C44 3246   3.957   9.681   1.177
    8CHTO   H86 3247   4.017   9.602   1.131
    8CHTO   O32 3248   3.850   9.618   1.252
    8CHTO   H69 3249   3.799   9.563   1.195
    8CHTO   C48 3250   3.903   9.776   1.062
    8CHTO   H90 3251   3.833   9.848   1.106
    8CHTO    N9 3252   3.823   9.700   0.959
    8CHTO   H77 3253   3.788   9.767   0.883
    8CHTO   H78 3254   3.740   9.650   1.007
    8CHTO   C51 3255   4.024   9.854   0.999
    8CHTO   H93 3256   4.095   9.780   0.961
    8CHTO   O30 3257   4.082   9.934   1.103
    8CHTO   C46 3258   4.149   9.849   1.212
    8CHTO   H88 3259   4.226   9.787   1.165
    8CHTO   C53 3260   4.217   9.947   1.312
    8CHTO   O72 3261   4.124   0.037   1.373
    8CHTO  H199 3262   4.090   0.096   1.308
    8CHTO   O22 3263   3.987   9.947   0.896
    8CHTO   C31 3264   4.082   9.988   0.790
    8CHTO   H59 3265   4.031   0.068   0.732
    8CHTO   C29 3266   4.215   0.048   0.842
    8CHTO   H57 3267   4.260   9.973   0.910
    8CHTO   O21 3268   4.183   0.162   0.924
    8CHTO   H37 3269   4.148   0.232   0.872
    8CHTO   C27 3270   4.318   0.082   0.727
    8CHTO   H55 3271   4.277   0.165   0.667
    8CHTO    N5 3272   4.451   0.123   0.779
    8CHTO   H43 3273   4.495   0.042   0.837
    8CHTO   H44 3274   4.441   0.211   0.840
    8CHTO   C25 3275   4.331   9.959   0.630
    8CHTO   H53 3276   4.376   9.875   0.685
    8CHTO   O17 3277   4.200   9.919   0.582
    8CHTO   C32 3278   4.112   9.874   0.687
    8CHTO   H60 3279   4.158   9.790   0.739
    8CHTO   C36 3280   3.982   9.820   0.620
    8CHTO   O25 3281   3.917   9.918   0.538
    8CHTO   H40 3282   3.882   9.986   0.592
    8CHTO   O15 3283   4.424   9.993   0.501
    8CHTO   C19 3284   4.454   9.917   0.380
    8CHTO   H47 3285   4.382   9.834   0.381
    8CHTO   C20 3286   4.434   9.999   0.249
    8CHTO   H48 3287   4.498   0.088   0.247
    8CHTO   O19 3288   4.297   0.043   0.248
    8CHTO   H35 3289   4.283   0.108   0.314
    8CHTO   C21 3290   4.466   9.913   0.120
    8CHTO   H49 3291   4.389   9.836   0.111
    8CHTO    N4 3292   4.460   9.993   2.855
    8CHTO   H41 3293   4.479   9.929   2.769
    8CHTO   H42 3294   4.534   0.071   2.857
    8CHTO   C22 3295   4.602   9.837   0.137
    8CHTO   H50 3296   4.683   9.910   0.129
    8CHTO   O14 3297   4.609   9.768   0.263
    8CHTO   C23 3298   4.595   9.853   0.378
    8CHTO   H51 3299   4.675   9.930   0.373
    8CHTO   C34 3300   4.620   9.770   0.504
    8CHTO   O23 3301   4.757   9.730   0.514
    8CHTO   H38 3302   4.769   9.682   0.594
    8CHTO   O16 3303   4.614   9.737   0.033
    8CHTO   C24 3304   4.747   9.642   0.025
    8CHTO   H52 3305   4.781   9.612   0.123
    8CHTO   C26 3306   4.859   9.718   2.810
    8CHTO   H54 3307   4.815   9.768   2.721
    8CHTO   O20 3308   4.908   9.823   0.037
    8CHTO   H36 3309   4.948   9.786   0.114
    8CHTO   C30 3310   4.974   9.624   2.762
    8CHTO   H58 3311   5.030   9.586   2.849
    8CHTO    N6 3312   5.072   9.697   2.677
    8CHTO   H45 3313   5.023   9.740   2.591
    8CHTO   H46 3314   5.119   9.775   2.734
    8CHTO   C33 3315   4.916   9.498   2.690
    8CHTO   H61 3316   4.863   9.529   2.598
    8CHTO   O18 3317   4.821   9.435   2.778
    8CHTO   C28 3318   4.705   9.513   2.809
    8CHTO   H56 3319   4.652   9.541   2.717
    8CHTO   C35 3320   4.611   9.425   0.035
    8CHTO   O24 3321   4.488   9.487   0.072
    8CHTO   H39 3322   4.435   9.501   2.856
    8CHTO    O9 3323   5.018   9.406   2.646
    8CHTO   C13 3324   4.963   9.286   2.544
    8CHTO   H26 3325   4.862   9.314   2.511
    8CHTO   C11 3326   4.964   9.146   2.621
    8CHTO   H24 3327   4.876   9.142   2.687
    8CHTO    O8 3328   5.083   9.133   2.701
    8CHTO    H3 3329   5.083   9.199   2.769
    8CHTO    C9 3330   4.956   9.032   2.515
    8CHTO   H22 3331   4.870   9.058   2.450
    8CHTO    N2 3332   4.920   8.899   2.571
    8CHTO   H10 3333   4.828   8.906   2.628
    8CHTO   H11 3334   5.000   8.863   2.634
    8CHTO    C7 3335   5.088   9.034   2.428
    8CHTO   H20 3336   5.056   8.999   2.328
    8CHTO    O4 3337   5.146   9.166   2.417
    8CHTO   C14 3338   5.050   9.274   2.410
    8CHTO   H27 3339   4.980   9.251   2.327
    8CHTO   C18 3340   5.122   9.406   2.374
    8CHTO   O13 3341   5.179   9.400   2.243
    8CHTO    H7 3342   5.111   9.396   2.178
    8CHTO    O2 3343   5.207   8.924   2.489
    8CHTO    C1 3344   5.345   8.961   2.497
    8CHTO   H14 3345   5.354   9.068   2.526
    8CHTO    C2 3346   5.424   8.940   2.361
    8CHTO   H15 3347   5.398   8.839   2.326
    8CHTO    O6 3348   5.379   9.037   2.264
    8CHTO    H1 3349   5.290   9.019   2.240
    8CHTO    C3 3350   5.584   8.950   2.382
    8CHTO   H16 3351   5.610   9.054   2.405
    8CHTO    N1 3352   5.661   8.912   2.258
    8CHTO    H8 3353   5.595   8.884   2.178
    8CHTO    H9 3354   5.729   8.830   2.278
    8CHTO    C4 3355   5.627   8.866   2.509
    8CHTO   H17 3356   5.611   8.760   2.489
    8CHTO    O1 3357   5.551   8.908   2.623
    8CHTO    C5 3358   5.411   8.878   2.610
    8CHTO   H18 3359   5.401   8.772   2.583
    8CHTO   C16 3360   5.343   8.899   2.748
    8CHTO   O11 3361   5.358   9.032   2.798
    8CHTO    H5 3362   5.448   9.048   2.822
    8CHTO    O3 3363   5.765   8.889   2.543
    8CHTO    C6 3364   5.824   8.796   2.641
    8CHTO   H19 3365   5.750   8.751   2.706
    8CHTO    C8 3366   5.902   8.681   2.569
    8CHTO   H21 3367   5.967   8.726   2.493
    8CHTO    O7 3368   5.804   8.597   2.504
    8CHTO    H2 3369   5.750   8.554   2.568
    8CHTO   C12 3370   5.992   8.600   2.670
    8CHTO   H25 3371   5.922   8.546   2.738
    8CHTO    N3 3372   6.074   8.495   2.600
    8CHTO   H12 3373   6.141   8.541   2.529
    8CHTO   H13 3374   6.129   8.436   2.672
    8CHTO   C15 3375   6.078   8.700   2.756
    8CHTO   H28 3376   6.152   8.752   2.694
    8CHTO   O10 3377   6.150   8.631   0.014
    8CHTO    H4 3378   6.211   8.691   0.054
    8CHTO    O5 3379   5.993   8.794   2.823
    8CHTO   C10 3380   5.920   8.879   2.732
    8CHTO   H23 3381   5.991   8.934   2.671
    8CHTO   C17 3382   5.840   8.980   2.815
    8CHTO   O12 3383   5.925   9.074   0.022
    8CHTO    H6 3384   5.873   9.134   0.072
    9CHTO  H203 3385   7.814   4.196   0.577
    9CHTO   O82 3386   7.896   4.243   0.578
    9CHTO  C123 3387   8.004   4.153   0.545
    9CHTO  H227 3388   7.985   4.112   0.445
    9CHTO   O77 3389   8.119   4.243   0.542
    9CHTO  C118 3390   8.243   4.181   0.504
    9CHTO  H222 3391   8.234   4.138   0.403
    9CHTO  C125 3392   8.354   4.293   0.502
    9CHTO   O84 3393   8.328   4.391   0.401
    9CHTO  H205 3394   8.339   4.353   0.316
    9CHTO  C114 3395   8.279   4.069   0.604
    9CHTO  H218 3396   8.291   4.115   0.703
    9CHTO  C116 3397   8.163   3.966   0.619
    9CHTO  H220 3398   8.151   3.909   0.524
    9CHTO   O79 3399   8.199   3.871   0.720
    9CHTO  H201 3400   8.272   3.819   0.692
    9CHTO  C120 3401   8.027   4.040   0.652
    9CHTO  H224 3402   8.040   4.086   0.753
    9CHTO   N21 3403   7.912   3.947   0.659
    9CHTO  H211 3404   7.901   3.908   0.760
    9CHTO  H212 3405   7.923   3.866   0.589
    9CHTO   O75 3406   8.407   4.016   0.563
    9CHTO  C112 3407   8.407   3.912   0.432
    9CHTO  H216 3408   8.334   3.947   0.358
    9CHTO   O73 3409   8.373   3.781   0.481
    9CHTO  C113 3410   8.361   3.681   0.378
    9CHTO  H217 3411   8.283   3.714   0.306
    9CHTO  C124 3412   8.312   3.550   0.441
    9CHTO   O83 3413   8.400   3.497   0.541
    9CHTO  H204 3414   8.400   3.553   0.616
    9CHTO  C109 3415   8.496   3.663   0.304
    9CHTO  H213 3416   8.568   3.622   0.377
    9CHTO  C110 3417   8.547   3.800   0.250
    9CHTO  H214 3418   8.479   3.834   0.171
    9CHTO   O78 3419   8.677   3.780   0.191
    9CHTO  H200 3420   8.707   3.860   0.151
    9CHTO  C111 3421   8.549   3.905   0.365
    9CHTO  H215 3422   8.622   3.872   0.441
    9CHTO   N19 3423   8.593   4.040   0.320
    9CHTO  H207 3424   8.596   4.108   0.405
    9CHTO  H208 3425   8.525   4.079   0.245
    9CHTO   O74 3426   8.478   3.566   0.196
    9CHTO  C115 3427   8.602   3.475   0.171
    9CHTO  H219 3428   8.693   3.518   0.215
    9CHTO   O76 3429   8.585   3.329   0.241
    9CHTO  C122 3430   8.481   3.249   0.182
    9CHTO  H226 3431   8.386   3.301   0.199
    9CHTO  C126 3432   8.470   3.113   0.259
    9CHTO   O85 3433   8.591   3.036   0.254
    9CHTO  H206 3434   8.579   2.956   0.302
    9CHTO  C121 3435   8.505   3.231   0.027
    9CHTO  H225 3436   8.604   3.183   0.012
    9CHTO   O81 3437   8.406   3.146   2.829
    9CHTO  H202 3438   8.428   3.127   2.739
    9CHTO  C119 3439   8.506   3.372   2.821
    9CHTO  H223 3440   8.523   3.357   2.714
    9CHTO  C117 3441   8.621   3.466   0.016
    9CHTO  H221 3442   8.616   3.569   2.842
    9CHTO   N20 3443   8.760   3.420   2.840
    9CHTO  H209 3444   8.756   3.326   2.786
    9CHTO  H210 3445   8.810   3.495   2.781
    9CHTO   O80 3446   8.360   3.441   2.821
    9CHTO  C103 3447   8.316   3.540   2.703
    9CHTO  H190 3448   8.222   3.588   2.729
    9CHTO  C101 3449   8.419   3.652   2.664
    9CHTO  H188 3450   8.517   3.607   2.647
    9CHTO   O68 3451   8.430   3.752   2.783
    9CHTO  H168 3452   8.348   3.796   2.797
    9CHTO   C99 3453   8.376   3.727   2.529
    9CHTO  H186 3454   8.282   3.783   2.547
    9CHTO   N17 3455   8.476   3.827   2.479
    9CHTO  H174 3456   8.567   3.823   2.538
    9CHTO  H175 3457   8.434   3.926   2.481
    9CHTO   C97 3458   8.340   3.622   2.419
    9CHTO  H184 3459   8.433   3.572   2.387
    9CHTO   O64 3460   8.242   3.529   2.468
    9CHTO  C104 3461   8.289   3.448   2.577
    9CHTO  H191 3462   8.381   3.396   2.550
    9CHTO  C108 3463   8.186   3.338   2.607
    9CHTO   O71 3464   8.057   3.390   2.643
    9CHTO  H171 3465   8.062   3.432   2.727
    9CHTO   O62 3466   8.279   3.686   2.305
    9CHTO   C91 3467   8.254   3.606   2.188
    9CHTO  H178 3468   8.317   3.516   2.193
    9CHTO   C92 3469   8.303   3.686   2.062
    9CHTO  H179 3470   8.409   3.714   2.075
    9CHTO   O66 3471   8.300   3.599   1.948
    9CHTO  H166 3472   8.365   3.531   1.957
    9CHTO   C93 3473   8.211   3.811   2.031
    9CHTO  H180 3474   8.213   3.827   1.922
    9CHTO   N16 3475   8.263   3.937   2.089
    9CHTO  H172 3476   8.361   3.960   2.048
    9CHTO  H173 3477   8.268   3.929   2.197
    9CHTO   C94 3478   8.063   3.784   2.076
    9CHTO  H181 3479   8.045   3.815   2.179
    9CHTO   O61 3480   8.033   3.643   2.070
    9CHTO   C95 3481   8.101   3.565   2.170
    9CHTO  H182 3482   8.051   3.579   2.266
    9CHTO  C106 3483   8.086   3.413   2.135
    9CHTO   O69 3484   7.949   3.371   2.137
    9CHTO  H169 3485   7.904   3.410   2.064
    9CHTO   O63 3486   7.965   3.858   1.980
    9CHTO   C96 3487   7.825   3.884   2.046
    9CHTO  H183 3488   7.827   3.849   2.150
    9CHTO   C98 3489   7.708   3.810   1.974
    9CHTO  H185 3490   7.714   3.829   1.866
    9CHTO   O67 3491   7.729   3.669   1.990
    9CHTO  H167 3492   7.724   3.644   2.080
    9CHTO  C102 3493   7.563   3.854   2.031
    9CHTO  H189 3494   7.558   3.815   2.134
    9CHTO   N18 3495   7.447   3.795   1.959
    9CHTO  H176 3496   7.355   3.828   2.005
    9CHTO  H177 3497   7.453   3.688   1.962
    9CHTO  C105 3498   7.558   4.010   2.037
    9CHTO  H192 3499   7.560   4.049   1.935
    9CHTO   O65 3500   7.669   4.064   2.109
    9CHTO  C100 3501   7.797   4.038   2.049
    9CHTO  H187 3502   7.796   4.076   1.945
    9CHTO  C107 3503   7.905   4.115   2.128
    9CHTO   O70 3504   7.885   4.257   2.118
    9CHTO  H170 3505   7.951   4.301   2.167
    9CHTO   O57 3506   7.419   4.055   2.112
    9CHTO   C85 3507   7.368   4.186   2.081
    9CHTO  H157 3508   7.377   4.196   1.971
    9CHTO   C83 3509   7.459   4.297   2.142
    9CHTO  H155 3510   7.559   4.286   2.100
    9CHTO   O56 3511   7.473   4.276   2.284
    9CHTO  H135 3512   7.517   4.195   2.301
    9CHTO   C81 3513   7.403   4.436   2.103
    9CHTO  H153 3514   7.399   4.441   1.994
    9CHTO   N14 3515   7.495   4.547   2.139
    9CHTO  H141 3516   7.457   4.640   2.102
    9CHTO  H142 3517   7.592   4.530   2.097
    9CHTO   C79 3518   7.256   4.454   2.158
    9CHTO  H151 3519   7.218   4.548   2.118
    9CHTO   O52 3520   7.170   4.347   2.107
    9CHTO   C86 3521   7.220   4.211   2.130
    9CHTO  H158 3522   7.210   4.195   2.240
    9CHTO   C90 3523   7.125   4.108   2.064
    9CHTO   O60 3524   6.994   4.113   2.123
    9CHTO  H138 3525   6.939   4.051   2.081
    9CHTO   O50 3526   7.248   4.460   2.301
    9CHTO   C73 3527   7.181   4.499   2.423
    9CHTO  H145 3528   7.076   4.468   2.420
    9CHTO   C74 3529   7.187   4.654   2.444
    9CHTO  H146 3530   7.136   4.700   2.358
    9CHTO   O54 3531   7.108   4.688   2.559
    9CHTO  H133 3532   7.145   4.651   2.637
    9CHTO   C75 3533   7.338   4.700   2.454
    9CHTO  H147 3534   7.385   4.683   2.356
    9CHTO   N13 3535   7.359   4.844   2.480
    9CHTO  H139 3536   7.416   4.889   2.400
    9CHTO  H140 3537   7.265   4.896   2.488
    9CHTO   C76 3538   7.419   4.609   2.560
    9CHTO  H148 3539   7.394   4.643   2.661
    9CHTO   O49 3540   7.390   4.466   2.547
    9CHTO   C77 3541   7.251   4.430   2.544
    9CHTO  H149 3542   7.202   4.461   2.636
    9CHTO   C88 3543   7.241   4.277   2.539
    9CHTO   O58 3544   7.101   4.233   2.546
    9CHTO  H136 3545   7.066   4.251   2.631
    9CHTO   O51 3546   7.575   4.618   2.527
    9CHTO   C78 3547   7.667   4.579   2.647
    9CHTO  H150 3548   7.608   4.539   2.733
    9CHTO   C80 3549   7.744   4.704   2.694
    9CHTO  H152 3550   7.794   4.751   2.605
    9CHTO   O55 3551   7.646   4.797   2.743
    9CHTO  H134 3552   7.687   4.878   2.767
    9CHTO   C84 3553   7.853   4.670   2.803
    9CHTO  H156 3554   7.800   4.639   0.034
    9CHTO   N15 3555   7.936   4.791   2.841
    9CHTO  H143 3556   8.006   4.764   0.057
    9CHTO  H144 3557   7.989   4.827   2.755
    9CHTO   C87 3558   7.942   4.552   2.757
    9CHTO  H159 3559   8.005   4.582   2.674
    9CHTO   O53 3560   7.849   4.434   2.713
    9CHTO   C82 3561   7.765   4.469   2.603
    9CHTO  H154 3562   7.825   4.503   2.519
    9CHTO   C89 3563   7.690   4.342   2.555
    9CHTO   O59 3564   7.780   4.246   2.501
    9CHTO  H137 3565   7.732   4.170   2.473
    9CHTO   O45 3566   8.039   4.503   0.020
    9CHTO   C67 3567   8.081   4.365   0.021
    9CHTO  H124 3568   8.016   4.305   2.817
    9CHTO   C65 3569   8.228   4.350   2.830
    9CHTO  H122 3570   8.277   4.446   2.848
    9CHTO   O44 3571   8.220   4.329   2.687
    9CHTO  H102 3572   8.187   4.406   2.645
    9CHTO   C63 3573   8.312   4.246   0.054
    9CHTO  H120 3574   8.342   4.293   0.148
    9CHTO   N11 3575   8.447   4.209   2.858
    9CHTO  H108 3576   8.434   4.151   2.769
    9CHTO  H109 3577   8.502   4.298   2.835
    9CHTO   C61 3578   8.222   4.123   0.096
    9CHTO  H118 3579   8.283   4.063   0.165
    9CHTO   O40 3580   8.104   4.166   0.171
    9CHTO   C68 3581   8.063   4.306   0.166
    9CHTO  H125 3582   8.126   4.363   0.237
    9CHTO   C72 3583   7.917   4.318   0.215
    9CHTO   O48 3584   7.824   4.247   0.131
    9CHTO  H105 3585   7.737   4.259   0.163
    9CHTO   O38 3586   8.188   4.040   2.843
    9CHTO   C55 3587   8.060   3.974   2.833
    9CHTO  H112 3588   7.980   4.047   2.850
    9CHTO   C56 3589   8.048   3.849   0.071
    9CHTO  H113 3590   8.135   3.783   0.051
    9CHTO   O42 3591   8.061   3.891   0.208
    9CHTO  H100 3592   8.061   3.817   0.265
    9CHTO   C57 3593   7.912   3.772   0.046
    9CHTO  H114 3594   7.832   3.839   0.075
    9CHTO   N10 3595   7.899   3.649   0.127
    9CHTO  H106 3596   7.941   3.564   0.076
    9CHTO  H107 3597   7.795   3.629   0.147
    9CHTO   C58 3598   7.898   3.741   2.754
    9CHTO  H115 3599   7.976   3.667   2.723
    9CHTO   O37 3600   7.911   3.861   2.676
    9CHTO   C59 3601   8.040   3.923   2.687
    9CHTO  H116 3602   8.118   3.852   2.661
    9CHTO   C70 3603   8.047   4.039   2.587
    9CHTO   O46 3604   8.039   3.995   2.451
    9CHTO  H103 3605   7.953   3.962   2.433
    9CHTO   O39 3606   7.749   3.686   2.717
    9CHTO   C60 3607   7.740   3.546   2.687
    9CHTO  H117 3608   7.836   3.497   2.707
    9CHTO   C62 3609   7.633   3.478   2.777
    9CHTO  H119 3610   7.662   3.499   0.022
    9CHTO   O43 3611   7.504   3.540   2.755
    9CHTO  H101 3612   7.475   3.525   2.667
    9CHTO   C66 3613   7.635   3.320   2.751
    9CHTO  H123 3614   7.736   3.284   2.768
    9CHTO   N12 3615   7.549   3.246   2.847
    9CHTO  H110 3616   7.583   3.262   0.088
    9CHTO  H111 3617   7.446   3.277   2.836
    9CHTO   C69 3618   7.599   3.292   2.603
    9CHTO  H126 3619   7.494   3.323   2.583
    9CHTO   O41 3620   7.698   3.373   2.507
    9CHTO   C64 3621   7.707   3.522   2.537
    9CHTO  H121 3622   7.610   3.571   2.514
    9CHTO   C71 3623   7.815   3.584   2.445
    9CHTO   O47 3624   7.776   3.577   2.308
    9CHTO  H104 3625   7.704   3.635   2.291
    9CHTO   O34 3626   7.611   3.138   2.570
    9CHTO   C49 3627   7.701   3.058   2.474
    9CHTO   H91 3628   7.675   3.089   2.373
    9CHTO   C47 3629   7.670   2.908   2.494
    9CHTO   H89 3630   7.729   2.856   2.415
    9CHTO   O33 3631   7.531   2.881   2.472
    9CHTO   H70 3632   7.508   2.898   2.382
    9CHTO   C45 3633   7.714   2.858   2.642
    9CHTO   H87 3634   7.627   2.868   2.709
    9CHTO    N8 3635   7.752   2.715   2.636
    9CHTO   H75 3636   7.671   2.656   2.595
    9CHTO   H76 3637   7.840   2.702   2.574
    9CHTO   C43 3638   7.825   2.958   2.705
    9CHTO   H85 3639   7.768   3.041   2.745
    9CHTO   O29 3640   7.916   3.001   2.602
    9CHTO   C50 3641   7.854   3.080   2.498
    9CHTO   H92 3642   7.870   3.186   2.523
    9CHTO   C54 3643   7.933   3.061   2.366
    9CHTO   O36 3644   8.068   3.108   2.377
    9CHTO   H72 3645   8.068   3.201   2.384
    9CHTO   O27 3646   7.895   2.904   2.818
    9CHTO   C37 3647   7.937   2.961   0.083
    9CHTO   H79 3648   8.012   2.896   0.131
    9CHTO   C38 3649   8.004   3.100   0.064
    9CHTO   H80 3650   7.937   3.164   0.004
    9CHTO   O31 3651   8.125   3.079   2.848
    9CHTO   H68 3652   8.187   3.029   0.037
    9CHTO   C39 3653   8.033   3.171   0.202
    9CHTO   H81 3654   8.108   3.113   0.255
    9CHTO    N7 3655   8.087   3.310   0.187
    9CHTO   H73 3656   8.181   3.308   0.134
    9CHTO   H74 3657   8.016   3.372   0.134
    9CHTO   C40 3658   7.902   3.170   0.290
    9CHTO   H82 3659   7.827   3.235   0.244
    9CHTO   O26 3660   7.854   3.035   0.304
    9CHTO   C41 3661   7.814   2.974   0.178
    9CHTO   H83 3662   7.737   3.036   0.130
    9CHTO   C52 3663   7.750   2.836   0.210
    9CHTO   O35 3664   7.844   2.743   0.281
    9CHTO   H71 3665   7.801   2.661   0.296
    9CHTO   O28 3666   7.923   3.212   0.427
    9CHTO   C42 3667   7.817   3.285   0.497
    9CHTO   H84 3668   7.847   3.277   0.601
    9CHTO   C44 3669   7.673   3.222   0.488
    9CHTO   H86 3670   7.652   3.198   0.383
    9CHTO   O32 3671   7.677   3.098   0.561
    9CHTO   H69 3672   7.596   3.052   0.551
    9CHTO   C48 3673   7.558   3.319   0.538
    9CHTO   H90 3674   7.569   3.333   0.645
    9CHTO    N9 3675   7.421   3.260   0.516
    9CHTO   H77 3676   7.362   3.322   0.450
    9CHTO   H78 3677   7.371   3.247   0.611
    9CHTO   C51 3678   7.580   3.457   0.466
    9CHTO   H93 3679   7.585   3.437   0.358
    9CHTO   O30 3680   7.704   3.509   0.516
    9CHTO   C46 3681   7.820   3.437   0.460
    9CHTO   H88 3682   7.819   3.448   0.351
    9CHTO   C53 3683   7.947   3.504   0.517
    9CHTO   O72 3684   7.958   3.640   0.474
    9CHTO  H199 3685   8.036   3.678   0.511
    9CHTO   O22 3686   7.481   3.557   0.494
    9CHTO   C31 3687   7.464   3.675   0.406
    9CHTO   H59 3688   7.373   3.726   0.441
    9CHTO   C29 3689   7.579   3.778   0.413
    9CHTO   H57 3690   7.672   3.727   0.383
    9CHTO   O21 3691   7.596   3.817   0.551
    9CHTO   H37 3692   7.625   3.744   0.602
    9CHTO   C27 3693   7.554   3.902   0.319
    9CHTO   H55 3694   7.468   3.959   0.358
    9CHTO    N5 3695   7.672   3.993   0.313
    9CHTO   H43 3696   7.756   3.943   0.269
    9CHTO   H44 3697   7.647   4.082   0.257
    9CHTO   C25 3698   7.514   3.853   0.175
    9CHTO   H53 3699   7.601   3.805   0.127
    9CHTO   O17 3700   7.405   3.756   0.181
    9CHTO   C32 3701   7.438   3.638   0.256
    9CHTO   H60 3702   7.528   3.593   0.214
    9CHTO   C36 3703   7.321   3.537   0.244
    9CHTO   O25 3704   7.309   3.487   0.111
    9CHTO   H40 3705   7.382   3.433   0.090
    9CHTO   O15 3706   7.467   3.976   0.085
    9CHTO   C19 3707   7.423   3.985   2.806
    9CHTO   H47 3708   7.407   4.093   2.790
    9CHTO   C20 3709   7.529   3.936   2.702
    9CHTO   H48 3710   7.556   3.831   2.719
    9CHTO   O19 3711   7.646   4.017   2.721
    9CHTO   H35 3712   7.716   3.987   2.666
    9CHTO   C21 3713   7.473   3.947   2.554
    9CHTO   H49 3714   7.455   4.053   2.531
    9CHTO    N4 3715   7.569   3.898   2.451
    9CHTO   H41 3716   7.591   3.794   2.468
    9CHTO   H42 3717   7.527   3.911   2.352
    9CHTO   C22 3718   7.336   3.874   2.548
    9CHTO   H50 3719   7.352   3.768   2.569
    9CHTO   O14 3720   7.246   3.931   2.645
    9CHTO   C23 3721   7.286   3.915   2.781
    9CHTO   H51 3722   7.291   3.807   2.802
    9CHTO   C34 3723   7.176   3.972   0.012
    9CHTO   O23 3724   7.149   4.110   2.846
    9CHTO   H38 3725   7.080   4.140   0.043
    9CHTO   O16 3726   7.269   3.891   2.421
    9CHTO   C24 3727   7.156   3.777   2.396
    9CHTO   H52 3728   7.140   3.715   2.484
    9CHTO   C26 3729   7.200   3.688   2.277
    9CHTO   H54 3730   7.226   3.755   2.191
    9CHTO   O20 3731   7.319   3.617   2.316
    9CHTO   H36 3732   7.391   3.676   2.325
    9CHTO   C30 3733   7.086   3.591   2.231
    9CHTO   H58 3734   7.070   3.513   2.308
    9CHTO    N6 3735   7.123   3.518   2.107
    9CHTO   H45 3736   7.212   3.460   2.123
    9CHTO   H46 3737   7.043   3.452   2.078
    9CHTO   C33 3738   6.951   3.667   2.217
    9CHTO   H61 3739   6.957   3.738   2.132
    9CHTO   O18 3740   6.926   3.741   2.337
    9CHTO   C28 3741   7.021   3.845   2.363
    9CHTO   H56 3742   7.034   3.909   2.276
    9CHTO   C35 3743   6.968   3.930   2.481
    9CHTO   O24 3744   6.848   4.001   2.446
    9CHTO   H39 3745   6.822   4.054   2.518
    9CHTO    O9 3746   6.840   3.580   2.185
    9CHTO   C13 3747   6.713   3.656   2.109
    9CHTO   H26 3748   6.746   3.680   2.006
    9CHTO   C11 3749   6.668   3.788   2.187
    9CHTO   H24 3750   6.751   3.860   2.182
    9CHTO    O8 3751   6.645   3.759   2.326
    9CHTO    H3 3752   6.573   3.699   2.336
    9CHTO    C9 3753   6.546   3.849   2.113
    9CHTO   H22 3754   6.579   3.865   2.010
    9CHTO    N2 3755   6.509   3.984   2.163
    9CHTO   H10 3756   6.430   4.025   2.102
    9CHTO   H11 3757   6.595   4.049   2.160
    9CHTO    C7 3758   6.428   3.745   2.114
    9CHTO   H20 3759   6.349   3.793   2.052
    9CHTO    O4 3760   6.468   3.621   2.053
    9CHTO   C14 3761   6.591   3.556   2.092
    9CHTO   H27 3762   6.616   3.487   2.008
    9CHTO   C18 3763   6.569   3.467   2.218
    9CHTO   O13 3764   6.471   3.365   2.195
    9CHTO    H7 3765   6.504   3.303   2.133
    9CHTO    O2 3766   6.372   3.715   2.265
    9CHTO    C1 3767   6.231   3.690   2.286
    9CHTO   H14 3768   6.223   3.618   2.370
    9CHTO    C2 3769   6.147   3.634   2.164
    9CHTO   H15 3770   6.156   3.706   2.082
    9CHTO    O6 3771   6.203   3.507   2.122
    9CHTO    H1 3772   6.197   3.444   2.192
    9CHTO    C3 3773   5.992   3.617   2.205
    9CHTO   H16 3774   5.986   3.534   2.277
    9CHTO    N1 3775   5.906   3.581   2.088
    9CHTO    H8 3776   5.831   3.657   2.069
    9CHTO    H9 3777   5.857   3.486   2.105
    9CHTO    C4 3778   5.939   3.744   2.283
    9CHTO   H17 3779   5.915   3.823   2.211
    9CHTO    O1 3780   6.030   3.792   2.382
    9CHTO    C5 3781   6.164   3.821   2.337
    9CHTO   H18 3782   6.159   3.891   2.253
    9CHTO   C16 3783   6.240   3.888   2.454
    9CHTO   O11 3784   6.248   3.804   2.570
    9CHTO    H5 3785   6.303   3.730   2.553
    9CHTO    O3 3786   5.822   3.707   2.360
    9CHTO    C6 3787   5.720   3.811   2.381
    9CHTO   H19 3788   5.749   3.908   2.340
    9CHTO    C8 3789   5.588   3.766   2.311
    9CHTO   H21 3790   5.567   3.662   2.340
    9CHTO    O7 3791   5.609   3.773   2.169
    9CHTO    H2 3792   5.669   3.707   2.142
    9CHTO   C12 3793   5.465   3.855   2.357
    9CHTO   H25 3794   5.483   3.957   2.316
    9CHTO    N3 3795   5.335   3.807   2.298
    9CHTO   H12 3796   5.350   3.720   2.235
    9CHTO   H13 3797   5.287   3.886   2.242
    9CHTO   C15 3798   5.462   3.864   2.513
    9CHTO   H28 3799   5.443   3.766   2.558
    9CHTO   O10 3800   5.359   3.966   2.569
    9CHTO    H4 3801   5.372   4.050   2.529
    9CHTO    O5 3802   5.587   3.916   2.562
    9CHTO   C10 3803   5.699   3.830   2.534
    9CHTO   H23 3804   5.680   3.733   2.579
    9CHTO   C17 3805   5.822   3.888   2.606
    9CHTO   O12 3806   5.861   4.017   2.555
    9CHTO    H6 3807   5.796   4.081   2.577
   10CHTO  H203 3808   4.933   5.858   2.274
   10CHTO   O82 3809   4.931   5.936   2.325
   10CHTO  C123 3810   4.796   5.982   2.341
   10CHTO  H227 3811   4.746   5.980   2.242
   10CHTO   O77 3812   4.735   5.883   2.429
   10CHTO  C118 3813   4.594   5.903   2.449
   10CHTO  H222 3814   4.544   5.908   2.350
   10CHTO  C125 3815   4.537   5.779   2.528
   10CHTO   O84 3816   4.597   5.767   2.657
   10CHTO  H205 3817   4.561   5.692   2.701
   10CHTO  C114 3818   4.571   6.036   2.524
   10CHTO  H218 3819   4.617   6.028   2.623
   10CHTO  C116 3820   4.638   6.156   2.450
   10CHTO  H220 3821   4.576   6.181   2.361
   10CHTO   O79 3822   4.632   6.270   2.537
   10CHTO  H201 3823   4.683   6.256   2.614
   10CHTO  C120 3824   4.787   6.125   2.406
   10CHTO  H224 3825   4.848   6.128   2.498
   10CHTO   N21 3826   4.840   6.232   2.317
   10CHTO  H211 3827   4.914   6.192   2.249
   10CHTO  H212 3828   4.882   6.312   2.376
   10CHTO   O75 3829   4.428   6.050   2.535
   10CHTO  C112 3830   4.374   6.094   2.684
   10CHTO  H216 3831   4.455   6.146   2.738
   10CHTO   O73 3832   4.333   5.974   2.751
   10CHTO  C113 3833   4.290   5.993   0.026
   10CHTO  H217 3834   4.373   6.040   0.084
   10CHTO  C124 3835   4.266   5.854   0.084
   10CHTO   O83 3836   4.251   5.853   0.227
   10CHTO  H204 3837   4.234   5.766   0.256
   10CHTO  C109 3838   4.164   6.084   0.031
   10CHTO  H213 3839   4.083   6.028   2.841
   10CHTO  C110 3840   4.192   6.218   2.815
   10CHTO  H214 3841   4.264   6.276   0.013
   10CHTO   O78 3842   4.070   6.295   2.808
   10CHTO  H200 3843   4.045   6.323   0.034
   10CHTO  C111 3844   4.249   6.190   2.672
   10CHTO  H215 3845   4.172   6.139   2.613
   10CHTO   N19 3846   4.285   6.314   2.598
   10CHTO  H207 3847   4.198   6.377   2.587
   10CHTO  H208 3848   4.323   6.288   2.500
   10CHTO   O74 3849   4.126   6.108   0.170
   10CHTO  C115 3850   3.968   6.133   0.196
   10CHTO  H219 3851   3.922   6.186   0.113
   10CHTO   O76 3852   3.889   5.999   0.204
   10CHTO  C122 3853   3.913   5.928   0.326
   10CHTO  H226 3854   4.020   5.909   0.334
   10CHTO  C126 3855   3.846   5.787   0.314
   10CHTO   O85 3856   3.879   5.701   0.423
   10CHTO  H206 3857   3.838   5.618   0.411
   10CHTO  C121 3858   3.860   6.008   0.452
   10CHTO  H225 3859   3.761   5.967   0.481
   10CHTO   O81 3860   3.952   5.985   0.560
   10CHTO  H202 3861   3.917   6.019   0.640
   10CHTO  C119 3862   3.844   6.161   0.424
   10CHTO  H223 3863   3.749   6.170   0.372
   10CHTO  C117 3864   3.956   6.219   0.329
   10CHTO  H221 3865   4.056   6.219   0.372
   10CHTO   N20 3866   3.928   6.363   0.295
   10CHTO  H209 3867   3.921   6.421   0.386
   10CHTO  H210 3868   4.007   6.402   0.232
   10CHTO   O80 3869   3.816   6.248   0.559
   10CHTO  C103 3870   3.667   6.258   0.621
   10CHTO  H190 3871   3.660   6.349   0.681
   10CHTO  C101 3872   3.545   6.257   0.522
   10CHTO  H188 3873   3.547   6.165   0.463
   10CHTO   O68 3874   3.558   6.377   0.426
   10CHTO  H168 3875   3.490   6.375   0.362
   10CHTO   C99 3876   3.408   6.261   0.605
   10CHTO  H186 3877   3.403   6.357   0.660
   10CHTO   N17 3878   3.285   6.255   0.519
   10CHTO  H174 3879   3.289   6.332   0.443
   10CHTO  H175 3880   3.196   6.267   0.580
   10CHTO   C97 3881   3.406   6.150   0.714
   10CHTO  H184 3882   3.389   6.052   0.665
   10CHTO   O64 3883   3.526   6.150   0.792
   10CHTO  C104 3884   3.650   6.137   0.721
   10CHTO  H191 3885   3.655   6.044   0.666
   10CHTO  C108 3886   3.765   6.133   0.823
   10CHTO   O71 3887   3.750   6.021   0.911
   10CHTO  H171 3888   3.821   6.019   0.972
   10CHTO   O62 3889   3.303   6.176   0.812
   10CHTO   C91 3890   3.252   6.063   0.886
   10CHTO  H178 3891   3.244   5.979   0.816
   10CHTO   C92 3892   3.106   6.096   0.930
   10CHTO  H179 3893   3.050   6.141   0.847
   10CHTO   O66 3894   3.039   5.972   0.959
   10CHTO  H166 3895   3.026   5.924   0.880
   10CHTO   C93 3896   3.098   6.186   1.060
   10CHTO  H180 3897   2.996   6.175   1.100
   10CHTO   N16 3898   3.113   6.332   1.033
   10CHTO  H172 3899   3.208   6.351   0.986
   10CHTO  H173 3900   3.032   6.365   0.970
   10CHTO   C94 3901   3.201   6.138   1.171
   10CHTO  H181 3902   3.283   6.209   1.185
   10CHTO   O61 3903   3.263   6.014   1.135
   10CHTO   C95 3904   3.339   6.019   1.013
   10CHTO  H182 3905   3.421   6.090   1.025
   10CHTO  C106 3906   3.405   5.878   0.991
   10CHTO   O69 3907   3.492   5.845   1.099
   10CHTO  H169 3908   3.530   5.761   1.083
   10CHTO   O63 3909   3.125   6.118   1.308
   10CHTO   C96 3910   3.223   6.091   1.432
   10CHTO  H183 3911   3.325   6.115   1.402
   10CHTO   C98 3912   3.221   5.945   1.486
   10CHTO  H185 3913   3.118   5.916   1.508
   10CHTO   O67 3914   3.264   5.858   1.380
   10CHTO  H167 3915   3.353   5.876   1.355
   10CHTO  C102 3916   3.313   5.926   1.616
   10CHTO  H189 3917   3.417   5.932   1.581
   10CHTO   N18 3918   3.300   5.793   1.681
   10CHTO  H176 3919   3.199   5.777   1.715
   10CHTO  H177 3920   3.368   5.785   1.765
   10CHTO  C105 3921   3.290   6.042   1.718
   10CHTO  H192 3922   3.197   6.025   1.772
   10CHTO   O65 3923   3.283   6.173   1.657
   10CHTO  C100 3924   3.186   6.186   1.552
   10CHTO  H187 3925   3.087   6.156   1.591
   10CHTO  C107 3926   3.177   6.334   1.508
   10CHTO   O70 3927   3.124   6.415   1.614
   10CHTO  H170 3928   3.117   6.504   1.584
   10CHTO   O57 3929   3.419   6.035   1.820
   10CHTO   C85 3930   3.402   6.067   1.960
   10CHTO  H157 3931   3.296   6.045   1.984
   10CHTO   C83 3932   3.420   6.221   1.982
   10CHTO  H155 3933   3.342   6.273   1.925
   10CHTO   O56 3934   3.546   6.261   1.925
   10CHTO  H135 3935   3.555   6.355   1.929
   10CHTO   C81 3936   3.404   6.255   2.133
   10CHTO  H153 3937   3.305   6.222   2.164
   10CHTO   N14 3938   3.403   6.401   2.161
   10CHTO  H141 3939   3.429   6.457   2.074
   10CHTO  H142 3940   3.471   6.426   2.240
   10CHTO   C79 3941   3.510   6.175   2.218
   10CHTO  H151 3942   3.487   6.193   2.323
   10CHTO   O52 3943   3.494   6.031   2.196
   10CHTO   C86 3944   3.501   5.990   2.056
   10CHTO  H158 3945   3.607   6.007   2.026
   10CHTO   C90 3946   3.478   5.837   2.045
   10CHTO   O60 3947   3.579   5.764   2.115
   10CHTO  H138 3948   3.564   5.672   2.105
   10CHTO   O50 3949   3.647   6.214   2.195
   10CHTO   C73 3950   3.770   6.170   2.255
   10CHTO  H145 3951   3.777   6.060   2.249
   10CHTO   C74 3952   3.777   6.212   2.405
   10CHTO  H146 3953   3.690   6.168   2.456
   10CHTO   O54 3954   3.893   6.150   2.465
   10CHTO  H133 3955   3.883   6.057   2.467
   10CHTO   C75 3956   3.778   6.370   2.415
   10CHTO  H147 3957   3.684   6.407   2.372
   10CHTO   N13 3958   3.781   6.421   2.554
   10CHTO  H139 3959   3.870   6.388   2.604
   10CHTO  H140 3960   3.780   6.529   2.553
   10CHTO   C76 3961   3.898   6.428   2.325
   10CHTO  H148 3962   3.992   6.397   2.371
   10CHTO   O49 3963   3.890   6.376   2.189
   10CHTO   C77 3964   3.890   6.232   2.179
   10CHTO  H149 3965   3.983   6.193   2.221
   10CHTO   C88 3966   3.891   6.190   2.031
   10CHTO   O58 3967   4.015   6.236   1.962
   10CHTO  H136 3968   4.089   6.188   1.995
   10CHTO   O51 3969   3.884   6.588   2.308
   10CHTO   C78 3970   4.024   6.667   2.320
   10CHTO  H150 3971   4.108   6.598   2.345
   10CHTO   C80 3972   4.013   6.774   2.430
   10CHTO  H152 3973   3.920   6.833   2.414
   10CHTO   O55 3974   3.999   6.705   2.556
   10CHTO  H134 3975   4.076   6.656   2.576
   10CHTO   C84 3976   4.137   6.873   2.432
   10CHTO  H156 3977   4.225   6.816   2.461
   10CHTO   N15 3978   4.122   6.984   2.532
   10CHTO  H143 3979   4.110   6.943   2.630
   10CHTO  H144 3980   4.208   7.047   2.530
   10CHTO   C87 3981   4.160   6.928   2.289
   10CHTO  H159 3982   4.076   6.991   2.258
   10CHTO   O53 3983   4.176   6.809   2.193
   10CHTO   C82 3984   4.056   6.731   2.183
   10CHTO  H154 3985   3.973   6.795   2.152
   10CHTO   C89 3986   4.076   6.626   2.072
   10CHTO   O59 3987   4.184   6.536   2.099
   10CHTO  H137 3988   4.194   6.476   2.028
   10CHTO   O45 3989   4.296   7.015   2.279
   10CHTO   C67 3990   4.321   7.067   2.147
   10CHTO  H124 3991   4.249   7.027   2.075
   10CHTO   C65 3992   4.311   7.223   2.149
   10CHTO  H122 3993   4.218   7.246   2.202
   10CHTO   O44 3994   4.301   7.273   2.014
   10CHTO  H102 3995   4.221   7.244   1.974
   10CHTO   C63 3996   4.428   7.282   2.235
   10CHTO  H120 3997   4.423   7.237   2.335
   10CHTO   N11 3998   4.415   7.427   2.267
   10CHTO  H108 3999   4.491   7.456   2.336
   10CHTO  H109 4000   4.319   7.447   2.310
   10CHTO   C61 4001   4.566   7.237   2.173
   10CHTO  H118 4002   4.643   7.267   2.245
   10CHTO   O40 4003   4.574   7.092   2.161
   10CHTO   C68 4004   4.464   7.017   2.099
   10CHTO  H125 4005   4.474   6.912   2.134
   10CHTO   C72 4006   4.481   7.015   1.945
   10CHTO   O48 4007   4.383   6.934   1.878
   10CHTO  H105 4008   4.395   6.844   1.901
   10CHTO   O38 4009   4.595   7.290   2.042
   10CHTO   C55 4010   4.676   7.405   2.010
   10CHTO  H112 4011   4.747   7.369   1.934
   10CHTO   C56 4012   4.752   7.475   2.132
   10CHTO  H113 4013   4.682   7.481   2.216
   10CHTO   O42 4014   4.860   7.389   2.174
   10CHTO  H100 4015   4.900   7.424   2.252
   10CHTO   C57 4016   4.806   7.620   2.097
   10CHTO  H114 4017   4.894   7.607   2.033
   10CHTO   N10 4018   4.851   7.695   2.218
   10CHTO  H106 4019   4.769   7.750   2.262
   10CHTO  H107 4020   4.894   7.628   2.291
   10CHTO   C58 4021   4.699   7.699   2.019
   10CHTO  H115 4022   4.610   7.717   2.085
   10CHTO   O37 4023   4.658   7.626   1.902
   10CHTO   C59 4024   4.585   7.506   1.934
   10CHTO  H116 4025   4.498   7.532   1.994
   10CHTO   C70 4026   4.532   7.445   1.803
   10CHTO   O46 4027   4.634   7.407   1.709
   10CHTO  H103 4028   4.678   7.484   1.677
   10CHTO   O39 4029   4.756   7.839   1.963
   10CHTO   C60 4030   4.666   7.950   1.978
   10CHTO  H117 4031   4.565   7.914   1.998
   10CHTO   C62 4032   4.708   8.040   2.098
   10CHTO  H119 4033   4.698   7.977   2.189
   10CHTO   O43 4034   4.847   8.077   2.085
   10CHTO  H101 4035   4.859   8.130   2.009
   10CHTO   C66 4036   4.609   8.166   2.110
   10CHTO  H123 4037   4.507   8.130   2.125
   10CHTO   N12 4038   4.639   8.251   2.228
   10CHTO  H110 4039   4.568   8.333   2.234
   10CHTO  H111 4040   4.740   8.288   2.223
   10CHTO   C69 4041   4.610   8.246   1.977
   10CHTO  H126 4042   4.713   8.286   1.958
   10CHTO   O41 4043   4.570   8.151   1.862
   10CHTO   C64 4044   4.660   8.031   1.846
   10CHTO  H121 4045   4.762   8.064   1.818
   10CHTO   C71 4046   4.605   7.943   1.731
   10CHTO   O47 4047   4.602   8.015   1.608
   10CHTO  H104 4048   4.566   7.960   1.540
   10CHTO   O34 4049   4.509   8.368   1.980
   10CHTO   C49 4050   4.380   8.411   1.907
   10CHTO   H91 4051   4.367   8.516   1.932
   10CHTO   C47 4052   4.257   8.333   1.959
   10CHTO   H89 4053   4.236   8.377   2.060
   10CHTO   O33 4054   4.288   8.193   1.977
   10CHTO   H70 4055   4.354   8.182   2.042
   10CHTO   C45 4056   4.131   8.343   1.859
   10CHTO   H87 4057   4.130   8.251   1.798
   10CHTO    N8 4058   4.004   8.347   1.937
   10CHTO   H75 4059   3.997   8.441   1.990
   10CHTO   H76 4060   3.920   8.335   1.871
   10CHTO   C43 4061   4.146   8.460   1.750
   10CHTO   H85 4062   4.060   8.450   1.684
   10CHTO   O29 4063   4.270   8.444   1.678
   10CHTO   C50 4064   4.387   8.401   1.751
   10CHTO   H92 4065   4.408   8.296   1.725
   10CHTO   C54 4066   4.510   8.477   1.696
   10CHTO   O36 4067   4.501   8.617   1.723
   10CHTO   H72 4068   4.432   8.655   1.672
   10CHTO   O27 4069   4.140   8.592   1.807
   10CHTO   C37 4070   4.138   8.723   1.747
   10CHTO   H79 4071   4.227   8.737   1.684
   10CHTO   C38 4072   4.013   8.743   1.655
   10CHTO   H80 4073   3.923   8.712   1.711
   10CHTO   O31 4074   4.028   8.656   1.541
   10CHTO   H68 4075   4.019   8.566   1.567
   10CHTO   C39 4076   3.996   8.892   1.606
   10CHTO   H81 4077   4.077   8.913   1.536
   10CHTO    N7 4078   3.868   8.917   1.532
   10CHTO   H73 4079   3.783   8.893   1.596
   10CHTO   H74 4080   3.865   8.856   1.443
   10CHTO   C40 4081   4.012   8.994   1.726
   10CHTO   H82 4082   3.925   8.992   1.791
   10CHTO   O26 4083   4.133   8.964   1.798
   10CHTO   C41 4084   4.138   8.832   1.858
   10CHTO   H83 4085   4.051   8.818   1.924
   10CHTO   C52 4086   4.266   8.828   1.945
   10CHTO   O35 4087   4.267   8.718   2.038
   10CHTO   H71 4088   4.202   8.732   2.104
   10CHTO   O28 4089   4.038   9.128   1.680
   10CHTO   C42 4090   3.973   9.247   1.736
   10CHTO   H84 4091   3.923   9.214   1.827
   10CHTO   C44 4092   3.862   9.308   1.644
   10CHTO   H86 4093   3.904   9.320   1.544
   10CHTO   O32 4094   3.755   9.212   1.636
   10CHTO   H69 4095   3.783   9.136   1.589
   10CHTO   C48 4096   3.808   9.450   1.691
   10CHTO   H90 4097   3.745   9.434   1.778
   10CHTO    N9 4098   3.720   9.512   1.586
   10CHTO   H77 4099   3.684   9.608   1.621
   10CHTO   H78 4100   3.636   9.447   1.565
   10CHTO   C51 4101   3.928   9.543   1.732
   10CHTO   H93 4102   3.989   9.563   1.644
   10CHTO   O30 4103   4.002   9.473   1.833
   10CHTO   C46 4104   4.076   9.357   1.778
   10CHTO   H88 4105   4.133   9.390   1.692
   10CHTO   C53 4106   4.173   9.309   1.889
   10CHTO   O72 4107   4.272   9.220   1.838
   10CHTO  H199 4108   4.232   9.138   1.814
   10CHTO   O22 4109   3.884   9.668   1.792
   10CHTO   C31 4110   3.975   9.784   1.814
   10CHTO   H59 4111   3.918   9.854   1.878
   10CHTO   C29 4112   4.105   9.750   1.889
   10CHTO   H57 4113   4.158   9.672   1.832
   10CHTO   O21 4114   4.068   9.691   2.016
   10CHTO   H37 4115   4.143   9.656   2.059
   10CHTO   C27 4116   4.201   9.874   1.907
   10CHTO   H55 4117   4.151   9.948   1.970
   10CHTO    N5 4118   4.331   9.838   1.969
   10CHTO   H43 4119   4.384   9.767   1.907
   10CHTO   H44 4120   4.315   9.797   2.067
   10CHTO   C25 4121   4.222   9.941   1.767
   10CHTO   H53 4122   4.273   9.870   1.699
   10CHTO   O17 4123   4.093   9.975   1.709
   10CHTO   C32 4124   4.007   9.863   1.682
   10CHTO   H60 4125   4.055   9.796   1.611
   10CHTO   C36 4126   3.881   9.925   1.617
   10CHTO   O25 4127   3.794   9.827   1.560
   10CHTO   H40 4128   3.755   9.776   1.628
   10CHTO   O15 4129   4.310   0.076   1.778
   10CHTO   C19 4130   4.349   0.177   1.680
   10CHTO   H47 4131   4.287   0.155   1.592
   10CHTO   C20 4132   4.322   0.323   1.727
   10CHTO   H48 4133   4.379   0.348   1.818
   10CHTO   O19 4134   4.182   0.332   1.759
   10CHTO   H35 4135   4.129   0.318   1.683
   10CHTO   C21 4136   4.361   0.428   1.615
   10CHTO   H49 4137   4.292   0.417   1.531
   10CHTO    N4 4138   4.349   0.569   1.661
   10CHTO   H41 4139   4.248   0.589   1.692
   10CHTO   H42 4140   4.375   0.637   1.580
   10CHTO   C22 4141   4.503   0.397   1.559
   10CHTO   H50 4142   4.578   0.425   1.633
   10CHTO   O14 4143   4.517   0.259   1.524
   10CHTO   C23 4144   4.498   0.166   1.632
   10CHTO   H51 4145   4.569   0.192   1.712
   10CHTO   C34 4146   4.534   0.027   1.578
   10CHTO   O23 4147   4.548   9.932   1.684
   10CHTO   H38 4148   4.570   9.848   1.648
   10CHTO   O16 4149   4.525   0.466   1.434
   10CHTO   C24 4150   4.678   0.512   1.409
   10CHTO   H52 4151   4.747   0.468   1.482
   10CHTO   C26 4152   4.686   0.665   1.417
   10CHTO   H54 4153   4.609   0.708   1.348
   10CHTO   O20 4154   4.653   0.705   1.551
   10CHTO   H36 4155   4.647   0.799   1.557
   10CHTO   C30 4156   4.826   0.720   1.375
   10CHTO   H58 4157   4.899   0.697   1.455
   10CHTO    N6 4158   4.826   0.869   1.361
   10CHTO   H45 4159   4.897   0.913   1.429
   10CHTO   H46 4160   4.728   0.910   1.379
   10CHTO   C33 4161   4.882   0.650   1.246
   10CHTO   H61 4162   4.830   0.690   1.157
   10CHTO   O18 4163   4.861   0.508   1.251
   10CHTO   C28 4164   4.725   0.466   1.269
   10CHTO   H56 4165   4.662   0.511   1.193
   10CHTO   C35 4166   4.717   0.312   1.252
   10CHTO   O24 4167   4.799   0.239   1.344
   10CHTO   H39 4168   4.890   0.253   1.325
   10CHTO    O9 4169   5.021   0.683   1.228
   10CHTO   C13 4170   5.074   0.685   1.074
   10CHTO   H26 4171   5.005   0.749   1.015
   10CHTO   C11 4172   5.081   0.537   1.015
   10CHTO   H24 4173   4.980   0.509   0.983
   10CHTO    O8 4174   5.124   0.444   1.116
   10CHTO    H3 4175   5.061   0.439   1.185
   10CHTO    C9 4176   5.177   0.539   0.892
   10CHTO   H22 4177   5.143   0.622   0.829
   10CHTO    N2 4178   5.164   0.420   0.805
   10CHTO   H10 4179   5.197   0.332   0.857
   10CHTO   H11 4180   5.222   0.434   0.715
   10CHTO    C7 4181   5.323   0.570   0.943
   10CHTO   H20 4182   5.374   0.615   0.854
   10CHTO    O4 4183   5.326   0.663   1.053
   10CHTO   C14 4184   5.217   0.758   1.063
   10CHTO   H27 4185   5.218   0.821   0.972
   10CHTO   C18 4186   5.248   0.851   1.183
   10CHTO   O13 4187   5.152   0.957   1.193
   10CHTO    H7 4188   5.069   0.922   1.220
   10CHTO    O2 4189   5.404   0.435   0.990
   10CHTO    C1 4190   5.547   0.435   0.973
   10CHTO   H14 4191   5.583   0.540   0.962
   10CHTO    C2 4192   5.591   0.354   0.844
   10CHTO   H15 4193   5.529   0.263   0.843
   10CHTO    O6 4194   5.560   0.433   0.728
   10CHTO    H1 4195   5.467   0.441   0.718
   10CHTO    C3 4196   5.747   0.314   0.845
   10CHTO   H16 4197   5.807   0.404   0.830
   10CHTO    N1 4198   5.780   0.219   0.733
   10CHTO    H8 4199   5.857   0.262   0.669
   10CHTO    H9 4200   5.814   0.124   0.771
   10CHTO    C4 4201   5.786   0.258   0.987
   10CHTO   H17 4202   5.730   0.166   1.006
   10CHTO    O1 4203   5.753   0.358   1.086
   10CHTO    C5 4204   5.612   0.379   1.103
   10CHTO   H18 4205   5.563   0.285   1.128
   10CHTO   C16 4206   5.600   0.476   1.223
   10CHTO   O11 4207   5.464   0.501   1.259
   10CHTO    H5 4208   5.421   0.551   1.192
   10CHTO    O3 4209   5.928   0.238   1.005
   10CHTO    C6 4210   5.972   0.102   1.040
   10CHTO   H19 4211   5.897   0.026   1.019
   10CHTO    C8 4212   6.100   0.067   0.958
   10CHTO   H21 4213   6.174   0.146   0.974
   10CHTO    O7 4214   6.064   0.065   0.818
   10CHTO    H2 4215   6.002   9.996   0.801
   10CHTO   C12 4216   6.162   9.929   1.005
   10CHTO   H25 4217   6.089   9.850   0.975
   10CHTO    N3 4218   6.290   9.898   0.933
   10CHTO   H12 4219   6.273   9.892   0.826
   10CHTO   H13 4220   6.364   9.973   0.955
   10CHTO   C15 4221   6.177   9.926   1.161
   10CHTO   H28 4222   6.256   9.993   1.195
   10CHTO   O10 4223   6.203   9.784   1.216
   10CHTO    H4 4224   6.222   9.787   1.307
   10CHTO    O5 4225   6.052   9.960   1.224
   10CHTO   C10 4226   6.004   0.092   1.192
   10CHTO   H23 4227   6.081   0.165   1.218
   10CHTO   C17 4228   5.883   0.119   1.283
   10CHTO   O12 4229   5.921   0.125   1.421
   10CHTO    H6 4230   5.973   0.201   1.436
   11CHTO  H203 4231   7.533   4.813   0.140
   11CHTO   O82 4232   7.449   4.844   0.115
   11CHTO  C123 4233   7.437   4.984   0.146
   11CHTO  H227 4234   7.514   5.040   0.090
   11CHTO   O77 4235   7.304   5.018   0.095
   11CHTO  C118 4236   7.268   5.156   0.111
   11CHTO  H222 4237   7.346   5.220   0.066
   11CHTO  C125 4238   7.133   5.179   0.034
   11CHTO   O84 4239   7.148   5.156   2.753
   11CHTO  H205 4240   7.159   5.064   2.737
   11CHTO  C114 4241   7.256   5.187   0.261
   11CHTO  H218 4242   7.182   5.120   0.305
   11CHTO  C116 4243   7.392   5.159   0.332
   11CHTO  H220 4244   7.467   5.235   0.297
   11CHTO   O79 4245   7.375   5.182   0.474
   11CHTO  H201 4246   7.457   5.175   0.518
   11CHTO  C120 4247   7.445   5.013   0.301
   11CHTO  H224 4248   7.378   4.944   0.356
   11CHTO   N21 4249   7.583   4.993   0.354
   11CHTO  H211 4250   7.656   5.022   0.280
   11CHTO  H212 4251   7.597   4.890   0.382
   11CHTO   O75 4252   7.214   5.324   0.272
   11CHTO  C112 4253   7.076   5.344   0.361
   11CHTO  H216 4254   7.079   5.277   0.448
   11CHTO   O73 4255   6.965   5.314   0.274
   11CHTO  C113 4256   6.835   5.325   0.335
   11CHTO  H217 4257   6.830   5.257   0.423
   11CHTO  C124 4258   6.732   5.276   0.232
   11CHTO   O83 4259   6.750   5.138   0.197
   11CHTO  H204 4260   6.831   5.127   0.152
   11CHTO  C109 4261   6.809   5.471   0.379
   11CHTO  H213 4262   6.808   5.532   0.288
   11CHTO  C110 4263   6.924   5.519   0.473
   11CHTO  H214 4264   6.915   5.465   0.568
   11CHTO   O78 4265   6.904   5.659   0.501
   11CHTO  H200 4266   6.826   5.672   0.552
   11CHTO  C111 4267   7.064   5.493   0.411
   11CHTO  H215 4268   7.076   5.559   0.324
   11CHTO   N19 4269   7.176   5.525   0.504
   11CHTO  H207 4270   7.171   5.628   0.534
   11CHTO  H208 4271   7.271   5.507   0.455
   11CHTO   O74 4272   6.680   5.483   0.447
   11CHTO  C115 4273   6.568   5.561   0.362
   11CHTO  H219 4274   6.597   5.572   0.257
   11CHTO   O76 4275   6.432   5.481   0.357
   11CHTO  C122 4276   6.370   5.463   0.485
   11CHTO  H226 4277   6.426   5.384   0.537
   11CHTO  C126 4278   6.226   5.406   0.463
   11CHTO   O85 4279   6.141   5.492   0.386
   11CHTO  H206 4280   6.173   5.497   0.298
   11CHTO  C121 4281   6.366   5.595   0.574
   11CHTO  H225 4282   6.263   5.609   0.612
   11CHTO   O81 4283   6.449   5.579   0.689
   11CHTO  H202 4284   6.539   5.569   0.664
   11CHTO  C119 4285   6.405   5.720   0.489
   11CHTO  H223 4286   6.335   5.717   0.405
   11CHTO  C117 4287   6.549   5.705   0.428
   11CHTO  H221 4288   6.630   5.714   0.500
   11CHTO   N20 4289   6.576   5.814   0.328
   11CHTO  H209 4290   6.677   5.808   0.291
   11CHTO  H210 4291   6.506   5.806   0.245
   11CHTO   O80 4292   6.366   5.860   0.557
   11CHTO  C103 4293   6.434   5.906   0.692
   11CHTO  H190 4294   6.474   5.821   0.748
   11CHTO  C101 4295   6.546   6.016   0.677
   11CHTO  H188 4296   6.516   6.085   0.598
   11CHTO   O68 4297   6.678   5.947   0.630
   11CHTO  H168 4298   6.709   5.889   0.697
   11CHTO   C99 4299   6.568   6.101   0.811
   11CHTO  H186 4300   6.610   6.033   0.890
   11CHTO   N17 4301   6.665   6.215   0.795
   11CHTO  H174 4302   6.752   6.200   0.858
   11CHTO  H175 4303   6.617   6.310   0.817
   11CHTO   C97 4304   6.430   6.146   0.865
   11CHTO  H184 4305   6.383   6.210   0.788
   11CHTO   O64 4306   6.352   6.029   0.893
   11CHTO  C104 4307   6.310   5.961   0.774
   11CHTO  H191 4308   6.253   6.029   0.710
   11CHTO  C108 4309   6.215   5.847   0.812
   11CHTO   O71 4310   6.095   5.896   0.873
   11CHTO  H171 4311   6.042   5.940   0.809
   11CHTO   O62 4312   6.435   6.216   0.991
   11CHTO   C91 4313   6.324   6.303   1.019
   11CHTO  H178 4314   6.246   6.286   0.945
   11CHTO   C92 4315   6.370   6.452   1.000
   11CHTO  H179 4316   6.464   6.468   1.054
   11CHTO   O66 4317   6.402   6.471   0.861
   11CHTO  H166 4318   6.477   6.420   0.837
   11CHTO   C93 4319   6.259   6.552   1.051
   11CHTO  H180 4320   6.165   6.529   0.998
   11CHTO   N16 4321   6.285   6.696   1.026
   11CHTO  H172 4322   6.376   6.726   1.076
   11CHTO  H173 4323   6.201   6.755   1.061
   11CHTO   C94 4324   6.240   6.518   1.203
   11CHTO  H181 4325   6.336   6.509   1.255
   11CHTO   O61 4326   6.178   6.389   1.209
   11CHTO   C95 4327   6.258   6.279   1.162
   11CHTO  H182 4328   6.337   6.259   1.234
   11CHTO  C106 4329   6.167   6.152   1.156
   11CHTO   O69 4330   6.116   6.119   1.286
   11CHTO  H169 4331   6.062   6.042   1.280
   11CHTO   O63 4332   6.145   6.621   1.285
   11CHTO   C96 4333   6.176   6.614   1.440
   11CHTO  H183 4334   6.261   6.548   1.456
   11CHTO   C98 4335   6.060   6.561   1.527
   11CHTO  H185 4336   5.969   6.621   1.510
   11CHTO   O67 4337   6.029   6.429   1.480
   11CHTO  H167 4338   5.954   6.395   1.525
   11CHTO  C102 4339   6.099   6.558   1.683
   11CHTO  H189 4340   6.170   6.475   1.694
   11CHTO   N18 4341   5.987   6.526   1.776
   11CHTO  H176 4342   6.009   6.437   1.832
   11CHTO  H177 4343   5.895   6.513   1.722
   11CHTO  C105 4344   6.172   6.688   1.726
   11CHTO  H192 4345   6.099   6.766   1.748
   11CHTO   O65 4346   6.265   6.741   1.629
   11CHTO  C100 4347   6.216   6.756   1.495
   11CHTO  H187 4348   6.127   6.821   1.496
   11CHTO  C107 4349   6.324   6.823   1.407
   11CHTO   O70 4350   6.353   6.956   1.450
   11CHTO  H170 4351   6.279   7.012   1.432
   11CHTO   O57 4352   6.257   6.648   1.859
   11CHTO   C85 4353   6.259   6.736   1.973
   11CHTO  H157 4354   6.153   6.749   2.002
   11CHTO   C83 4355   6.309   6.879   1.931
   11CHTO  H155 4356   6.237   6.921   1.861
   11CHTO   O56 4357   6.434   6.869   1.860
   11CHTO  H135 4358   6.422   6.821   1.780
   11CHTO   C81 4359   6.314   6.969   2.057
   11CHTO  H153 4360   6.215   6.970   2.103
   11CHTO   N14 4361   6.340   7.112   2.026
   11CHTO  H141 4362   6.267   7.149   1.957
   11CHTO  H142 4363   6.438   7.123   1.983
   11CHTO   C79 4364   6.416   6.909   2.161
   11CHTO  H151 4365   6.413   6.973   2.250
   11CHTO   O52 4366   6.369   6.777   2.203
   11CHTO   C86 4367   6.347   6.682   2.093
   11CHTO  H158 4368   6.449   6.655   2.058
   11CHTO   C90 4369   6.286   6.552   2.149
   11CHTO   O60 4370   6.373   6.490   2.245
   11CHTO  H138 4371   6.376   6.543   2.323
   11CHTO   O50 4372   6.551   6.900   2.114
   11CHTO   C73 4373   6.681   6.891   2.175
   11CHTO  H145 4374   6.676   6.828   2.265
   11CHTO   C74 4375   6.731   7.033   2.216
   11CHTO  H146 4376   6.656   7.075   2.285
   11CHTO   O54 4377   6.853   7.019   2.291
   11CHTO  H133 4378   6.836   6.976   2.373
   11CHTO   C75 4379   6.748   7.122   2.086
   11CHTO  H147 4380   6.649   7.131   2.037
   11CHTO   N13 4381   6.792   7.261   2.113
   11CHTO  H139 4382   6.805   7.278   2.219
   11CHTO  H140 4383   6.719   7.332   2.075
   11CHTO   C76 4384   6.844   7.047   1.982
   11CHTO  H148 4385   6.944   7.044   2.025
   11CHTO   O49 4386   6.798   6.910   1.958
   11CHTO   C77 4387   6.782   6.828   2.074
   11CHTO  H149 4388   6.879   6.817   2.124
   11CHTO   C88 4389   6.741   6.687   2.029
   11CHTO   O58 4390   6.726   6.593   2.145
   11CHTO  H136 4391   6.810   6.578   2.185
   11CHTO   O51 4392   6.839   7.114   1.839
   11CHTO   C78 4393   6.982   7.132   1.771
   11CHTO  H150 4394   7.063   7.089   1.834
   11CHTO   C80 4395   7.009   7.284   1.754
   11CHTO  H152 4396   6.919   7.330   1.707
   11CHTO   O55 4397   7.024   7.340   1.886
   11CHTO  H134 4398   7.032   7.433   1.880
   11CHTO   C84 4399   7.136   7.312   1.664
   11CHTO  H156 4400   7.224   7.276   1.717
   11CHTO   N15 4401   7.157   7.459   1.639
   11CHTO  H143 4402   7.174   7.510   1.732
   11CHTO  H144 4403   7.071   7.501   1.591
   11CHTO   C87 4404   7.121   7.233   1.532
   11CHTO  H159 4405   7.033   7.267   1.479
   11CHTO   O53 4406   7.108   7.086   1.568
   11CHTO   C82 4407   6.985   7.059   1.636
   11CHTO  H154 4408   6.901   7.088   1.573
   11CHTO   C89 4409   6.978   6.905   1.652
   11CHTO   O59 4410   6.845   6.860   1.679
   11CHTO  H137 4411   6.792   6.870   1.602
   11CHTO   O45 4412   7.252   7.245   1.438
   11CHTO   C67 4413   7.220   7.241   1.298
   11CHTO  H124 4414   7.134   7.177   1.282
   11CHTO   C65 4415   7.186   7.385   1.245
   11CHTO  H122 4416   7.236   7.455   1.312
   11CHTO   O44 4417   7.044   7.400   1.259
   11CHTO  H102 4418   7.020   7.489   1.242
   11CHTO   C63 4419   7.249   7.415   1.103
   11CHTO  H120 4420   7.356   7.434   1.116
   11CHTO   N11 4421   7.204   7.541   1.036
   11CHTO  H108 4422   7.101   7.533   1.009
   11CHTO  H109 4423   7.217   7.624   1.102
   11CHTO   C61 4424   7.239   7.286   1.014
   11CHTO  H118 4425   7.291   7.309   0.919
   11CHTO   O40 4426   7.308   7.172   1.072
   11CHTO   C68 4427   7.337   7.175   1.216
   11CHTO  H125 4428   7.432   7.232   1.232
   11CHTO   C72 4429   7.363   7.030   1.263
   11CHTO   O48 4430   7.477   6.970   1.200
   11CHTO  H105 4431   7.459   6.956   1.109
   11CHTO   O38 4432   7.103   7.245   0.988
   11CHTO   C55 4433   7.083   7.175   0.863
   11CHTO  H112 4434   7.180   7.139   0.824
   11CHTO   C56 4435   7.010   7.271   0.761
   11CHTO  H113 4436   6.918   7.307   0.810
   11CHTO   O42 4437   7.092   7.388   0.739
   11CHTO  H100 4438   7.046   7.449   0.684
   11CHTO   C57 4439   6.976   7.196   0.627
   11CHTO  H114 4440   7.071   7.182   0.575
   11CHTO   N10 4441   6.891   7.275   0.534
   11CHTO  H106 4442   6.912   7.381   0.544
   11CHTO  H107 4443   6.786   7.258   0.555
   11CHTO   C58 4444   6.913   7.057   0.655
   11CHTO  H115 4445   6.807   7.071   0.690
   11CHTO   O37 4446   6.987   6.983   0.754
   11CHTO   C59 4447   6.996   7.048   0.882
   11CHTO  H116 4448   6.897   7.073   0.918
   11CHTO   C70 4449   7.059   6.947   0.979
   11CHTO   O46 4450   7.046   6.987   1.116
   11CHTO  H103 4451   6.956   6.983   1.142
   11CHTO   O39 4452   6.919   6.966   0.523
   11CHTO   C60 4453   6.803   6.885   0.500
   11CHTO  H117 4454   6.745   6.876   0.592
   11CHTO   C62 4455   6.713   6.949   0.390
   11CHTO  H119 4456   6.684   7.049   0.429
   11CHTO   O43 4457   6.790   6.969   0.269
   11CHTO  H101 4458   6.818   6.886   0.234
   11CHTO   C66 4459   6.582   6.860   0.368
   11CHTO  H123 4460   6.529   6.852   0.463
   11CHTO   N12 4461   6.485   6.921   0.273
   11CHTO  H110 4462   6.390   6.940   0.322
   11CHTO  H111 4463   6.525   7.012   0.229
   11CHTO   C69 4464   6.622   6.716   0.326
   11CHTO  H126 4465   6.671   6.718   0.226
   11CHTO   O41 4466   6.723   6.657   0.434
   11CHTO   C64 4467   6.845   6.740   0.460
   11CHTO  H121 4468   6.909   6.745   0.368
   11CHTO   C71 4469   6.925   6.669   0.572
   11CHTO   O47 4470   7.055   6.726   0.592
   11CHTO  H104 4471   7.109   6.709   0.518
   11CHTO   O34 4472   6.495   6.620   0.319
   11CHTO   C49 4473   6.419   6.577   0.449
   11CHTO   H91 4474   6.471   6.623   0.533
   11CHTO   C47 4475   6.427   6.423   0.460
   11CHTO   H89 4476   6.385   6.397   0.560
   11CHTO   O33 4477   6.566   6.384   0.457
   11CHTO   H70 4478   6.603   6.402   0.373
   11CHTO   C45 4479   6.336   6.359   0.344
   11CHTO   H87 4480   6.366   6.404   0.248
   11CHTO    N8 4481   6.353   6.212   0.333
   11CHTO   H75 4482   6.457   6.187   0.315
   11CHTO   H76 4483   6.320   6.164   0.424
   11CHTO   C43 4484   6.183   6.404   0.366
   11CHTO   H85 4485   6.127   6.364   0.282
   11CHTO   O29 4486   6.174   6.548   0.373
   11CHTO   C50 4487   6.271   6.625   0.447
   11CHTO   H92 4488   6.271   6.724   0.399
   11CHTO   C54 4489   6.221   6.661   0.590
   11CHTO   O36 4490   6.201   6.546   0.673
   11CHTO   H72 4491   6.173   6.574   0.758
   11CHTO   O27 4492   6.124   6.345   0.484
   11CHTO   C37 4493   6.002   6.301   0.546
   11CHTO   H79 4494   6.018   6.290   0.654
   11CHTO   C38 4495   5.886   6.404   0.528
   11CHTO   H80 4496   5.873   6.423   0.420
   11CHTO   O31 4497   5.924   6.526   0.593
   11CHTO   H68 4498   5.862   6.594   0.575
   11CHTO   C39 4499   5.751   6.350   0.589
   11CHTO   H81 4500   5.765   6.347   0.697
   11CHTO    N7 4501   5.632   6.439   0.562
   11CHTO   H73 4502   5.589   6.472   0.655
   11CHTO   H74 4503   5.660   6.524   0.502
   11CHTO   C40 4504   5.720   6.203   0.543
   11CHTO   H82 4505   5.679   6.200   0.442
   11CHTO   O26 4506   5.836   6.119   0.556
   11CHTO   C41 4507   5.956   6.165   0.488
   11CHTO   H83 4508   5.935   6.176   0.380
   11CHTO   C52 4509   6.063   6.055   0.505
   11CHTO   O35 4510   6.023   5.926   0.445
   11CHTO   H71 4511   6.092   5.864   0.456
   11CHTO   O28 4512   5.628   6.140   0.635
   11CHTO   C42 4513   5.546   6.025   0.598
   11CHTO   H84 4514   5.590   5.985   0.506
   11CHTO   C44 4515   5.398   6.061   0.564
   11CHTO   H86 4516   5.355   6.116   0.648
   11CHTO   O32 4517   5.401   6.150   0.451
   11CHTO   H69 4518   5.316   6.183   0.433
   11CHTO   C48 4519   5.307   5.934   0.537
   11CHTO   H90 4520   5.339   5.889   0.443
   11CHTO    N9 4521   5.162   5.970   0.518
   11CHTO   H77 4522   5.104   5.881   0.499
   11CHTO   H78 4523   5.152   6.040   0.436
   11CHTO   C51 4524   5.328   5.828   0.652
   11CHTO   H93 4525   5.290   5.871   0.745
   11CHTO   O30 4526   5.467   5.797   0.659
   11CHTO   C46 4527   5.551   5.911   0.705
   11CHTO   H88 4528   5.512   5.948   0.800
   11CHTO   C53 4529   5.694   5.855   0.725
   11CHTO   O72 4530   5.779   5.946   0.794
   11CHTO  H199 4531   5.753   5.953   0.883
   11CHTO   O22 4532   5.263   5.703   0.623
   11CHTO   C31 4533   5.230   5.609   0.733
   11CHTO   H59 4534   5.278   5.650   0.825
   11CHTO   C29 4535   5.079   5.595   0.762
   11CHTO   H57 4536   5.031   5.558   0.670
   11CHTO   O21 4537   5.025   5.726   0.788
   11CHTO   H37 4538   5.031   5.780   0.711
   11CHTO   C27 4539   5.049   5.494   0.881
   11CHTO   H55 4540   5.082   5.541   0.974
   11CHTO    N5 4541   4.905   5.462   0.895
   11CHTO   H43 4542   4.848   5.553   0.906
   11CHTO   H44 4543   4.890   5.398   0.981
   11CHTO   C25 4544   5.133   5.362   0.862
   11CHTO   H53 4545   5.092   5.305   0.778
   11CHTO   O17 4546   5.273   5.391   0.833
   11CHTO   C32 4547   5.292   5.467   0.713
   11CHTO   H60 4548   5.241   5.419   0.629
   11CHTO   C36 4549   5.443   5.471   0.681
   11CHTO   O25 4550   5.492   5.340   0.648
   11CHTO   H40 4551   5.457   5.314   0.564
   11CHTO   O15 4552   5.131   5.272   0.989
   11CHTO   C19 4553   5.123   5.130   1.020
   11CHTO   H47 4554   5.206   5.114   1.091
   11CHTO   C20 4555   4.990   5.092   1.092
   11CHTO   H48 4556   4.901   5.122   1.033
   11CHTO   O19 4557   4.986   5.166   1.216
   11CHTO   H35 4558   4.975   5.258   1.199
   11CHTO   C21 4559   4.979   4.936   1.119
   11CHTO   H49 4560   5.057   4.908   1.190
   11CHTO    N4 4561   4.849   4.897   1.179
   11CHTO   H41 4562   4.847   4.791   1.197
   11CHTO   H42 4563   4.834   4.949   1.273
   11CHTO   C22 4564   5.008   4.861   0.987
   11CHTO   H50 4565   4.933   4.891   0.914
   11CHTO   O14 4566   5.138   4.897   0.938
   11CHTO   C23 4567   5.150   5.035   0.899
   11CHTO   H51 4568   5.078   5.052   0.817
   11CHTO   C34 4569   5.291   5.056   0.842
   11CHTO   O23 4570   5.312   4.979   0.724
   11CHTO   H38 4571   5.399   4.994   0.692
   11CHTO   O16 4572   5.009   4.718   1.004
   11CHTO   C24 4573   4.955   4.642   0.874
   11CHTO   H52 4574   4.965   4.703   0.784
   11CHTO   C26 4575   4.807   4.602   0.892
   11CHTO   H54 4576   4.799   4.533   0.979
   11CHTO   O20 4577   4.728   4.719   0.920
   11CHTO   H36 4578   4.751   4.754   1.004
   11CHTO   C30 4579   4.755   4.529   0.765
   11CHTO   H58 4580   4.743   4.604   0.685
   11CHTO    N6 4581   4.618   4.472   0.785
   11CHTO   H45 4582   4.584   4.424   0.694
   11CHTO   H46 4583   4.549   4.551   0.811
   11CHTO   C33 4584   4.855   4.421   0.710
   11CHTO   H61 4585   4.840   4.327   0.766
   11CHTO   O18 4586   4.993   4.459   0.724
   11CHTO   C28 4587   5.036   4.513   0.849
   11CHTO   H56 4588   5.016   4.443   0.930
   11CHTO   C35 4589   5.188   4.540   0.845
   11CHTO   O24 4590   5.228   4.635   0.745
   11CHTO   H39 4591   5.195   4.720   0.768
   11CHTO    O9 4592   4.822   4.389   0.573
   11CHTO   C13 4593   4.867   4.510   0.469
   11CHTO   H26 4594   4.899   4.598   0.529
   11CHTO   C11 4595   4.745   4.545   0.375
   11CHTO   H24 4596   4.659   4.572   0.439
   11CHTO    O8 4597   4.709   4.426   0.301
   11CHTO    H3 4598   4.633   4.442   0.250
   11CHTO    C9 4599   4.783   4.670   0.290
   11CHTO   H22 4600   4.777   4.755   0.360
   11CHTO    N2 4601   4.682   4.705   0.187
   11CHTO   H10 4602   4.681   4.630   0.109
   11CHTO   H11 4603   4.584   4.714   0.232
   11CHTO    C7 4604   4.934   4.660   0.241
   11CHTO   H20 4605   4.988   4.721   0.317
   11CHTO    O4 4606   4.983   4.525   0.245
   11CHTO   C14 4607   4.995   4.473   0.379
   11CHTO   H27 4608   5.085   4.518   0.426
   11CHTO   C18 4609   5.022   4.321   0.368
   11CHTO   O13 4610   5.066   4.264   0.491
   11CHTO    H7 4611   4.997   4.266   0.554
   11CHTO    O2 4612   4.966   4.725   0.091
   11CHTO    C1 4613   5.053   4.840   0.096
   11CHTO   H14 4614   5.134   4.821   0.170
   11CHTO    C2 4615   4.980   4.975   0.136
   11CHTO   H15 4616   4.895   4.985   0.067
   11CHTO    O6 4617   4.931   4.965   0.271
   11CHTO    H1 4618   4.878   5.040   0.292
   11CHTO    C3 4619   5.079   5.101   0.121
   11CHTO   H16 4620   5.156   5.095   0.198
   11CHTO    N1 4621   5.008   5.232   0.142
   11CHTO    H8 4622   4.966   5.235   0.242
   11CHTO    H9 4623   4.928   5.243   0.069
   11CHTO    C4 4624   5.155   5.097   2.843
   11CHTO   H17 4625   5.084   5.119   2.763
   11CHTO    O1 4626   5.215   4.968   2.822
   11CHTO    C5 4627   5.123   4.858   2.819
   11CHTO   H18 4628   5.045   4.878   2.744
   11CHTO   C16 4629   5.201   4.731   2.774
   11CHTO   O11 4630   5.308   4.700   0.004
   11CHTO    H5 4631   5.352   4.623   2.834
   11CHTO    O3 4632   5.266   5.188   2.841
   11CHTO    C6 4633   5.292   5.254   2.712
   11CHTO   H19 4634   5.231   5.214   2.631
   11CHTO    C8 4635   5.263   5.407   2.723
   11CHTO   H21 4636   5.323   5.448   2.804
   11CHTO    O7 4637   5.123   5.423   2.754
   11CHTO    H2 4638   5.070   5.391   2.684
   11CHTO   C12 4639   5.302   5.481   2.588
   11CHTO   H25 4640   5.231   5.444   2.511
   11CHTO    N3 4641   5.282   5.630   2.600
   11CHTO   H12 4642   5.211   5.664   2.525
   11CHTO   H13 4643   5.375   5.683   2.590
   11CHTO   C15 4644   5.448   5.441   2.545
   11CHTO   H28 4645   5.523   5.487   2.609
   11CHTO   O10 4646   5.478   5.477   2.398
   11CHTO    H4 4647   5.472   5.570   2.387
   11CHTO    O5 4648   5.465   5.298   2.544
   11CHTO   C10 4649   5.441   5.234   2.670
   11CHTO   H23 4650   5.506   5.278   2.746
   11CHTO   C17 4651   5.479   5.086   2.658
   11CHTO   O12 4652   5.619   5.069   2.635
   11CHTO    H6 4653   5.667   5.094   2.712
   12CHTO  H203 4654   5.038   2.071   2.170
   12CHTO   O82 4655   4.962   2.016   2.162
   12CHTO  C123 4656   4.952   1.930   2.276
   12CHTO  H227 4657   4.949   1.992   2.368
   12CHTO   O77 4658   4.823   1.865   2.255
   12CHTO  C118 4659   4.785   1.777   2.362
   12CHTO  H222 4660   4.786   1.832   2.457
   12CHTO  C125 4661   4.637   1.729   2.333
   12CHTO   O84 4662   4.626   1.661   2.207
   12CHTO  H205 4663   4.537   1.635   2.194
   12CHTO  C114 4664   4.884   1.659   2.370
   12CHTO  H218 4665   4.880   1.603   2.276
   12CHTO  C116 4666   5.030   1.711   2.388
   12CHTO  H220 4667   5.042   1.751   2.491
   12CHTO   O79 4668   5.119   1.598   2.379
   12CHTO  H201 4669   5.207   1.624   2.397
   12CHTO  C120 4670   5.067   1.822   2.281
   12CHTO  H224 4671   5.074   1.771   2.183
   12CHTO   N21 4672   5.199   1.884   2.307
   12CHTO  H211 4673   5.221   1.885   2.413
   12CHTO  H212 4674   5.276   1.830   2.254
   12CHTO   O75 4675   4.839   1.579   2.480
   12CHTO  C112 4676   4.823   1.419   2.447
   12CHTO  H216 4677   4.888   1.392   2.362
   12CHTO   O73 4678   4.684   1.397   2.416
   12CHTO  C113 4679   4.647   1.261   2.392
   12CHTO  H217 4680   4.707   1.222   2.307
   12CHTO  C124 4681   4.499   1.257   2.348
   12CHTO   O83 4682   4.408   1.308   2.445
   12CHTO  H204 4683   4.421   1.400   2.456
   12CHTO  C109 4684   4.673   1.175   2.518
   12CHTO  H213 4685   4.612   1.217   2.599
   12CHTO  C110 4686   4.825   1.185   2.556
   12CHTO  H214 4687   4.884   1.140   2.476
   12CHTO   O78 4688   4.848   1.110   2.676
   12CHTO  H200 4689   4.836   1.018   2.660
   12CHTO  C111 4690   4.865   1.334   2.574
   12CHTO  H215 4691   4.811   1.375   2.660
   12CHTO   N19 4692   5.010   1.354   2.602
   12CHTO  H207 4693   5.069   1.313   2.521
   12CHTO  H208 4694   5.037   1.304   2.694
   12CHTO   O74 4695   4.633   1.036   2.495
   12CHTO  C115 4696   4.571   0.966   2.630
   12CHTO  H219 4697   4.641   0.968   2.713
   12CHTO   O76 4698   4.441   1.044   2.682
   12CHTO  C122 4699   4.375   0.987   2.796
   12CHTO  H226 4700   4.281   1.042   2.810
   12CHTO  C126 4701   4.460   1.013   0.066
   12CHTO   O85 4702   4.398   0.964   0.185
   12CHTO  H206 4703   4.320   1.013   0.203
   12CHTO  C121 4704   4.341   0.834   2.772
   12CHTO  H225 4705   4.302   0.791   0.007
   12CHTO   O81 4706   4.236   0.824   2.675
   12CHTO  H202 4707   4.157   0.863   2.708
   12CHTO  C119 4708   4.467   0.752   2.729
   12CHTO  H223 4709   4.538   0.765   2.811
   12CHTO  C117 4710   4.536   0.815   2.601
   12CHTO  H221 4711   4.477   0.817   2.510
   12CHTO   N20 4712   4.661   0.740   2.566
   12CHTO  H209 4713   4.731   0.741   2.648
   12CHTO  H210 4714   4.637   0.638   2.540
   12CHTO   O80 4715   4.444   0.590   2.731
   12CHTO  C103 4716   4.328   0.522   2.646
   12CHTO  H190 4717   4.236   0.581   2.649
   12CHTO  C101 4718   4.362   0.490   2.495
   12CHTO  H188 4719   4.463   0.450   2.490
   12CHTO   O68 4720   4.357   0.620   2.416
   12CHTO  H168 4721   4.387   0.605   2.328
   12CHTO   C99 4722   4.262   0.381   2.431
   12CHTO  H186 4723   4.162   0.428   2.418
   12CHTO   N17 4724   4.305   0.335   2.295
   12CHTO  H174 4725   4.315   0.419   2.229
   12CHTO  H175 4726   4.397   0.280   2.302
   12CHTO   C97 4727   4.240   0.262   2.528
   12CHTO  H184 4728   4.332   0.202   2.533
   12CHTO   O64 4729   4.200   0.310   2.657
   12CHTO  C104 4730   4.299   0.389   2.724
   12CHTO  H191 4731   4.392   0.333   2.737
   12CHTO  C108 4732   4.247   0.419   0.006
   12CHTO   O71 4733   4.234   0.300   0.084
   12CHTO  H171 4734   4.319   0.265   0.104
   12CHTO   O62 4735   4.128   0.179   2.487
   12CHTO   C91 4736   4.121   0.046   2.543
   12CHTO  H178 4737   4.205   0.031   2.611
   12CHTO   C92 4738   4.138   9.942   2.427
   12CHTO  H179 4739   4.069   9.969   2.346
   12CHTO   O66 4740   4.271   9.958   2.372
   12CHTO  H166 4741   4.336   9.937   2.436
   12CHTO   C93 4742   4.113   9.792   2.473
   12CHTO  H180 4743   4.196   9.763   2.539
   12CHTO   N16 4744   4.115   9.696   2.359
   12CHTO  H172 4745   4.190   9.620   2.375
   12CHTO  H173 4746   4.018   9.651   2.343
   12CHTO   C94 4747   3.978   9.784   2.554
   12CHTO  H181 4748   3.892   9.812   2.493
   12CHTO   O61 4749   3.984   9.877   2.663
   12CHTO   C95 4750   3.987   0.014   2.621
   12CHTO  H182 4751   3.902   0.035   2.557
   12CHTO  C106 4752   3.971   0.104   2.749
   12CHTO   O69 4753   3.844   0.083   2.812
   12CHTO  H169 4754   3.841   9.998   2.850
   12CHTO   O63 4755   3.949   9.632   2.618
   12CHTO   C96 4756   4.054   9.572   2.725
   12CHTO  H183 4757   4.138   9.640   2.734
   12CHTO   C98 4758   4.107   9.431   2.683
   12CHTO  H185 4759   4.023   9.369   2.649
   12CHTO   O67 4760   4.191   9.449   2.567
   12CHTO  H167 4761   4.139   9.477   2.493
   12CHTO  C102 4762   4.189   9.355   2.798
   12CHTO  H189 4763   4.282   9.411   2.811
   12CHTO   N18 4764   4.230   9.216   2.764
   12CHTO  H176 4765   4.142   9.155   2.745
   12CHTO  H177 4766   4.287   9.173   2.845
   12CHTO  C105 4767   4.108   9.362   0.071
   12CHTO  H192 4768   4.018   9.301   0.062
   12CHTO   O65 4769   4.070   9.497   0.103
   12CHTO  C100 4770   3.984   9.559   0.007
   12CHTO  H187 4771   3.894   9.498   2.856
   12CHTO  C107 4772   3.939   9.696   0.065
   12CHTO   O70 4773   4.050   9.783   0.092
   12CHTO  H170 4774   4.090   9.809   0.011
   12CHTO   O57 4775   4.204   9.304   0.191
   12CHTO   C85 4776   4.142   9.251   0.309
   12CHTO  H157 4777   4.042   9.213   0.277
   12CHTO   C83 4778   4.114   9.366   0.411
   12CHTO  H155 4779   4.045   9.436   0.365
   12CHTO   O56 4780   4.235   9.439   0.437
   12CHTO  H135 4781   4.298   9.385   0.481
   12CHTO   C81 4782   4.046   9.305   0.538
   12CHTO  H153 4783   3.955   9.254   0.507
   12CHTO   N14 4784   3.999   9.409   0.634
   12CHTO  H141 4785   3.944   9.363   0.713
   12CHTO  H142 4786   4.082   9.461   0.675
   12CHTO   C79 4787   4.142   9.198   0.604
   12CHTO  H151 4788   4.086   9.152   0.686
   12CHTO   O52 4789   4.172   9.092   0.508
   12CHTO   C86 4790   4.227   9.139   0.380
   12CHTO  H158 4791   4.329   9.176   0.407
   12CHTO   C90 4792   4.251   9.018   0.286
   12CHTO   O60 4793   4.129   8.948   0.256
   12CHTO  H138 4794   4.073   9.003   0.205
   12CHTO   O50 4795   4.264   9.253   0.657
   12CHTO   C73 4796   4.327   9.236   0.784
   12CHTO  H145 4797   4.268   9.168   0.848
   12CHTO   C74 4798   4.340   9.373   0.857
   12CHTO  H146 4799   4.239   9.416   0.865
   12CHTO   O54 4800   4.385   9.349   0.992
   12CHTO  H133 4801   4.389   9.429   1.039
   12CHTO   C75 4802   4.437   9.468   0.774
   12CHTO  H147 4803   4.392   9.485   0.675
   12CHTO   N13 4804   4.456   9.603   0.834
   12CHTO  H139 4805   4.424   9.679   0.764
   12CHTO  H140 4806   4.399   9.613   0.925
   12CHTO   C76 4807   4.576   9.392   0.751
   12CHTO  H148 4808   4.623   9.378   0.849
   12CHTO   O49 4809   4.553   9.262   0.689
   12CHTO   C77 4810   4.470   9.174   0.765
   12CHTO  H149 4811   4.514   9.157   0.863
   12CHTO   C88 4812   4.468   9.038   0.695
   12CHTO   O58 4813   4.391   8.938   0.773
   12CHTO  H136 4814   4.392   8.856   0.728
   12CHTO   O51 4815   4.670   9.472   0.649
   12CHTO   C78 4816   4.813   9.406   0.637
   12CHTO  H150 4817   4.811   9.300   0.672
   12CHTO   C80 4818   4.917   9.483   0.722
   12CHTO  H152 4819   4.922   9.588   0.684
   12CHTO   O55 4820   4.870   9.486   0.858
   12CHTO  H134 4821   4.794   9.540   0.865
   12CHTO   C84 4822   5.059   9.415   0.711
   12CHTO  H156 4823   5.052   9.316   0.757
   12CHTO   N15 4824   5.167   9.490   0.785
   12CHTO  H143 4825   5.210   9.428   0.860
   12CHTO  H144 4826   5.128   9.579   0.831
   12CHTO   C87 4827   5.099   9.395   0.562
   12CHTO  H159 4828   5.122   9.491   0.518
   12CHTO   O53 4829   4.980   9.328   0.483
   12CHTO   C82 4830   4.859   9.405   0.491
   12CHTO  H154 4831   4.879   9.507   0.456
   12CHTO   C89 4832   4.752   9.346   0.395
   12CHTO   O59 4833   4.715   9.212   0.428
   12CHTO  H137 4834   4.650   9.181   0.367
   12CHTO   O45 4835   5.235   9.294   0.552
   12CHTO   C67 4836   5.306   9.286   0.427
   12CHTO  H124 4837   5.393   9.223   0.443
   12CHTO   C65 4838   5.220   9.223   0.312
   12CHTO  H122 4839   5.129   9.184   0.359
   12CHTO   O44 4840   5.292   9.113   0.254
   12CHTO  H102 4841   5.304   9.045   0.318
   12CHTO   C63 4842   5.173   9.334   0.211
   12CHTO  H120 4843   5.125   9.414   0.267
   12CHTO   N11 4844   5.064   9.293   0.117
   12CHTO  H108 4845   5.092   9.314   0.015
   12CHTO  H109 4846   4.973   9.343   0.140
   12CHTO   C61 4847   5.302   9.396   0.145
   12CHTO  H118 4848   5.271   9.487   0.092
   12CHTO   O40 4849   5.402   9.436   0.244
   12CHTO   C68 4850   5.366   9.429   0.386
   12CHTO  H125 4851   5.293   9.510   0.404
   12CHTO   C72 4852   5.493   9.463   0.467
   12CHTO   O48 4853   5.471   9.474   0.608
   12CHTO  H105 4854   5.449   9.390   0.643
   12CHTO   O38 4855   5.367   9.304   0.053
   12CHTO   C55 4856   5.472   9.356   2.829
   12CHTO  H112 4857   5.500   9.458   0.000
   12CHTO   C56 4858   5.429   9.350   2.677
   12CHTO  H113 4859   5.394   9.247   2.657
   12CHTO   O42 4860   5.315   9.436   2.657
   12CHTO  H100 4861   5.240   9.402   2.703
   12CHTO   C57 4862   5.548   9.388   2.580
   12CHTO  H114 4863   5.563   9.496   2.590
   12CHTO   N10 4864   5.517   9.365   2.436
   12CHTO  H106 4865   5.451   9.281   2.424
   12CHTO  H107 4866   5.607   9.348   2.378
   12CHTO   C58 4867   5.679   9.316   2.620
   12CHTO  H115 4868   5.673   9.208   2.592
   12CHTO   O37 4869   5.704   9.328   2.762
   12CHTO   C59 4870   5.602   9.271   2.844
   12CHTO  H116 4871   5.583   9.167   2.814
   12CHTO   C70 4872   5.653   9.266   0.129
   12CHTO   O46 4873   5.697   9.393   0.179
   12CHTO  H103 4874   5.624   9.451   0.187
   12CHTO   O39 4875   5.808   9.388   2.541
   12CHTO   C60 4876   5.939   9.359   2.592
   12CHTO  H117 4877   5.932   9.310   2.689
   12CHTO   C62 4878   6.018   9.263   2.499
   12CHTO  H119 4879   5.956   9.171   2.489
   12CHTO   O43 4880   6.032   9.322   2.368
   12CHTO  H101 4881   6.084   9.400   2.372
   12CHTO   C66 4882   6.157   9.225   2.569
   12CHTO  H123 4883   6.137   9.183   2.667
   12CHTO   N12 4884   6.233   9.121   2.494
   12CHTO  H110 4885   6.255   9.156   2.394
   12CHTO  H111 4886   6.176   9.029   2.492
   12CHTO   C69 4887   6.242   9.354   2.592
   12CHTO  H126 4888   6.274   9.396   2.494
   12CHTO   O41 4889   6.157   9.463   2.669
   12CHTO   C64 4890   6.018   9.491   2.614
   12CHTO  H121 4891   6.028   9.543   2.517
   12CHTO   C71 4892   5.944   9.587   2.711
   12CHTO   O47 4893   5.934   9.532   2.844
   12CHTO  H104 4894   5.877   9.458   2.843
   12CHTO   O34 4895   6.374   9.321   2.679
   12CHTO   C49 4896   6.421   9.326   2.830
   12CHTO   H91 4897   6.497   9.405   2.836
   12CHTO   C47 4898   6.484   9.190   0.008
   12CHTO   H89 4899   6.526   9.201   0.110
   12CHTO   O33 4900   6.592   9.164   2.776
   12CHTO   H70 4901   6.638   9.087   2.802
   12CHTO   C45 4902   6.370   9.076   0.007
   12CHTO   H87 4903   6.329   9.073   2.765
   12CHTO    N8 4904   6.427   8.943   0.038
   12CHTO   H75 4905   6.422   8.879   2.811
   12CHTO   H76 4906   6.373   8.896   0.120
   12CHTO   C43 4907   6.243   9.118   0.099
   12CHTO   H85 4908   6.165   9.048   0.069
   12CHTO   O29 4909   6.204   9.255   0.076
   12CHTO   C50 4910   6.305   9.358   0.068
   12CHTO   H92 4911   6.256   9.449   0.033
   12CHTO   C54 4912   6.355   9.400   0.209
   12CHTO   O36 4913   6.445   9.512   0.205
   12CHTO   H72 4914   6.525   9.487   0.164
   12CHTO   O27 4915   6.262   9.095   0.240
   12CHTO   C37 4916   6.170   9.064   0.347
   12CHTO   H79 4917   6.226   9.058   0.442
   12CHTO   C38 4918   6.063   9.176   0.366
   12CHTO   H80 4919   6.021   9.201   0.267
   12CHTO   O31 4920   6.130   9.292   0.418
   12CHTO   H68 4921   6.166   9.275   0.503
   12CHTO   C39 4922   5.945   9.132   0.462
   12CHTO   H81 4923   5.987   9.118   0.561
   12CHTO    N7 4924   5.836   9.234   0.474
   12CHTO   H73 4925   5.791   9.253   0.377
   12CHTO   H74 4926   5.760   9.200   0.543
   12CHTO   C40 4927   5.889   8.992   0.414
   12CHTO   H82 4928   5.845   9.002   0.315
   12CHTO   O26 4929   5.997   8.898   0.416
   12CHTO   C41 4930   6.103   8.925   0.320
   12CHTO   H83 4931   6.062   8.922   0.218
   12CHTO   C52 4932   6.207   8.811   0.333
   12CHTO   O35 4933   6.148   8.677   0.308
   12CHTO   H71 4934   6.086   8.656   0.375
   12CHTO   O28 4935   5.794   8.934   0.506
   12CHTO   C42 4936   5.677   8.856   0.465
   12CHTO   H84 4937   5.678   8.771   0.534
   12CHTO   C44 4938   5.673   8.793   0.321
   12CHTO   H86 4939   5.676   8.874   0.248
   12CHTO   O32 4940   5.792   8.714   0.305
   12CHTO   H69 4941   5.793   8.642   0.364
   12CHTO   C48 4942   5.542   8.708   0.295
   12CHTO   H90 4943   5.549   8.618   0.358
   12CHTO    N9 4944   5.532   8.658   0.153
   12CHTO   H77 4945   5.617   8.688   0.095
   12CHTO   H78 4946   5.523   8.550   0.152
   12CHTO   C51 4947   5.413   8.786   0.339
   12CHTO   H93 4948   5.395   8.867   0.267
   12CHTO   O30 4949   5.429   8.836   0.472
   12CHTO   C46 4950   5.544   8.932   0.490
   12CHTO   H88 4951   5.534   9.013   0.418
   12CHTO   C53 4952   5.536   8.988   0.634
   12CHTO   O72 4953   5.415   9.060   0.657
   12CHTO  H199 4954   5.415   9.139   0.607
   12CHTO   O22 4955   5.298   8.698   0.346
   12CHTO   C31 4956   5.157   8.741   0.354
   12CHTO   H59 4957   5.100   8.649   0.382
   12CHTO   C29 4958   5.125   8.847   0.462
   12CHTO   H57 4959   5.184   8.938   0.439
   12CHTO   O21 4960   5.173   8.799   0.590
   12CHTO   H37 4961   5.123   8.724   0.617
   12CHTO   C27 4962   4.972   8.884   0.467
   12CHTO   H55 4963   4.916   8.795   0.499
   12CHTO    N5 4964   4.942   8.995   0.561
   12CHTO   H43 4965   4.836   9.013   0.565
   12CHTO   H44 4966   4.979   8.970   0.659
   12CHTO   C25 4967   4.921   8.917   0.321
   12CHTO   H53 4968   4.968   9.011   0.287
   12CHTO   O17 4969   4.957   8.810   0.229
   12CHTO   C32 4970   5.098   8.787   0.217
   12CHTO   H60 4971   5.149   8.878   0.185
   12CHTO   C36 4972   5.118   8.678   0.109
   12CHTO   O25 4973   5.065   8.717   2.842
   12CHTO   H40 4974   5.117   8.787   2.806
   12CHTO   O15 4975   4.766   8.931   0.318
   12CHTO   C19 4976   4.659   8.914   0.221
   12CHTO   H47 4977   4.573   8.966   0.267
   12CHTO   C20 4978   4.687   8.977   0.081
   12CHTO   H48 4979   4.773   8.930   0.031
   12CHTO   O19 4980   4.719   9.115   0.103
   12CHTO   H35 4981   4.645   9.162   0.137
   12CHTO   C21 4982   4.560   8.960   2.847
   12CHTO   H49 4983   4.476   9.014   0.031
   12CHTO    N4 4984   4.580   9.017   2.711
   12CHTO   H41 4985   4.662   8.966   2.661
   12CHTO   H42 4986   4.491   9.005   2.652
   12CHTO   C22 4987   4.521   8.809   2.843
   12CHTO   H50 4988   4.601   8.753   2.794
   12CHTO   O14 4989   4.501   8.758   0.116
   12CHTO   C23 4990   4.616   8.765   0.203
   12CHTO   H51 4991   4.695   8.704   0.158
   12CHTO   C34 4992   4.579   8.702   0.338
   12CHTO   O23 4993   4.548   8.563   0.323
   12CHTO   H38 4994   4.522   8.528   0.406
   12CHTO   O16 4995   4.394   8.788   2.777
   12CHTO   C24 4996   4.382   8.644   2.704
   12CHTO   H52 4997   4.462   8.576   2.736
   12CHTO   C26 4998   4.391   8.665   2.551
   12CHTO   H54 4999   4.315   8.742   2.522
   12CHTO   O20 5000   4.521   8.718   2.519
   12CHTO   H36 5001   4.588   8.656   2.540
   12CHTO   C30 5002   4.360   8.533   2.473
   12CHTO   H58 5003   4.442   8.462   2.489
   12CHTO    N6 5004   4.353   8.556   2.326
   12CHTO   H45 5005   4.276   8.628   2.303
   12CHTO   H46 5006   4.448   8.593   2.290
   12CHTO   C33 5007   4.229   8.466   2.527
   12CHTO   H61 5008   4.144   8.533   2.505
   12CHTO   O18 5009   4.240   8.453   2.670
   12CHTO   C28 5010   4.247   8.577   2.742
   12CHTO   H56 5011   4.165   8.643   2.713
   12CHTO   C35 5012   4.238   8.544   0.033
   12CHTO   O24 5013   4.218   8.660   0.114
   12CHTO   H39 5014   4.132   8.696   0.099
   12CHTO    O9 5015   4.195   8.341   2.464
   12CHTO   C13 5016   4.303   8.215   2.473
   12CHTO   H26 5017   4.405   8.256   2.459
   12CHTO   C11 5018   4.267   8.109   2.360
   12CHTO   H24 5019   4.283   8.157   2.262
   12CHTO    O8 5020   4.128   8.072   2.367
   12CHTO    H3 5021   4.074   8.147   2.349
   12CHTO    C9 5022   4.364   7.989   2.373
   12CHTO   H22 5023   4.465   8.031   2.362
   12CHTO    N2 5024   4.356   7.891   2.261
   12CHTO   H10 5025   4.344   7.790   2.299
   12CHTO   H11 5026   4.274   7.915   2.194
   12CHTO    C7 5027   4.353   7.925   2.516
   12CHTO   H20 5028   4.436   7.851   2.520
   12CHTO    O4 5029   4.375   8.023   2.620
   12CHTO   C14 5030   4.303   8.148   2.617
   12CHTO   H27 5031   4.359   8.217   2.685
   12CHTO   C18 5032   4.161   8.132   2.678
   12CHTO   O13 5033   4.167   8.095   2.816
   12CHTO    H7 5034   4.199   8.167   0.007
   12CHTO    O2 5035   4.209   7.850   2.544
   12CHTO    C1 5036   4.216   7.710   2.576
   12CHTO   H14 5037   4.317   7.670   2.551
   12CHTO    C2 5038   4.108   7.626   2.496
   12CHTO   H15 5039   4.012   7.677   2.512
   12CHTO    O6 5040   4.140   7.629   2.356
   12CHTO    H1 5041   4.223   7.589   2.340
   12CHTO    C3 5042   4.098   7.475   2.550
   12CHTO   H16 5043   4.191   7.421   2.523
   12CHTO    N1 5044   3.984   7.399   2.487
   12CHTO    H8 5045   3.891   7.449   2.507
   12CHTO    H9 5046   3.999   7.392   2.380
   12CHTO    C4 5047   4.091   7.473   2.707
   12CHTO   H17 5048   3.995   7.516   2.738
   12CHTO    O1 5049   4.199   7.549   2.763
   12CHTO    C5 5050   4.195   7.689   2.729
   12CHTO   H18 5051   4.097   7.729   2.755
   12CHTO   C16 5052   4.302   7.760   2.817
   12CHTO   O11 5053   4.435   7.711   2.791
   12CHTO    H5 5054   4.496   7.758   2.845
   12CHTO    O3 5055   4.106   7.340   2.760
   12CHTO    C6 5056   4.053   7.320   0.035
   12CHTO   H19 5057   4.048   7.413   0.092
   12CHTO    C8 5058   3.910   7.258   0.030
   12CHTO   H21 5059   3.914   7.168   2.828
   12CHTO    O7 5060   3.822   7.354   2.828
   12CHTO    H2 5061   3.816   7.432   0.020
   12CHTO   C12 5062   3.860   7.218   0.175
   12CHTO   H25 5063   3.847   7.314   0.231
   12CHTO    N3 5064   3.726   7.151   0.170
   12CHTO   H12 5065   3.655   7.206   0.231
   12CHTO   H13 5066   3.732   7.048   0.203
   12CHTO   C15 5067   3.971   7.133   0.248
   12CHTO   H28 5068   3.981   7.034   0.203
   12CHTO   O10 5069   3.944   7.118   0.400
   12CHTO    H4 5070   4.003   7.054   0.436
   12CHTO    O5 5071   4.098   7.200   0.246
   12CHTO   C10 5072   4.149   7.226   0.114
   12CHTO   H23 5073   4.157   7.131   0.060
   12CHTO   C17 5074   4.290   7.284   0.127
   12CHTO   O12 5075   4.381   7.188   0.182
   12CHTO    H6 5076   4.467   7.224   0.184
   13CHTO  H203 5077   8.089   4.179   1.870
   13CHTO   O82 5078   8.076   4.127   1.793
   13CHTO  C123 5079   8.007   4.202   1.692
   13CHTO  H227 5080   7.999   4.140   1.601
   13CHTO   O77 5081   7.874   4.223   1.749
   13CHTO  C118 5082   7.781   4.288   1.661
   13CHTO  H222 5083   7.772   4.230   1.568
   13CHTO  C125 5084   7.642   4.290   1.733
   13CHTO   O84 5085   7.646   4.359   1.858
   13CHTO  H205 5086   7.698   4.312   1.919
   13CHTO  C114 5087   7.831   4.430   1.627
   13CHTO  H218 5088   7.835   4.488   1.719
   13CHTO  C116 5089   7.974   4.426   1.567
   13CHTO  H220 5090   7.970   4.381   1.466
   13CHTO   O79 5091   8.020   4.562   1.549
   13CHTO  H201 5092   8.103   4.562   1.506
   13CHTO  C120 5093   8.072   4.342   1.659
   13CHTO  H224 5094   8.082   4.400   1.753
   13CHTO   N21 5095   8.208   4.328   1.600
   13CHTO  H211 5096   8.232   4.416   1.542
   13CHTO  H212 5097   8.213   4.240   1.538
   13CHTO   O75 5098   7.733   4.485   1.537
   13CHTO  C112 5099   7.702   4.645   1.564
   13CHTO  H216 5100   7.795   4.694   1.596
   13CHTO   O73 5101   7.600   4.651   1.666
   13CHTO  C113 5102   7.560   4.784   1.703
   13CHTO  H217 5103   7.649   4.839   1.741
   13CHTO  C124 5104   7.461   4.770   1.819
   13CHTO   O83 5105   7.430   4.895   1.883
   13CHTO  H204 5106   7.369   4.880   1.953
   13CHTO  C109 5107   7.500   4.857   1.580
   13CHTO  H213 5108   7.414   4.798   1.547
   13CHTO  C110 5109   7.606   4.861   1.466
   13CHTO  H214 5110   7.692   4.918   1.499
   13CHTO   O78 5111   7.549   4.928   1.352
   13CHTO  H200 5112   7.537   5.019   1.371
   13CHTO  C111 5113   7.649   4.714   1.433
   13CHTO  H215 5114   7.560   4.659   1.399
   13CHTO   N19 5115   7.750   4.703   1.324
   13CHTO  H207 5116   7.711   4.644   1.242
   13CHTO  H208 5117   7.780   4.800   1.288
   13CHTO   O74 5118   7.454   4.992   1.618
   13CHTO  C115 5119   7.316   5.054   1.544
   13CHTO  H219 5120   7.341   5.133   1.472
   13CHTO   O76 5121   7.241   4.945   1.458
   13CHTO  C122 5122   7.156   4.855   1.532
   13CHTO  H226 5123   7.219   4.789   1.592
   13CHTO  C126 5124   7.085   4.763   1.428
   13CHTO   O85 5125   7.177   4.674   1.363
   13CHTO  H206 5126   7.236   4.723   1.308
   13CHTO  C121 5127   7.052   4.926   1.626
   13CHTO  H225 5128   6.951   4.905   1.587
   13CHTO   O81 5129   7.062   4.868   1.757
   13CHTO  H202 5130   6.990   4.897   1.811
   13CHTO  C119 5131   7.072   5.080   1.633
   13CHTO  H223 5132   7.045   5.118   1.534
   13CHTO  C117 5133   7.224   5.115   1.658
   13CHTO  H221 5134   7.265   5.077   1.751
   13CHTO   N20 5135   7.242   5.264   1.667
   13CHTO  H209 5136   7.344   5.288   1.692
   13CHTO  H210 5137   7.215   5.311   1.573
   13CHTO   O80 5138   6.960   5.155   1.730
   13CHTO  C103 5139   6.814   5.198   1.670
   13CHTO  H190 5140   6.762   5.260   1.744
   13CHTO  C101 5141   6.812   5.276   1.533
   13CHTO  H188 5142   6.865   5.217   1.458
   13CHTO   O68 5143   6.883   5.409   1.552
   13CHTO  H168 5144   6.974   5.394   1.572
   13CHTO   C99 5145   6.661   5.297   1.481
   13CHTO  H186 5146   6.609   5.366   1.551
   13CHTO   N17 5147   6.651   5.360   1.345
   13CHTO  H174 5148   6.705   5.454   1.344
   13CHTO  H175 5149   6.691   5.292   1.271
   13CHTO   C97 5150   6.581   5.164   1.488
   13CHTO  H184 5151   6.615   5.097   1.408
   13CHTO   O64 5152   6.594   5.103   1.618
   13CHTO  C104 5153   6.728   5.067   1.654
   13CHTO  H191 5154   6.773   5.004   1.578
   13CHTO  C108 5155   6.726   4.984   1.783
   13CHTO   O71 5156   6.659   4.859   1.764
   13CHTO  H171 5157   6.711   4.803   1.710
   13CHTO   O62 5158   6.438   5.187   1.475
   13CHTO   C91 5159   6.355   5.071   1.454
   13CHTO  H178 5160   6.416   4.981   1.465
   13CHTO   C92 5161   6.303   5.072   1.306
   13CHTO  H179 5162   6.256   5.170   1.286
   13CHTO   O66 5163   6.417   5.066   1.218
   13CHTO  H166 5164   6.390   5.075   1.129
   13CHTO   C93 5165   6.201   4.955   1.278
   13CHTO  H180 5166   6.256   4.860   1.286
   13CHTO   N16 5167   6.142   4.957   1.142
   13CHTO  H172 5168   6.220   4.947   1.068
   13CHTO  H173 5169   6.087   5.049   1.127
   13CHTO   C94 5170   6.090   4.957   1.389
   13CHTO  H181 5171   6.035   5.051   1.389
   13CHTO   O61 5172   6.151   4.945   1.518
   13CHTO   C95 5173   6.233   5.058   1.554
   13CHTO  H182 5174   6.172   5.149   1.551
   13CHTO  C106 5175   6.277   5.037   1.703
   13CHTO   O69 5176   6.340   5.154   1.756
   13CHTO  H169 5177   6.366   5.137   1.844
   13CHTO   O63 5178   5.985   4.832   1.374
   13CHTO   C96 5179   5.844   4.852   1.455
   13CHTO  H183 5180   5.771   4.788   1.406
   13CHTO   C98 5181   5.786   4.996   1.460
   13CHTO  H185 5182   5.862   5.065   1.499
   13CHTO   O67 5183   5.762   5.038   1.324
   13CHTO  H167 5184   5.696   4.984   1.284
   13CHTO  C102 5185   5.652   5.008   1.548
   13CHTO  H189 5186   5.573   4.960   1.488
   13CHTO   N18 5187   5.608   5.147   1.571
   13CHTO  H176 5188   5.685   5.203   1.622
   13CHTO  H177 5189   5.585   5.195   1.477
   13CHTO  C105 5190   5.667   4.929   1.681
   13CHTO  H192 5191   5.729   4.986   1.750
   13CHTO   O65 5192   5.728   4.799   1.665
   13CHTO  C100 5193   5.858   4.801   1.603
   13CHTO  H187 5194   5.923   4.870   1.659
   13CHTO  C107 5195   5.920   4.659   1.611
   13CHTO   O70 5196   5.940   4.618   1.746
   13CHTO  H170 5197   6.009   4.669   1.785
   13CHTO   O57 5198   5.513   4.911   1.745
   13CHTO   C85 5199   5.414   4.832   1.677
   13CHTO  H157 5200   5.461   4.795   1.584
   13CHTO   C83 5201   5.296   4.924   1.631
   13CHTO  H155 5202   5.337   5.001   1.566
   13CHTO   O56 5203   5.242   4.993   1.746
   13CHTO  H135 5204   5.177   5.055   1.719
   13CHTO   C81 5205   5.193   4.840   1.551
   13CHTO  H153 5206   5.245   4.796   1.465
   13CHTO   N14 5207   5.086   4.923   1.491
   13CHTO  H141 5208   5.023   4.862   1.429
   13CHTO  H142 5209   5.129   5.000   1.431
   13CHTO   C79 5210   5.138   4.722   1.640
   13CHTO  H151 5211   5.079   4.657   1.574
   13CHTO   O52 5212   5.248   4.640   1.691
   13CHTO   C86 5213   5.352   4.715   1.762
   13CHTO  H158 5214   5.301   4.753   1.853
   13CHTO   C90 5215   5.462   4.618   1.812
   13CHTO   O60 5216   5.409   4.525   1.907
   13CHTO  H138 5217   5.477   4.466   1.934
   13CHTO   O50 5218   5.053   4.765   1.749
   13CHTO   C73 5219   4.922   4.722   1.789
   13CHTO  H145 5220   4.872   4.667   1.707
   13CHTO   C74 5221   4.833   4.846   1.826
   13CHTO  H146 5222   4.829   4.911   1.737
   13CHTO   O54 5223   4.698   4.800   1.848
   13CHTO  H133 5224   4.660   4.770   1.768
   13CHTO   C75 5225   4.895   4.919   1.951
   13CHTO  H147 5226   4.994   4.958   1.921
   13CHTO   N13 5227   4.819   5.038   1.996
   13CHTO  H139 5228   4.868   5.085   2.080
   13CHTO  H140 5229   4.719   5.008   2.027
   13CHTO   C76 5230   4.917   4.814   2.070
   13CHTO  H148 5231   4.818   4.779   2.099
   13CHTO   O49 5232   4.994   4.698   2.023
   13CHTO   C77 5233   4.931   4.629   1.914
   13CHTO  H149 5234   4.831   4.597   1.942
   13CHTO   C88 5235   5.009   4.499   1.887
   13CHTO   O58 5236   4.944   4.418   1.778
   13CHTO  H136 5237   4.949   4.464   1.696
   13CHTO   O51 5238   4.999   4.880   2.203
   13CHTO   C78 5239   5.165   4.917   2.203
   13CHTO  H150 5240   5.194   4.949   2.305
   13CHTO   C80 5241   5.199   5.031   2.105
   13CHTO  H152 5242   5.172   4.999   2.002
   13CHTO   O55 5243   5.120   5.145   2.143
   13CHTO  H134 5244   5.029   5.130   2.124
   13CHTO   C84 5245   5.354   5.065   2.107
   13CHTO  H156 5246   5.379   5.102   2.206
   13CHTO   N15 5247   5.391   5.173   2.009
   13CHTO  H143 5248   5.496   5.193   2.015
   13CHTO  H144 5249   5.338   5.263   2.032
   13CHTO   C87 5250   5.434   4.935   2.081
   13CHTO  H159 5251   5.417   4.900   1.980
   13CHTO   O53 5252   5.388   4.827   2.184
   13CHTO   C82 5253   5.250   4.793   2.171
   13CHTO  H154 5254   5.230   4.757   2.070
   13CHTO   C89 5255   5.218   4.677   2.268
   13CHTO   O59 5256   5.289   4.558   2.231
   13CHTO  H137 5257   5.255   4.524   2.151
   13CHTO   O45 5258   5.595   4.962   2.100
   13CHTO   C67 5259   5.673   4.845   2.129
   13CHTO  H124 5260   5.618   4.753   2.106
   13CHTO   C65 5261   5.805   4.848   2.046
   13CHTO  H122 5262   5.774   4.870   1.944
   13CHTO   O44 5263   5.868   4.719   2.048
   13CHTO  H102 5264   5.900   4.700   2.134
   13CHTO   C63 5265   5.893   4.969   2.093
   13CHTO  H120 5266   5.833   5.060   2.085
   13CHTO   N11 5267   6.010   5.002   2.006
   13CHTO  H108 5268   6.082   4.923   2.011
   13CHTO  H109 5269   6.055   5.094   2.037
   13CHTO   C61 5270   5.927   4.952   2.246
   13CHTO  H118 5271   5.974   5.046   2.276
   13CHTO   O40 5272   5.806   4.938   2.326
   13CHTO   C68 5273   5.702   4.842   2.286
   13CHTO  H125 5274   5.608   4.876   2.336
   13CHTO   C72 5275   5.734   4.701   2.341
   13CHTO   O48 5276   5.629   4.606   2.318
   13CHTO  H105 5277   5.654   4.523   2.352
   13CHTO   O38 5278   6.015   4.840   2.275
   13CHTO   C55 5279   6.115   4.851   2.380
   13CHTO  H112 5280   6.140   4.746   2.402
   13CHTO   C56 5281   6.067   4.929   2.511
   13CHTO  H113 5282   6.021   5.024   2.479
   13CHTO   O42 5283   5.962   4.854   2.574
   13CHTO  H100 5284   5.993   4.770   2.602
   13CHTO   C57 5285   6.186   4.958   2.610
   13CHTO  H114 5286   6.221   4.862   2.649
   13CHTO   N10 5287   6.148   5.044   2.726
   13CHTO  H106 5288   6.210   5.020   2.811
   13CHTO  H107 5289   6.045   5.028   2.752
   13CHTO   C58 5290   6.301   5.023   2.529
   13CHTO  H115 5291   6.265   5.119   2.485
   13CHTO   O37 5292   6.343   4.935   2.424
   13CHTO   C59 5293   6.246   4.911   2.320
   13CHTO  H116 5294   6.226   5.004   2.267
   13CHTO   C70 5295   6.315   4.812   2.225
   13CHTO   O46 5296   6.241   4.782   2.107
   13CHTO  H103 5297   6.289   4.722   2.053
   13CHTO   O39 5298   6.436   5.049   2.620
   13CHTO   C60 5299   6.508   5.166   2.579
   13CHTO  H117 5300   6.480   5.193   2.477
   13CHTO   C62 5301   6.473   5.288   2.670
   13CHTO  H119 5302   6.363   5.303   2.660
   13CHTO   O43 5303   6.502   5.256   2.808
   13CHTO  H101 5304   6.595   5.243   2.819
   13CHTO   C66 5305   6.550   5.419   2.616
   13CHTO  H123 5306   6.521   5.436   2.512
   13CHTO   N12 5307   6.511   5.542   2.689
   13CHTO  H110 5308   6.533   5.531   2.794
   13CHTO  H111 5309   6.406   5.563   2.673
   13CHTO   C69 5310   6.703   5.395   2.616
   13CHTO  H126 5311   6.738   5.380   2.721
   13CHTO   O41 5312   6.736   5.266   2.531
   13CHTO   C64 5313   6.661   5.140   2.578
   13CHTO  H121 5314   6.694   5.114   2.682
   13CHTO   C71 5315   6.697   5.022   2.485
   13CHTO   O47 5316   6.837   4.992   2.492
   13CHTO  H104 5317   6.856   4.918   2.439
   13CHTO   O34 5318   6.781   5.519   2.553
   13CHTO   C49 5319   6.931   5.539   2.542
   13CHTO   H91 5320   6.975   5.443   2.515
   13CHTO   C47 5321   6.986   5.585   2.680
   13CHTO   H89 5322   7.096   5.591   2.665
   13CHTO   O33 5323   6.960   5.486   2.781
   13CHTO   H70 5324   7.006   5.407   2.761
   13CHTO   C45 5325   6.925   5.729   2.722
   13CHTO   H87 5326   6.830   5.712   2.775
   13CHTO    N8 5327   7.019   5.794   2.815
   13CHTO   H75 5328   6.978   5.888   2.849
   13CHTO   H76 5329   7.037   5.730   0.041
   13CHTO   C43 5330   6.884   5.814   2.590
   13CHTO   H85 5331   6.783   5.783   2.566
   13CHTO   O29 5332   6.976   5.785   2.483
   13CHTO   C50 5333   6.971   5.648   2.437
   13CHTO   H92 5334   6.899   5.642   2.354
   13CHTO   C54 5335   7.107   5.614   2.370
   13CHTO   O36 5336   7.131   5.696   2.255
   13CHTO   H72 5337   7.213   5.673   2.217
   13CHTO   O27 5338   6.874   5.957   2.610
   13CHTO   C37 5339   6.787   6.061   2.655
   13CHTO   H79 5340   6.716   6.023   2.731
   13CHTO   C38 5341   6.868   6.177   2.723
   13CHTO   H80 5342   6.945   6.210   2.652
   13CHTO   O31 5343   6.932   6.123   2.840
   13CHTO   H68 5344   6.999   6.062   2.815
   13CHTO   C39 5345   6.775   6.299   2.761
   13CHTO   H81 5346   6.709   6.265   2.841
   13CHTO    N7 5347   6.851   6.417   2.814
   13CHTO   H73 5348   6.919   6.455   2.739
   13CHTO   H74 5349   6.782   6.495   2.845
   13CHTO   C40 5350   6.683   6.340   2.639
   13CHTO   H82 5351   6.741   6.393   2.563
   13CHTO   O26 5352   6.616   6.226   2.584
   13CHTO   C41 5353   6.705   6.120   2.537
   13CHTO   H83 5354   6.775   6.163   2.462
   13CHTO   C52 5355   6.619   6.014   2.464
   13CHTO   O35 5356   6.519   5.949   2.553
   13CHTO   H71 5357   6.455   6.011   2.581
   13CHTO   O28 5358   6.573   6.423   2.683
   13CHTO   C42 5359   6.516   6.529   2.599
   13CHTO   H84 5360   6.530   6.494   2.496
   13CHTO   C44 5361   6.588   6.668   2.608
   13CHTO   H86 5362   6.593   6.698   2.713
   13CHTO   O32 5363   6.723   6.650   2.561
   13CHTO   H69 5364   6.772   6.597   2.621
   13CHTO   C48 5365   6.514   6.783   2.528
   13CHTO   H90 5366   6.526   6.763   2.422
   13CHTO    N9 5367   6.576   6.918   2.552
   13CHTO   H77 5368   6.569   6.944   2.657
   13CHTO   H78 5369   6.527   6.993   2.492
   13CHTO   C51 5370   6.360   6.781   2.561
   13CHTO   H93 5371   6.348   6.804   2.667
   13CHTO   O30 5372   6.309   6.651   2.529
   13CHTO   C46 5373   6.363   6.545   2.622
   13CHTO   H88 5374   6.346   6.576   2.725
   13CHTO   C53 5375   6.288   6.413   2.593
   13CHTO   O72 5376   6.148   6.426   2.622
   13CHTO  H199 5377   6.135   6.435   2.714
   13CHTO   O22 5378   6.286   6.876   2.481
   13CHTO   C31 5379   6.142   6.905   2.499
   13CHTO   H59 5380   6.122   6.998   2.442
   13CHTO   C29 5381   6.049   6.796   2.441
   13CHTO   H57 5382   6.074   6.701   2.489
   13CHTO   O21 5383   6.080   6.782   2.301
   13CHTO   H37 5384   6.056   6.859   2.253
   13CHTO   C27 5385   5.895   6.826   2.466
   13CHTO   H55 5386   5.867   6.916   2.408
   13CHTO    N5 5387   5.808   6.713   2.423
   13CHTO   H43 5388   5.829   6.625   2.482
   13CHTO   H44 5389   5.704   6.741   2.432
   13CHTO   C25 5390   5.874   6.860   2.618
   13CHTO   H53 5391   5.899   6.771   2.679
   13CHTO   O17 5392   5.962   6.969   2.657
   13CHTO   C32 5393   6.102   6.937   2.647
   13CHTO   H60 5394   6.122   6.850   2.709
   13CHTO   C36 5395   6.182   7.057   2.705
   13CHTO   O25 5396   6.158   7.179   2.635
   13CHTO   H40 5397   6.196   7.175   2.549
   13CHTO   O15 5398   5.726   6.903   2.650
   13CHTO   C19 5399   5.615   6.988   2.610
   13CHTO   H47 5400   5.575   7.025   2.706
   13CHTO   C20 5401   5.654   7.110   2.522
   13CHTO   H48 5402   5.705   7.079   2.429
   13CHTO   O19 5403   5.749   7.188   2.598
   13CHTO   H35 5404   5.709   7.224   2.675
   13CHTO   C21 5405   5.528   7.198   2.481
   13CHTO   H49 5406   5.489   7.246   2.571
   13CHTO    N4 5407   5.563   7.307   2.386
   13CHTO   H41 5408   5.474   7.364   2.362
   13CHTO   H42 5409   5.636   7.373   2.431
   13CHTO   C22 5410   5.415   7.106   2.428
   13CHTO   H50 5411   5.446   7.063   2.332
   13CHTO   O14 5412   5.389   7.000   2.522
   13CHTO   C23 5413   5.499   6.910   2.542
   13CHTO   H51 5414   5.529   6.870   2.444
   13CHTO   C34 5415   5.451   6.793   2.629
   13CHTO   O23 5416   5.352   6.715   2.561
   13CHTO   H38 5417   5.325   6.644   2.615
   13CHTO   O16 5418   5.292   7.180   2.410
   13CHTO   C24 5419   5.147   7.108   2.436
   13CHTO   H52 5420   5.151   7.038   2.520
   13CHTO   C26 5421   5.100   7.034   2.310
   13CHTO   H54 5422   5.101   7.105   2.224
   13CHTO   O20 5423   5.195   6.929   2.280
   13CHTO   H36 5424   5.196   6.865   2.348
   13CHTO   C30 5425   4.954   6.980   2.327
   13CHTO   H58 5426   4.953   6.901   2.404
   13CHTO    N6 5427   4.903   6.917   2.202
   13CHTO   H45 5428   4.803   6.881   2.217
   13CHTO   H46 5429   4.967   6.835   2.174
   13CHTO   C33 5430   4.861   7.094   2.379
   13CHTO   H61 5431   4.853   7.171   2.301
   13CHTO   O18 5432   4.918   7.155   2.496
   13CHTO   C28 5433   5.045   7.217   2.475
   13CHTO   H56 5434   5.039   7.290   2.394
   13CHTO   C35 5435   5.090   7.290   2.604
   13CHTO   O24 5436   5.002   7.398   2.638
   13CHTO   H39 5437   5.035   7.442   2.714
   13CHTO    O9 5438   4.725   7.052   2.402
   13CHTO   C13 5439   4.701   6.950   2.527
   13CHTO   H26 5440   4.798   6.931   2.577
   13CHTO   C11 5441   4.638   6.818   2.469
   13CHTO   H24 5442   4.710   6.773   2.398
   13CHTO    O8 5443   4.519   6.851   2.394
   13CHTO    H3 5444   4.484   6.774   2.353
   13CHTO    C9 5445   4.615   6.719   2.586
   13CHTO   H22 5446   4.716   6.695   2.624
   13CHTO    N2 5447   4.564   6.587   2.541
   13CHTO   H10 5448   4.464   6.598   2.502
   13CHTO   H11 5449   4.630   6.546   2.465
   13CHTO    C7 5450   4.534   6.788   2.704
   13CHTO   H20 5451   4.608   6.790   2.787
   13CHTO    O4 5452   4.496   6.924   2.673
   13CHTO   C14 5453   4.605   7.012   2.639
   13CHTO   H27 5454   4.665   7.030   2.731
   13CHTO   C18 5455   4.544   7.148   2.597
   13CHTO   O13 5456   4.474   7.211   2.705
   13CHTO    H7 5457   4.535   7.239   2.771
   13CHTO    O2 5458   4.397   6.705   2.757
   13CHTO    C1 5459   4.395   6.689   0.040
   13CHTO   H14 5460   4.453   6.771   0.087
   13CHTO    C2 5461   4.451   6.550   0.091
   13CHTO   H15 5462   4.386   6.472   0.049
   13CHTO    O6 5463   4.585   6.532   0.041
   13CHTO    H1 5464   4.584   6.524   2.807
   13CHTO    C3 5465   4.447   6.547   0.251
   13CHTO   H16 5466   4.519   6.622   0.288
   13CHTO    N1 5467   4.490   6.415   0.308
   13CHTO    H8 5468   4.486   6.418   0.416
   13CHTO    H9 5469   4.425   6.337   0.272
   13CHTO    C4 5470   4.305   6.592   0.306
   13CHTO   H17 5471   4.235   6.509   0.296
   13CHTO    O1 5472   4.254   6.709   0.238
   13CHTO    C5 5473   4.250   6.702   0.095
   13CHTO   H18 5474   4.194   6.613   0.064
   13CHTO   C16 5475   4.178   6.828   0.041
   13CHTO   O11 5476   4.038   6.823   0.073
   13CHTO    H5 5477   4.025   6.831   0.165
   13CHTO    O3 5478   4.318   6.630   0.445
   13CHTO    C6 5479   4.193   6.653   0.518
   13CHTO   H19 5480   4.106   6.661   0.451
   13CHTO    C8 5481   4.165   6.538   0.620
   13CHTO   H21 5482   4.253   6.529   0.685
   13CHTO    O7 5483   4.149   6.418   0.543
   13CHTO    H2 5484   4.137   6.344   0.600
   13CHTO   C12 5485   4.038   6.571   0.708
   13CHTO   H25 5486   3.951   6.569   0.638
   13CHTO    N3 5487   4.012   6.465   0.811
   13CHTO   H12 5488   3.925   6.491   0.869
   13CHTO   H13 5489   3.997   6.370   0.763
   13CHTO   C15 5490   4.050   6.716   0.768
   13CHTO   H28 5491   4.125   6.720   0.848
   13CHTO   O10 5492   3.915   6.768   0.822
   13CHTO    H4 5493   3.886   6.715   0.894
   13CHTO    O5 5494   4.080   6.813   0.667
   13CHTO   C10 5495   4.202   6.788   0.595
   13CHTO   H23 5496   4.285   6.783   0.667
   13CHTO   C17 5497   4.229   6.907   0.502
   13CHTO   O12 5498   4.256   7.027   0.575
   13CHTO    H6 5499   4.339   7.020   0.618
   14CHTO  H203 5500   6.984   4.402   2.191
   14CHTO   O82 5501   6.899   4.438   2.207
   14CHTO  C123 5502   6.830   4.460   2.083
   14CHTO  H227 5503   6.898   4.511   2.013
   14CHTO   O77 5504   6.802   4.324   2.036
   14CHTO  C118 5505   6.735   4.319   1.909
   14CHTO  H222 5506   6.792   4.379   1.836
   14CHTO  C125 5507   6.731   4.170   1.860
   14CHTO   O84 5508   6.862   4.124   1.826
   14CHTO  H205 5509   6.857   4.035   1.797
   14CHTO  C114 5510   6.595   4.380   1.924
   14CHTO  H218 5511   6.541   4.326   2.001
   14CHTO  C116 5512   6.608   4.529   1.970
   14CHTO  H220 5513   6.655   4.588   1.888
   14CHTO   O79 5514   6.476   4.585   1.988
   14CHTO  H201 5515   6.430   4.539   2.056
   14CHTO  C120 5516   6.695   4.540   2.102
   14CHTO  H224 5517   6.635   4.493   2.183
   14CHTO   N21 5518   6.721   4.681   2.141
   14CHTO  H211 5519   6.726   4.744   2.054
   14CHTO  H212 5520   6.643   4.715   2.208
   14CHTO   O75 5521   6.531   4.363   1.796
   14CHTO  C112 5522   6.366   4.350   1.806
   14CHTO  H216 5523   6.327   4.440   1.855
   14CHTO   O73 5524   6.336   4.231   1.882
   14CHTO  C113 5525   6.198   4.221   1.917
   14CHTO  H217 5526   6.168   4.311   1.975
   14CHTO  C124 5527   6.183   4.099   2.010
   14CHTO   O83 5528   6.052   4.084   2.066
   14CHTO  H204 5529   6.049   4.007   2.119
   14CHTO  C109 5530   6.111   4.207   1.789
   14CHTO  H213 5531   6.131   4.108   1.747
   14CHTO  C110 5532   6.145   4.318   1.683
   14CHTO  H214 5533   6.102   4.412   1.717
   14CHTO   O78 5534   6.081   4.284   1.559
   14CHTO  H200 5535   5.988   4.290   1.567
   14CHTO  C111 5536   6.299   4.335   1.664
   14CHTO  H215 5537   6.339   4.245   1.616
   14CHTO   N19 5538   6.335   4.450   1.577
   14CHTO  H207 5539   6.290   4.437   1.479
   14CHTO  H208 5540   6.442   4.457   1.567
   14CHTO   O74 5541   5.971   4.215   1.827
   14CHTO  C115 5542   5.869   4.125   1.744
   14CHTO  H219 5543   5.851   4.166   1.644
   14CHTO   O76 5544   5.925   3.980   1.721
   14CHTO  C122 5545   5.839   3.893   1.645
   14CHTO  H226 5546   5.883   3.794   1.649
   14CHTO  C126 5547   5.840   3.935   1.493
   14CHTO   O85 5548   5.970   3.920   1.434
   14CHTO  H206 5549   5.965   3.944   1.343
   14CHTO  C121 5550   5.692   3.886   1.703
   14CHTO  H225 5551   5.628   3.836   1.628
   14CHTO   O81 5552   5.693   3.804   1.821
   14CHTO  H202 5553   5.717   3.716   1.800
   14CHTO  C119 5554   5.632   4.027   1.735
   14CHTO  H223 5555   5.617   4.075   1.638
   14CHTO  C117 5556   5.730   4.117   1.819
   14CHTO  H221 5557   5.754   4.082   1.919
   14CHTO   N20 5558   5.673   4.255   1.839
   14CHTO  H209 5559   5.580   4.248   1.893
   14CHTO  H210 5560   5.657   4.303   1.743
   14CHTO   O80 5561   5.481   4.019   1.791
   14CHTO  C103 5562   5.366   3.976   1.697
   14CHTO  H190 5563   5.402   3.970   1.594
   14CHTO  C101 5564   5.294   3.842   1.734
   14CHTO  H188 5565   5.266   3.845   1.840
   14CHTO   O68 5566   5.394   3.723   1.714
   14CHTO  H168 5567   5.417   3.714   1.624
   14CHTO   C99 5568   5.161   3.822   1.648
   14CHTO  H186 5569   5.189   3.810   1.541
   14CHTO   N17 5570   5.081   3.700   1.685
   14CHTO  H174 5571   4.979   3.724   1.709
   14CHTO  H175 5572   5.086   3.626   1.606
   14CHTO   C97 5573   5.074   3.951   1.653
   14CHTO  H184 5574   5.031   3.962   1.754
   14CHTO   O64 5575   5.151   4.066   1.616
   14CHTO  C104 5576   5.262   4.095   1.702
   14CHTO  H191 5577   5.230   4.110   1.805
   14CHTO  C108 5578   5.326   4.227   1.657
   14CHTO   O71 5579   5.233   4.336   1.665
   14CHTO  H171 5580   5.275   4.415   1.637
   14CHTO   O62 5581   4.972   3.953   1.552
   14CHTO   C91 5582   4.835   3.968   1.593
   14CHTO  H178 5583   4.809   3.878   1.648
   14CHTO   C92 5584   4.749   3.966   1.462
   14CHTO  H179 5585   4.780   3.882   1.398
   14CHTO   O66 5586   4.613   3.937   1.498
   14CHTO  H166 5587   4.578   4.003   1.555
   14CHTO   C93 5588   4.752   4.104   1.384
   14CHTO  H180 5589   4.665   4.103   1.316
   14CHTO   N16 5590   4.869   4.118   1.294
   14CHTO  H172 5591   4.960   4.114   1.351
   14CHTO  H173 5592   4.862   4.212   1.239
   14CHTO   C94 5593   4.738   4.226   1.483
   14CHTO  H181 5594   4.832   4.282   1.494
   14CHTO   O61 5595   4.702   4.184   1.616
   14CHTO   C95 5596   4.800   4.099   1.679
   14CHTO  H182 5597   4.891   4.156   1.696
   14CHTO  C106 5598   4.745   4.058   1.821
   14CHTO   O69 5599   4.730   4.173   1.905
   14CHTO  H169 5600   4.696   4.146   1.988
   14CHTO   O63 5601   4.626   4.322   1.429
   14CHTO   C96 5602   4.620   4.462   1.503
   14CHTO  H183 5603   4.696   4.464   1.581
   14CHTO   C98 5604   4.483   4.491   1.570
   14CHTO  H185 5605   4.402   4.472   1.498
   14CHTO   O67 5606   4.466   4.392   1.674
   14CHTO  H167 5607   4.381   4.401   1.713
   14CHTO  C102 5608   4.473   4.640   1.630
   14CHTO  H189 5609   4.540   4.642   1.716
   14CHTO   N18 5610   4.338   4.676   1.683
   14CHTO  H176 5611   4.265   4.670   1.604
   14CHTO  H177 5612   4.340   4.775   1.725
   14CHTO  C105 5613   4.524   4.743   1.525
   14CHTO  H192 5614   4.450   4.754   1.445
   14CHTO   O65 5615   4.650   4.705   1.466
   14CHTO  C100 5616   4.651   4.577   1.401
   14CHTO  H187 5617   4.573   4.577   1.323
   14CHTO  C107 5618   4.787   4.556   1.330
   14CHTO   O70 5619   4.897   4.561   1.422
   14CHTO  H170 5620   4.908   4.648   1.454
   14CHTO   O57 5621   4.544   4.886   1.605
   14CHTO   C85 5622   4.506   5.010   1.543
   14CHTO  H157 5623   4.407   4.991   1.496
   14CHTO   C83 5624   4.604   5.043   1.426
   14CHTO  H155 5625   4.595   4.964   1.351
   14CHTO   O56 5626   4.740   5.039   1.474
   14CHTO  H135 5627   4.754   5.107   1.537
   14CHTO   C81 5628   4.563   5.178   1.360
   14CHTO  H153 5629   4.458   5.170   1.330
   14CHTO   N14 5630   4.636   5.207   1.234
   14CHTO  H141 5631   4.569   5.208   1.151
   14CHTO  H142 5632   4.687   5.301   1.240
   14CHTO   C79 5633   4.574   5.293   1.467
   14CHTO  H151 5634   4.535   5.384   1.420
   14CHTO   O52 5635   4.486   5.265   1.580
   14CHTO   C86 5636   4.501   5.133   1.643
   14CHTO  H158 5637   4.595   5.142   1.702
   14CHTO   C90 5638   4.387   5.119   1.747
   14CHTO   O60 5639   4.401   5.002   1.828
   14CHTO  H138 5640   4.324   4.991   1.881
   14CHTO   O50 5641   4.708   5.319   1.512
   14CHTO   C73 5642   4.769   5.428   1.582
   14CHTO  H145 5643   4.717   5.446   1.677
   14CHTO   C74 5644   4.764   5.560   1.497
   14CHTO  H146 5645   4.658   5.579   1.475
   14CHTO   O54 5646   4.808   5.669   1.580
   14CHTO  H133 5647   4.898   5.658   1.604
   14CHTO   C75 5648   4.850   5.541   1.366
   14CHTO  H147 5649   4.806   5.458   1.307
   14CHTO   N13 5650   4.848   5.659   1.277
   14CHTO  H139 5651   4.810   5.633   1.179
   14CHTO  H140 5652   4.947   5.702   1.265
   14CHTO   C76 5653   4.998   5.496   1.406
   14CHTO  H148 5654   5.045   5.578   1.459
   14CHTO   O49 5655   4.995   5.377   1.492
   14CHTO   C77 5656   4.918   5.395   1.613
   14CHTO  H149 5657   4.961   5.475   1.672
   14CHTO   C88 5658   4.931   5.268   1.699
   14CHTO   O58 5659   5.070   5.248   1.744
   14CHTO  H136 5660   5.074   5.172   1.798
   14CHTO   O51 5661   5.082   5.449   1.276
   14CHTO   C78 5662   5.236   5.488   1.286
   14CHTO  H150 5663   5.259   5.538   1.383
   14CHTO   C80 5664   5.273   5.584   1.171
   14CHTO  H152 5665   5.253   5.533   1.075
   14CHTO   O55 5666   5.190   5.700   1.184
   14CHTO  H134 5667   5.202   5.757   1.110
   14CHTO   C84 5668   5.427   5.621   1.175
   14CHTO  H156 5669   5.444   5.676   1.267
   14CHTO   N15 5670   5.469   5.711   1.061
   14CHTO  H143 5671   5.386   5.733   0.997
   14CHTO  H144 5672   5.510   5.802   1.099
   14CHTO   C87 5673   5.511   5.491   1.178
   14CHTO  H159 5674   5.504   5.440   1.082
   14CHTO   O53 5675   5.460   5.397   1.294
   14CHTO   C82 5676   5.323   5.361   1.276
   14CHTO  H154 5677   5.310   5.315   1.179
   14CHTO   C89 5678   5.283   5.255   1.382
   14CHTO   O59 5679   5.296   5.303   1.516
   14CHTO  H137 5680   5.270   5.235   1.576
   14CHTO   O45 5681   5.664   5.526   1.209
   14CHTO   C67 5682   5.755   5.416   1.195
   14CHTO  H124 5683   5.711   5.324   1.233
   14CHTO   C65 5684   5.795   5.396   1.045
   14CHTO  H122 5685   5.703   5.401   0.988
   14CHTO   O44 5686   5.854   5.266   1.027
   14CHTO  H102 5687   5.937   5.262   1.070
   14CHTO   C63 5688   5.881   5.519   0.997
   14CHTO  H120 5689   5.824   5.610   1.014
   14CHTO   N11 5690   5.908   5.526   0.850
   14CHTO  H108 5691   5.972   5.445   0.820
   14CHTO  H109 5692   5.816   5.522   0.795
   14CHTO   C61 5693   6.010   5.529   1.087
   14CHTO  H118 5694   6.062   5.622   1.058
   14CHTO   O40 5695   5.973   5.544   1.227
   14CHTO   C68 5696   5.881   5.446   1.286
   14CHTO  H125 5697   5.841   5.491   1.379
   14CHTO   C72 5698   5.956   5.317   1.329
   14CHTO   O48 5699   6.067   5.343   1.414
   14CHTO  H105 5700   6.135   5.387   1.366
   14CHTO   O38 5701   6.099   5.416   1.079
   14CHTO   C55 5702   6.221   5.424   1.002
   14CHTO  H112 5703   6.218   5.511   0.933
   14CHTO   C56 5704   6.238   5.287   0.924
   14CHTO  H113 5705   6.226   5.207   0.999
   14CHTO   O42 5706   6.131   5.271   0.829
   14CHTO  H100 5707   6.049   5.263   0.873
   14CHTO   C57 5708   6.379   5.276   0.854
   14CHTO  H114 5709   6.377   5.344   0.769
   14CHTO   N10 5710   6.407   5.140   0.801
   14CHTO  H106 5711   6.453   5.078   0.876
   14CHTO  H107 5712   6.472   5.146   0.715
   14CHTO   C58 5713   6.492   5.322   0.950
   14CHTO  H115 5714   6.507   5.244   1.029
   14CHTO   O37 5715   6.463   5.448   1.012
   14CHTO   C59 5716   6.345   5.445   1.094
   14CHTO  H116 5717   6.352   5.363   1.166
   14CHTO   C70 5718   6.339   5.575   1.175
   14CHTO   O46 5719   6.337   5.694   1.095
   14CHTO  H103 5720   6.256   5.699   1.048
   14CHTO   O39 5721   6.628   5.344   0.867
   14CHTO   C60 5722   6.748   5.336   0.946
   14CHTO  H117 5723   6.733   5.391   1.039
   14CHTO   C62 5724   6.785   5.188   0.982
   14CHTO  H119 5725   6.702   5.150   1.046
   14CHTO   O43 5726   6.790   5.110   0.861
   14CHTO  H101 5727   6.704   5.103   0.823
   14CHTO   C66 5728   6.922   5.185   1.065
   14CHTO  H123 5729   6.911   5.248   1.153
   14CHTO   N12 5730   6.955   5.049   1.115
   14CHTO  H110 5731   7.048   5.052   1.170
   14CHTO  H111 5732   6.875   5.013   1.178
   14CHTO   C69 5733   7.033   5.247   0.977
   14CHTO  H126 5734   7.044   5.190   0.882
   14CHTO   O41 5735   6.992   5.394   0.946
   14CHTO   C64 5736   6.864   5.407   0.870
   14CHTO  H121 5737   6.876   5.361   0.770
   14CHTO   C71 5738   6.839   5.559   0.852
   14CHTO   O47 5739   6.734   5.586   0.759
   14CHTO  H104 5740   6.722   5.678   0.752
   14CHTO   O34 5741   7.169   5.250   1.048
   14CHTO   C49 5742   7.308   5.297   1.012
   14CHTO   H91 5743   7.348   5.227   0.938
   14CHTO   C47 5744   7.392   5.293   1.141
   14CHTO   H89 5745   7.495   5.321   1.109
   14CHTO   O33 5746   7.397   5.160   1.195
   14CHTO   H70 5747   7.312   5.132   1.221
   14CHTO   C45 5748   7.334   5.398   1.250
   14CHTO   H87 5749   7.261   5.346   1.313
   14CHTO    N8 5750   7.447   5.441   1.337
   14CHTO   H75 5751   7.409   5.502   1.418
   14CHTO   H76 5752   7.518   5.498   1.280
   14CHTO   C43 5753   7.251   5.516   1.177
   14CHTO   H85 5754   7.151   5.475   1.163
   14CHTO   O29 5755   7.313   5.551   1.052
   14CHTO   C50 5756   7.314   5.443   0.955
   14CHTO   H92 5757   7.227   5.457   0.889
   14CHTO   C54 5758   7.434   5.462   0.860
   14CHTO   O36 5759   7.423   5.583   0.785
   14CHTO   H72 5760   7.497   5.592   0.728
   14CHTO   O27 5761   7.230   5.633   1.259
   14CHTO   C37 5762   7.122   5.716   1.305
   14CHTO   H79 5763   7.159   5.818   1.322
   14CHTO   C38 5764   7.008   5.726   1.199
   14CHTO   H80 5765   6.978   5.624   1.170
   14CHTO   O31 5766   7.063   5.793   1.084
   14CHTO   H68 5767   7.001   5.793   1.014
   14CHTO   C39 5768   6.883   5.803   1.256
   14CHTO   H81 5769   6.913   5.907   1.270
   14CHTO    N7 5770   6.766   5.804   1.161
   14CHTO   H73 5771   6.681   5.752   1.203
   14CHTO   H74 5772   6.739   5.905   1.136
   14CHTO   C40 5773   6.841   5.748   1.398
   14CHTO   H82 5774   6.790   5.652   1.389
   14CHTO   O26 5775   6.955   5.740   1.486
   14CHTO   C41 5776   7.066   5.659   1.438
   14CHTO   H83 5777   7.032   5.556   1.421
   14CHTO   C52 5778   7.172   5.656   1.550
   14CHTO   O35 5779   7.219   5.794   1.591
   14CHTO   H71 5780   7.265   5.835   1.520
   14CHTO   O28 5781   6.759   5.842   1.470
   14CHTO   C42 5782   6.642   5.805   1.550
   14CHTO   H84 5783   6.633   5.887   1.621
   14CHTO   C44 5784   6.651   5.674   1.635
   14CHTO   H86 5785   6.669   5.589   1.569
   14CHTO   O32 5786   6.765   5.686   1.722
   14CHTO   H69 5787   6.752   5.756   1.784
   14CHTO   C48 5788   6.518   5.644   1.716
   14CHTO   H90 5789   6.509   5.720   1.794
   14CHTO    N9 5790   6.521   5.512   1.790
   14CHTO   H77 5791   6.615   5.461   1.774
   14CHTO   H78 5792   6.438   5.449   1.760
   14CHTO   C51 5793   6.392   5.657   1.622
   14CHTO   H93 5794   6.394   5.575   1.550
   14CHTO   O30 5795   6.395   5.785   1.557
   14CHTO   C46 5796   6.512   5.804   1.466
   14CHTO   H88 5797   6.515   5.721   1.394
   14CHTO   C53 5798   6.492   5.937   1.390
   14CHTO   O72 5799   6.378   5.930   1.304
   14CHTO  H199 5800   6.368   6.013   1.260
   14CHTO   O22 5801   6.269   5.659   1.696
   14CHTO   C31 5802   6.142   5.599   1.649
   14CHTO   H59 5803   6.169   5.533   1.563
   14CHTO   C29 5804   6.075   5.510   1.756
   14CHTO   H57 5805   6.067   5.571   1.848
   14CHTO   O21 5806   6.166   5.402   1.788
   14CHTO   H37 5807   6.244   5.436   1.826
   14CHTO   C27 5808   5.931   5.458   1.716
   14CHTO   H55 5809   5.941   5.389   1.632
   14CHTO    N5 5810   5.863   5.387   1.828
   14CHTO   H43 5811   5.844   5.285   1.800
   14CHTO   H44 5812   5.771   5.436   1.856
   14CHTO   C25 5813   5.847   5.580   1.664
   14CHTO   H53 5814   5.834   5.653   1.746
   14CHTO   O17 5815   5.918   5.643   1.555
   14CHTO   C32 5816   6.042   5.705   1.592
   14CHTO   H60 5817   6.024   5.781   1.668
   14CHTO   C36 5818   6.096   5.773   1.464
   14CHTO   O25 5819   6.006   5.873   1.413
   14CHTO   H40 5820   5.929   5.831   1.379
   14CHTO   O15 5821   5.707   5.538   1.609
   14CHTO   C19 5822   5.571   5.587   1.589
   14CHTO   H47 5823   5.536   5.532   1.500
   14CHTO   C20 5824   5.474   5.558   1.708
   14CHTO   H48 5825   5.509   5.605   1.801
   14CHTO   O19 5826   5.475   5.416   1.730
   14CHTO   H35 5827   5.559   5.388   1.762
   14CHTO   C21 5828   5.327   5.609   1.679
   14CHTO   H49 5829   5.283   5.545   1.602
   14CHTO    N4 5830   5.237   5.597   1.797
   14CHTO   H41 5831   5.229   5.494   1.827
   14CHTO   H42 5832   5.276   5.655   1.880
   14CHTO   C22 5833   5.329   5.753   1.621
   14CHTO   H50 5834   5.352   5.824   1.701
   14CHTO   O14 5835   5.425   5.766   1.515
   14CHTO   C23 5836   5.560   5.739   1.554
   14CHTO   H51 5837   5.585   5.803   1.640
   14CHTO   C34 5838   5.651   5.780   1.437
   14CHTO   O23 5839   5.644   5.921   1.413
   14CHTO   H38 5840   5.700   5.943   1.341
   14CHTO   O16 5841   5.202   5.784   1.559
   14CHTO   C24 5842   5.161   5.945   1.536
   14CHTO   H52 5843   5.068   5.955   1.480
   14CHTO   C26 5844   5.271   6.022   1.460
   14CHTO   H54 5845   5.366   6.012   1.516
   14CHTO   O20 5846   5.287   5.960   1.331
   14CHTO   H36 5847   5.324   5.874   1.340
   14CHTO   C30 5848   5.236   6.173   1.448
   14CHTO   H58 5849   5.151   6.186   1.379
   14CHTO    N6 5850   5.349   6.250   1.387
   14CHTO   H45 5851   5.322   6.355   1.379
   14CHTO   H46 5852   5.371   6.212   1.289
   14CHTO   C33 5853   5.191   6.234   1.585
   14CHTO   H61 5854   5.278   6.243   1.652
   14CHTO   O18 5855   5.094   6.148   1.649
   14CHTO   C28 5856   5.137   6.014   1.673
   14CHTO   H56 5857   5.231   6.014   1.729
   14CHTO   C35 5858   5.031   5.940   1.758
   14CHTO   O24 5859   4.902   5.931   1.696
   14CHTO   H39 5860   4.907   5.875   1.620
   14CHTO    O9 5861   5.140   6.368   1.567
   14CHTO   C13 5862   5.108   6.448   1.705
   14CHTO   H26 5863   5.088   6.374   1.785
   14CHTO   C11 5864   4.983   6.542   1.679
   14CHTO   H24 5865   4.896   6.476   1.661
   14CHTO    O8 5866   5.002   6.622   1.561
   14CHTO    H3 5867   5.009   6.567   1.485
   14CHTO    C9 5868   4.958   6.623   1.809
   14CHTO   H22 5869   4.951   6.549   1.890
   14CHTO    N2 5870   4.827   6.694   1.811
   14CHTO   H10 5871   4.761   6.649   1.884
   14CHTO   H11 5872   4.781   6.694   1.714
   14CHTO    C7 5873   5.081   6.716   1.837
   14CHTO   H20 5874   5.061   6.761   1.937
   14CHTO    O4 5875   5.205   6.641   1.845
   14CHTO   C14 5876   5.234   6.532   1.754
   14CHTO   H27 5877   5.298   6.462   1.812
   14CHTO   C18 5878   5.320   6.583   1.636
   14CHTO   O13 5879   5.453   6.615   1.679
   14CHTO    H7 5880   5.503   6.645   1.606
   14CHTO    O2 5881   5.098   6.838   1.724
   14CHTO    C1 5882   5.155   6.964   1.765
   14CHTO   H14 5883   5.171   7.025   1.673
   14CHTO    C2 5884   5.293   6.955   1.842
   14CHTO   H15 5885   5.276   6.893   1.931
   14CHTO    O6 5886   5.389   6.891   1.755
   14CHTO    H1 5887   5.469   6.874   1.802
   14CHTO    C3 5888   5.347   7.100   1.883
   14CHTO   H16 5889   5.386   7.146   1.791
   14CHTO    N1 5890   5.462   7.094   1.979
   14CHTO    H8 5891   5.543   7.038   1.935
   14CHTO    H9 5892   5.496   7.194   2.003
   14CHTO    C4 5893   5.233   7.197   1.934
   14CHTO   H17 5894   5.217   7.181   2.041
   14CHTO    O1 5895   5.109   7.183   1.863
   14CHTO    C5 5896   5.059   7.048   1.854
   14CHTO   H18 5897   5.056   7.003   1.953
   14CHTO   C16 5898   4.915   7.056   1.799
   14CHTO   O11 5899   4.828   7.121   1.892
   14CHTO    H5 5900   4.742   7.125   1.857
   14CHTO    O3 5901   5.276   7.333   1.908
   14CHTO    C6 5902   5.204   7.442   1.974
   14CHTO   H19 5903   5.104   7.413   2.008
   14CHTO    C8 5904   5.286   7.492   2.097
   14CHTO   H21 5905   5.390   7.504   2.066
   14CHTO    O7 5906   5.277   7.389   2.197
   14CHTO    H2 5907   5.333   7.410   2.270
   14CHTO   C12 5908   5.232   7.631   2.150
   14CHTO   H25 5909   5.132   7.611   2.194
   14CHTO    N3 5910   5.318   7.685   2.261
   14CHTO   H12 5911   5.319   7.616   2.344
   14CHTO   H13 5912   5.418   7.701   2.225
   14CHTO   C15 5913   5.214   7.731   2.031
   14CHTO   H28 5914   5.310   7.760   1.987
   14CHTO   O10 5915   5.136   7.859   2.068
   14CHTO    H4 5916   5.184   7.909   2.131
   14CHTO    O5 5917   5.129   7.674   1.930
   14CHTO   C10 5918   5.184   7.556   1.870
   14CHTO   H23 5919   5.281   7.582   1.826
   14CHTO   C17 5920   5.093   7.513   1.754
   14CHTO   O12 5921   4.960   7.483   1.797
   14CHTO    H6 5922   4.908   7.458   1.723
   15CHTO  H203 5923   7.135   4.645   1.801
   15CHTO   O82 5924   7.097   4.572   1.846
   15CHTO  C123 5925   7.055   4.471   1.754
   15CHTO  H227 5926   7.015   4.385   1.811
   15CHTO   O77 5927   6.947   4.535   1.679
   15CHTO  C118 5928   6.880   4.451   1.583
   15CHTO  H222 5929   6.836   4.363   1.632
   15CHTO  C125 5930   6.766   4.536   1.518
   15CHTO   O84 5931   6.668   4.575   1.616
   15CHTO  H205 5932   6.601   4.625   1.575
   15CHTO  C114 5933   6.980   4.402   1.476
   15CHTO  H218 5934   7.018   4.489   1.423
   15CHTO  C116 5935   7.105   4.334   1.541
   15CHTO  H220 5936   7.076   4.236   1.584
   15CHTO   O79 5937   7.201   4.305   1.437
   15CHTO  H201 5938   7.232   4.384   1.397
   15CHTO  C120 5939   7.168   4.425   1.654
   15CHTO  H224 5940   7.212   4.514   1.603
   15CHTO   N21 5941   7.278   4.356   1.726
   15CHTO  H211 5942   7.330   4.288   1.660
   15CHTO  H212 5943   7.347   4.429   1.766
   15CHTO   O75 5944   6.903   4.324   1.383
   15CHTO  C112 5945   6.884   4.165   1.416
   15CHTO  H216 5946   6.878   4.150   1.525
   15CHTO   O73 5947   6.998   4.096   1.360
   15CHTO  C113 5948   6.994   3.953   1.368
   15CHTO  H217 5949   6.985   3.923   1.475
   15CHTO  C124 5950   7.127   3.897   1.316
   15CHTO   O83 5951   7.239   3.936   1.396
   15CHTO  H204 5952   7.255   4.028   1.387
   15CHTO  C109 5953   6.873   3.901   1.287
   15CHTO  H213 5954   6.883   3.941   1.185
   15CHTO  C110 5955   6.744   3.958   1.354
   15CHTO  H214 5956   6.738   3.924   1.457
   15CHTO   O78 5957   6.628   3.906   1.285
   15CHTO  H200 5958   6.621   3.814   1.298
   15CHTO  C111 5959   6.749   4.114   1.350
   15CHTO  H215 5960   6.749   4.146   1.245
   15CHTO   N19 5961   6.633   4.180   1.415
   15CHTO  H207 5962   6.642   4.287   1.407
   15CHTO  H208 5963   6.541   4.148   1.366
   15CHTO   O74 5964   6.872   3.755   1.281
   15CHTO  C115 5965   6.818   3.702   1.137
   15CHTO  H219 5966   6.715   3.734   1.119
   15CHTO   O76 5967   6.903   3.764   1.013
   15CHTO  C122 5968   7.020   3.688   0.980
   15CHTO  H226 5969   7.085   3.688   1.068
   15CHTO  C126 5970   7.098   3.765   0.868
   15CHTO   O85 5971   7.222   3.702   0.833
   15CHTO  H206 5972   7.282   3.707   0.906
   15CHTO  C121 5973   6.982   3.540   0.937
   15CHTO  H225 5974   6.982   3.534   0.826
   15CHTO   O81 5975   7.084   3.450   0.984
   15CHTO  H202 5976   7.087   3.450   1.078
   15CHTO  C119 5977   6.842   3.496   0.989
   15CHTO  H223 5978   6.771   3.551   0.928
   15CHTO  C117 5979   6.823   3.544   1.138
   15CHTO  H221 5980   6.903   3.517   1.207
   15CHTO   N20 5981   6.698   3.490   1.201
   15CHTO  H209 5982   6.690   3.525   1.303
   15CHTO  H210 5983   6.700   3.382   1.200
   15CHTO   O80 5984   6.808   3.344   0.949
   15CHTO  C103 5985   6.655   3.299   0.919
   15CHTO  H190 5986   6.600   3.285   1.013
   15CHTO  C101 5987   6.568   3.389   0.823
   15CHTO  H188 5988   6.629   3.416   0.736
   15CHTO   O68 5989   6.529   3.521   0.897
   15CHTO  H168 5990   6.475   3.501   0.970
   15CHTO   C99 5991   6.438   3.311   0.771
   15CHTO  H186 5992   6.373   3.287   0.858
   15CHTO   N17 5993   6.354   3.388   0.673
   15CHTO  H174 5994   6.265   3.332   0.649
   15CHTO  H175 5995   6.328   3.484   0.715
   15CHTO   C97 5996   6.482   3.174   0.713
   15CHTO  H184 5997   6.549   3.193   0.627
   15CHTO   O64 5998   6.549   3.100   0.816
   15CHTO  C104 5999   6.675   3.155   0.857
   15CHTO  H191 6000   6.744   3.162   0.773
   15CHTO  C108 6001   6.741   3.062   0.959
   15CHTO   O71 6002   6.762   2.930   0.906
   15CHTO  H171 6003   6.679   2.887   0.895
   15CHTO   O62 6004   6.372   3.090   0.674
   15CHTO   C91 6005   6.401   2.994   0.571
   15CHTO  H178 6006   6.464   3.043   0.496
   15CHTO   C92 6007   6.267   2.959   0.496
   15CHTO  H179 6008   6.215   3.052   0.468
   15CHTO   O66 6009   6.300   2.896   0.371
   15CHTO  H166 6010   6.348   2.817   0.384
   15CHTO   C93 6011   6.174   2.861   0.577
   15CHTO  H180 6012   6.106   2.814   0.504
   15CHTO   N16 6013   6.085   2.930   0.673
   15CHTO  H172 6014   6.143   2.983   0.747
   15CHTO  H173 6015   6.019   2.859   0.721
   15CHTO   C94 6016   6.259   2.747   0.647
   15CHTO  H181 6017   6.269   2.763   0.755
   15CHTO   O61 6018   6.394   2.742   0.595
   15CHTO   C95 6019   6.471   2.860   0.622
   15CHTO  H182 6020   6.488   2.867   0.730
   15CHTO  C106 6021   6.613   2.838   0.558
   15CHTO   O69 6022   6.702   2.946   0.586
   15CHTO  H169 6023   6.723   2.947   0.677
   15CHTO   O63 6024   6.193   2.614   0.620
   15CHTO   C96 6025   6.230   2.499   0.721
   15CHTO  H183 6026   6.244   2.544   0.819
   15CHTO   C98 6027   6.362   2.424   0.683
   15CHTO  H185 6028   6.372   2.423   0.573
   15CHTO   O67 6029   6.474   2.502   0.729
   15CHTO  H167 6030   6.479   2.584   0.683
   15CHTO  C102 6031   6.373   2.274   0.739
   15CHTO  H189 6032   6.388   2.284   0.848
   15CHTO   N18 6033   6.489   2.195   0.689
   15CHTO  H176 6034   6.552   2.164   0.772
   15CHTO  H177 6035   6.548   2.253   0.619
   15CHTO  C105 6036   6.237   2.205   0.715
   15CHTO  H192 6037   6.214   2.209   0.608
   15CHTO   O65 6038   6.135   2.276   0.786
   15CHTO  C100 6039   6.104   2.404   0.730
   15CHTO  H187 6040   6.065   2.388   0.629
   15CHTO  C107 6041   5.990   2.465   0.816
   15CHTO   O70 6042   5.940   2.587   0.762
   15CHTO  H170 6043   6.005   2.655   0.770
   15CHTO   O57 6044   6.239   2.047   0.762
   15CHTO   C85 6045   6.237   2.008   0.900
   15CHTO  H157 6046   6.256   2.099   0.960
   15CHTO   C83 6047   6.359   1.912   0.925
   15CHTO  H155 6048   6.450   1.970   0.909
   15CHTO   O56 6049   6.359   1.808   0.825
   15CHTO  H135 6050   6.285   1.752   0.836
   15CHTO   C81 6051   6.357   1.861   1.072
   15CHTO  H153 6052   6.363   1.948   1.138
   15CHTO   N14 6053   6.478   1.781   1.106
   15CHTO  H141 6054   6.566   1.837   1.085
   15CHTO  H142 6055   6.477   1.755   1.210
   15CHTO   C79 6056   6.222   1.785   1.101
   15CHTO  H151 6057   6.222   1.760   1.207
   15CHTO   O52 6058   6.109   1.875   1.079
   15CHTO   C86 6059   6.104   1.934   0.945
   15CHTO  H158 6060   6.084   1.847   0.878
   15CHTO   C90 6061   5.980   2.026   0.933
   15CHTO   O60 6062   5.975   2.127   1.034
   15CHTO  H138 6063   6.045   2.188   1.021
   15CHTO   O50 6064   6.204   1.664   1.026
   15CHTO   C73 6065   6.100   1.570   0.997
   15CHTO  H145 6066   6.018   1.619   0.942
   15CHTO   C74 6067   6.042   1.508   1.127
   15CHTO  H146 6068   6.003   1.591   1.188
   15CHTO   O54 6069   5.928   1.427   1.092
   15CHTO  H133 6070   5.888   1.392   1.170
   15CHTO   C75 6071   6.156   1.428   1.202
   15CHTO  H147 6072   6.235   1.499   1.229
   15CHTO   N13 6073   6.114   1.367   1.331
   15CHTO  H139 6074   6.125   1.260   1.328
   15CHTO  H140 6075   6.012   1.391   1.354
   15CHTO   C76 6076   6.222   1.322   1.101
   15CHTO  H148 6077   6.148   1.244   1.080
   15CHTO   O49 6078   6.263   1.386   0.976
   15CHTO   C77 6079   6.159   1.457   0.907
   15CHTO  H149 6080   6.079   1.388   0.879
   15CHTO   C88 6081   6.217   1.511   0.776
   15CHTO   O58 6082   6.113   1.582   0.696
   15CHTO  H136 6083   6.152   1.616   0.618
   15CHTO   O51 6084   6.357   1.263   1.165
   15CHTO   C78 6085   6.428   1.156   1.076
   15CHTO  H150 6086   6.392   1.161   0.970
   15CHTO   C80 6087   6.400   1.014   1.131
   15CHTO  H152 6088   6.428   1.013   1.239
   15CHTO   O55 6089   6.259   0.990   1.120
   15CHTO  H134 6090   6.211   1.045   1.179
   15CHTO   C84 6091   6.483   0.904   1.054
   15CHTO  H156 6092   6.448   0.901   0.951
   15CHTO   N15 6093   6.465   0.765   1.111
   15CHTO  H143 6094   6.426   0.700   1.036
   15CHTO  H144 6095   6.399   0.766   1.195
   15CHTO   C87 6096   6.633   0.944   1.052
   15CHTO  H159 6097   6.675   0.941   1.153
   15CHTO   O53 6098   6.645   1.086   0.994
   15CHTO   C82 6099   6.580   1.185   1.073
   15CHTO  H154 6100   6.621   1.187   1.174
   15CHTO   C89 6101   6.612   1.322   1.008
   15CHTO   O59 6102   6.571   1.432   1.090
   15CHTO  H137 6103   6.595   1.513   1.048
   15CHTO   O45 6104   6.720   0.848   0.955
   15CHTO   C67 6105   6.861   0.874   0.961
   15CHTO  H124 6106   6.878   0.973   1.003
   15CHTO   C65 6107   6.934   0.769   1.051
   15CHTO  H122 6108   6.874   0.677   1.045
   15CHTO   O44 6109   6.928   0.820   1.186
   15CHTO  H102 6110   6.957   0.755   1.246
   15CHTO   C63 6111   7.076   0.727   0.995
   15CHTO  H120 6112   7.061   0.657   0.913
   15CHTO   N11 6113   7.162   0.646   1.087
   15CHTO  H108 6114   7.194   0.706   1.170
   15CHTO  H109 6115   7.247   0.609   1.034
   15CHTO   C61 6116   7.146   0.853   0.932
   15CHTO  H118 6117   7.240   0.817   0.888
   15CHTO   O40 6118   7.068   0.910   0.822
   15CHTO   C68 6119   6.924   0.880   0.817
   15CHTO  H125 6120   6.911   0.781   0.767
   15CHTO   C72 6121   6.855   0.985   0.726
   15CHTO   O48 6122   6.871   1.119   0.774
   15CHTO  H105 6123   6.829   1.179   0.715
   15CHTO   O38 6124   7.176   0.953   1.032
   15CHTO   C55 6125   7.218   1.085   0.990
   15CHTO  H112 6126   7.158   1.118   0.904
   15CHTO   C56 6127   7.374   1.089   0.958
   15CHTO  H113 6128   7.425   1.044   1.044
   15CHTO   O42 6129   7.404   1.005   0.846
   15CHTO  H100 6130   7.359   1.035   0.769
   15CHTO   C57 6131   7.425   1.237   0.933
   15CHTO  H114 6132   7.387   1.267   0.836
   15CHTO   N10 6133   7.573   1.249   0.928
   15CHTO  H106 6134   7.619   1.174   0.991
   15CHTO  H107 6135   7.607   1.234   0.826
   15CHTO   C58 6136   7.368   1.334   1.041
   15CHTO  H115 6137   7.420   1.316   1.138
   15CHTO   O37 6138   7.227   1.317   1.059
   15CHTO   C59 6139   7.186   1.187   1.103
   15CHTO  H116 6140   7.238   1.160   1.195
   15CHTO   C70 6141   7.036   1.191   1.131
   15CHTO   O46 6142   7.003   1.285   1.234
   15CHTO  H103 6143   6.910   1.285   1.248
   15CHTO   O39 6144   7.393   1.497   0.994
   15CHTO   C60 6145   7.301   1.545   0.893
   15CHTO  H117 6146   7.268   1.461   0.832
   15CHTO   C62 6147   7.176   1.612   0.957
   15CHTO  H119 6148   7.130   1.537   1.025
   15CHTO   O43 6149   7.216   1.724   1.039
   15CHTO  H101 6150   7.257   1.790   0.986
   15CHTO   C66 6151   7.071   1.650   0.842
   15CHTO  H123 6152   7.046   1.560   0.786
   15CHTO   N12 6153   6.942   1.701   0.896
   15CHTO  H110 6154   6.896   1.625   0.957
   15CHTO  H111 6155   6.959   1.791   0.953
   15CHTO   C69 6156   7.137   1.750   0.742
   15CHTO  H126 6157   7.157   1.847   0.792
   15CHTO   O41 6158   7.273   1.689   0.688
   15CHTO   C64 6159   7.371   1.646   0.798
   15CHTO  H121 6160   7.402   1.735   0.857
   15CHTO   C71 6161   7.497   1.585   0.733
   15CHTO   O47 6162   7.564   1.681   0.650
   15CHTO  H104 6163   7.513   1.698   0.573
   15CHTO   O34 6164   7.043   1.775   0.620
   15CHTO   C49 6165   7.003   1.847   0.493
   15CHTO   H91 6166   6.954   1.772   0.430
   15CHTO   C47 6167   7.129   1.899   0.421
   15CHTO   H89 6168   7.096   1.935   0.321
   15CHTO   O33 6169   7.220   1.788   0.402
   15CHTO   H70 6170   7.184   1.726   0.341
   15CHTO   C45 6171   7.192   2.021   0.506
   15CHTO   H87 6172   7.207   1.988   0.609
   15CHTO    N8 6173   7.322   2.068   0.453
   15CHTO   H75 6174   7.393   1.987   0.452
   15CHTO   H76 6175   7.310   2.107   0.352
   15CHTO   C43 6176   7.082   2.138   0.514
   15CHTO   H85 6177   7.125   2.217   0.576
   15CHTO   O29 6178   6.960   2.087   0.571
   15CHTO   C50 6179   6.903   1.964   0.521
   15CHTO   H92 6180   6.833   1.928   0.598
   15CHTO   C54 6181   6.809   1.994   0.401
   15CHTO   O36 6182   6.734   1.879   0.361
   15CHTO   H72 6183   6.678   1.901   0.289
   15CHTO   O27 6184   7.057   2.199   0.385
   15CHTO   C37 6185   6.986   2.279   0.290
   15CHTO   H79 6186   6.903   2.222   0.246
   15CHTO   C38 6187   6.925   2.406   0.355
   15CHTO   H80 6188   7.005   2.461   0.407
   15CHTO   O31 6189   6.828   2.361   0.453
   15CHTO   H68 6190   6.796   2.434   0.502
   15CHTO   C39 6191   6.857   2.499   0.247
   15CHTO   H81 6192   6.770   2.446   0.210
   15CHTO    N7 6193   6.809   2.630   0.303
   15CHTO   H73 6194   6.733   2.612   0.378
   15CHTO   H74 6195   6.891   2.685   0.345
   15CHTO   C40 6196   6.952   2.524   0.123
   15CHTO   H82 6197   7.030   2.597   0.148
   15CHTO   O26 6198   7.009   2.400   0.076
   15CHTO   C41 6199   7.082   2.323   0.175
   15CHTO   H83 6200   7.163   2.384   0.217
   15CHTO   C52 6201   7.148   2.202   0.104
   15CHTO   O35 6202   7.050   2.111   0.039
   15CHTO   H71 6203   7.095   2.039   2.859
   15CHTO   O28 6204   6.877   2.565   0.007
   15CHTO   C42 6205   6.902   2.683   2.784
   15CHTO   H84 6206   6.885   2.645   2.683
   15CHTO   C44 6207   7.046   2.744   2.783
   15CHTO   H86 6208   7.070   2.779   0.024
   15CHTO   O32 6209   7.137   2.639   2.748
   15CHTO   H69 6210   7.143   2.576   2.817
   15CHTO   C48 6211   7.058   2.868   2.685
   15CHTO   H90 6212   7.049   2.831   2.583
   15CHTO    N9 6213   7.193   2.934   2.692
   15CHTO   H77 6214   7.197   3.017   2.623
   15CHTO   H78 6215   7.270   2.862   2.668
   15CHTO   C51 6216   6.941   2.971   2.711
   15CHTO   H93 6217   6.956   3.017   2.808
   15CHTO   O30 6218   6.815   2.902   2.703
   15CHTO   C46 6219   6.798   2.796   2.808
   15CHTO   H88 6220   6.814   2.840   0.047
   15CHTO   C53 6221   6.653   2.742   2.797
   15CHTO   O72 6222   6.558   2.845   2.826
   15CHTO  H199 6223   6.471   2.810   2.821
   15CHTO   O22 6224   6.933   3.071   2.607
   15CHTO   C31 6225   6.870   3.204   2.628
   15CHTO   H59 6226   6.858   3.247   2.526
   15CHTO   C29 6227   6.729   3.200   2.692
   15CHTO   H57 6228   6.737   3.147   2.788
   15CHTO   O21 6229   6.644   3.121   2.607
   15CHTO   H37 6230   6.561   3.105   2.649
   15CHTO   C27 6231   6.670   3.345   2.718
   15CHTO   H55 6232   6.655   3.395   2.620
   15CHTO    N5 6233   6.541   3.343   2.790
   15CHTO   H43 6234   6.503   3.444   2.802
   15CHTO   H44 6235   6.469   3.284   2.735
   15CHTO   C25 6236   6.777   3.429   2.796
   15CHTO   H53 6237   6.797   3.380   0.033
   15CHTO   O17 6238   6.901   3.431   2.719
   15CHTO   C32 6239   6.963   3.302   2.705
   15CHTO   H60 6240   6.985   3.261   2.803
   15CHTO   C36 6241   7.097   3.322   2.629
   15CHTO   O25 6242   7.189   3.402   2.704
   15CHTO   H40 6243   7.269   3.412   2.656
   15CHTO   O15 6244   6.731   3.581   2.822
   15CHTO   C19 6245   6.771   3.711   0.014
   15CHTO   H47 6246   6.839   3.750   2.797
   15CHTO   C20 6247   6.652   3.811   0.030
   15CHTO   H48 6248   6.573   3.771   0.096
   15CHTO   O19 6249   6.595   3.829   2.759
   15CHTO   H35 6250   6.518   3.882   2.765
   15CHTO   C21 6251   6.699   3.950   0.091
   15CHTO   H49 6252   6.760   4.002   0.016
   15CHTO    N4 6253   6.585   4.040   0.122
   15CHTO   H41 6254   6.528   4.061   0.033
   15CHTO   H42 6255   6.622   4.134   0.162
   15CHTO   C22 6256   6.790   3.928   0.215
   15CHTO   H50 6257   6.730   3.887   0.297
   15CHTO   O14 6258   6.897   3.837   0.183
   15CHTO   C23 6259   6.853   3.705   0.146
   15CHTO   H51 6260   6.794   3.666   0.230
   15CHTO   C34 6261   6.977   3.615   0.136
   15CHTO   O23 6262   7.065   3.654   0.030
   15CHTO   H38 6263   7.139   3.597   0.029
   15CHTO   O16 6264   6.858   4.048   0.255
   15CHTO   C24 6265   6.868   4.074   0.415
   15CHTO   H52 6266   6.817   3.996   0.472
   15CHTO   C26 6267   6.806   4.211   0.448
   15CHTO   H54 6268   6.847   4.286   0.376
   15CHTO   O20 6269   6.664   4.201   0.423
   15CHTO   H36 6270   6.624   4.286   0.432
   15CHTO   C30 6271   6.838   4.259   0.593
   15CHTO   H58 6272   6.788   4.193   0.666
   15CHTO    N6 6273   6.786   4.396   0.619
   15CHTO   H45 6274   6.866   4.465   0.642
   15CHTO   H46 6275   6.715   4.395   0.700
   15CHTO   C33 6276   6.991   4.246   0.619
   15CHTO   H61 6277   7.045   4.311   0.547
   15CHTO   O18 6278   7.029   4.110   0.594
   15CHTO   C28 6279   7.018   4.068   0.458
   15CHTO   H56 6280   7.076   4.134   0.392
   15CHTO   C35 6281   7.073   3.924   0.447
   15CHTO   O24 6282   7.211   3.917   0.484
   15CHTO   H39 6283   7.238   3.827   0.485
   15CHTO    O9 6284   7.033   4.289   0.750
   15CHTO   C13 6285   7.185   4.358   0.755
   15CHTO   H26 6286   7.176   4.459   0.709
   15CHTO   C11 6287   7.293   4.269   0.680
   15CHTO   H24 6288   7.266   4.267   0.573
   15CHTO    O8 6289   7.290   4.134   0.729
   15CHTO    H3 6290   7.348   4.080   0.678
   15CHTO    C9 6291   7.431   4.340   0.694
   15CHTO   H22 6292   7.416   4.442   0.656
   15CHTO    N2 6293   7.537   4.282   0.608
   15CHTO   H10 6294   7.626   4.343   0.613
   15CHTO   H11 6295   7.558   4.181   0.639
   15CHTO    C7 6296   7.469   4.348   0.846
   15CHTO   H20 6297   7.561   4.411   0.847
   15CHTO    O4 6298   7.367   4.413   0.925
   15CHTO   C14 6299   7.227   4.384   0.906
   15CHTO   H27 6300   7.174   4.475   0.939
   15CHTO   C18 6301   7.183   4.269   1.000
   15CHTO   O13 6302   7.202   4.304   1.137
   15CHTO    H7 6303   7.175   4.233   1.192
   15CHTO    O2 6304   7.504   4.205   0.910
   15CHTO    C1 6305   7.555   4.200   1.044
   15CHTO   H14 6306   7.483   4.251   1.112
   15CHTO    C2 6307   7.699   4.265   1.065
   15CHTO   H15 6308   7.761   4.227   0.982
   15CHTO    O6 6309   7.688   4.408   1.054
   15CHTO    H1 6310   7.774   4.447   1.056
   15CHTO    C3 6311   7.763   4.225   1.207
   15CHTO   H16 6312   7.710   4.282   1.285
   15CHTO    N1 6313   7.908   4.265   1.215
   15CHTO    H8 6314   7.971   4.178   1.228
   15CHTO    H9 6315   7.924   4.334   1.296
   15CHTO    C4 6316   7.740   4.073   1.241
   15CHTO   H17 6317   7.805   4.012   1.178
   15CHTO    O1 6318   7.603   4.036   1.222
   15CHTO    C5 6319   7.559   4.051   1.086
   15CHTO   H18 6320   7.629   4.000   1.020
   15CHTO   C16 6321   7.420   3.984   1.072
   15CHTO   O11 6322   7.430   3.842   1.084
   15CHTO    H5 6323   7.345   3.804   1.073
   15CHTO    O3 6324   7.768   4.049   1.380
   15CHTO    C6 6325   7.797   3.910   1.419
   15CHTO   H19 6326   7.754   3.838   1.349
   15CHTO    C8 6327   7.952   3.888   1.424
   15CHTO   H21 6328   7.996   3.971   1.479
   15CHTO    O7 6329   8.000   3.890   1.288
   15CHTO    H2 6330   8.094   3.887   1.287
   15CHTO   C12 6331   7.990   3.753   1.497
   15CHTO   H25 6332   7.958   3.671   1.430
   15CHTO    N3 6333   8.139   3.740   1.514
   15CHTO   H12 6334   8.162   3.645   1.561
   15CHTO   H13 6335   8.177   3.821   1.574
   15CHTO   C15 6336   7.910   3.741   1.632
   15CHTO   H28 6337   7.943   3.815   1.705
   15CHTO   O10 6338   7.921   3.600   1.695
   15CHTO    H4 6339   7.880   3.599   1.779
   15CHTO    O5 6340   7.770   3.753   1.606
   15CHTO   C10 6341   7.732   3.883   1.558
   15CHTO   H23 6342   7.763   3.958   1.630
   15CHTO   C17 6343   7.578   3.884   1.553
   15CHTO   O12 6344   7.526   4.015   1.527
   15CHTO    H6 6345   7.432   4.011   1.524
   16CHTO  H203 6346   6.145   4.446   0.347
   16CHTO   O82 6347   6.166   4.364   0.306
   16CHTO  C123 6348   6.180   4.261   0.406
   16CHTO  H227 6349   6.083   4.248   0.457
   16CHTO   O77 6350   6.210   4.144   0.325
   16CHTO  C118 6351   6.226   4.023   0.401
   16CHTO  H222 6352   6.138   4.006   0.465
   16CHTO  C125 6353   6.237   3.905   0.297
   16CHTO   O84 6354   6.117   3.894   0.219
   16CHTO  H205 6355   6.126   3.823   0.158
   16CHTO  C114 6356   6.352   4.036   0.489
   16CHTO  H218 6357   6.437   4.058   0.426
   16CHTO  C116 6358   6.334   4.157   0.587
   16CHTO  H220 6359   6.253   4.133   0.660
   16CHTO   O79 6360   6.454   4.174   0.664
   16CHTO  H201 6361   6.467   4.100   0.721
   16CHTO  C120 6362   6.298   4.289   0.507
   16CHTO  H224 6363   6.389   4.318   0.451
   16CHTO   N21 6364   6.263   4.402   0.598
   16CHTO  H211 6365   6.353   4.457   0.624
   16CHTO  H212 6366   6.214   4.366   0.687
   16CHTO   O75 6367   6.369   3.911   0.559
   16CHTO  C112 6368   6.498   3.819   0.503
   16CHTO  H216 6369   6.557   3.880   0.433
   16CHTO   O73 6370   6.442   3.703   0.439
   16CHTO  C113 6371   6.540   3.624   0.370
   16CHTO  H217 6372   6.592   3.688   0.297
   16CHTO  C124 6373   6.468   3.514   0.291
   16CHTO   O83 6374   6.383   3.566   0.189
   16CHTO  H204 6375   6.340   3.496   0.145
   16CHTO  C109 6376   6.642   3.565   0.471
   16CHTO  H213 6377   6.586   3.495   0.535
   16CHTO  C110 6378   6.704   3.679   0.558
   16CHTO  H214 6379   6.770   3.739   0.495
   16CHTO   O78 6380   6.787   3.620   0.660
   16CHTO  H200 6381   6.735   3.566   0.718
   16CHTO  C111 6382   6.593   3.770   0.619
   16CHTO  H215 6383   6.532   3.709   0.689
   16CHTO   N19 6384   6.644   3.886   0.697
   16CHTO  H207 6385   6.752   3.887   0.698
   16CHTO  H208 6386   6.607   3.882   0.799
   16CHTO   O74 6387   6.746   3.491   0.399
   16CHTO  C115 6388   6.779   3.352   0.464
   16CHTO  H219 6389   6.764   3.353   0.572
   16CHTO   O76 6390   6.681   3.236   0.409
   16CHTO  C122 6391   6.726   3.178   0.286
   16CHTO  H226 6392   6.727   3.257   0.210
   16CHTO  C126 6393   6.621   3.073   0.236
   16CHTO   O85 6394   6.491   3.129   0.214
   16CHTO  H206 6395   6.494   3.188   0.140
   16CHTO  C121 6396   6.869   3.111   0.300
   16CHTO  H225 6397   6.857   3.001   0.309
   16CHTO   O81 6398   6.946   3.138   0.181
   16CHTO  H202 6399   6.907   3.096   0.107
   16CHTO  C119 6400   6.946   3.164   0.426
   16CHTO  H223 6401   6.891   3.123   0.511
   16CHTO  C117 6402   6.932   3.320   0.434
   16CHTO  H221 6403   6.956   3.375   0.343
   16CHTO   N20 6404   7.019   3.380   0.541
   16CHTO  H209 6405   7.005   3.487   0.543
   16CHTO  H210 6406   7.122   3.356   0.521
   16CHTO   O80 6407   7.091   3.096   0.446
   16CHTO  C103 6408   7.100   2.941   0.463
   16CHTO  H190 6409   7.003   2.895   0.441
   16CHTO  C101 6410   7.209   2.867   0.376
   16CHTO  H188 6411   7.307   2.910   0.398
   16CHTO   O68 6412   7.177   2.890   0.226
   16CHTO  H168 6413   7.185   2.981   0.206
   16CHTO   C99 6414   7.213   2.710   0.413
   16CHTO  H186 6415   7.116   2.665   0.381
   16CHTO   N17 6416   7.321   2.634   0.342
   16CHTO  H174 6417   7.311   2.528   0.362
   16CHTO  H175 6418   7.418   2.671   0.372
   16CHTO   C97 6419   7.220   2.690   0.567
   16CHTO  H184 6420   7.322   2.717   0.601
   16CHTO   O64 6421   7.119   2.770   0.632
   16CHTO  C104 6422   7.132   2.911   0.614
   16CHTO  H191 6423   7.232   2.947   0.638
   16CHTO  C108 6424   7.037   2.977   0.715
   16CHTO   O71 6425   7.067   3.115   0.737
   16CHTO  H171 6426   7.148   3.123   0.783
   16CHTO   O62 6427   7.192   2.553   0.605
   16CHTO   C91 6428   7.187   2.525   0.747
   16CHTO  H178 6429   7.194   2.618   0.802
   16CHTO   C92 6430   7.309   2.440   0.794
   16CHTO  H179 6431   7.310   2.345   0.737
   16CHTO   O66 6432   7.430   2.509   0.756
   16CHTO  H166 6433   7.436   2.591   0.801
   16CHTO   C93 6434   7.304   2.413   0.950
   16CHTO  H180 6435   7.327   2.508   1.000
   16CHTO   N16 6436   7.408   2.317   0.995
   16CHTO  H172 6437   7.403   2.306   1.103
   16CHTO  H173 6438   7.394   2.222   0.947
   16CHTO   C94 6439   7.161   2.366   0.997
   16CHTO  H181 6440   7.140   2.262   0.968
   16CHTO   O61 6441   7.058   2.446   0.938
   16CHTO   C95 6442   7.057   2.451   0.795
   16CHTO  H182 6443   7.054   2.349   0.755
   16CHTO  C106 6444   6.925   2.523   0.748
   16CHTO   O69 6445   6.809   2.450   0.787
   16CHTO  H169 6446   6.804   2.370   0.739
   16CHTO   O63 6447   7.147   2.383   1.162
   16CHTO   C96 6448   6.993   2.367   1.220
   16CHTO  H183 6449   7.002   2.345   1.327
   16CHTO   C98 6450   6.910   2.252   1.155
   16CHTO  H185 6451   6.922   2.255   1.046
   16CHTO   O67 6452   6.968   2.128   1.198
   16CHTO  H167 6453   7.054   2.118   1.161
   16CHTO  C102 6454   6.753   2.258   1.192
   16CHTO  H189 6455   6.747   2.234   1.299
   16CHTO   N18 6456   6.668   2.157   1.123
   16CHTO  H176 6457   6.728   2.095   1.058
   16CHTO  H177 6458   6.616   2.096   1.195
   16CHTO  C105 6459   6.704   2.404   1.170
   16CHTO  H192 6460   6.716   2.430   1.065
   16CHTO   O65 6461   6.781   2.495   1.250
   16CHTO  C100 6462   6.918   2.506   1.208
   16CHTO  H187 6463   6.918   2.539   1.104
   16CHTO  C107 6464   6.988   2.615   1.292
   16CHTO   O70 6465   6.931   2.744   1.267
   16CHTO  H170 6466   6.976   2.809   1.317
   16CHTO   O57 6467   6.549   2.416   1.213
   16CHTO   C85 6468   6.461   2.487   1.125
   16CHTO  H157 6469   6.485   2.453   1.022
   16CHTO   C83 6470   6.490   2.641   1.127
   16CHTO  H155 6471   6.592   2.656   1.090
   16CHTO   O56 6472   6.488   2.687   1.263
   16CHTO  H135 6473   6.514   2.777   1.267
   16CHTO   C81 6474   6.391   2.714   1.032
   16CHTO  H153 6475   6.405   2.675   0.931
   16CHTO   N14 6476   6.417   2.860   1.019
   16CHTO  H141 6477   6.452   2.884   0.921
   16CHTO  H142 6478   6.490   2.893   1.091
   16CHTO   C79 6479   6.242   2.685   1.074
   16CHTO  H151 6480   6.178   2.728   0.997
   16CHTO   O52 6481   6.217   2.541   1.075
   16CHTO   C86 6482   6.309   2.465   1.159
   16CHTO  H158 6483   6.286   2.497   1.263
   16CHTO   C90 6484   6.274   2.315   1.151
   16CHTO   O60 6485   6.139   2.295   1.194
   16CHTO  H138 6486   6.118   2.204   1.189
   16CHTO   O50 6487   6.206   2.742   1.201
   16CHTO   C73 6488   6.101   2.742   1.299
   16CHTO  H145 6489   6.100   2.646   1.354
   16CHTO   C74 6490   5.962   2.762   1.231
   16CHTO  H146 6491   5.949   2.680   1.159
   16CHTO   O54 6492   5.861   2.745   1.333
   16CHTO  H133 6493   5.775   2.751   1.294
   16CHTO   C75 6494   5.958   2.903   1.161
   16CHTO  H147 6495   6.036   2.906   1.084
   16CHTO   N13 6496   5.830   2.931   1.090
   16CHTO  H139 6497   5.848   2.950   0.986
   16CHTO  H140 6498   5.779   3.016   1.133
   16CHTO   C76 6499   5.995   3.016   1.268
   16CHTO  H148 6500   5.915   3.019   1.343
   16CHTO   O49 6501   6.122   2.985   1.335
   16CHTO   C77 6502   6.127   2.858   1.400
   16CHTO  H149 6503   6.052   2.853   1.479
   16CHTO   C88 6504   6.263   2.846   1.470
   16CHTO   O58 6505   6.276   2.718   1.542
   16CHTO  H136 6506   6.217   2.717   1.615
   16CHTO   O51 6507   6.018   3.156   1.196
   16CHTO   C78 6508   6.039   3.270   1.300
   16CHTO  H150 6509   6.065   3.229   1.400
   16CHTO   C80 6510   5.910   3.355   1.313
   16CHTO  H152 6511   5.888   3.401   1.215
   16CHTO   O55 6512   5.803   3.265   1.348
   16CHTO  H134 6513   5.721   3.312   1.349
   16CHTO   C84 6514   5.929   3.468   1.422
   16CHTO  H156 6515   5.944   3.419   1.518
   16CHTO   N15 6516   5.809   3.557   1.436
   16CHTO  H143 6517   5.772   3.553   1.537
   16CHTO  H144 6518   5.730   3.527   1.370
   16CHTO   C87 6519   6.057   3.552   1.392
   16CHTO  H159 6520   6.040   3.617   1.306
   16CHTO   O53 6521   6.179   3.455   1.362
   16CHTO   C82 6522   6.155   3.361   1.256
   16CHTO  H154 6523   6.132   3.414   1.163
   16CHTO   C89 6524   6.287   3.283   1.233
   16CHTO   O59 6525   6.284   3.207   1.112
   16CHTO  H137 6526   6.366   3.162   1.101
   16CHTO   O45 6527   6.093   3.650   1.526
   16CHTO   C67 6528   6.229   3.653   1.574
   16CHTO  H124 6529   6.292   3.590   1.512
   16CHTO   C65 6530   6.285   3.799   1.570
   16CHTO  H122 6531   6.198   3.865   1.578
   16CHTO   O44 6532   6.343   3.815   1.439
   16CHTO  H102 6533   6.369   3.904   1.426
   16CHTO   C63 6534   6.374   3.834   1.696
   16CHTO  H120 6535   6.307   3.853   1.780
   16CHTO   N11 6536   6.449   3.963   1.688
   16CHTO  H108 6537   6.382   4.043   1.661
   16CHTO  H109 6538   6.494   3.985   1.783
   16CHTO   C61 6539   6.461   3.710   1.737
   16CHTO  H118 6540   6.510   3.737   1.831
   16CHTO   O40 6541   6.381   3.591   1.764
   16CHTO   C68 6542   6.241   3.592   1.720
   16CHTO  H125 6543   6.182   3.655   1.790
   16CHTO   C72 6544   6.183   3.448   1.729
   16CHTO   O48 6545   6.251   3.353   1.646
   16CHTO  H105 6546   6.339   3.341   1.676
   16CHTO   O38 6547   6.559   3.676   1.637
   16CHTO   C55 6548   6.680   3.613   1.686
   16CHTO  H112 6549   6.661   3.565   1.783
   16CHTO   C56 6550   6.798   3.719   1.694
   16CHTO  H113 6551   6.800   3.772   1.597
   16CHTO   O42 6552   6.766   3.819   1.792
   16CHTO  H100 6553   6.759   3.780   1.877
   16CHTO   C57 6554   6.937   3.649   1.721
   16CHTO  H114 6555   6.933   3.605   1.821
   16CHTO   N10 6556   7.052   3.744   1.718
   16CHTO  H106 6557   7.142   3.695   1.687
   16CHTO  H107 6558   7.066   3.788   1.816
   16CHTO   C58 6559   6.955   3.536   1.617
   16CHTO  H115 6560   6.955   3.580   1.514
   16CHTO   O37 6561   6.847   3.442   1.628
   16CHTO   C59 6562   6.719   3.497   1.590
   16CHTO  H116 6563   6.725   3.533   1.487
   16CHTO   C70 6564   6.614   3.385   1.596
   16CHTO   O46 6565   6.641   3.278   1.504
   16CHTO  H103 6566   6.718   3.232   1.529
   16CHTO   O39 6567   7.093   3.450   1.640
   16CHTO   C60 6568   7.148   3.401   1.516
   16CHTO  H117 6569   7.067   3.367   1.452
   16CHTO   C62 6570   7.228   3.511   1.441
   16CHTO  H119 6571   7.156   3.593   1.421
   16CHTO   O43 6572   7.333   3.564   1.525
   16CHTO  H101 6573   7.396   3.497   1.544
   16CHTO   C66 6574   7.281   3.452   1.301
   16CHTO  H123 6575   7.196   3.413   1.246
   16CHTO   N12 6576   7.340   3.557   1.215
   16CHTO  H110 6577   7.424   3.604   1.266
   16CHTO  H111 6578   7.265   3.630   1.188
   16CHTO   C69 6579   7.379   3.335   1.328
   16CHTO  H126 6580   7.465   3.371   1.388
   16CHTO   O41 6581   7.303   3.225   1.409
   16CHTO   C64 6582   7.239   3.277   1.542
   16CHTO  H121 6583   7.320   3.306   1.614
   16CHTO   C71 6584   7.157   3.163   1.606
   16CHTO   O47 6585   7.244   3.056   1.647
   16CHTO  H104 6586   7.279   3.013   1.571
   16CHTO   O34 6587   7.433   3.273   1.195
   16CHTO   C49 6588   7.486   3.211   1.069
   16CHTO   H91 6589   7.512   3.294   1.002
   16CHTO   C47 6590   7.375   3.124   1.005
   16CHTO   H89 6591   7.419   3.091   0.908
   16CHTO   O33 6592   7.258   3.204   0.977
   16CHTO   H70 6593   7.221   3.236   1.057
   16CHTO   C45 6594   7.338   2.998   1.100
   16CHTO   H87 6595   7.258   3.028   1.168
   16CHTO    N8 6596   7.287   2.888   1.013
   16CHTO   H75 6597   7.344   2.798   1.029
   16CHTO   H76 6598   7.183   2.870   1.034
   16CHTO   C43 6599   7.463   2.961   1.196
   16CHTO   H85 6600   7.453   3.027   1.282
   16CHTO   O29 6601   7.587   2.982   1.126
   16CHTO   C50 6602   7.611   3.121   1.093
   16CHTO   H92 6603   7.668   3.166   1.175
   16CHTO   C54 6604   7.709   3.128   0.973
   16CHTO   O36 6605   7.838   3.077   1.008
   16CHTO   H72 6606   7.834   2.984   1.022
   16CHTO   O27 6607   7.455   2.829   1.251
   16CHTO   C37 6608   7.484   2.723   1.343
   16CHTO   H79 6609   7.567   2.752   1.411
   16CHTO   C38 6610   7.360   2.693   1.432
   16CHTO   H80 6611   7.273   2.679   1.366
   16CHTO   O31 6612   7.338   2.809   1.514
   16CHTO   H68 6613   7.257   2.800   1.562
   16CHTO   C39 6614   7.382   2.564   1.520
   16CHTO   H81 6615   7.458   2.587   1.595
   16CHTO    N7 6616   7.258   2.523   1.595
   16CHTO   H73 6617   7.226   2.603   1.660
   16CHTO   H74 6618   7.277   2.434   1.654
   16CHTO   C40 6619   7.436   2.445   1.433
   16CHTO   H82 6620   7.357   2.405   1.368
   16CHTO   O26 6621   7.551   2.486   1.357
   16CHTO   C41 6622   7.526   2.596   1.265
   16CHTO   H83 6623   7.446   2.569   1.195
   16CHTO   C52 6624   7.655   2.622   1.183
   16CHTO   O35 6625   7.693   2.506   1.101
   16CHTO   H71 6626   7.772   2.525   1.055
   16CHTO   O28 6627   7.492   2.340   1.514
   16CHTO   C42 6628   7.468   2.197   1.487
   16CHTO   H84 6629   7.554   2.149   1.535
   16CHTO   C44 6630   7.471   2.151   1.338
   16CHTO   H86 6631   7.393   2.205   1.283
   16CHTO   O32 6632   7.599   2.189   1.283
   16CHTO   H69 6633   7.668   2.142   1.325
   16CHTO   C48 6634   7.442   1.996   1.322
   16CHTO   H90 6635   7.525   1.942   1.368
   16CHTO    N9 6636   7.438   1.953   1.178
   16CHTO   H77 6637   7.512   1.877   1.160
   16CHTO   H78 6638   7.340   1.917   1.151
   16CHTO   C51 6639   7.310   1.960   1.401
   16CHTO   H93 6640   7.226   2.012   1.354
   16CHTO   O30 6641   7.326   1.998   1.538
   16CHTO   C46 6642   7.341   2.145   1.560
   16CHTO   H88 6643   7.253   2.196   1.520
   16CHTO   C53 6644   7.352   2.169   1.712
   16CHTO   O72 6645   7.232   2.131   1.781
   16CHTO  H199 6646   7.163   2.191   1.759
   16CHTO   O22 6647   7.287   1.818   1.405
   16CHTO   C31 6648   7.157   1.766   1.451
   16CHTO   H59 6649   7.108   1.849   1.507
   16CHTO   C29 6650   7.062   1.726   1.337
   16CHTO   H57 6651   7.114   1.650   1.276
   16CHTO   O21 6652   7.041   1.840   1.252
   16CHTO   H37 6653   7.121   1.866   1.211
   16CHTO   C27 6654   6.926   1.665   1.389
   16CHTO   H55 6655   6.869   1.745   1.439
   16CHTO    N5 6656   6.841   1.610   1.279
   16CHTO   H43 6657   6.816   1.507   1.296
   16CHTO   H44 6658   6.891   1.621   1.183
   16CHTO   C25 6659   6.955   1.556   1.499
   16CHTO   H53 6660   7.004   1.469   1.452
   16CHTO   O17 6661   7.044   1.608   1.602
   16CHTO   C32 6662   7.173   1.649   1.553
   16CHTO   H60 6663   7.221   1.565   1.502
   16CHTO   C36 6664   7.260   1.691   1.673
   16CHTO   O25 6665   7.290   1.579   1.756
   16CHTO   H40 6666   7.344   1.606   1.828
   16CHTO   O15 6667   6.825   1.507   1.569
   16CHTO   C19 6668   6.710   1.532   1.655
   16CHTO   H47 6669   6.690   1.434   1.701
   16CHTO   C20 6670   6.734   1.636   1.768
   16CHTO   H48 6671   6.756   1.737   1.728
   16CHTO   O19 6672   6.849   1.592   1.843
   16CHTO   H35 6673   6.927   1.601   1.792
   16CHTO   C21 6674   6.607   1.648   1.861
   16CHTO   H49 6675   6.592   1.552   1.911
   16CHTO    N4 6676   6.621   1.750   1.968
   16CHTO   H41 6677   6.532   1.753   2.029
   16CHTO   H42 6678   6.706   1.726   2.030
   16CHTO   C22 6679   6.481   1.673   1.773
   16CHTO   H50 6680   6.488   1.773   1.730
   16CHTO   O14 6681   6.470   1.575   1.668
   16CHTO   C23 6682   6.581   1.571   1.577
   16CHTO   H51 6683   6.589   1.671   1.530
   16CHTO   C34 6684   6.549   1.470   1.467
   16CHTO   O23 6685   6.440   1.513   1.385
   16CHTO   H38 6686   6.466   1.587   1.333
   16CHTO   O16 6687   6.359   1.657   1.849
   16CHTO   C24 6688   6.241   1.755   1.802
   16CHTO   H52 6689   6.257   1.792   1.701
   16CHTO   C26 6690   6.234   1.874   1.899
   16CHTO   H54 6691   6.232   1.835   2.004
   16CHTO   O20 6692   6.355   1.951   1.884
   16CHTO   H36 6693   6.361   1.988   1.798
   16CHTO   C30 6694   6.107   1.961   1.875
   16CHTO   H58 6695   6.115   2.012   1.778
   16CHTO    N6 6696   6.094   2.070   1.977
   16CHTO   H45 6697   6.179   2.136   1.972
   16CHTO   H46 6698   6.088   2.027   2.076
   16CHTO   C33 6699   5.980   1.871   1.867
   16CHTO   H61 6700   5.964   1.823   1.965
   16CHTO   O18 6701   6.002   1.768   1.769
   16CHTO   C28 6702   6.108   1.677   1.801
   16CHTO   H56 6703   6.091   1.633   1.900
   16CHTO   C35 6704   6.113   1.563   1.697
   16CHTO   O24 6705   5.997   1.480   1.698
   16CHTO   H39 6706   5.923   1.529   1.667
   16CHTO    O9 6707   5.861   1.946   1.838
   16CHTO   C13 6708   5.742   1.929   1.949
   16CHTO   H26 6709   5.786   1.951   2.049
   16CHTO   C11 6710   5.681   1.782   1.942
   16CHTO   H24 6711   5.748   1.715   1.998
   16CHTO    O8 6712   5.678   1.736   1.805
   16CHTO    H3 6713   5.651   1.647   1.802
   16CHTO    C9 6714   5.541   1.784   2.008
   16CHTO   H22 6715   5.555   1.833   2.106
   16CHTO    N2 6716   5.486   1.650   2.040
   16CHTO   H10 6717   5.482   1.636   2.147
   16CHTO   H11 6718   5.545   1.572   1.994
   16CHTO    C7 6719   5.445   1.876   1.920
   16CHTO   H20 6720   5.370   1.914   1.993
   16CHTO    O4 6721   5.514   1.988   1.859
   16CHTO   C14 6722   5.628   2.040   1.929
   16CHTO   H27 6723   5.594   2.075   2.030
   16CHTO   C18 6724   5.677   2.165   1.853
   16CHTO   O13 6725   5.783   2.231   1.923
   16CHTO    H7 6726   5.812   2.305   1.873
   16CHTO    O2 6727   5.368   1.791   1.798
   16CHTO    C1 6728   5.237   1.837   1.758
   16CHTO   H14 6729   5.208   1.780   1.667
   16CHTO    C2 6730   5.223   1.992   1.727
   16CHTO   H15 6731   5.259   2.046   1.816
   16CHTO    O6 6732   5.308   2.024   1.615
   16CHTO    H1 6733   5.280   1.978   1.538
   16CHTO    C3 6734   5.070   2.032   1.698
   16CHTO   H16 6735   5.039   1.984   1.604
   16CHTO    N1 6736   5.050   2.181   1.681
   16CHTO    H8 6737   5.144   2.234   1.692
   16CHTO    H9 6738   5.008   2.202   1.584
   16CHTO    C4 6739   4.977   1.973   1.809
   16CHTO   H17 6740   4.997   2.025   1.903
   16CHTO    O1 6741   5.000   1.832   1.824
   16CHTO    C5 6742   5.132   1.796   1.866
   16CHTO   H18 6743   5.157   1.847   1.960
   16CHTO   C16 6744   5.132   1.643   1.891
   16CHTO   O11 6745   5.043   1.608   1.998
   16CHTO    H5 6746   5.046   1.515   2.011
   16CHTO    O3 6747   4.837   1.983   1.775
   16CHTO    C6 6748   4.745   1.957   1.886
   16CHTO   H19 6749   4.794   1.910   1.972
   16CHTO    C8 6750   4.680   2.090   1.934
   16CHTO   H21 6751   4.633   2.138   1.849
   16CHTO    O7 6752   4.785   2.174   1.986
   16CHTO    H2 6753   4.824   2.136   2.062
   16CHTO   C12 6754   4.568   2.061   2.042
   16CHTO   H25 6755   4.620   2.019   2.131
   16CHTO    N3 6756   4.500   2.188   2.088
   16CHTO   H12 6757   4.541   2.275   2.038
   16CHTO   H13 6758   4.393   2.182   2.072
   16CHTO   C15 6759   4.469   1.953   1.986
   16CHTO   H28 6760   4.410   1.992   1.903
   16CHTO   O10 6761   4.375   1.899   2.094
   16CHTO    H4 6762   4.310   1.844   2.055
   16CHTO    O5 6763   4.540   1.835   1.944
   16CHTO   C10 6764   4.634   1.859   1.839
   16CHTO   H23 6765   4.581   1.902   1.753
   16CHTO   C17 6766   4.693   1.724   1.793
   16CHTO   O12 6767   4.597   1.646   1.722
   16CHTO    H6 6768   4.636   1.565   1.696
   17CHTO  H203 6769   5.720   4.097   0.253
   17CHTO   O82 6770   5.673   4.074   0.332
   17CHTO  C123 6771   5.593   4.184   0.377
   17CHTO  H227 6772   5.538   4.153   0.467
   17CHTO   O77 6773   5.691   4.287   0.412
   17CHTO  C118 6774   5.635   4.406   0.469
   17CHTO  H222 6775   5.575   4.381   0.558
   17CHTO  C125 6776   5.754   4.500   0.512
   17CHTO   O84 6777   5.833   4.439   0.615
   17CHTO  H205 6778   5.879   4.365   0.581
   17CHTO  C114 6779   5.545   4.475   0.364
   17CHTO  H218 6780   5.605   4.500   0.277
   17CHTO  C116 6781   5.432   4.377   0.318
   17CHTO  H220 6782   5.363   4.358   0.404
   17CHTO   O79 6783   5.353   4.441   0.216
   17CHTO  H201 6784   5.307   4.515   0.252
   17CHTO  C120 6785   5.494   4.241   0.267
   17CHTO  H224 6786   5.551   4.264   0.174
   17CHTO   N21 6787   5.390   4.140   0.230
   17CHTO  H211 6788   5.302   4.190   0.193
   17CHTO  H212 6789   5.430   4.072   0.156
   17CHTO   O75 6790   5.497   4.595   0.428
   17CHTO  C112 6791   5.471   4.722   0.324
   17CHTO  H216 6792   5.409   4.687   0.240
   17CHTO   O73 6793   5.599   4.769   0.280
   17CHTO  C113 6794   5.595   4.885   0.194
   17CHTO  H217 6795   5.534   4.861   0.105
   17CHTO  C124 6796   5.737   4.917   0.146
   17CHTO   O83 6797   5.792   4.814   0.062
   17CHTO  H204 6798   5.808   4.737   0.113
   17CHTO  C109 6799   5.533   5.005   0.270
   17CHTO  H213 6800   5.598   5.026   0.356
   17CHTO  C110 6801   5.390   4.967   0.319
   17CHTO  H214 6802   5.326   4.954   0.231
   17CHTO   O78 6803   5.337   5.076   0.396
   17CHTO  H200 6804   5.322   5.151   0.341
   17CHTO  C111 6805   5.393   4.836   0.402
   17CHTO  H215 6806   5.448   4.855   0.496
   17CHTO   N19 6807   5.258   4.787   0.440
   17CHTO  H207 6808   5.207   4.863   0.499
   17CHTO  H208 6809   5.266   4.697   0.499
   17CHTO   O74 6810   5.529   5.124   0.184
   17CHTO  C115 6811   5.571   5.258   0.261
   17CHTO  H219 6812   5.547   5.253   0.368
   17CHTO   O76 6813   5.727   5.281   0.257
   17CHTO  C122 6814   5.772   5.325   0.128
   17CHTO  H226 6815   5.743   5.248   0.055
   17CHTO  C126 6816   5.929   5.326   0.128
   17CHTO   O85 6817   5.983   5.360   0.000
   17CHTO  H206 6818   6.076   5.363   0.005
   17CHTO  C121 6819   5.710   5.466   0.089
   17CHTO  H225 6820   5.788   5.543   0.103
   17CHTO   O81 6821   5.676   5.463   2.810
   17CHTO  H202 6822   5.652   5.549   2.781
   17CHTO  C119 6823   5.586   5.503   0.176
   17CHTO  H223 6824   5.625   5.530   0.275
   17CHTO  C117 6825   5.491   5.379   0.195
   17CHTO  H221 6826   5.450   5.338   0.103
   17CHTO   N20 6827   5.371   5.415   0.277
   17CHTO  H209 6828   5.361   5.352   0.364
   17CHTO  H210 6829   5.281   5.410   0.217
   17CHTO   O80 6830   5.516   5.643   0.130
   17CHTO  C103 6831   5.566   5.782   0.192
   17CHTO  H190 6832   5.547   5.785   0.300
   17CHTO  C101 6833   5.717   5.822   0.165
   17CHTO  H188 6834   5.741   5.796   0.062
   17CHTO   O68 6835   5.809   5.737   0.259
   17CHTO  H168 6836   5.798   5.646   0.241
   17CHTO   C99 6837   5.746   5.978   0.187
   17CHTO  H186 6838   5.745   6.000   0.296
   17CHTO   N17 6839   5.880   6.022   0.135
   17CHTO  H174 6840   5.884   6.009   0.028
   17CHTO  H175 6841   5.958   5.965   0.184
   17CHTO   C97 6842   5.632   6.066   0.126
   17CHTO  H184 6843   5.639   6.061   0.016
   17CHTO   O64 6844   5.504   6.020   0.174
   17CHTO  C104 6845   5.471   5.889   0.126
   17CHTO  H191 6846   5.480   5.882   0.017
   17CHTO  C108 6847   5.324   5.859   0.158
   17CHTO   O71 6848   5.237   5.954   0.097
   17CHTO  H171 6849   5.148   5.933   0.118
   17CHTO   O62 6850   5.641   6.203   0.170
   17CHTO   C91 6851   5.560   6.298   0.097
   17CHTO  H178 6852   5.491   6.243   0.034
   17CHTO   C92 6853   5.651   6.382   2.860
   17CHTO  H179 6854   5.715   6.314   2.802
   17CHTO   O66 6855   5.566   6.446   2.763
   17CHTO  H166 6856   5.525   6.382   2.708
   17CHTO   C93 6857   5.734   6.495   0.072
   17CHTO  H180 6858   5.758   6.571   2.856
   17CHTO   N16 6859   5.865   6.448   0.123
   17CHTO  H172 6860   5.852   6.368   0.194
   17CHTO  H173 6861   5.927   6.415   0.040
   17CHTO   C94 6862   5.649   6.564   0.187
   17CHTO  H181 6863   5.678   6.529   0.286
   17CHTO   O61 6864   5.509   6.534   0.173
   17CHTO   C95 6865   5.477   6.395   0.192
   17CHTO  H182 6866   5.497   6.368   0.296
   17CHTO  C106 6867   5.322   6.375   0.171
   17CHTO   O69 6868   5.247   6.447   0.269
   17CHTO  H169 6869   5.259   6.408   0.354
   17CHTO   O63 6870   5.668   6.720   0.178
   17CHTO   C96 6871   5.636   6.798   0.316
   17CHTO  H183 6872   5.657   6.730   0.399
   17CHTO   C98 6873   5.489   6.847   0.329
   17CHTO  H185 6874   5.459   6.898   0.236
   17CHTO   O67 6875   5.404   6.732   0.340
   17CHTO  H167 6876   5.404   6.683   0.260
   17CHTO  C102 6877   5.467   6.945   0.455
   17CHTO  H189 6878   5.481   6.881   0.544
   17CHTO   N18 6879   5.330   7.001   0.466
   17CHTO  H176 6880   5.308   7.061   0.379
   17CHTO  H177 6881   5.322   7.062   0.556
   17CHTO  C105 6882   5.578   7.054   0.457
   17CHTO  H192 6883   5.563   7.122   0.373
   17CHTO   O65 6884   5.710   6.997   0.447
   17CHTO  C100 6885   5.734   6.921   0.328
   17CHTO  H187 6886   5.719   6.986   0.241
   17CHTO  C107 6887   5.883   6.876   0.325
   17CHTO   O70 6888   5.918   6.794   0.437
   17CHTO  H170 6889   5.916   6.845   0.516
   17CHTO   O57 6890   5.563   7.133   0.599
   17CHTO   C85 6891   5.622   7.262   0.623
   17CHTO  H157 6892   5.632   7.312   0.524
   17CHTO   C83 6893   5.769   7.243   0.675
   17CHTO  H155 6894   5.832   7.214   0.590
   17CHTO   O56 6895   5.773   7.134   0.769
   17CHTO  H135 6896   5.862   7.114   0.792
   17CHTO   C81 6897   5.824   7.376   0.734
   17CHTO  H153 6898   5.819   7.453   0.656
   17CHTO   N14 6899   5.967   7.370   0.772
   17CHTO  H141 6900   6.001   7.467   0.803
   17CHTO  H142 6901   5.981   7.301   0.853
   17CHTO   C79 6902   5.732   7.422   0.853
   17CHTO  H151 6903   5.774   7.514   0.893
   17CHTO   O52 6904   5.600   7.455   0.799
   17CHTO   C86 6905   5.534   7.348   0.724
   17CHTO  H158 6906   5.492   7.284   0.803
   17CHTO   C90 6907   5.412   7.412   0.653
   17CHTO   O60 6908   5.330   7.316   0.586
   17CHTO  H138 6909   5.259   7.361   0.544
   17CHTO   O50 6910   5.721   7.326   0.960
   17CHTO   C73 6911   5.705   7.295   1.099
   17CHTO  H145 6912   5.652   7.377   1.150
   17CHTO   C74 6913   5.844   7.276   1.168
   17CHTO  H146 6914   5.901   7.368   1.151
   17CHTO   O54 6915   5.823   7.267   1.310
   17CHTO  H133 6916   5.773   7.191   1.332
   17CHTO   C75 6917   5.916   7.149   1.107
   17CHTO  H147 6918   5.936   7.169   1.000
   17CHTO   N13 6919   6.049   7.118   1.167
   17CHTO  H139 6920   6.126   7.121   1.092
   17CHTO  H140 6921   6.073   7.189   1.244
   17CHTO   C76 6922   5.819   7.022   1.112
   17CHTO  H148 6923   5.807   6.992   1.216
   17CHTO   O49 6924   5.688   7.053   1.054
   17CHTO   C77 6925   5.621   7.164   1.114
   17CHTO  H149 6926   5.604   7.145   1.220
   17CHTO   C88 6927   5.482   7.174   1.050
   17CHTO   O58 6928   5.405   7.290   1.100
   17CHTO  H136 6929   5.321   7.292   1.058
   17CHTO   O51 6930   5.881   6.904   1.020
   17CHTO   C78 6931   5.796   6.773   1.017
   17CHTO  H150 6932   5.688   6.794   1.036
   17CHTO   C80 6933   5.846   6.672   1.122
   17CHTO  H152 6934   5.955   6.654   1.105
   17CHTO   O55 6935   5.831   6.731   1.253
   17CHTO  H134 6936   5.740   6.745   1.272
   17CHTO   C84 6937   5.769   6.534   1.110
   17CHTO  H156 6938   5.665   6.553   1.136
   17CHTO   N15 6939   5.820   6.428   1.205
   17CHTO  H143 6940   5.900   6.466   1.265
   17CHTO  H144 6941   5.740   6.395   1.269
   17CHTO   C87 6942   5.775   6.483   0.963
   17CHTO  H159 6943   5.878   6.456   0.938
   17CHTO   O53 6944   5.727   6.592   0.870
   17CHTO   C82 6945   5.806   6.712   0.876
   17CHTO  H154 6946   5.910   6.689   0.852
   17CHTO   C89 6947   5.755   6.809   0.766
   17CHTO   O59 6948   5.617   6.844   0.784
   17CHTO  H137 6949   5.591   6.902   0.715
   17CHTO   O45 6950   5.679   6.350   0.933
   17CHTO   C67 6951   5.545   6.345   0.986
   17CHTO  H124 6952   5.548   6.364   1.093
   17CHTO   C65 6953   5.445   6.446   0.919
   17CHTO  H122 6954   5.504   6.515   0.860
   17CHTO   O44 6955   5.377   6.518   1.023
   17CHTO  H102 6956   5.327   6.588   0.986
   17CHTO   C63 6957   5.351   6.373   0.815
   17CHTO  H120 6958   5.414   6.322   0.742
   17CHTO   N11 6959   5.269   6.462   0.726
   17CHTO  H108 6960   5.220   6.404   0.651
   17CHTO  H109 6961   5.331   6.535   0.679
   17CHTO   C61 6962   5.270   6.261   0.891
   17CHTO  H118 6963   5.236   6.191   0.813
   17CHTO   O40 6964   5.351   6.185   0.985
   17CHTO   C68 6965   5.496   6.195   0.972
   17CHTO  H125 6966   5.524   6.155   0.873
   17CHTO   C72 6967   5.559   6.101   1.078
   17CHTO   O48 6968   5.701   6.089   1.066
   17CHTO  H105 6969   5.742   6.171   1.087
   17CHTO   O38 6970   5.156   6.314   0.963
   17CHTO   C55 6971   5.081   6.228   1.052
   17CHTO  H112 6972   5.150   6.191   1.130
   17CHTO   C56 6973   5.008   6.108   0.975
   17CHTO  H113 6974   4.954   6.153   0.890
   17CHTO   O42 6975   5.105   6.017   0.918
   17CHTO  H100 6976   5.159   5.981   0.984
   17CHTO   C57 6977   4.909   6.029   1.069
   17CHTO  H114 6978   4.970   5.969   1.137
   17CHTO   N10 6979   4.821   5.935   0.994
   17CHTO  H106 6980   4.870   5.839   0.984
   17CHTO  H107 6981   4.727   5.921   1.045
   17CHTO   C58 6982   4.825   6.128   1.154
   17CHTO  H115 6983   4.751   6.179   1.087
   17CHTO   O37 6984   4.907   6.226   1.219
   17CHTO   C59 6985   4.975   6.313   1.127
   17CHTO  H116 6986   4.903   6.358   1.057
   17CHTO   C70 6987   5.037   6.425   1.211
   17CHTO   O46 6988   5.087   6.533   1.132
   17CHTO  H103 6989   5.124   6.599   1.189
   17CHTO   O39 6990   4.752   6.052   1.273
   17CHTO   C60 6991   4.624   6.110   1.301
   17CHTO  H117 6992   4.627   6.217   1.281
   17CHTO   C62 6993   4.515   6.048   1.209
   17CHTO  H119 6994   4.548   6.066   1.104
   17CHTO   O43 6995   4.509   5.905   1.229
   17CHTO  H101 6996   4.481   5.885   1.316
   17CHTO   C66 6997   4.376   6.122   1.234
   17CHTO  H123 6998   4.390   6.229   1.216
   17CHTO   N12 6999   4.272   6.079   1.137
   17CHTO  H110 7000   4.180   6.133   1.153
   17CHTO  H111 7001   4.256   5.972   1.145
   17CHTO   C69 7002   4.334   6.104   1.382
   17CHTO  H126 7003   4.315   5.996   1.403
   17CHTO   O41 7004   4.450   6.156   1.477
   17CHTO   C64 7005   4.586   6.092   1.450
   17CHTO  H121 7006   4.582   5.983   1.474
   17CHTO   C71 7007   4.692   6.157   1.541
   17CHTO   O47 7008   4.661   6.134   1.679
   17CHTO  H104 7009   4.727   6.174   1.733
   17CHTO   O34 7010   4.209   6.182   1.416
   17CHTO   C49 7011   4.115   6.297   1.423
   17CHTO   H91 7012   4.175   6.388   1.431
   17CHTO   C47 7013   4.029   6.278   1.550
   17CHTO   H89 7014   3.967   6.370   1.556
   17CHTO   O33 7015   4.111   6.271   1.667
   17CHTO   H70 7016   4.166   6.195   1.665
   17CHTO   C45 7017   3.935   6.146   1.537
   17CHTO   H87 7018   3.990   6.060   1.578
   17CHTO    N8 7019   3.812   6.165   1.618
   17CHTO   H75 7020   3.752   6.245   1.577
   17CHTO   H76 7021   3.754   6.074   1.620
   17CHTO   C43 7022   3.911   6.110   1.381
   17CHTO   H85 7023   4.001   6.056   1.352
   17CHTO   O29 7024   3.896   6.232   1.307
   17CHTO   C50 7025   4.020   6.306   1.299
   17CHTO   H92 7026   4.074   6.266   1.212
   17CHTO   C54 7027   3.992   6.452   1.255
   17CHTO   O36 7028   3.920   6.528   1.352
   17CHTO   H72 7029   3.832   6.495   1.360
   17CHTO   O27 7030   3.805   6.015   1.356
   17CHTO   C37 7031   3.811   5.871   1.354
   17CHTO   H79 7032   3.899   5.836   1.411
   17CHTO   C38 7033   3.685   5.809   1.422
   17CHTO   H80 7034   3.595   5.851   1.374
   17CHTO   O31 7035   3.687   5.847   1.560
   17CHTO   H68 7036   3.671   5.939   1.569
   17CHTO   C39 7037   3.683   5.651   1.407
   17CHTO   H81 7038   3.767   5.612   1.464
   17CHTO    N7 7039   3.558   5.588   1.463
   17CHTO   H73 7040   3.502   5.536   1.387
   17CHTO   H74 7041   3.583   5.521   1.544
   17CHTO   C40 7042   3.707   5.609   1.256
   17CHTO   H82 7043   3.618   5.635   1.198
   17CHTO   O26 7044   3.824   5.674   1.206
   17CHTO   C41 7045   3.823   5.819   1.208
   17CHTO   H83 7046   3.739   5.857   1.148
   17CHTO   C52 7047   3.954   5.865   1.140
   17CHTO   O35 7048   3.964   5.820   0.999
   17CHTO   H71 7049   4.044   5.851   0.961
   17CHTO   O28 7050   3.723   5.466   1.242
   17CHTO   C42 7051   3.848   5.393   1.218
   17CHTO   H84 7052   3.820   5.289   1.230
   17CHTO   C44 7053   3.964   5.418   1.321
   17CHTO   H86 7054   3.982   5.525   1.328
   17CHTO   O32 7055   3.916   5.373   1.449
   17CHTO   H69 7056   3.978   5.395   1.516
   17CHTO   C48 7057   4.101   5.348   1.280
   17CHTO   H90 7058   4.089   5.240   1.291
   17CHTO    N9 7059   4.214   5.386   1.371
   17CHTO   H77 7060   4.191   5.356   1.473
   17CHTO   H78 7061   4.230   5.493   1.367
   17CHTO   C51 7062   4.132   5.380   1.129
   17CHTO   H93 7063   4.140   5.489   1.120
   17CHTO   O30 7064   4.022   5.328   1.052
   17CHTO   C46 7065   3.899   5.410   1.071
   17CHTO   H88 7066   3.924   5.514   1.052
   17CHTO   C53 7067   3.793   5.362   0.969
   17CHTO   O72 7068   3.836   5.388   0.834
   17CHTO  H199 7069   3.909   5.333   0.813
   17CHTO   O22 7070   4.250   5.317   1.077
   17CHTO   C31 7071   4.312   5.363   0.950
   17CHTO   H59 7072   4.400   5.296   0.934
   17CHTO   C29 7073   4.221   5.349   0.826
   17CHTO   H57 7074   4.128   5.404   0.847
   17CHTO   O21 7075   4.185   5.210   0.814
   17CHTO   H37 7076   4.119   5.200   0.748
   17CHTO   C27 7077   4.286   5.407   0.694
   17CHTO   H55 7078   4.373   5.346   0.668
   17CHTO    N5 7079   4.192   5.409   0.578
   17CHTO   H43 7080   4.094   5.374   0.607
   17CHTO   H44 7081   4.231   5.347   0.498
   17CHTO   C25 7082   4.340   5.552   0.724
   17CHTO   H53 7083   4.255   5.616   0.752
   17CHTO   O17 7084   4.432   5.546   0.836
   17CHTO   C32 7085   4.371   5.508   0.960
   17CHTO   H60 7086   4.290   5.577   0.983
   17CHTO   C36 7087   4.477   5.518   1.071
   17CHTO   O25 7088   4.528   5.651   1.083
   17CHTO   H40 7089   4.593   5.654   1.150
   17CHTO   O15 7090   4.416   5.616   0.600
   17CHTO   C19 7091   4.449   5.757   0.582
   17CHTO   H47 7092   4.479   5.763   0.476
   17CHTO   C20 7093   4.329   5.854   0.606
   17CHTO   H48 7094   4.291   5.848   0.709
   17CHTO   O19 7095   4.223   5.812   0.517
   17CHTO   H35 7096   4.188   5.729   0.544
   17CHTO   C21 7097   4.370   6.004   0.578
   17CHTO   H49 7098   4.395   6.014   0.472
   17CHTO    N4 7099   4.261   6.101   0.606
   17CHTO   H41 7100   4.177   6.081   0.542
   17CHTO   H42 7101   4.230   6.093   0.709
   17CHTO   C22 7102   4.499   6.036   0.659
   17CHTO   H50 7103   4.476   6.034   0.765
   17CHTO   O14 7104   4.603   5.941   0.630
   17CHTO   C23 7105   4.572   5.806   0.665
   17CHTO   H51 7106   4.552   5.803   0.774
   17CHTO   C34 7107   4.699   5.725   0.638
   17CHTO   O23 7108   4.687   5.589   0.681
   17CHTO   H38 7109   4.767   5.543   0.662
   17CHTO   O16 7110   4.555   6.164   0.620
   17CHTO   C24 7111   4.635   6.239   0.736
   17CHTO   H52 7112   4.680   6.169   0.807
   17CHTO   C26 7113   4.539   6.334   0.811
   17CHTO   H54 7114   4.482   6.393   0.735
   17CHTO   O20 7115   4.443   6.255   0.883
   17CHTO   H36 7116   4.485   6.204   0.950
   17CHTO   C30 7117   4.615   6.434   0.904
   17CHTO   H58 7118   4.661   6.380   0.988
   17CHTO    N6 7119   4.522   6.533   0.964
   17CHTO   H45 7120   4.447   6.482   1.023
   17CHTO   H46 7121   4.576   6.601   1.028
   17CHTO   C33 7122   4.731   6.501   0.824
   17CHTO   H61 7123   4.689   6.559   0.740
   17CHTO   O18 7124   4.816   6.398   0.770
   17CHTO   C28 7125   4.751   6.317   0.670
   17CHTO   H56 7126   4.711   6.380   0.591
   17CHTO   C35 7127   4.854   6.220   0.609
   17CHTO   O24 7128   4.960   6.288   0.541
   17CHTO   H39 7129   5.021   6.225   0.508
   17CHTO    O9 7130   4.807   6.596   0.902
   17CHTO   C13 7131   4.893   6.700   0.810
   17CHTO   H26 7132   4.928   6.645   0.720
   17CHTO   C11 7133   5.013   6.757   0.895
   17CHTO   H24 7134   5.082   6.672   0.915
   17CHTO    O8 7135   4.966   6.805   1.023
   17CHTO    H3 7136   5.039   6.830   1.076
   17CHTO    C9 7137   5.088   6.862   0.809
   17CHTO   H22 7138   5.115   6.810   0.716
   17CHTO    N2 7139   5.217   6.906   0.867
   17CHTO   H10 7140   5.268   6.971   0.797
   17CHTO   H11 7141   5.279   6.820   0.890
   17CHTO    C7 7142   4.990   6.980   0.774
   17CHTO   H20 7143   5.048   7.042   0.703
   17CHTO    O4 7144   4.872   6.933   0.706
   17CHTO   C14 7145   4.800   6.817   0.754
   17CHTO   H27 7146   4.746   6.777   0.666
   17CHTO   C18 7147   4.692   6.862   0.856
   17CHTO   O13 7148   4.594   6.947   0.794
   17CHTO    H7 7149   4.530   6.973   0.858
   17CHTO    O2 7150   4.946   7.067   0.908
   17CHTO    C1 7151   4.898   7.202   0.887
   17CHTO   H14 7152   4.817   7.200   0.811
   17CHTO    C2 7153   5.010   7.306   0.840
   17CHTO   H15 7154   5.097   7.286   0.905
   17CHTO    O6 7155   5.045   7.281   0.703
   17CHTO    H1 7156   5.089   7.198   0.696
   17CHTO    C3 7157   4.963   7.459   0.856
   17CHTO   H16 7158   4.892   7.482   0.775
   17CHTO    N1 7159   5.078   7.555   0.842
   17CHTO    H8 7160   5.153   7.534   0.917
   17CHTO    H9 7161   5.122   7.545   0.744
   17CHTO    C4 7162   4.884   7.483   0.990
   17CHTO   H17 7163   4.954   7.483   1.073
   17CHTO    O1 7164   4.783   7.383   1.007
   17CHTO    C5 7165   4.834   7.250   1.021
   17CHTO   H18 7166   4.913   7.250   1.096
   17CHTO   C16 7167   4.718   7.159   1.068
   17CHTO   O11 7168   4.673   7.196   1.199
   17CHTO    H5 7169   4.604   7.138   1.225
   17CHTO    O3 7170   4.810   7.607   0.985
   17CHTO    C6 7171   4.780   7.686   1.106
   17CHTO   H19 7172   4.679   7.726   1.101
   17CHTO    C8 7173   4.787   7.610   1.244
   17CHTO   H21 7174   4.883   7.560   1.251
   17CHTO    O7 7175   4.681   7.512   1.244
   17CHTO    H2 7176   4.597   7.555   1.241
   17CHTO   C12 7177   4.775   7.710   1.366
   17CHTO   H25 7178   4.672   7.750   1.365
   17CHTO    N3 7179   4.792   7.638   1.498
   17CHTO   H12 7180   4.716   7.562   1.507
   17CHTO   H13 7181   4.784   7.709   1.579
   17CHTO   C15 7182   4.876   7.829   1.348
   17CHTO   H28 7183   4.979   7.796   1.355
   17CHTO   O10 7184   4.852   7.945   1.447
   17CHTO    H4 7185   4.762   7.972   1.445
   17CHTO    O5 7186   4.853   7.894   1.221
   17CHTO   C10 7187   4.876   7.810   1.107
   17CHTO   H23 7188   4.979   7.776   1.108
   17CHTO   C17 7189   4.855   7.896   0.981
   17CHTO   O12 7190   4.949   8.003   0.973
   17CHTO    H6 7191   5.035   7.969   0.957
   18CHTO  H203 7192   6.158   7.333   1.878
   18CHTO   O82 7193   6.196   7.415   1.852
   18CHTO  C123 7194   6.167   7.442   1.714
   18CHTO  H227 7195   6.058   7.446   1.700
   18CHTO   O77 7196   6.225   7.574   1.692
   18CHTO  C118 7197   6.198   7.629   1.562
   18CHTO  H222 7198   6.089   7.634   1.547
   18CHTO  C125 7199   6.257   7.776   1.558
   18CHTO   O84 7200   6.398   7.779   1.580
   18CHTO  H205 7201   6.418   7.752   1.668
   18CHTO  C114 7202   6.261   7.540   1.453
   18CHTO  H218 7203   6.369   7.541   1.465
   18CHTO  C116 7204   6.214   7.392   1.466
   18CHTO  H220 7205   6.106   7.385   1.438
   18CHTO   O79 7206   6.286   7.313   1.370
   18CHTO  H201 7207   6.255   7.225   1.371
   18CHTO  C120 7208   6.234   7.339   1.614
   18CHTO  H224 7209   6.344   7.335   1.632
   18CHTO   N21 7210   6.181   7.201   1.632
   18CHTO  H211 7211   6.150   7.184   1.734
   18CHTO  H212 7212   6.099   7.183   1.565
   18CHTO   O75 7213   6.223   7.601   1.328
   18CHTO  C112 7214   6.347   7.609   1.220
   18CHTO  H216 7215   6.421   7.533   1.246
   18CHTO   O73 7216   6.401   7.742   1.227
   18CHTO  C113 7217   6.519   7.759   1.146
   18CHTO  H217 7218   6.594   7.683   1.175
   18CHTO  C124 7219   6.577   7.897   1.181
   18CHTO   O83 7220   6.709   7.916   1.129
   18CHTO  H204 7221   6.706   7.922   1.036
   18CHTO  C109 7222   6.482   7.744   0.995
   18CHTO  H213 7223   6.415   7.828   0.970
   18CHTO  C110 7224   6.411   7.608   0.971
   18CHTO  H214 7225   6.485   7.528   0.979
   18CHTO   O78 7226   6.360   7.605   0.836
   18CHTO  H200 7227   6.432   7.603   0.774
   18CHTO  C111 7228   6.295   7.583   1.073
   18CHTO  H215 7229   6.215   7.655   1.053
   18CHTO   N19 7230   6.235   7.448   1.062
   18CHTO  H207 7231   6.196   7.433   0.962
   18CHTO  H208 7232   6.155   7.437   1.133
   18CHTO   O74 7233   6.603   7.755   0.913
   18CHTO  C115 7234   6.580   7.821   0.763
   18CHTO  H219 7235   6.490   7.783   0.716
   18CHTO   O76 7236   6.561   7.978   0.772
   18CHTO  C122 7237   6.558   8.050   0.648
   18CHTO  H226 7238   6.564   8.156   0.673
   18CHTO  C126 7239   6.418   8.031   0.578
   18CHTO   O85 7240   6.404   8.108   0.458
   18CHTO  H206 7241   6.403   8.199   0.478
   18CHTO  C121 7242   6.678   8.013   0.554
   18CHTO  H225 7243   6.660   8.060   0.455
   18CHTO   O81 7244   6.800   8.068   0.606
   18CHTO  H202 7245   6.795   8.162   0.606
   18CHTO  C119 7246   6.691   7.859   0.533
   18CHTO  H223 7247   6.598   7.826   0.487
   18CHTO  C117 7248   6.703   7.784   0.671
   18CHTO  H221 7249   6.791   7.808   0.731
   18CHTO   N20 7250   6.709   7.635   0.651
   18CHTO  H209 7251   6.793   7.610   0.588
   18CHTO  H210 7252   6.719   7.585   0.746
   18CHTO   O80 7253   6.802   7.821   0.416
   18CHTO  C103 7254   6.752   7.760   0.270
   18CHTO  H190 7255   6.837   7.756   0.201
   18CHTO  C101 7256   6.687   7.616   0.275
   18CHTO  H188 7257   6.614   7.614   0.356
   18CHTO   O68 7258   6.799   7.516   0.308
   18CHTO  H168 7259   6.763   7.430   0.320
   18CHTO   C99 7260   6.612   7.581   0.138
   18CHTO  H186 7261   6.685   7.583   0.054
   18CHTO   N17 7262   6.547   7.446   0.137
   18CHTO  H174 7263   6.503   7.428   0.040
   18CHTO  H175 7264   6.620   7.370   0.161
   18CHTO   C97 7265   6.512   7.696   0.109
   18CHTO  H184 7266   6.444   7.704   0.196
   18CHTO   O64 7267   6.588   7.817   0.090
   18CHTO  C104 7268   6.650   7.865   0.211
   18CHTO  H191 7269   6.574   7.889   0.286
   18CHTO  C108 7270   6.722   7.997   0.179
   18CHTO   O71 7271   6.630   8.100   0.142
   18CHTO  H171 7272   6.594   8.082   0.057
   18CHTO   O62 7273   6.437   7.683   2.846
   18CHTO   C91 7274   6.294   7.708   2.854
   18CHTO  H178 7275   6.262   7.697   0.098
   18CHTO   C92 7276   6.217   7.597   2.776
   18CHTO  H179 7277   6.254   7.594   2.672
   18CHTO   O66 7278   6.252   7.468   2.832
   18CHTO  H166 7279   6.224   7.463   0.062
   18CHTO   C93 7280   6.060   7.619   2.779
   18CHTO  H180 7281   6.027   7.601   0.023
   18CHTO   N16 7282   5.984   7.522   2.695
   18CHTO  H172 7283   6.016   7.530   2.592
   18CHTO  H173 7284   6.000   7.422   2.732
   18CHTO   C94 7285   6.024   7.767   2.740
   18CHTO  H181 7286   6.046   7.788   2.635
   18CHTO   O61 7287   6.102   7.859   2.818
   18CHTO   C95 7288   6.244   7.848   2.801
   18CHTO  H182 7289   6.268   7.858   2.695
   18CHTO  C106 7290   6.310   7.970   0.014
   18CHTO   O69 7291   6.285   7.969   0.155
   18CHTO  H169 7292   6.195   7.986   0.172
   18CHTO   O63 7293   5.867   7.799   2.773
   18CHTO   C96 7294   5.819   7.935   2.705
   18CHTO  H183 7295   5.895   7.966   2.634
   18CHTO   C98 7296   5.796   8.053   2.803
   18CHTO  H185 7297   5.723   8.024   0.021
   18CHTO   O67 7298   5.920   8.077   0.013
   18CHTO  H167 7299   5.907   8.142   0.080
   18CHTO  C102 7300   5.747   8.186   2.727
   18CHTO  H189 7301   5.835   8.223   2.671
   18CHTO   N18 7302   5.708   8.298   2.816
   18CHTO  H176 7303   5.625   8.268   0.019
   18CHTO  H177 7304   5.680   8.385   2.758
   18CHTO  C105 7305   5.637   8.153   2.622
   18CHTO  H192 7306   5.541   8.142   2.674
   18CHTO   O65 7307   5.661   8.032   2.547
   18CHTO  C100 7308   5.685   7.915   2.625
   18CHTO  H187 7309   5.601   7.900   2.696
   18CHTO  C107 7310   5.688   7.794   2.528
   18CHTO   O70 7311   5.678   7.670   2.598
   18CHTO  H170 7312   5.680   7.599   2.537
   18CHTO   O57 7313   5.635   8.284   2.517
   18CHTO   C85 7314   5.520   8.322   2.439
   18CHTO  H157 7315   5.561   8.391   2.363
   18CHTO   C83 7316   5.423   8.411   2.525
   18CHTO  H155 7317   5.477   8.502   2.552
   18CHTO   O56 7318   5.391   8.346   2.650
   18CHTO  H135 7319   5.469   8.333   2.701
   18CHTO   C81 7320   5.299   8.449   2.440
   18CHTO  H153 7321   5.334   8.498   2.349
   18CHTO   N14 7322   5.211   8.550   2.505
   18CHTO  H141 7323   5.132   8.578   2.438
   18CHTO  H142 7324   5.268   8.637   2.530
   18CHTO   C79 7325   5.222   8.318   2.399
   18CHTO  H151 7326   5.137   8.348   2.337
   18CHTO   O52 7327   5.309   8.235   2.315
   18CHTO   C86 7328   5.439   8.202   2.373
   18CHTO  H158 7329   5.417   8.123   2.447
   18CHTO   C90 7330   5.526   8.135   2.263
   18CHTO   O60 7331   5.470   8.010   2.219
   18CHTO  H138 7332   5.390   8.026   2.172
   18CHTO   O50 7333   5.174   8.241   2.510
   18CHTO   C73 7334   5.078   8.142   2.552
   18CHTO  H145 7335   5.067   8.065   2.474
   18CHTO   C74 7336   4.939   8.208   2.576
   18CHTO  H146 7337   4.908   8.256   2.482
   18CHTO   O54 7338   4.843   8.103   2.601
   18CHTO  H133 7339   4.757   8.139   2.612
   18CHTO   C75 7340   4.951   8.312   2.695
   18CHTO  H147 7341   5.021   8.391   2.665
   18CHTO   N13 7342   4.824   8.382   2.729
   18CHTO  H139 7343   4.744   8.350   2.664
   18CHTO  H140 7344   4.836   8.489   2.719
   18CHTO   C76 7345   5.015   8.240   2.823
   18CHTO  H148 7346   4.942   8.169   0.002
   18CHTO   O49 7347   5.139   8.171   2.789
   18CHTO   C77 7348   5.127   8.074   2.683
   18CHTO  H149 7349   5.056   7.997   2.712
   18CHTO   C88 7350   5.261   8.002   2.664
   18CHTO   O58 7351   5.302   7.930   2.788
   18CHTO  H136 7352   5.322   7.992   2.856
   18CHTO   O51 7353   5.059   8.347   0.069
   18CHTO   C78 7354   5.074   8.289   0.212
   18CHTO  H150 7355   5.082   8.178   0.211
   18CHTO   C80 7356   4.953   8.330   0.298
   18CHTO  H152 7357   4.940   8.441   0.290
   18CHTO   O55 7358   4.837   8.267   0.241
   18CHTO  H134 7359   4.817   8.305   0.157
   18CHTO   C84 7360   4.972   8.291   0.450
   18CHTO  H156 7361   4.975   8.182   0.456
   18CHTO   N15 7362   4.858   8.336   0.538
   18CHTO  H143 7363   4.891   8.405   0.613
   18CHTO  H144 7364   4.780   8.382   0.480
   18CHTO   C87 7365   5.109   8.345   0.500
   18CHTO  H159 7366   5.107   8.454   0.499
   18CHTO   O53 7367   5.220   8.291   0.405
   18CHTO   C82 7368   5.205   8.344   0.273
   18CHTO  H154 7369   5.202   8.452   0.277
   18CHTO   C89 7370   5.329   8.306   0.188
   18CHTO   O59 7371   5.346   8.165   0.175
   18CHTO  H137 7372   5.424   8.147   0.125
   18CHTO   O45 7373   5.143   8.295   0.651
   18CHTO   C67 7374   5.275   8.332   0.695
   18CHTO  H124 7375   5.346   8.310   0.615
   18CHTO   C65 7376   5.285   8.485   0.730
   18CHTO  H122 7377   5.184   8.517   0.756
   18CHTO   O44 7378   5.325   8.550   0.608
   18CHTO  H102 7379   5.320   8.644   0.619
   18CHTO   C63 7380   5.372   8.513   0.858
   18CHTO  H120 7381   5.315   8.484   0.946
   18CHTO   N11 7382   5.401   8.657   0.889
   18CHTO  H108 7383   5.310   8.713   0.892
   18CHTO  H109 7384   5.465   8.698   0.813
   18CHTO   C61 7385   5.498   8.420   0.853
   18CHTO  H118 7386   5.556   8.438   0.945
   18CHTO   O40 7387   5.461   8.278   0.855
   18CHTO   C68 7388   5.323   8.243   0.817
   18CHTO  H125 7389   5.257   8.258   0.905
   18CHTO   C72 7390   5.322   8.091   0.785
   18CHTO   O48 7391   5.190   8.039   0.766
   18CHTO  H105 7392   5.195   7.947   0.746
   18CHTO   O38 7393   5.580   8.447   0.737
   18CHTO   C55 7394   5.710   8.386   0.736
   18CHTO  H112 7395   5.717   8.307   0.812
   18CHTO   C56 7396   5.823   8.496   0.754
   18CHTO  H113 7397   5.810   8.570   0.673
   18CHTO   O42 7398   5.803   8.567   0.877
   18CHTO  H100 7399   5.722   8.616   0.874
   18CHTO   C57 7400   5.967   8.431   0.749
   18CHTO  H114 7401   5.980   8.382   0.845
   18CHTO   N10 7402   6.077   8.530   0.738
   18CHTO  H106 7403   6.163   8.488   0.688
   18CHTO  H107 7404   6.044   8.618   0.684
   18CHTO   C58 7405   5.980   8.323   0.637
   18CHTO  H115 7406   6.006   8.373   0.540
   18CHTO   O37 7407   5.862   8.244   0.615
   18CHTO   C59 7408   5.739   8.316   0.600
   18CHTO  H116 7409   5.748   8.389   0.520
   18CHTO   C70 7410   5.629   8.216   0.562
   18CHTO   O46 7411   5.650   8.157   0.434
   18CHTO  H103 7412   5.580   8.098   0.414
   18CHTO   O39 7413   6.104   8.214   0.680
   18CHTO   C60 7414   6.065   8.121   0.784
   18CHTO  H117 7415   5.986   8.165   0.844
   18CHTO   C62 7416   6.010   7.988   0.724
   18CHTO  H119 7417   5.928   8.016   0.654
   18CHTO   O43 7418   6.112   7.922   0.647
   18CHTO  H101 7419   6.077   7.844   0.606
   18CHTO   C66 7420   5.950   7.899   0.842
   18CHTO  H123 7421   5.874   7.957   0.894
   18CHTO   N12 7422   5.880   7.777   0.793
   18CHTO  H110 7423   5.776   7.778   0.821
   18CHTO  H111 7424   5.891   7.767   0.686
   18CHTO   C69 7425   6.060   7.865   0.946
   18CHTO  H126 7426   6.134   7.795   0.901
   18CHTO   O41 7427   6.136   7.998   0.993
   18CHTO   C64 7428   6.183   8.089   0.880
   18CHTO  H121 7429   6.264   8.039   0.824
   18CHTO   C71 7430   6.241   8.219   0.942
   18CHTO   O47 7431   6.355   8.191   1.024
   18CHTO  H104 7432   6.328   8.147   1.102
   18CHTO   O34 7433   5.996   7.795   1.075
   18CHTO   C49 7434   5.935   7.839   1.214
   18CHTO   H91 7435   6.014   7.826   1.288
   18CHTO   C47 7436   5.816   7.746   1.248
   18CHTO   H89 7437   5.782   7.772   1.350
   18CHTO   O33 7438   5.864   7.610   1.249
   18CHTO   H70 7439   5.796   7.552   1.274
   18CHTO   C45 7440   5.698   7.773   1.142
   18CHTO   H87 7441   5.740   7.760   1.041
   18CHTO    N8 7442   5.585   7.679   1.157
   18CHTO   H75 7443   5.538   7.693   1.253
   18CHTO   H76 7444   5.620   7.577   1.148
   18CHTO   C43 7445   5.653   7.929   1.147
   18CHTO   H85 7446   5.587   7.941   1.061
   18CHTO   O29 7447   5.768   8.015   1.138
   18CHTO   C50 7448   5.887   7.987   1.215
   18CHTO   H92 7449   5.968   8.048   1.172
   18CHTO   C54 7450   5.874   8.045   1.359
   18CHTO   O36 7451   5.996   8.036   1.433
   18CHTO   H72 7452   6.060   8.095   1.397
   18CHTO   O27 7453   5.573   7.962   1.263
   18CHTO   C37 7454   5.469   8.057   1.294
   18CHTO   H79 7455   5.422   8.030   1.390
   18CHTO   C38 7456   5.527   8.201   1.312
   18CHTO   H80 7457   5.597   8.220   1.229
   18CHTO   O31 7458   5.602   8.203   1.435
   18CHTO   H68 7459   5.545   8.187   1.509
   18CHTO   C39 7460   5.416   8.314   1.313
   18CHTO   H81 7461   5.359   8.303   1.405
   18CHTO    N7 7462   5.475   8.452   1.313
   18CHTO   H73 7463   5.396   8.526   1.314
   18CHTO   H74 7464   5.538   8.466   1.399
   18CHTO   C40 7465   5.316   8.291   1.193
   18CHTO   H82 7466   5.373   8.304   1.101
   18CHTO   O26 7467   5.259   8.160   1.203
   18CHTO   C41 7468   5.359   8.055   1.184
   18CHTO   H83 7469   5.406   8.068   1.085
   18CHTO   C52 7470   5.285   7.919   1.182
   18CHTO   O35 7471   5.208   7.901   1.065
   18CHTO   H71 7472   5.165   7.818   1.068
   18CHTO   O28 7473   5.212   8.391   1.185
   18CHTO   C42 7474   5.073   8.387   1.231
   18CHTO   H84 7475   5.045   8.492   1.231
   18CHTO   C44 7476   5.044   8.335   1.376
   18CHTO   H86 7477   5.071   8.230   1.381
   18CHTO   O32 7478   5.129   8.409   1.466
   18CHTO   H69 7479   5.106   8.500   1.466
   18CHTO   C48 7480   4.891   8.350   1.414
   18CHTO   H90 7481   4.869   8.456   1.422
   18CHTO    N9 7482   4.859   8.292   1.549
   18CHTO   H77 7483   4.755   8.307   1.572
   18CHTO   H78 7484   4.883   8.187   1.551
   18CHTO   C51 7485   4.799   8.289   1.300
   18CHTO   H93 7486   4.810   8.181   1.302
   18CHTO   O30 7487   4.836   8.345   1.174
   18CHTO   C46 7488   4.977   8.315   1.132
   18CHTO   H88 7489   4.994   8.208   1.135
   18CHTO   C53 7490   4.995   8.368   0.987
   18CHTO   O72 7491   4.909   8.298   0.896
   18CHTO  H199 7492   4.921   8.332   0.810
   18CHTO   O22 7493   4.660   8.325   1.321
   18CHTO   C31 7494   4.550   8.301   1.224
   18CHTO   H59 7495   4.456   8.301   1.284
   18CHTO   C29 7496   4.535   8.414   1.119
   18CHTO   H57 7497   4.633   8.429   1.070
   18CHTO   O21 7498   4.505   8.536   1.189
   18CHTO   H37 7499   4.577   8.561   1.243
   18CHTO   C27 7500   4.428   8.382   1.007
   18CHTO   H55 7501   4.328   8.378   1.054
   18CHTO    N5 7502   4.425   8.483   0.898
   18CHTO   H43 7503   4.521   8.488   0.849
   18CHTO   H44 7504   4.398   8.580   0.938
   18CHTO   C25 7505   4.458   8.239   0.950
   18CHTO   H53 7506   4.559   8.239   0.906
   18CHTO   O17 7507   4.453   8.143   1.059
   18CHTO   C32 7508   4.557   8.159   1.157
   18CHTO   H60 7509   4.654   8.147   1.110
   18CHTO   C36 7510   4.537   8.048   1.263
   18CHTO   O25 7511   4.542   7.918   1.206
   18CHTO   H40 7512   4.629   7.899   1.176
   18CHTO   O15 7513   4.350   8.190   0.840
   18CHTO   C19 7514   4.378   8.115   0.718
   18CHTO   H47 7515   4.285   8.060   0.699
   18CHTO   C20 7516   4.409   8.205   0.594
   18CHTO   H48 7517   4.492   8.275   0.614
   18CHTO   O19 7518   4.290   8.283   0.569
   18CHTO   H35 7519   4.278   8.347   0.637
   18CHTO   C21 7520   4.448   8.120   0.466
   18CHTO   H49 7521   4.362   8.060   0.436
   18CHTO    N4 7522   4.486   8.204   0.349
   18CHTO   H41 7523   4.403   8.268   0.322
   18CHTO   H42 7524   4.511   8.141   0.265
   18CHTO   C22 7525   4.561   8.022   0.507
   18CHTO   H50 7526   4.647   8.080   0.541
   18CHTO   O14 7527   4.514   7.937   0.613
   18CHTO   C23 7528   4.489   8.006   0.736
   18CHTO   H51 7529   4.584   8.049   0.770
   18CHTO   C34 7530   4.446   7.901   0.840
   18CHTO   O23 7531   4.552   7.808   0.867
   18CHTO   H38 7532   4.567   7.753   0.793
   18CHTO   O16 7533   4.599   7.928   0.405
   18CHTO   C24 7534   4.755   7.940   0.353
   18CHTO   H52 7535   4.794   8.042   0.365
   18CHTO   C26 7536   4.758   7.901   0.204
   18CHTO   H54 7537   4.701   7.805   0.193
   18CHTO   O20 7538   4.686   8.001   0.130
   18CHTO   H36 7539   4.676   7.974   0.040
   18CHTO   C30 7540   4.902   7.880   0.149
   18CHTO   H58 7541   4.951   7.978   0.137
   18CHTO    N6 7542   4.900   7.819   0.013
   18CHTO   H45 7543   4.851   7.723   0.015
   18CHTO   H46 7544   4.848   7.884   2.804
   18CHTO   C33 7545   4.991   7.798   0.247
   18CHTO   H61 7546   4.956   7.694   0.252
   18CHTO   O18 7547   4.980   7.856   0.379
   18CHTO   C28 7548   4.848   7.847   0.435
   18CHTO   H56 7549   4.810   7.745   0.429
   18CHTO   C35 7550   4.858   7.888   0.583
   18CHTO   O24 7551   4.937   7.797   0.659
   18CHTO   H39 7552   4.938   7.823   0.749
   18CHTO    O9 7553   5.129   7.791   0.204
   18CHTO   C13 7554   5.226   7.714   0.310
   18CHTO   H26 7555   5.163   7.667   0.389
   18CHTO   C11 7556   5.327   7.819   0.371
   18CHTO   H24 7557   5.269   7.890   0.432
   18CHTO    O8 7558   5.392   7.893   0.266
   18CHTO    H3 7559   5.445   7.961   0.303
   18CHTO    C9 7560   5.425   7.742   0.464
   18CHTO   H22 7561   5.362   7.689   0.536
   18CHTO    N2 7562   5.510   7.831   0.547
   18CHTO   H10 7563   5.567   7.771   0.618
   18CHTO   H11 7564   5.577   7.888   0.485
   18CHTO    C7 7565   5.505   7.637   0.380
   18CHTO   H20 7566   5.565   7.580   0.455
   18CHTO    O4 7567   5.416   7.544   0.313
   18CHTO   C14 7568   5.302   7.593   0.240
   18CHTO   H27 7569   5.230   7.508   0.237
   18CHTO   C18 7570   5.341   7.623   0.093
   18CHTO   O13 7571   5.377   7.503   0.022
   18CHTO    H7 7572   5.457   7.469   0.057
   18CHTO    O2 7573   5.608   7.704   0.267
   18CHTO    C1 7574   5.736   7.640   0.249
   18CHTO   H14 7575   5.782   7.682   0.157
   18CHTO    C2 7576   5.732   7.482   0.234
   18CHTO   H15 7577   5.677   7.442   0.321
   18CHTO    O6 7578   5.660   7.450   0.114
   18CHTO    H1 7579   5.570   7.474   0.122
   18CHTO    C3 7580   5.880   7.420   0.231
   18CHTO   H16 7581   5.930   7.453   0.139
   18CHTO    N1 7582   5.878   7.270   0.229
   18CHTO    H8 7583   5.831   7.232   0.318
   18CHTO    H9 7584   5.979   7.232   0.222
   18CHTO    C4 7585   5.966   7.478   0.350
   18CHTO   H17 7586   5.928   7.438   0.444
   18CHTO    O1 7587   5.962   7.621   0.351
   18CHTO    C5 7588   5.832   7.681   0.366
   18CHTO   H18 7589   5.788   7.647   0.460
   18CHTO   C16 7590   5.853   7.835   0.373
   18CHTO   O11 7591   5.918   7.887   0.257
   18CHTO    H5 7592   5.861   7.881   0.183
   18CHTO    O3 7593   6.106   7.448   0.333
   18CHTO    C6 7594   6.182   7.425   0.458
   18CHTO   H19 7595   6.127   7.457   0.546
   18CHTO    C8 7596   6.213   7.272   0.472
   18CHTO   H21 7597   6.260   7.238   0.379
   18CHTO    O7 7598   6.087   7.204   0.490
   18CHTO    H2 7599   6.036   7.208   0.411
   18CHTO   C12 7600   6.312   7.245   0.592
   18CHTO   H25 7601   6.257   7.274   0.685
   18CHTO    N3 7602   6.346   7.100   0.605
   18CHTO   H12 7603   6.412   7.085   0.690
   18CHTO   H13 7604   6.394   7.064   0.515
   18CHTO   C15 7605   6.437   7.338   0.577
   18CHTO   H28 7606   6.497   7.312   0.489
   18CHTO   O10 7607   6.528   7.338   0.703
   18CHTO    H4 7608   6.478   7.358   0.779
   18CHTO    O5 7609   6.396   7.476   0.569
   18CHTO   C10 7610   6.314   7.508   0.455
   18CHTO   H23 7611   6.370   7.488   0.364
   18CHTO   C17 7612   6.292   7.660   0.465
   18CHTO   O12 7613   6.232   7.714   0.346
   18CHTO    H6 7614   6.222   7.806   0.356
   19CHTO  H203 7615   4.642   9.510   2.367
   19CHTO   O82 7616   4.711   9.480   2.312
   19CHTO  C123 7617   4.665   9.368   2.233
   19CHTO  H227 7618   4.578   9.401   2.173
   19CHTO   O77 7619   4.779   9.343   2.145
   19CHTO  C118 7620   4.758   9.235   2.052
   19CHTO  H222 7621   4.666   9.252   1.994
   19CHTO  C125 7622   4.881   9.231   1.953
   19CHTO   O84 7623   4.883   9.345   1.867
   19CHTO  H205 7624   4.810   9.342   1.808
   19CHTO  C114 7625   4.745   9.104   2.132
   19CHTO  H218 7626   4.835   9.091   2.192
   19CHTO  C116 7627   4.624   9.112   2.229
   19CHTO  H220 7628   4.529   9.114   2.170
   19CHTO   O79 7629   4.619   8.992   2.308
   19CHTO  H201 7630   4.599   8.918   2.254
   19CHTO  C120 7631   4.633   9.241   2.321
   19CHTO  H224 7632   4.716   9.222   2.391
   19CHTO   N21 7633   4.510   9.262   2.402
   19CHTO  H211 7634   4.535   9.313   2.494
   19CHTO  H212 7635   4.463   9.167   2.425
   19CHTO   O75 7636   4.732   8.999   2.035
   19CHTO  C112 7637   4.829   8.872   2.065
   19CHTO  H216 7638   4.831   8.854   2.174
   19CHTO   O73 7639   4.959   8.904   2.014
   19CHTO  C113 7640   5.056   8.801   2.032
   19CHTO  H217 7641   5.061   8.775   2.140
   19CHTO  C124 7642   5.195   8.855   1.993
   19CHTO   O83 7643   5.204   8.896   1.856
   19CHTO  H204 7644   5.198   8.821   1.800
   19CHTO  C109 7645   5.016   8.675   1.950
   19CHTO  H213 7646   5.013   8.706   1.844
   19CHTO  C110 7647   4.875   8.627   1.997
   19CHTO  H214 7648   4.884   8.588   2.099
   19CHTO   O78 7649   4.833   8.517   1.913
   19CHTO  H200 7650   4.754   8.480   1.946
   19CHTO  C111 7651   4.771   8.743   1.993
   19CHTO  H215 7652   4.754   8.771   1.887
   19CHTO   N19 7653   4.638   8.707   2.049
   19CHTO  H207 7654   4.637   8.604   2.082
   19CHTO  H208 7655   4.610   8.771   2.131
   19CHTO   O74 7656   5.117   8.571   1.967
   19CHTO  C115 7657   5.137   8.480   1.839
   19CHTO  H219 7658   5.045   8.468   1.782
   19CHTO   O76 7659   5.238   8.545   1.737
   19CHTO  C122 7660   5.374   8.533   1.778
   19CHTO  H226 7661   5.384   8.583   1.875
   19CHTO  C126 7662   5.465   8.615   1.679
   19CHTO   O85 7663   5.434   8.755   1.677
   19CHTO  H206 7664   5.457   8.793   1.759
   19CHTO  C121 7665   5.421   8.382   1.788
   19CHTO  H225 7666   5.482   8.356   1.699
   19CHTO   O81 7667   5.503   8.366   1.904
   19CHTO  H202 7668   5.581   8.417   1.896
   19CHTO  C119 7669   5.299   8.283   1.795
   19CHTO  H223 7670   5.258   8.279   1.694
   19CHTO  C117 7671   5.187   8.339   1.890
   19CHTO  H221 7672   5.218   8.355   1.993
   19CHTO   N20 7673   5.072   8.242   1.900
   19CHTO  H209 7674   4.979   8.288   1.870
   19CHTO  H210 7675   5.063   8.204   2.001
   19CHTO   O80 7676   5.343   8.129   1.818
   19CHTO  C103 7677   5.408   8.050   1.703
   19CHTO  H190 7678   5.406   8.108   1.610
   19CHTO  C101 7679   5.554   8.000   1.731
   19CHTO  H188 7680   5.557   7.955   1.830
   19CHTO   O68 7681   5.650   8.122   1.732
   19CHTO  H168 7682   5.653   8.161   1.646
   19CHTO   C99 7683   5.599   7.888   1.625
   19CHTO  H186 7684   5.604   7.934   1.524
   19CHTO   N17 7685   5.735   7.829   1.652
   19CHTO  H174 7686   5.734   7.778   1.747
   19CHTO  H175 7687   5.810   7.907   1.650
   19CHTO   C97 7688   5.490   7.778   1.616
   19CHTO  H184 7689   5.486   7.727   1.713
   19CHTO   O64 7690   5.364   7.839   1.582
   19CHTO  C104 7691   5.312   7.927   1.682
   19CHTO  H191 7692   5.299   7.875   1.777
   19CHTO  C108 7693   5.171   7.971   1.639
   19CHTO   O71 7694   5.081   7.860   1.638
   19CHTO  H171 7695   4.996   7.889   1.611
   19CHTO   O62 7696   5.511   7.684   1.509
   19CHTO   C91 7697   5.452   7.553   1.528
   19CHTO  H178 7698   5.395   7.553   1.621
   19CHTO   C92 7699   5.565   7.446   1.545
   19CHTO  H179 7700   5.631   7.450   1.457
   19CHTO   O66 7701   5.646   7.484   1.657
   19CHTO  H166 7702   5.721   7.428   1.664
   19CHTO   C93 7703   5.505   7.301   1.565
   19CHTO  H180 7704   5.453   7.301   1.662
   19CHTO   N16 7705   5.607   7.193   1.572
   19CHTO  H172 7706   5.706   7.233   1.561
   19CHTO  H173 7707   5.597   7.139   1.665
   19CHTO   C94 7708   5.400   7.271   1.452
   19CHTO  H181 7709   5.447   7.267   1.353
   19CHTO   O61 7710   5.302   7.376   1.447
   19CHTO   C95 7711   5.355   7.505   1.414
   19CHTO  H182 7712   5.409   7.498   1.320
   19CHTO  C106 7713   5.235   7.603   1.391
   19CHTO   O69 7714   5.156   7.562   1.279
   19CHTO  H169 7715   5.084   7.622   1.268
   19CHTO   O63 7716   5.318   7.133   1.480
   19CHTO   C96 7717   5.263   7.072   1.346
   19CHTO  H183 7718   5.346   7.069   1.277
   19CHTO   C98 7719   5.148   7.154   1.278
   19CHTO  H185 7720   5.179   7.259   1.263
   19CHTO   O67 7721   5.128   7.101   1.146
   19CHTO  H167 7722   5.203   7.118   1.092
   19CHTO  C102 7723   5.010   7.144   1.358
   19CHTO  H189 7724   4.932   7.171   1.286
   19CHTO   N18 7725   4.995   7.241   1.470
   19CHTO  H176 7726   5.073   7.226   1.542
   19CHTO  H177 7727   4.998   7.342   1.432
   19CHTO  C105 7728   4.986   6.997   1.403
   19CHTO  H192 7729   4.996   6.988   1.512
   19CHTO   O65 7730   5.076   6.900   1.345
   19CHTO  C100 7731   5.215   6.922   1.374
   19CHTO  H187 7732   5.231   6.899   1.480
   19CHTO  C107 7733   5.300   6.823   1.291
   19CHTO   O70 7734   5.269   6.687   1.324
   19CHTO  H170 7735   5.323   6.630   1.273
   19CHTO   O57 7736   4.838   6.969   1.360
   19CHTO   C85 7737   4.764   6.868   1.430
   19CHTO  H157 7738   4.827   6.834   1.515
   19CHTO   C83 7739   4.744   6.743   1.338
   19CHTO  H155 7740   4.843   6.706   1.310
   19CHTO   O56 7741   4.679   6.782   1.215
   19CHTO  H135 7742   4.592   6.811   1.232
   19CHTO   C81 7743   4.671   6.632   1.420
   19CHTO  H153 7744   4.732   6.607   1.506
   19CHTO   N14 7745   4.660   6.504   1.345
   19CHTO  H141 7746   4.596   6.516   1.261
   19CHTO  H142 7747   4.621   6.428   1.409
   19CHTO   C79 7748   4.532   6.685   1.473
   19CHTO  H151 7749   4.493   6.610   1.542
   19CHTO   O52 7750   4.549   6.809   1.550
   19CHTO   C86 7751   4.621   6.914   1.479
   19CHTO  H158 7752   4.556   6.940   1.393
   19CHTO   C90 7753   4.630   7.042   1.564
   19CHTO   O60 7754   4.501   7.095   1.595
   19CHTO  H138 7755   4.456   7.039   1.654
   19CHTO   O50 7756   4.432   6.706   1.371
   19CHTO   C73 7757   4.291   6.716   1.343
   19CHTO  H145 7758   4.245   6.616   1.349
   19CHTO   C74 7759   4.270   6.772   1.198
   19CHTO  H146 7760   4.321   6.703   1.129
   19CHTO   O54 7761   4.130   6.765   1.165
   19CHTO  H133 7762   4.080   6.820   1.222
   19CHTO   C75 7763   4.330   6.918   1.191
   19CHTO  H147 7764   4.438   6.912   1.208
   19CHTO   N13 7765   4.317   6.982   1.057
   19CHTO  H139 7766   4.368   6.922   0.983
   19CHTO  H140 7767   4.212   6.989   1.030
   19CHTO   C76 7768   4.268   7.009   1.307
   19CHTO  H148 7769   4.163   7.027   1.284
   19CHTO   O49 7770   4.277   6.943   1.438
   19CHTO   C77 7771   4.218   6.812   1.443
   19CHTO  H149 7772   4.113   6.818   1.415
   19CHTO   C88 7773   4.219   6.762   1.588
   19CHTO   O58 7774   4.151   6.630   1.600
   19CHTO  H136 7775   4.154   6.601   1.689
   19CHTO   O51 7776   4.353   7.145   1.327
   19CHTO   C78 7777   4.264   7.278   1.314
   19CHTO  H150 7778   4.162   7.255   1.275
   19CHTO   C80 7779   4.332   7.378   1.219
   19CHTO  H152 7780   4.435   7.399   1.258
   19CHTO   O55 7781   4.347   7.315   1.091
   19CHTO  H134 7782   4.263   7.297   1.053
   19CHTO   C84 7783   4.251   7.513   1.209
   19CHTO  H156 7784   4.155   7.490   1.162
   19CHTO   N15 7785   4.318   7.617   1.123
   19CHTO  H143 7786   4.413   7.643   1.165
   19CHTO  H144 7787   4.257   7.705   1.117
   19CHTO   C87 7788   4.221   7.568   1.351
   19CHTO  H159 7789   4.312   7.607   1.397
   19CHTO   O53 7790   4.160   7.457   1.440
   19CHTO   C82 7791   4.247   7.344   1.453
   19CHTO  H154 7792   4.344   7.374   1.493
   19CHTO   C89 7793   4.185   7.246   1.556
   19CHTO   O59 7794   4.184   7.305   1.686
   19CHTO  H137 7795   4.146   7.245   1.747
   19CHTO   O45 7796   4.111   7.685   1.343
   19CHTO   C67 7797   4.100   7.764   1.462
   19CHTO  H124 7798   4.115   7.700   1.549
   19CHTO   C65 7799   4.207   7.879   1.465
   19CHTO  H122 7800   4.235   7.896   1.361
   19CHTO   O44 7801   4.321   7.827   1.535
   19CHTO  H102 7802   4.304   7.822   1.627
   19CHTO   C63 7803   4.148   8.017   1.514
   19CHTO  H120 7804   4.087   8.059   1.434
   19CHTO   N11 7805   4.248   8.126   1.536
   19CHTO  H108 7806   4.309   8.137   1.449
   19CHTO  H109 7807   4.197   8.218   1.556
   19CHTO   C61 7808   4.048   7.992   1.634
   19CHTO  H118 7809   4.007   8.091   1.659
   19CHTO   O40 7810   3.936   7.909   1.591
   19CHTO   C68 7811   3.953   7.819   1.476
   19CHTO  H125 7812   3.925   7.875   1.384
   19CHTO   C72 7813   3.851   7.703   1.491
   19CHTO   O48 7814   3.868   7.624   1.609
   19CHTO  H105 7815   3.849   7.675   1.685
   19CHTO   O38 7816   4.115   7.939   1.752
   19CHTO   C55 7817   4.041   7.851   1.840
   19CHTO  H112 7818   3.989   7.775   1.780
   19CHTO   C56 7819   3.943   7.929   1.936
   19CHTO  H113 7820   4.004   7.997   1.998
   19CHTO   O42 7821   3.853   8.013   1.861
   19CHTO  H100 7822   3.800   7.961   1.803
   19CHTO   C57 7823   3.863   7.827   2.026
   19CHTO  H114 7824   3.794   7.777   1.959
   19CHTO   N10 7825   3.779   7.892   2.131
   19CHTO  H106 7826   3.766   7.827   2.216
   19CHTO  H107 7827   3.825   7.984   2.163
   19CHTO   C58 7828   3.957   7.720   2.090
   19CHTO  H115 7829   4.007   7.764   2.179
   19CHTO   O37 7830   4.059   7.671   2.001
   19CHTO   C59 7831   4.137   7.770   1.931
   19CHTO  H116 7832   4.186   7.835   2.003
   19CHTO   C70 7833   4.247   7.698   1.852
   19CHTO   O46 7834   4.199   7.599   1.761
   19CHTO  H103 7835   4.162   7.527   1.809
   19CHTO   O39 7836   3.863   7.585   2.137
   19CHTO   C60 7837   3.835   7.490   2.032
   19CHTO  H117 7838   3.852   7.536   1.935
   19CHTO   C62 7839   3.926   7.364   2.043
   19CHTO  H119 7840   4.031   7.401   2.038
   19CHTO   O43 7841   3.906   7.301   2.171
   19CHTO  H101 7842   3.965   7.229   2.181
   19CHTO   C66 7843   3.898   7.266   1.919
   19CHTO  H123 7844   3.918   7.321   1.826
   19CHTO   N12 7845   3.990   7.149   1.917
   19CHTO  H110 7846   3.969   7.087   1.831
   19CHTO  H111 7847   4.093   7.183   1.916
   19CHTO   C69 7848   3.749   7.222   1.916
   19CHTO  H126 7849   3.728   7.154   2.002
   19CHTO   O41 7850   3.655   7.346   1.924
   19CHTO   C64 7851   3.685   7.446   2.034
   19CHTO  H121 7852   3.663   7.401   2.133
   19CHTO   C71 7853   3.588   7.566   2.016
   19CHTO   O47 7854   3.599   7.624   1.886
   19CHTO  H104 7855   3.683   7.666   1.876
   19CHTO   O34 7856   3.718   7.144   1.781
   19CHTO   C49 7857   3.628   7.160   1.657
   19CHTO   H91 7858   3.526   7.139   1.689
   19CHTO   C47 7859   3.672   7.057   1.551
   19CHTO   H89 7860   3.596   7.060   1.470
   19CHTO   O33 7861   3.667   6.926   1.612
   19CHTO   H70 7862   3.688   6.860   1.548
   19CHTO   C45 7863   3.817   7.098   1.494
   19CHTO   H87 7864   3.885   7.108   1.580
   19CHTO    N8 7865   3.873   6.996   1.402
   19CHTO   H75 7866   3.801   6.918   1.381
   19CHTO   H76 7867   3.906   7.041   1.309
   19CHTO   C43 7868   3.809   7.245   1.429
   19CHTO   H85 7869   3.911   7.271   1.401
   19CHTO   O29 7870   3.755   7.339   1.525
   19CHTO   C50 7871   3.634   7.303   1.596
   19CHTO   H92 7872   3.625   7.374   1.679
   19CHTO   C54 7873   3.507   7.333   1.511
   19CHTO   O36 7874   3.493   7.474   1.489
   19CHTO   H72 7875   3.415   7.489   1.438
   19CHTO   O27 7876   3.733   7.250   1.307
   19CHTO   C37 7877   3.735   7.319   1.180
   19CHTO   H79 7878   3.636   7.315   1.134
   19CHTO   C38 7879   3.771   7.471   1.197
   19CHTO   H80 7880   3.859   7.479   1.263
   19CHTO   O31 7881   3.659   7.535   1.261
   19CHTO   H68 7882   3.651   7.506   1.350
   19CHTO   C39 7883   3.802   7.543   1.059
   19CHTO   H81 7884   3.708   7.551   1.004
   19CHTO    N7 7885   3.856   7.682   1.076
   19CHTO   H73 7886   3.783   7.744   1.126
   19CHTO   H74 7887   3.948   7.680   1.133
   19CHTO   C40 7888   3.899   7.455   0.972
   19CHTO   H82 7889   3.999   7.452   1.018
   19CHTO   O26 7890   3.844   7.323   0.959
   19CHTO   C41 7891   3.837   7.251   1.085
   19CHTO   H83 7892   3.937   7.249   1.133
   19CHTO   C52 7893   3.797   7.106   1.052
   19CHTO   O35 7894   3.902   7.034   0.980
   19CHTO   H71 7895   3.872   6.948   0.959
   19CHTO   O28 7896   3.910   7.497   0.835
   19CHTO   C42 7897   4.039   7.541   0.780
   19CHTO   H84 7898   4.098   7.574   0.865
   19CHTO   C44 7899   4.031   7.664   0.683
   19CHTO   H86 7900   3.973   7.635   0.595
   19CHTO   O32 7901   3.959   7.769   0.750
   19CHTO   H69 7902   4.007   7.799   0.825
   19CHTO   C48 7903   4.175   7.711   0.636
   19CHTO   H90 7904   4.224   7.756   0.722
   19CHTO    N9 7905   4.169   7.818   0.530
   19CHTO   H77 7906   4.117   7.904   0.568
   19CHTO   H78 7907   4.270   7.846   0.501
   19CHTO   C51 7908   4.262   7.587   0.590
   19CHTO   H93 7909   4.227   7.555   0.491
   19CHTO   O30 7910   4.253   7.482   0.687
   19CHTO   C46 7911   4.121   7.429   0.707
   19CHTO   H88 7912   4.076   7.407   0.610
   19CHTO   C53 7913   4.141   7.299   0.788
   19CHTO   O72 7914   4.029   7.212   0.771
   19CHTO  H199 7915   4.042   7.134   0.823
   19CHTO   O22 7916   4.402   7.621   0.585
   19CHTO   C31 7917   4.499   7.524   0.529
   19CHTO   H59 7918   4.443   7.428   0.515
   19CHTO   C29 7919   4.552   7.565   0.390
   19CHTO   H57 7920   4.600   7.663   0.401
   19CHTO   O21 7921   4.439   7.584   0.303
   19CHTO   H37 7922   4.467   7.620   0.220
   19CHTO   C27 7923   4.657   7.461   0.333
   19CHTO   H55 7924   4.605   7.366   0.316
   19CHTO    N5 7925   4.718   7.506   0.205
   19CHTO   H43 7926   4.785   7.430   0.168
   19CHTO   H44 7927   4.640   7.524   0.132
   19CHTO   C25 7928   4.767   7.434   0.443
   19CHTO   H53 7929   4.824   7.526   0.460
   19CHTO   O17 7930   4.704   7.394   0.567
   19CHTO   C32 7931   4.617   7.492   0.626
   19CHTO   H60 7932   4.672   7.584   0.646
   19CHTO   C36 7933   4.570   7.429   0.759
   19CHTO   O25 7934   4.503   7.523   0.844
   19CHTO   H40 7935   4.563   7.588   0.874
   19CHTO   O15 7936   4.867   7.318   0.401
   19CHTO   C19 7937   4.876   7.202   0.312
   19CHTO   H47 7938   4.808   7.227   0.229
   19CHTO   C20 7939   5.019   7.180   0.254
   19CHTO   H48 7940   5.092   7.156   0.334
   19CHTO   O19 7941   5.060   7.303   0.192
   19CHTO   H35 7942   5.075   7.369   0.257
   19CHTO   C21 7943   5.021   7.061   0.149
   19CHTO   H49 7944   4.962   7.091   0.063
   19CHTO    N4 7945   5.157   7.029   0.098
   19CHTO   H41 7946   5.186   6.928   0.123
   19CHTO   H42 7947   5.230   7.098   0.137
   19CHTO   C22 7948   4.949   6.936   0.209
   19CHTO   H50 7949   5.013   6.888   0.283
   19CHTO   O14 7950   4.822   6.970   0.269
   19CHTO   C23 7951   4.825   7.069   0.373
   19CHTO   H51 7952   4.890   7.032   0.453
   19CHTO   C34 7953   4.682   7.082   0.428
   19CHTO   O23 7954   4.636   6.959   0.485
   19CHTO   H38 7955   4.549   6.970   0.517
   19CHTO   O16 7956   4.905   6.845   0.107
   19CHTO   C24 7957   4.985   6.708   0.090
   19CHTO   H52 7958   5.084   6.711   0.137
   19CHTO   C26 7959   5.000   6.685   2.797
   19CHTO   H54 7960   4.900   6.701   2.750
   19CHTO   O20 7961   5.090   6.784   2.744
   19CHTO   H36 7962   5.051   6.869   2.750
   19CHTO   C30 7963   5.047   6.540   2.762
   19CHTO   H58 7964   5.151   6.525   2.794
   19CHTO    N6 7965   5.044   6.517   2.614
   19CHTO   H45 7966   5.143   6.490   2.579
   19CHTO   H46 7967   4.975   6.438   2.588
   19CHTO   C33 7968   4.961   6.437   2.841
   19CHTO   H61 7969   4.855   6.445   2.809
   19CHTO   O18 7970   4.969   6.468   0.121
   19CHTO   C28 7971   4.907   6.592   0.158
   19CHTO   H56 7972   4.803   6.594   0.124
   19CHTO   C35 7973   4.910   6.598   0.312
   19CHTO   O24 7974   4.820   6.694   0.367
   19CHTO   H39 7975   4.826   6.692   0.461
   19CHTO    O9 7976   4.999   6.300   2.815
   19CHTO   C13 7977   4.873   6.195   2.818
   19CHTO   H26 7978   4.797   6.231   2.746
   19CHTO   C11 7979   4.814   6.184   0.106
   19CHTO   H24 7980   4.760   6.278   0.127
   19CHTO    O8 7981   4.921   6.172   0.202
   19CHTO    H3 7982   4.970   6.094   0.187
   19CHTO    C9 7983   4.715   6.065   0.109
   19CHTO   H22 7984   4.643   6.084   0.027
   19CHTO    N2 7985   4.630   6.063   0.231
   19CHTO   H10 7986   4.556   5.985   0.223
   19CHTO   H11 7987   4.581   6.159   0.244
   19CHTO    C7 7988   4.793   5.930   0.078
   19CHTO   H20 7989   4.724   5.877   0.009
   19CHTO    O4 7990   4.918   5.951   0.010
   19CHTO   C14 7991   4.915   6.050   2.765
   19CHTO   H27 7992   4.839   6.017   2.691
   19CHTO   C18 7993   5.051   6.050   2.691
   19CHTO   O13 7994   5.073   5.926   2.622
   19CHTO    H7 7995   5.014   5.920   2.549
   19CHTO    O2 7996   4.822   5.840   0.210
   19CHTO    C1 7997   4.792   5.700   0.197
   19CHTO   H14 7998   4.830   5.664   0.100
   19CHTO    C2 7999   4.638   5.664   0.209
   19CHTO   H15 8000   4.601   5.721   0.296
   19CHTO    O6 8001   4.569   5.710   0.091
   19CHTO    H1 8002   4.601   5.666   0.015
   19CHTO    C3 8003   4.612   5.506   0.232
   19CHTO   H16 8004   4.639   5.452   0.140
   19CHTO    N1 8005   4.468   5.476   0.260
   19CHTO    H8 8006   4.408   5.566   0.258
   19CHTO    H9 8007   4.456   5.427   0.356
   19CHTO    C4 8008   4.710   5.453   0.343
   19CHTO   H17 8009   4.684   5.500   0.438
   19CHTO    O1 8010   4.845   5.485   0.306
   19CHTO    C5 8011   4.874   5.625   0.306
   19CHTO   H18 8012   4.847   5.668   0.403
   19CHTO   C16 8013   5.026   5.643   0.285
   19CHTO   O11 8014   5.100   5.593   0.397
   19CHTO    H5 8015   5.088   5.649   0.471
   19CHTO    O3 8016   4.711   5.309   0.355
   19CHTO    C6 8017   4.702   5.256   0.492
   19CHTO   H19 8018   4.682   5.334   0.567
   19CHTO    C8 8019   4.586   5.152   0.502
   19CHTO   H21 8020   4.606   5.072   0.431
   19CHTO    O7 8021   4.465   5.220   0.467
   19CHTO    H2 8022   4.393   5.159   0.464
   19CHTO   C12 8023   4.579   5.091   0.648
   19CHTO   H25 8024   4.548   5.175   0.715
   19CHTO    N3 8025   4.472   4.986   0.658
   19CHTO   H12 8026   4.515   4.890   0.684
   19CHTO   H13 8027   4.399   5.014   0.732
   19CHTO   C15 8028   4.722   5.042   0.694
   19CHTO   H28 8029   4.750   4.948   0.644
   19CHTO   O10 8030   4.728   5.023   0.846
   19CHTO    H4 8031   4.809   4.981   0.870
   19CHTO    O5 8032   4.823   5.141   0.672
   19CHTO   C10 8033   4.834   5.185   0.535
   19CHTO   H23 8034   4.850   5.098   0.472
   19CHTO   C17 8035   4.957   5.275   0.524
   19CHTO   O12 8036   5.078   5.199   0.541
   19CHTO    H6 8037   5.152   5.256   0.533
   20CHTO  H203 8038   4.418   0.987   2.069
   20CHTO   O82 8039   4.502   1.028   2.076
   20CHTO  C123 8040   4.518   1.127   1.974
   20CHTO  H227 8041   4.438   1.202   1.985
   20CHTO   O77 8042   4.647   1.185   2.008
   20CHTO  C118 8043   4.687   1.294   1.923
   20CHTO  H222 8044   4.609   1.372   1.922
   20CHTO  C125 8045   4.820   1.354   1.981
   20CHTO   O84 8046   4.797   1.413   2.109
   20CHTO  H205 8047   4.745   1.491   2.100
   20CHTO  C114 8048   4.707   1.240   1.780
   20CHTO  H218 8049   4.784   1.162   1.782
   20CHTO  C116 8050   4.575   1.175   1.727
   20CHTO  H220 8051   4.498   1.254   1.712
   20CHTO   O79 8052   4.601   1.118   1.597
   20CHTO  H201 8053   4.617   1.187   1.534
   20CHTO  C120 8054   4.522   1.066   1.828
   20CHTO  H224 8055   4.594   0.982   1.824
   20CHTO   N21 8056   4.389   1.011   1.788
   20CHTO  H211 8057   4.331   1.085   1.736
   20CHTO  H212 8058   4.403   0.924   1.726
   20CHTO   O75 8059   4.750   1.353   1.702
   20CHTO  C112 8060   4.877   1.322   1.606
   20CHTO  H216 8061   4.870   1.218   1.570
   20CHTO   O73 8062   4.995   1.343   1.684
   20CHTO  C113 8063   5.117   1.323   1.612
   20CHTO  H217 8064   5.115   1.222   1.564
   20CHTO  C124 8065   5.232   1.324   1.713
   20CHTO   O83 8066   5.358   1.282   1.658
   20CHTO  H204 8067   5.424   1.285   1.725
   20CHTO  C109 8068   5.129   1.433   1.502
   20CHTO  H213 8069   5.129   1.530   1.554
   20CHTO  C110 8070   5.007   1.422   1.406
   20CHTO  H214 8071   5.018   1.329   1.348
   20CHTO   O78 8072   5.011   1.531   1.312
   20CHTO  H200 8073   5.084   1.522   1.254
   20CHTO  C111 8074   4.872   1.421   1.483
   20CHTO  H215 8075   4.854   1.522   1.523
   20CHTO   N19 8076   4.756   1.389   1.396
   20CHTO  H207 8077   4.664   1.393   1.453
   20CHTO  H208 8078   4.767   1.290   1.354
   20CHTO   O74 8079   5.254   1.418   1.427
   20CHTO  C115 8080   5.343   1.553   1.418
   20CHTO  H219 8081   5.306   1.631   1.484
   20CHTO   O76 8082   5.490   1.528   1.466
   20CHTO  C122 8083   5.551   1.418   1.396
   20CHTO  H226 8084   5.507   1.326   1.434
   20CHTO  C126 8085   5.702   1.414   1.439
   20CHTO   O85 8086   5.770   1.299   1.387
   20CHTO  H206 8087   5.860   1.301   1.415
   20CHTO  C121 8088   5.534   1.427   1.237
   20CHTO  H225 8089   5.633   1.414   1.189
   20CHTO   O81 8090   5.451   1.319   1.193
   20CHTO  H202 8091   5.451   1.314   1.099
   20CHTO  C119 8092   5.475   1.565   1.193
   20CHTO  H223 8093   5.550   1.638   1.221
   20CHTO  C117 8094   5.340   1.601   1.268
   20CHTO  H221 8095   5.252   1.552   1.226
   20CHTO   N20 8096   5.309   1.748   1.258
   20CHTO  H209 8097   5.221   1.765   1.198
   20CHTO  H210 8098   5.393   1.803   1.218
   20CHTO   O80 8099   5.467   1.585   1.038
   20CHTO  C103 8100   5.596   1.583   0.952
   20CHTO  H190 8101   5.684   1.563   1.013
   20CHTO  C101 8102   5.591   1.478   0.833
   20CHTO  H188 8103   5.488   1.473   0.796
   20CHTO   O68 8104   5.628   1.339   0.890
   20CHTO  H168 8105   5.566   1.313   0.956
   20CHTO   C99 8106   5.685   1.520   0.710
   20CHTO  H186 8107   5.792   1.516   0.742
   20CHTO   N17 8108   5.671   1.430   0.590
   20CHTO  H174 8109   5.570   1.434   0.553
   20CHTO  H175 8110   5.699   1.329   0.617
   20CHTO   C97 8111   5.657   1.669   0.676
   20CHTO  H184 8112   5.549   1.678   0.655
   20CHTO   O64 8113   5.697   1.746   0.790
   20CHTO  C104 8114   5.605   1.732   0.900
   20CHTO  H191 8115   5.506   1.766   0.870
   20CHTO  C108 8116   5.650   1.827   1.013
   20CHTO   O71 8117   5.779   1.793   1.067
   20CHTO  H171 8118   5.845   1.809   1.003
   20CHTO   O62 8119   5.733   1.721   0.564
   20CHTO   C91 8120   5.691   1.850   0.514
   20CHTO  H178 8121   5.638   1.903   0.594
   20CHTO   C92 8122   5.590   1.838   0.395
   20CHTO  H179 8123   5.637   1.779   0.315
   20CHTO   O66 8124   5.476   1.761   0.438
   20CHTO  H166 8125   5.419   1.744   0.365
   20CHTO   C93 8126   5.544   1.981   0.342
   20CHTO  H180 8127   5.478   2.024   0.418
   20CHTO   N16 8128   5.463   1.973   0.218
   20CHTO  H172 8129   5.373   1.917   0.237
   20CHTO  H173 8130   5.521   1.926   0.139
   20CHTO   C94 8131   5.667   2.078   0.321
   20CHTO  H181 8132   5.727   2.049   0.235
   20CHTO   O61 8133   5.755   2.074   0.434
   20CHTO   C95 8134   5.807   1.943   0.465
   20CHTO  H182 8135   5.852   1.901   0.375
   20CHTO  C106 8136   5.920   1.956   0.572
   20CHTO   O69 8137   6.031   2.032   0.521
   20CHTO  H169 8138   6.097   2.039   0.587
   20CHTO   O63 8139   5.617   2.237   0.309
   20CHTO   C96 8140   5.581   2.297   0.159
   20CHTO  H183 8141   5.506   2.233   0.113
   20CHTO   C98 8142   5.702   2.307   0.061
   20CHTO  H185 8143   5.787   2.354   0.113
   20CHTO   O67 8144   5.744   2.173   0.031
   20CHTO  H167 8145   5.822   2.174   2.839
   20CHTO  C102 8146   5.668   2.385   2.785
   20CHTO  H189 8147   5.600   2.319   2.728
   20CHTO   N18 8148   5.785   2.409   2.697
   20CHTO  H176 8149   5.858   2.469   2.748
   20CHTO  H177 8150   5.754   2.458   2.606
   20CHTO  C105 8151   5.589   2.516   2.816
   20CHTO  H192 8152   5.657   2.589   0.001
   20CHTO   O65 8153   5.480   2.494   0.047
   20CHTO  C100 8154   5.515   2.440   0.175
   20CHTO  H187 8155   5.587   2.508   0.224
   20CHTO  C107 8156   5.386   2.438   0.262
   20CHTO   O70 8157   5.413   2.410   0.400
   20CHTO  H170 8158   5.459   2.481   0.439
   20CHTO   O57 8159   5.531   2.571   2.669
   20CHTO   C85 8160   5.505   2.711   2.649
   20CHTO  H157 8161   5.508   2.760   2.749
   20CHTO   C83 8162   5.358   2.729   2.597
   20CHTO  H155 8163   5.291   2.692   2.675
   20CHTO   O56 8164   5.337   2.645   2.481
   20CHTO  H135 8165   5.247   2.646   2.457
   20CHTO   C81 8166   5.329   2.880   2.573
   20CHTO  H153 8167   5.348   2.933   2.666
   20CHTO   N14 8168   5.186   2.908   2.543
   20CHTO  H141 8169   5.159   2.865   2.449
   20CHTO  H142 8170   5.170   3.013   2.539
   20CHTO   C79 8171   5.428   2.937   2.464
   20CHTO  H151 8172   5.412   3.045   2.460
   20CHTO   O52 8173   5.567   2.918   2.507
   20CHTO   C86 8174   5.603   2.782   2.545
   20CHTO  H158 8175   5.605   2.726   2.449
   20CHTO   C90 8176   5.749   2.782   2.598
   20CHTO   O60 8177   5.765   2.867   2.712
   20CHTO  H138 8178   5.754   2.957   2.686
   20CHTO   O50 8179   5.408   2.885   2.331
   20CHTO   C73 8180   5.467   2.887   2.199
   20CHTO  H145 8181   5.542   2.807   2.191
   20CHTO   C74 8182   5.536   3.023   2.166
   20CHTO  H146 8183   5.611   3.040   2.245
   20CHTO   O54 8184   5.609   3.006   2.043
   20CHTO  H133 8185   5.658   3.083   2.024
   20CHTO   C75 8186   5.428   3.139   2.162
   20CHTO  H147 8187   5.388   3.153   2.264
   20CHTO   N13 8188   5.484   3.271   2.123
   20CHTO  H139 8189   5.526   3.265   2.024
   20CHTO  H140 8190   5.406   3.346   2.124
   20CHTO   C76 8191   5.304   3.098   2.068
   20CHTO  H148 8192   5.339   3.098   1.965
   20CHTO   O49 8193   5.255   2.964   2.101
   20CHTO   C77 8194   5.356   2.863   2.092
   20CHTO  H149 8195   5.402   2.864   1.992
   20CHTO   C88 8196   5.288   2.726   2.105
   20CHTO   O58 8197   5.382   2.618   2.069
   20CHTO  H136 8198   5.401   2.621   1.978
   20CHTO   O51 8199   5.172   3.201   2.088
   20CHTO   C78 8200   5.095   3.195   2.234
   20CHTO  H150 8201   5.161   3.151   2.313
   20CHTO   C80 8202   4.965   3.112   2.226
   20CHTO  H152 8203   4.903   3.151   2.141
   20CHTO   O55 8204   4.999   2.975   2.195
   20CHTO  H134 8205   5.036   2.969   2.109
   20CHTO   C84 8206   4.879   3.118   2.359
   20CHTO  H156 8207   4.936   3.065   2.436
   20CHTO   N15 8208   4.745   3.050   2.348
   20CHTO  H143 8209   4.737   2.973   2.421
   20CHTO  H144 8210   4.732   3.007   2.251
   20CHTO   C87 8211   4.863   3.266   2.405
   20CHTO  H159 8212   4.797   3.319   2.335
   20CHTO   O53 8213   4.999   3.333   2.408
   20CHTO   C82 8214   5.059   3.339   2.278
   20CHTO  H154 8215   4.990   3.385   2.207
   20CHTO   C89 8216   5.182   3.431   2.289
   20CHTO   O59 8217   5.224   3.478   2.160
   20CHTO  H137 8218   5.258   3.407   2.110
   20CHTO   O45 8219   4.794   3.279   2.556
   20CHTO   C67 8220   4.875   3.240   2.668
   20CHTO  H124 8221   4.938   3.156   2.639
   20CHTO   C65 8222   4.967   3.357   2.720
   20CHTO  H122 8223   4.953   3.440   2.651
   20CHTO   O44 8224   5.103   3.312   2.713
   20CHTO  H102 8225   5.162   3.384   2.730
   20CHTO   C63 8226   4.920   3.410   0.001
   20CHTO  H120 8227   4.818   3.447   2.852
   20CHTO   N11 8228   4.991   3.532   0.052
   20CHTO  H108 8229   4.988   3.610   2.838
   20CHTO  H109 8230   4.944   3.567   0.142
   20CHTO   C61 8231   4.916   3.289   0.103
   20CHTO  H118 8232   4.856   3.323   0.189
   20CHTO   O40 8233   4.850   3.171   0.049
   20CHTO   C68 8234   4.780   3.185   2.782
   20CHTO  H125 8235   4.696   3.256   2.797
   20CHTO   C72 8236   4.717   3.048   2.743
   20CHTO   O48 8237   4.814   2.945   2.724
   20CHTO  H105 8238   4.868   2.964   2.650
   20CHTO   O38 8239   5.047   3.247   0.147
   20CHTO   C55 8240   5.048   3.169   0.268
   20CHTO  H112 8241   4.947   3.127   0.288
   20CHTO   C56 8242   5.100   3.255   0.391
   20CHTO  H113 8243   5.200   3.292   0.364
   20CHTO   O42 8244   5.017   3.371   0.408
   20CHTO  H100 8245   5.025   3.429   0.334
   20CHTO   C57 8246   5.105   3.167   0.522
   20CHTO  H114 8247   5.001   3.149   0.550
   20CHTO   N10 8248   5.168   3.236   0.637
   20CHTO  H106 8249   5.275   3.220   0.638
   20CHTO  H107 8250   5.126   3.200   0.730
   20CHTO   C58 8251   5.173   3.030   0.495
   20CHTO  H115 8252   5.284   3.044   0.489
   20CHTO   O37 8253   5.127   2.966   0.375
   20CHTO   C59 8254   5.141   3.045   0.255
   20CHTO  H116 8255   5.245   3.077   0.244
   20CHTO   C70 8256   5.103   2.960   0.133
   20CHTO   O46 8257   5.191   2.848   0.115
   20CHTO  H103 8258   5.165   2.801   0.038
   20CHTO   O39 8259   5.135   2.928   0.616
   20CHTO   C60 8260   5.224   2.816   0.631
   20CHTO  H117 8261   5.263   2.787   0.534
   20CHTO   C62 8262   5.344   2.850   0.725
   20CHTO  H119 8263   5.401   2.931   0.673
   20CHTO   O43 8264   5.293   2.901   0.850
   20CHTO  H101 8265   5.364   2.928   0.904
   20CHTO   C66 8266   5.438   2.721   0.742
   20CHTO  H123 8267   5.471   2.688   0.643
   20CHTO   N12 8268   5.562   2.750   0.818
   20CHTO  H110 8269   5.623   2.661   0.825
   20CHTO  H111 8270   5.537   2.788   0.916
   20CHTO   C69 8271   5.354   2.605   0.803
   20CHTO  H126 8272   5.314   2.637   0.903
   20CHTO   O41 8273   5.237   2.574   0.707
   20CHTO   C64 8274   5.144   2.693   0.685
   20CHTO  H121 8275   5.095   2.722   0.781
   20CHTO   C71 8276   5.033   2.652   0.586
   20CHTO   O47 8277   4.954   2.545   0.639
   20CHTO  H104 8278   5.006   2.466   0.642
   20CHTO   O34 8279   5.439   2.473   0.824
   20CHTO   C49 8280   5.388   2.330   0.850
   20CHTO   H91 8281   5.341   2.299   0.757
   20CHTO   C47 8282   5.280   2.329   0.961
   20CHTO   H89 8283   5.187   2.365   0.911
   20CHTO   O33 8284   5.313   2.420   1.067
   20CHTO   H70 8285   5.240   2.430   1.125
   20CHTO   C45 8286   5.260   2.182   1.026
   20CHTO   H87 8287   5.320   2.177   1.118
   20CHTO    N8 8288   5.118   2.160   1.064
   20CHTO   H75 8289   5.107   2.066   1.116
   20CHTO   H76 8290   5.084   2.240   1.128
   20CHTO   C43 8291   5.322   2.066   0.934
   20CHTO   H85 8292   5.305   1.972   0.986
   20CHTO   O29 8293   5.462   2.093   0.914
   20CHTO   C50 8294   5.502   2.228   0.884
   20CHTO   H92 8295   5.558   2.267   0.970
   20CHTO   C54 8296   5.608   2.224   0.771
   20CHTO   O36 8297   5.555   2.167   0.651
   20CHTO   H72 8298   5.620   2.168   0.584
   20CHTO   O27 8299   5.256   2.055   0.806
   20CHTO   C37 8300   5.161   2.002   0.713
   20CHTO   H79 8301   5.061   1.997   0.760
   20CHTO   C38 8302   5.150   2.096   0.589
   20CHTO   H80 8303   5.252   2.117   0.552
   20CHTO   O31 8304   5.091   2.220   0.633
   20CHTO   H68 8305   5.150   2.266   0.689
   20CHTO   C39 8306   5.065   2.031   0.473
   20CHTO   H81 8307   4.962   2.026   0.506
   20CHTO    N7 8308   5.066   2.112   0.346
   20CHTO   H73 8309   5.025   2.210   0.366
   20CHTO   H74 8310   5.007   2.063   0.270
   20CHTO   C40 8311   5.113   1.883   0.446
   20CHTO   H82 8312   5.214   1.885   0.403
   20CHTO   O26 8313   5.110   1.809   0.569
   20CHTO   C41 8314   5.204   1.859   0.669
   20CHTO   H83 8315   5.305   1.864   0.626
   20CHTO   C52 8316   5.207   1.759   0.787
   20CHTO   O35 8317   5.262   1.627   0.747
   20CHTO   H71 8318   5.204   1.585   0.687
   20CHTO   O28 8319   5.026   1.810   0.357
   20CHTO   C42 8320   5.073   1.692   0.284
   20CHTO   H84 8321   4.984   1.661   0.228
   20CHTO   C44 8322   5.114   1.568   0.371
   20CHTO   H86 8323   5.189   1.600   0.443
   20CHTO   O32 8324   4.996   1.528   0.444
   20CHTO   H69 8325   4.974   1.592   0.509
   20CHTO   C48 8326   5.175   1.450   0.286
   20CHTO   H90 8327   5.098   1.410   0.220
   20CHTO    N9 8328   5.219   1.335   0.371
   20CHTO   H77 8329   5.261   1.257   0.309
   20CHTO   H78 8330   5.136   1.297   0.428
   20CHTO   C51 8331   5.292   1.510   0.199
   20CHTO   H93 8332   5.362   1.559   0.266
   20CHTO   O30 8333   5.231   1.604   0.109
   20CHTO   C46 8334   5.182   1.726   0.178
   20CHTO   H88 8335   5.267   1.772   0.228
   20CHTO   C53 8336   5.126   1.821   0.069
   20CHTO   O72 8337   5.228   1.860   2.836
   20CHTO  H199 8338   5.191   1.916   2.771
   20CHTO   O22 8339   5.359   1.417   0.112
   20CHTO   C31 8340   5.503   1.434   0.079
   20CHTO   H59 8341   5.520   1.374   2.847
   20CHTO   C29 8342   5.548   1.579   0.046
   20CHTO   H57 8343   5.523   1.643   0.133
   20CHTO   O21 8344   5.469   1.627   2.795
   20CHTO   H37 8345   5.379   1.633   2.819
   20CHTO   C27 8346   5.703   1.590   0.018
   20CHTO   H55 8347   5.725   1.536   2.784
   20CHTO    N5 8348   5.749   1.731   0.003
   20CHTO   H43 8349   5.693   1.779   2.784
   20CHTO   H44 8350   5.854   1.733   2.839
   20CHTO   C25 8351   5.783   1.518   0.132
   20CHTO   H53 8352   5.769   1.572   0.227
   20CHTO   O17 8353   5.735   1.382   0.149
   20CHTO   C32 8354   5.596   1.373   0.187
   20CHTO   H60 8355   5.581   1.426   0.281
   20CHTO   C36 8356   5.565   1.223   0.212
   20CHTO   O25 8357   5.585   1.143   0.096
   20CHTO   H40 8358   5.564   1.054   0.115
   20CHTO   O15 8359   5.938   1.510   0.099
   20CHTO   C19 8360   6.056   1.482   0.018
   20CHTO   H47 8361   6.034   1.530   2.781
   20CHTO   C20 8362   6.187   1.543   0.076
   20CHTO   H48 8363   6.210   1.503   0.176
   20CHTO   O19 8364   6.163   1.685   0.089
   20CHTO   H35 8365   6.236   1.726   0.133
   20CHTO   C21 8366   6.311   1.515   2.842
   20CHTO   H49 8367   6.295   1.567   2.747
   20CHTO    N4 8368   6.439   1.565   0.038
   20CHTO   H41 8369   6.485   1.635   2.829
   20CHTO   H42 8370   6.508   1.485   0.058
   20CHTO   C22 8371   6.316   1.363   2.807
   20CHTO   H50 8372   6.344   1.307   0.037
   20CHTO   O14 8373   6.190   1.316   2.757
   20CHTO   C23 8374   6.078   1.331   2.847
   20CHTO   H51 8375   6.101   1.273   0.078
   20CHTO   C34 8376   5.955   1.267   2.781
   20CHTO   O23 8377   5.972   1.126   2.762
   20CHTO   H38 8378   5.972   1.082   2.845
   20CHTO   O16 8379   6.408   1.338   2.699
   20CHTO   C24 8380   6.467   1.192   2.699
   20CHTO   H52 8381   6.412   1.126   2.766
   20CHTO   C26 8382   6.616   1.194   2.738
   20CHTO   H54 8383   6.670   1.257   2.664
   20CHTO   O20 8384   6.636   1.257   0.005
   20CHTO   H36 8385   6.591   1.211   0.073
   20CHTO   C30 8386   6.677   1.050   2.739
   20CHTO   H58 8387   6.674   1.010   2.842
   20CHTO    N6 8388   6.821   1.051   2.703
   20CHTO   H45 8389   6.876   1.112   2.773
   20CHTO   H46 8390   6.861   0.950   2.706
   20CHTO   C33 8391   6.595   0.950   2.652
   20CHTO   H61 8392   6.657   0.866   2.617
   20CHTO   O18 8393   6.539   1.016   2.536
   20CHTO   C28 8394   6.455   1.132   2.555
   20CHTO   H56 8395   6.485   1.208   2.483
   20CHTO   C35 8396   6.307   1.096   2.522
   20CHTO   O24 8397   6.251   0.992   2.603
   20CHTO   H39 8398   6.245   1.020   2.692
   20CHTO    O9 8399   6.492   0.890   2.733
   20CHTO   C13 8400   6.526   0.746   2.796
   20CHTO   H26 8401   6.622   0.755   2.851
   20CHTO   C11 8402   6.532   0.635   2.682
   20CHTO   H24 8403   6.635   0.635   2.641
   20CHTO    O8 8404   6.442   0.668   2.575
   20CHTO    H3 8405   6.453   0.608   2.504
   20CHTO    C9 8406   6.502   0.496   2.745
   20CHTO   H22 8407   6.570   0.487   2.831
   20CHTO    N2 8408   6.537   0.382   2.656
   20CHTO   H10 8409   6.618   0.325   2.699
   20CHTO   H11 8410   6.452   0.319   2.639
   20CHTO    C7 8411   6.353   0.498   2.799
   20CHTO   H20 8412   6.354   0.423   0.021
   20CHTO    O4 8413   6.313   0.626   2.852
   20CHTO   C14 8414   6.417   0.708   0.047
   20CHTO   H27 8415   6.468   0.650   0.128
   20CHTO   C18 8416   6.353   0.832   0.115
   20CHTO   O13 8417   6.451   0.914   0.180
   20CHTO    H7 8418   6.485   0.869   0.255
   20CHTO    O2 8419   6.244   0.454   2.681
   20CHTO    C1 8420   6.139   0.367   2.726
   20CHTO   H14 8421   6.109   0.396   2.830
   20CHTO    C2 8422   6.177   0.214   2.724
   20CHTO   H15 8423   6.210   0.191   2.622
   20CHTO    O6 8424   6.286   0.190   2.815
   20CHTO    H1 8425   6.315   0.101   2.808
   20CHTO    C3 8426   6.051   0.122   2.764
   20CHTO   H16 8427   6.036   0.134   0.012
   20CHTO    N1 8428   6.075   9.976   2.739
   20CHTO    H8 8429   6.065   9.921   2.831
   20CHTO    H9 8430   6.173   9.959   2.697
   20CHTO    C4 8431   5.916   0.172   2.697
   20CHTO   H17 8432   5.911   0.134   2.594
   20CHTO    O1 8433   5.902   0.315   2.697
   20CHTO    C5 8434   6.013   0.385   2.637
   20CHTO   H18 8435   6.035   0.343   2.539
   20CHTO   C16 8436   5.973   0.534   2.619
   20CHTO   O11 8437   5.867   0.547   2.524
   20CHTO    H5 8438   5.847   0.637   2.511
   20CHTO    O3 8439   5.805   0.124   2.775
   20CHTO    C6 8440   5.677   0.108   2.706
   20CHTO   H19 8441   5.671   0.163   2.612
   20CHTO    C8 8442   5.652   9.956   2.676
   20CHTO   H21 8443   5.668   9.900   2.769
   20CHTO    O7 8444   5.748   9.915   2.577
   20CHTO    H2 8445   5.834   9.916   2.614
   20CHTO   C12 8446   5.503   9.931   2.627
   20CHTO   H25 8447   5.495   9.976   2.527
   20CHTO    N3 8448   5.476   9.784   2.610
   20CHTO   H12 8449   5.488   9.733   2.704
   20CHTO   H13 8450   5.376   9.769   2.572
   20CHTO   C15 8451   5.401   0.002   2.723
   20CHTO   H28 8452   5.396   9.953   2.821
   20CHTO   O10 8453   5.257   0.010   2.663
   20CHTO    H4 8454   5.260   0.049   2.577
   20CHTO    O5 8455   5.434   0.141   2.740
   20CHTO   C10 8456   5.564   0.163   2.797
   20CHTO   H23 8457   5.568   0.113   0.034
   20CHTO   C17 8458   5.580   0.313   2.822
   20CHTO   O12 8459   5.488   0.358   0.063
   20CHTO    H6 8460   5.498   0.450   0.075
   21GLOH   H03 8461   3.814   0.241   0.796
   21GLOH    O1 8462   3.759   0.185   0.857
   21GLOH    C1 8463   3.705   0.077   0.779
   21GLOH   H02 8464   3.696   9.987   0.840
   21GLOH   H08 8465   3.772   0.052   0.696
   21GLOH    C2 8466   3.567   0.109   0.719
   21GLOH   H04 8467   3.572   0.207   0.670
   21GLOH    O2 8468   3.528   0.010   0.622
   21GLOH   H05 8469   3.434   0.029   0.593
   21GLOH    C3 8470   3.460   0.116   0.831
   21GLOH   H06 8471   3.467   0.024   0.889
   21GLOH   H07 8472   3.362   0.115   0.785
   21GLOH    O3 8473   3.472   0.229   0.919
   21GLOH   H01 8474   3.487   0.310   0.864
   22GLOH   H03 8475   3.412   1.066   1.667
   22GLOH    O1 8476   3.408   1.013   1.751
   22GLOH    C1 8477   3.489   0.895   1.735
   22GLOH   H02 8478   3.486   0.861   1.632
   22GLOH   H08 8479   3.448   0.814   1.796
   22GLOH    C2 8480   3.637   0.914   1.774
   22GLOH   H04 8481   3.643   0.935   1.881
   22GLOH    O2 8482   3.708   0.791   1.745
   22GLOH   H05 8483   3.702   0.727   1.821
   22GLOH    C3 8484   3.704   1.028   1.695
   22GLOH   H06 8485   3.688   1.007   1.590
   22GLOH   H07 8486   3.811   1.023   1.712
   22GLOH    O3 8487   3.656   1.161   1.724
   22GLOH   H01 8488   3.721   1.204   1.788
   23GLOH   H03 8489   2.773   7.070   0.430
   23GLOH    O1 8490   2.744   7.130   0.358
   23GLOH    C1 8491   2.859   7.169   0.279
   23GLOH   H02 8492   2.911   7.081   0.241
   23GLOH   H08 8493   2.930   7.224   0.340
   23GLOH    C2 8494   2.820   7.258   0.158
   23GLOH   H04 8495   2.771   7.349   0.196
   23GLOH    O2 8496   2.939   7.296   0.086
   23GLOH   H05 8497   2.917   7.358   0.014
   23GLOH    C3 8498   2.722   7.183   0.066
   23GLOH   H06 8499   2.773   7.098   0.021
   23GLOH   H07 8500   2.691   7.250   2.846
   23GLOH    O3 8501   2.608   7.140   0.142
   23GLOH   H01 8502   2.644   7.123   0.233
   24GLOH   H03 8503   3.921   1.017   1.411
   24GLOH    O1 8504   4.018   1.018   1.430
   24GLOH    C1 8505   4.076   0.905   1.361
   24GLOH   H02 8506   4.071   0.921   1.253
   24GLOH   H08 8507   4.018   0.815   1.381
   24GLOH    C2 8508   4.222   0.879   1.400
   24GLOH   H04 8509   4.225   0.849   1.506
   24GLOH    O2 8510   4.274   0.771   1.319
   24GLOH   H05 8511   4.226   0.687   1.344
   24GLOH    C3 8512   4.307   1.007   1.384
   24GLOH   H06 8513   4.318   1.029   1.278
   24GLOH   H07 8514   4.407   0.988   1.424
   24GLOH    O3 8515   4.246   1.117   1.452
   24GLOH   H01 8516   4.149   1.094   1.449
   25GLOH   H03 8517   4.751   1.735   1.297
   25GLOH    O1 8518   4.714   1.739   1.389
   25GLOH    C1 8519   4.759   1.864   1.446
   25GLOH   H02 8520   4.859   1.852   1.489
   25GLOH   H08 8521   4.693   1.894   1.527
   25GLOH    C2 8522   4.764   1.977   1.341
   25GLOH   H04 8523   4.661   1.993   1.306
   25GLOH    O2 8524   4.814   2.101   1.396
   25GLOH   H05 8525   4.803   2.174   1.329
   25GLOH    C3 8526   4.849   1.932   1.221
   25GLOH   H06 8527   4.950   1.908   1.256
   25GLOH   H07 8528   4.858   2.015   1.151
   25GLOH    O3 8529   4.791   1.818   1.155
   25GLOH   H01 8530   4.708   1.849   1.110
   26GLOH   H03 8531   4.570   3.349   0.638
   26GLOH    O1 8532   4.498   3.394   0.690
   26GLOH    C1 8533   4.555   3.514   0.746
   26GLOH   H02 8534   4.617   3.566   0.672
   26GLOH   H08 8535   4.621   3.489   0.830
   26GLOH    C2 8536   4.448   3.611   0.798
   26GLOH   H04 8537   4.397   3.562   0.883
   26GLOH    O2 8538   4.509   3.733   0.845
   26GLOH   H05 8539   4.529   3.793   0.769
   26GLOH    C3 8540   4.342   3.639   0.689
   26GLOH   H06 8541   4.389   3.693   0.608
   26GLOH   H07 8542   4.266   3.704   0.732
   26GLOH    O3 8543   4.284   3.516   0.640
   26GLOH   H01 8544   4.355   3.448   0.654
   27GLOH   H03 8545   4.275   4.176   1.689
   27GLOH    O1 8546   4.214   4.229   1.748
   27GLOH    C1 8547   4.261   4.217   1.884
   27GLOH   H02 8548   4.324   4.303   1.910
   27GLOH   H08 8549   4.322   4.128   1.897
   27GLOH    C2 8550   4.143   4.210   1.983
   27GLOH   H04 8551   4.084   4.121   1.958
   27GLOH    O2 8552   4.190   4.199   2.119
   27GLOH   H05 8553   4.125   4.141   2.170
   27GLOH    C3 8554   4.053   4.334   1.964
   27GLOH   H06 8555   4.111   4.424   1.985
   27GLOH   H07 8556   3.972   4.331   2.038
   27GLOH    O3 8557   4.000   4.337   1.830
   27GLOH   H01 8558   4.076   4.304   1.775
   28GLOH   H03 8559   4.316   1.728   1.749
   28GLOH    O1 8560   4.312   1.681   1.836
   28GLOH    C1 8561   4.304   1.539   1.808
   28GLOH   H02 8562   4.403   1.498   1.790
   28GLOH   H08 8563   4.245   1.522   1.718
   28GLOH    C2 8564   4.241   1.460   1.924
   28GLOH   H04 8565   4.140   1.500   1.943
   28GLOH    O2 8566   4.231   1.320   1.890
   28GLOH   H05 8567   4.209   1.310   1.792
   28GLOH    C3 8568   4.325   1.476   2.052
   28GLOH   H06 8569   4.419   1.423   2.040
   28GLOH   H07 8570   4.272   1.428   2.135
   28GLOH    O3 8571   4.348   1.614   2.081
   28GLOH   H01 8572   4.345   1.660   1.994
   29GLOH   H03 8573   3.573   1.064   0.409
   29GLOH    O1 8574   3.557   0.998   0.337
   29GLOH    C1 8575   3.653   0.892   0.350
   29GLOH   H02 8576   3.754   0.933   0.356
   29GLOH   H08 8577   3.651   0.827   0.263
   29GLOH    C2 8578   3.629   0.805   0.475
   29GLOH   H04 8579   3.607   0.873   0.559
   29GLOH    O2 8580   3.515   0.717   0.460
   29GLOH   H05 8581   3.432   0.770   0.478
   29GLOH    C3 8582   3.755   0.726   0.514
   29GLOH   H06 8583   3.788   0.670   0.427
   29GLOH   H07 8584   3.729   0.654   0.591
   29GLOH    O3 8585   3.860   0.813   0.560
   29GLOH   H01 8586   3.820   0.885   0.615
   30GLOH   H03 8587   4.391   3.681   2.248
   30GLOH    O1 8588   4.476   3.733   2.246
   30GLOH    C1 8589   4.578   3.659   2.314
   30GLOH   H02 8590   4.673   3.713   2.311
   30GLOH   H08 8591   4.595   3.564   2.265
   30GLOH    C2 8592   4.545   3.630   2.462
   30GLOH   H04 8593   4.443   3.589   2.467
   30GLOH    O2 8594   4.638   3.534   2.514
   30GLOH   H05 8595   4.630   3.536   2.612
   30GLOH    C3 8596   4.551   3.759   2.545
   30GLOH   H06 8597   4.482   3.832   2.502
   30GLOH   H07 8598   4.651   3.801   2.536
   30GLOH    O3 8599   4.519   3.734   2.683
   30GLOH   H01 8600   4.520   3.818   2.734
   31GLOH   H03 8601   3.562   2.796   1.992
   31GLOH    O1 8602   3.563   2.893   1.968
   31GLOH    C1 8603   3.541   2.968   2.088
   31GLOH   H02 8604   3.472   2.916   2.154
   31GLOH   H08 8605   3.496   3.065   2.064
   31GLOH    C2 8606   3.672   2.995   2.166
   31GLOH   H04 8607   3.738   3.054   2.100
   31GLOH    O2 8608   3.645   3.072   2.285
   31GLOH   H05 8609   3.579   3.026   2.342
   31GLOH    C3 8610   3.746   2.865   2.200
   31GLOH   H06 8611   3.771   2.813   2.108
   31GLOH   H07 8612   3.679   2.799   2.256
   31GLOH    O3 8613   3.865   2.892   2.277
   31GLOH   H01 8614   3.847   2.973   2.329
   32GLOH   H03 8615   2.527   2.262   2.827
   32GLOH    O1 8616   2.572   2.177   2.810
   32GLOH    C1 8617   2.639   2.134   0.070
   32GLOH   H02 8618   2.567   2.121   0.151
   32GLOH   H08 8619   2.711   2.210   0.103
   32GLOH    C2 8620   2.714   2.002   0.049
   32GLOH   H04 8621   2.779   2.012   2.820
   32GLOH    O2 8622   2.796   1.972   0.165
   32GLOH   H05 8623   2.873   2.032   0.168
   32GLOH    C3 8624   2.615   1.886   0.024
   32GLOH   H06 8625   2.670   1.801   2.844
   32GLOH   H07 8626   2.544   1.917   2.808
   32GLOH    O3 8627   2.546   1.849   0.145
   32GLOH   H01 8628   2.605   1.878   0.218
   33GLOH   H03 8629   3.248   7.344   1.196
   33GLOH    O1 8630   3.184   7.303   1.259
   33GLOH    C1 8631   3.133   7.180   1.204
   33GLOH   H02 8632   3.048   7.145   1.262
   33GLOH   H08 8633   3.209   7.102   1.210
   33GLOH    C2 8634   3.089   7.191   1.056
   33GLOH   H04 8635   3.029   7.283   1.046
   33GLOH    O2 8636   3.204   7.202   0.969
   33GLOH   H05 8637   3.181   7.170   0.877
   33GLOH    C3 8638   2.999   7.072   1.018
   33GLOH   H06 8639   3.055   6.980   1.031
   33GLOH   H07 8640   2.974   7.080   0.913
   33GLOH    O3 8641   2.878   7.069   1.097
   33GLOH   H01 8642   2.818   7.002   1.055
   34GLOH   H03 8643   2.691   6.718   2.789
   34GLOH    O1 8644   2.782   6.682   2.795
   34GLOH    C1 8645   2.843   6.705   2.667
   34GLOH   H02 8646   2.947   6.670   2.667
   34GLOH   H08 8647   2.846   6.812   2.645
   34GLOH    C2 8648   2.768   6.634   2.551
   34GLOH   H04 8649   2.792   6.687   2.457
   34GLOH    O2 8650   2.808   6.496   2.541
   34GLOH   H05 8651   2.811   6.458   2.631
   34GLOH    C3 8652   2.616   6.642   2.575
   34GLOH   H06 8653   2.588   6.567   2.649
   34GLOH   H07 8654   2.566   6.616   2.482
   34GLOH    O3 8655   2.576   6.773   2.619
   34GLOH   H01 8656   2.565   6.830   2.538
   35GLOH   H03 8657   2.448   7.116   0.179
   35GLOH    O1 8658   2.379   7.098   0.248
   35GLOH    C1 8659   2.418   6.977   0.317
   35GLOH   H02 8660   2.526   6.967   0.322
   35GLOH   H08 8661   2.381   6.890   0.263
   35GLOH    C2 8662   2.363   6.971   0.461
   35GLOH   H04 8663   2.253   6.961   0.456
   35GLOH    O2 8664   2.417   6.856   0.529
   35GLOH   H05 8665   2.507   6.878   0.566
   35GLOH    C3 8666   2.397   7.099   0.538
   35GLOH   H06 8667   2.505   7.103   0.550
   35GLOH   H07 8668   2.353   7.092   0.637
   35GLOH    O3 8669   2.353   7.218   0.470
   35GLOH   H01 8670   2.339   7.190   0.375
   36GLOH   H03 8671   3.121   8.629   0.086
   36GLOH    O1 8672   3.174   8.673   0.157
   36GLOH    C1 8673   3.100   8.789   0.200
   36GLOH   H02 8674   3.170   8.867   0.232
   36GLOH   H08 8675   3.038   8.765   0.287
   36GLOH    C2 8676   3.009   8.848   0.091
   36GLOH   H04 8677   3.072   8.891   0.011
   36GLOH    O2 8678   2.926   8.743   0.036
   36GLOH   H05 8679   2.878   8.774   2.817
   36GLOH    C3 8680   2.920   8.959   0.151
   36GLOH   H06 8681   2.847   8.912   0.217
   36GLOH   H07 8682   2.864   9.006   0.070
   36GLOH    O3 8683   2.996   9.057   0.224
   36GLOH   H01 8684   3.043   9.120   0.166
   37GLOH   H03 8685   3.200   4.676   1.653
   37GLOH    O1 8686   3.194   4.772   1.627
   37GLOH    C1 8687   3.327   4.826   1.617
   37GLOH   H02 8688   3.331   4.903   1.540
   37GLOH   H08 8689   3.398   4.748   1.588
   37GLOH    C2 8690   3.375   4.888   1.750
   37GLOH   H04 8691   3.370   4.810   1.828
   37GLOH    O2 8692   3.511   4.935   1.738
   37GLOH   H05 8693   3.541   4.973   1.826
   37GLOH    C3 8694   3.281   5.003   1.790
   37GLOH   H06 8695   3.291   5.083   1.717
   37GLOH   H07 8696   3.313   5.042   1.887
   37GLOH    O3 8697   3.145   4.957   1.797
   37GLOH   H01 8698   3.139   4.884   1.729
   38GLOH   H03 8699   2.956   5.595   0.389
   38GLOH    O1 8700   2.910   5.669   0.341
   38GLOH    C1 8701   2.769   5.656   0.364
   38GLOH   H02 8702   2.741   5.551   0.372
   38GLOH   H08 8703   2.713   5.696   0.280
   38GLOH    C2 8704   2.721   5.729   0.492
   38GLOH   H04 8705   2.732   5.837   0.475
   38GLOH    O2 8706   2.582   5.698   0.513
   38GLOH   H05 8707   2.542   5.764   0.577
   38GLOH    C3 8708   2.807   5.689   0.613
   38GLOH   H06 8709   2.912   5.708   0.590
   38GLOH   H07 8710   2.797   5.581   0.629
   38GLOH    O3 8711   2.770   5.759   0.733
   38GLOH   H01 8712   2.785   5.856   0.717
   39GLOH   H03 8713   2.831   4.573   1.891
   39GLOH    O1 8714   2.823   4.669   1.866
   39GLOH    C1 8715   2.930   4.746   1.924
   39GLOH   H02 8716   2.907   4.852   1.916
   39GLOH   H08 8717   3.022   4.729   1.868
   39GLOH    C2 8718   2.958   4.713   2.073
   39GLOH   H04 8719   2.862   4.692   2.122
   39GLOH    O2 8720   3.044   4.598   2.085
   39GLOH   H05 8721   3.014   4.540   2.161
   39GLOH    C3 8722   3.022   4.834   2.143
   39GLOH   H06 8723   3.115   4.859   2.093
   39GLOH   H07 8724   3.047   4.806   2.246
   39GLOH    O3 8725   2.934   4.948   2.144
   39GLOH   H01 8726   2.960   5.009   2.070
   40GLOH   H03 8727   3.350   8.039   1.112
   40GLOH    O1 8728   3.440   8.052   1.070
   40GLOH    C1 8729   3.441   7.985   0.943
   40GLOH   H02 8730   3.420   8.056   0.863
   40GLOH   H08 8731   3.363   7.909   0.939
   40GLOH    C2 8732   3.575   7.915   0.913
   40GLOH   H04 8733   3.582   7.826   0.978
   40GLOH    O2 8734   3.580   7.872   0.776
   40GLOH   H05 8735   3.573   7.954   0.717
   40GLOH    C3 8736   3.695   8.007   0.946
   40GLOH   H06 8737   3.696   8.090   0.875
   40GLOH   H07 8738   3.787   7.951   0.930
   40GLOH    O3 8739   3.686   8.055   1.081
   40GLOH   H01 8740   3.588   8.072   1.091
   41GLOH   H03 8741   3.894   0.490   1.209
   41GLOH    O1 8742   3.962   0.422   1.182
   41GLOH    C1 8743   3.901   0.290   1.181
   41GLOH   H02 8744   3.922   0.239   1.275
   41GLOH   H08 8745   3.945   0.230   1.102
   41GLOH    C2 8746   3.748   0.292   1.161
   41GLOH   H04 8747   3.705   0.351   1.244
   41GLOH    O2 8748   3.713   0.355   1.035
   41GLOH   H05 8749   3.725   0.286   0.963
   41GLOH    C3 8750   3.689   0.150   1.170
   41GLOH   H06 8751   3.716   0.108   1.267
   41GLOH   H07 8752   3.737   0.087   1.094
   41GLOH    O3 8753   3.546   0.148   1.154
   41GLOH   H01 8754   3.525   0.184   1.064
   42GLOH   H03 8755   4.135   4.249   0.716
   42GLOH    O1 8756   4.042   4.251   0.682
   42GLOH    C1 8757   3.998   4.388   0.691
   42GLOH   H02 8758   3.966   4.410   0.793
   42GLOH   H08 8759   3.911   4.403   0.627
   42GLOH    C2 8760   4.107   4.488   0.650
   42GLOH   H04 8761   4.130   4.472   0.543
   42GLOH    O2 8762   4.061   4.624   0.668
   42GLOH   H05 8763   4.044   4.640   0.765
   42GLOH    C3 8764   4.236   4.464   0.731
   42GLOH   H06 8765   4.215   4.484   0.836
   42GLOH   H07 8766   4.311   4.536   0.699
   42GLOH    O3 8767   4.286   4.330   0.714
   42GLOH   H01 8768   4.322   4.321   0.622
   43GLOH   H03 8769   4.202   3.153   0.008
   43GLOH    O1 8770   4.122   3.196   2.826
   43GLOH    C1 8771   4.157   3.331   2.792
   43GLOH   H02 8772   4.155   3.344   2.683
   43GLOH   H08 8773   4.258   3.356   2.825
   43GLOH    C2 8774   4.060   3.434   2.854
   43GLOH   H04 8775   4.067   3.426   0.103
   43GLOH    O2 8776   4.095   3.567   2.813
   43GLOH   H05 8777   4.153   3.607   0.021
   43GLOH    C3 8778   3.915   3.400   2.814
   43GLOH   H06 8779   3.906   3.406   2.705
   43GLOH   H07 8780   3.848   3.475   2.856
   43GLOH    O3 8781   3.879   3.269   0.000
   43GLOH   H01 8782   3.962   3.215   2.849
   44GLOH   H03 8783   3.599   5.004   0.541
   44GLOH    O1 8784   3.691   5.029   0.567
   44GLOH    C1 8785   3.784   4.944   0.497
   44GLOH   H02 8786   3.828   4.997   0.413
   44GLOH   H08 8787   3.732   4.857   0.456
   44GLOH    C2 8788   3.897   4.893   0.588
   44GLOH   H04 8789   3.853   4.830   0.667
   44GLOH    O2 8790   3.990   4.813   0.511
   44GLOH   H05 8791   4.023   4.738   0.568
   44GLOH    C3 8792   3.969   5.011   0.655
   44GLOH   H06 8793   4.016   5.072   0.578
   44GLOH   H07 8794   4.049   4.973   0.719
   44GLOH    O3 8795   3.876   5.089   0.731
   44GLOH   H01 8796   3.793   5.089   0.678
   45GLOH   H03 8797   2.583   0.132   2.453
   45GLOH    O1 8798   2.586   0.189   2.534
   45GLOH    C1 8799   2.617   0.324   2.497
   45GLOH   H02 8800   2.540   0.365   2.432
   45GLOH   H08 8801   2.711   0.328   2.442
   45GLOH    C2 8802   2.633   0.417   2.619
   45GLOH   H04 8803   2.726   0.389   2.670
   45GLOH    O2 8804   2.642   0.554   2.577
   45GLOH   H05 8805   2.635   0.607   2.660
   45GLOH    C3 8806   2.517   0.398   2.719
   45GLOH   H06 8807   2.517   0.295   2.753
   45GLOH   H07 8808   2.423   0.415   2.666
   45GLOH    O3 8809   2.529   0.488   2.831
   45GLOH   H01 8810   2.472   0.456   0.044
   46GLOH   H03 8811   3.666   7.984   1.474
   46GLOH    O1 8812   3.632   7.991   1.567
   46GLOH    C1 8813   3.505   7.921   1.569
   46GLOH   H02 8814   3.423   7.992   1.566
   46GLOH   H08 8815   3.495   7.865   1.662
   46GLOH    C2 8816   3.489   7.822   1.451
   46GLOH   H04 8817   3.563   7.742   1.463
   46GLOH    O2 8818   3.358   7.764   1.447
   46GLOH   H05 8819   3.341   7.724   1.356
   46GLOH    C3 8820   3.521   7.895   1.318
   46GLOH   H06 8821   3.446   7.973   1.305
   46GLOH   H07 8822   3.509   7.825   1.236
   46GLOH    O3 8823   3.653   7.952   1.318
   46GLOH   H01 8824   3.677   7.977   1.225
   47GLOH   H03 8825   2.917   9.981   2.117
   47GLOH    O1 8826   3.011   0.001   2.093
   47GLOH    C1 8827   3.033   0.143   2.102
   47GLOH   H02 8828   2.951   0.195   2.051
   47GLOH   H08 8829   3.124   0.170   2.050
   47GLOH    C2 8830   3.042   0.195   2.246
   47GLOH   H04 8831   2.952   0.163   2.301
   47GLOH    O2 8832   3.159   0.142   2.314
   47GLOH   H05 8833   3.147   0.044   2.329
   47GLOH    C3 8834   3.046   0.349   2.247
   47GLOH   H06 8835   3.140   0.382   2.202
   47GLOH   H07 8836   3.047   0.383   2.351
   47GLOH    O3 8837   2.935   0.410   2.178
   47GLOH   H01 8838   2.852   0.358   2.198
   48GLOH   H03 8839   2.490   6.248   1.626
   48GLOH    O1 8840   2.510   6.174   1.690
   48GLOH    C1 8841   2.559   6.061   1.615
   48GLOH   H02 8842   2.606   5.989   1.681
   48GLOH   H08 8843   2.636   6.093   1.544
   48GLOH    C2 8844   2.447   5.989   1.536
   48GLOH   H04 8845   2.396   6.064   1.475
   48GLOH    O2 8846   2.500   5.887   1.448
   48GLOH   H05 8847   2.521   5.804   1.502
   48GLOH    C3 8848   2.344   5.929   1.634
   48GLOH   H06 8849   2.266   5.879   1.576
   48GLOH   H07 8850   2.296   6.011   1.687
   48GLOH    O3 8851   2.402   5.837   1.729
   48GLOH   H01 8852   2.456   5.770   1.681
   49GLOH   H03 8853   4.359   2.657   2.738
   49GLOH    O1 8854   4.415   2.629   2.815
   49GLOH    C1 8855   4.389   2.491   2.845
   49GLOH   H02 8856   4.475   2.447   0.035
   49GLOH   H08 8857   4.375   2.434   2.753
   49GLOH    C2 8858   4.265   2.467   0.075
   49GLOH   H04 8859   4.184   2.534   0.041
   49GLOH    O2 8860   4.220   2.330   0.068
   49GLOH   H05 8861   4.198   2.307   2.836
   49GLOH    C3 8862   4.296   2.500   0.222
   49GLOH   H06 8863   4.386   2.446   0.251
   49GLOH   H07 8864   4.216   2.462   0.285
   49GLOH    O3 8865   4.313   2.641   0.247
   49GLOH   H01 8866   4.409   2.661   0.233
   50GLOH   H03 8867   2.806   4.962   2.216
   50GLOH    O1 8868   2.718   4.968   2.262
   50GLOH    C1 8869   2.698   4.846   2.337
   50GLOH   H02 8870   2.786   4.822   2.396
   50GLOH   H08 8871   2.682   4.763   2.268
   50GLOH    C2 8872   2.577   4.855   2.431
   50GLOH   H04 8873   2.487   4.874   2.371
   50GLOH    O2 8874   2.562   4.731   2.503
   50GLOH   H05 8875   2.552   4.655   2.439
   50GLOH    C3 8876   2.596   4.972   2.531
   50GLOH   H06 8877   2.673   4.945   2.602
   50GLOH   H07 8878   2.503   4.984   2.587
   50GLOH    O3 8879   2.630   5.094   2.463
   50GLOH   H01 8880   2.662   5.066   2.374
   51GLOH   H03 8881   2.949   7.442   1.411
   51GLOH    O1 8882   2.950   7.538   1.387
   51GLOH    C1 8883   3.034   7.605   1.483
   51GLOH   H02 8884   2.980   7.621   1.576
   51GLOH   H08 8885   3.062   7.704   1.446
   51GLOH    C2 8886   3.163   7.527   1.515
   51GLOH   H04 8887   3.220   7.515   1.422
   51GLOH    O2 8888   3.243   7.603   1.608
   51GLOH   H05 8889   3.297   7.669   1.555
   51GLOH    C3 8890   3.131   7.387   1.569
   51GLOH   H06 8891   3.075   7.398   1.663
   51GLOH   H07 8892   3.224   7.337   1.594
   51GLOH    O3 8893   3.056   7.309   1.474
   51GLOH   H01 8894   3.110   7.304   1.391
   52GLOH   H03 8895   3.884   3.818   1.633
   52GLOH    O1 8896   3.801   3.845   1.587
   52GLOH    C1 8897   3.692   3.824   1.679
   52GLOH   H02 8898   3.699   3.894   1.762
   52GLOH   H08 8899   3.699   3.724   1.722
   52GLOH    C2 8900   3.552   3.838   1.615
   52GLOH   H04 8901   3.478   3.818   1.694
   52GLOH    O2 8902   3.528   3.971   1.563
   52GLOH   H05 8903   3.541   4.035   1.639
   52GLOH    C3 8904   3.531   3.732   1.505
   52GLOH   H06 8905   3.610   3.744   1.431
   52GLOH   H07 8906   3.436   3.753   1.456
   52GLOH    O3 8907   3.531   3.597   1.556
   52GLOH   H01 8908   3.463   3.591   1.628
   53GLOH   H03 8909   3.198   1.930   0.480
   53GLOH    O1 8910   3.115   1.904   0.530
   53GLOH    C1 8911   3.061   1.783   0.473
   53GLOH   H02 8912   3.070   1.785   0.365
   53GLOH   H08 8913   2.955   1.776   0.495
   53GLOH    C2 8914   3.130   1.656   0.527
   53GLOH   H04 8915   3.235   1.658   0.495
   53GLOH    O2 8916   3.124   1.651   0.671
   53GLOH   H05 8917   3.191   1.716   0.706
   53GLOH    C3 8918   3.064   1.529   0.469
   53GLOH   H06 8919   2.961   1.524   0.505
   53GLOH   H07 8920   3.115   1.442   0.510
   53GLOH    O3 8921   3.066   1.523   0.325
   53GLOH   H01 8922   3.159   1.527   0.294
   54GLOH   H03 8923   4.500   2.203   0.401
   54GLOH    O1 8924   4.584   2.257   0.401
   54GLOH    C1 8925   4.678   2.201   0.495
   54GLOH   H02 8926   4.778   2.239   0.476
   54GLOH   H08 8927   4.682   2.093   0.482
   54GLOH    C2 8928   4.640   2.233   0.641
   54GLOH   H04 8929   4.541   2.190   0.661
   54GLOH    O2 8930   4.737   2.172   0.730
   54GLOH   H05 8931   4.749   2.077   0.703
   54GLOH    C3 8932   4.632   2.386   0.660
   54GLOH   H06 8933   4.575   2.428   0.578
   54GLOH   H07 8934   4.733   2.426   0.652
   54GLOH    O3 8935   4.573   2.427   0.785
   54GLOH   H01 8936   4.485   2.381   0.793
   55GLOH   H03 8937   2.785   0.723   1.288
   55GLOH    O1 8938   2.848   0.717   1.364
   55GLOH    C1 8939   2.834   0.590   1.430
   55GLOH   H02 8940   2.729   0.559   1.433
   55GLOH   H08 8941   2.866   0.597   1.533
   55GLOH    C2 8942   2.915   0.479   1.361
   55GLOH   H04 8943   3.019   0.514   1.356
   55GLOH    O2 8944   2.909   0.359   1.441
   55GLOH   H05 8945   3.003   0.336   1.469
   55GLOH    C3 8946   2.865   0.451   1.218
   55GLOH   H06 8947   2.879   0.542   1.159
   55GLOH   H07 8948   2.758   0.432   1.221
   55GLOH    O3 8949   2.934   0.342   1.152
   55GLOH   H01 8950   2.938   0.266   1.215
   56GLOH   H03 8951   4.191   2.737   2.594
   56GLOH    O1 8952   4.277   2.693   2.611
   56GLOH    C1 8953   4.356   2.703   2.490
   56GLOH   H02 8954   4.330   2.620   2.424
   56GLOH   H08 8955   4.462   2.691   2.514
   56GLOH    C2 8956   4.340   2.834   2.410
   56GLOH   H04 8957   4.234   2.842   2.378
   56GLOH    O2 8958   4.374   2.949   2.490
   56GLOH   H05 8959   4.350   3.034   2.443
   56GLOH    C3 8960   4.428   2.830   2.284
   56GLOH   H06 8961   4.532   2.822   2.314
   56GLOH   H07 8962   4.417   2.924   2.231
   56GLOH    O3 8963   4.394   2.722   2.194
   56GLOH   H01 8964   4.448   2.642   2.221
   57GLOH   H03 8965   2.638   6.342   2.039
   57GLOH    O1 8966   2.682   6.405   2.103
   57GLOH    C1 8967   2.584   6.442   2.202
   57GLOH   H02 8968   2.630   6.451   2.300
   57GLOH   H08 8969   2.508   6.364   2.211
   57GLOH    C2 8970   2.513   6.575   2.169
   57GLOH   H04 8971   2.457   6.561   2.075
   57GLOH    O2 8972   2.420   6.609   2.274
   57GLOH   H05 8973   2.380   6.699   2.257
   57GLOH    C3 8974   2.618   6.686   2.147
   57GLOH   H06 8975   2.678   6.696   2.237
   57GLOH   H07 8976   2.567   6.781   2.130
   57GLOH    O3 8977   2.701   6.652   2.034
   57GLOH   H01 8978   2.719   6.556   2.046
   58GLOH   H03 8979   2.651   6.114   2.333
   58GLOH    O1 8980   2.751   6.105   2.339
   58GLOH    C1 8981   2.782   6.043   2.465
   58GLOH   H02 8982   2.692   6.018   2.520
   58GLOH   H08 8983   2.839   6.113   2.527
   58GLOH    C2 8984   2.866   5.916   2.447
   58GLOH   H04 8985   2.963   5.943   2.402
   58GLOH    O2 8986   2.890   5.854   2.576
   58GLOH   H05 8987   2.822   5.783   2.585
   58GLOH    C3 8988   2.796   5.816   2.353
   58GLOH   H06 8989   2.864   5.734   2.332
   58GLOH   H07 8990   2.777   5.866   2.258
   58GLOH    O3 8991   2.673   5.765   2.408
   58GLOH   H01 8992   2.597   5.802   2.356
   59GLOH   H03 8993   3.642   8.859   1.954
   59GLOH    O1 8994   3.680   8.923   2.021
   59GLOH    C1 8995   3.638   9.054   1.977
   59GLOH   H02 8996   3.536   9.050   1.941
   59GLOH   H08 8997   3.700   9.086   1.893
   59GLOH    C2 8998   3.648   9.162   2.086
   59GLOH   H04 8999   3.754   9.176   2.112
   59GLOH    O2 9000   3.595   9.287   2.037
   59GLOH   H05 9001   3.503   9.272   2.000
   59GLOH    C3 9002   3.573   9.118   2.213
   59GLOH   H06 9003   3.466   9.110   2.191
   59GLOH   H07 9004   3.584   9.195   2.290
   59GLOH    O3 9005   3.623   8.992   2.261
   59GLOH   H01 9006   3.649   8.943   2.180
   60GLOH   H03 9007   2.934   5.600   1.336
   60GLOH    O1 9008   2.983   5.677   1.299
   60GLOH    C1 9009   2.927   5.799   1.351
   60GLOH   H02 9010   2.992   5.883   1.328
   60GLOH   H08 9011   2.918   5.795   1.460
   60GLOH    C2 9012   2.788   5.828   1.291
   60GLOH   H04 9013   2.723   5.741   1.308
   60GLOH    O2 9014   2.732   5.945   1.355
   60GLOH   H05 9015   2.639   5.923   1.386
   60GLOH    C3 9016   2.803   5.853   1.140
   60GLOH   H06 9017   2.862   5.771   1.097
   60GLOH   H07 9018   2.862   5.944   1.127
   60GLOH    O3 9019   2.678   5.865   1.071
   60GLOH   H01 9020   2.663   5.780   1.021
   61GLOH   H03 9021   3.772   4.944   1.526
   61GLOH    O1 9022   3.865   4.912   1.540
   61GLOH    C1 9023   3.947   4.965   1.435
   61GLOH   H02 9024   4.052   4.943   1.455
   61GLOH   H08 9025   3.938   5.074   1.433
   61GLOH    C2 9026   3.913   4.911   1.295
   61GLOH   H04 9027   3.805   4.924   1.279
   61GLOH    O2 9028   3.984   4.986   1.194
   61GLOH   H05 9029   3.928   4.990   1.111
   61GLOH    C3 9030   3.946   4.761   1.282
   61GLOH   H06 9031   4.050   4.747   1.313
   61GLOH   H07 9032   3.941   4.734   1.177
   61GLOH    O3 9033   3.860   4.676   1.360
   61GLOH   H01 9034   3.888   4.581   1.352
   62GLOH   H03 9035   2.822   2.258   2.092
   62GLOH    O1 9036   2.862   2.334   2.042
   62GLOH    C1 9037   2.778   2.449   2.066
   62GLOH   H02 9038   2.755   2.456   2.172
   62GLOH   H08 9039   2.682   2.437   2.014
   62GLOH    C2 9040   2.838   2.585   2.022
   62GLOH   H04 9041   2.757   2.659   2.029
   62GLOH    O2 9042   2.946   2.628   2.108
   62GLOH   H05 9043   3.002   2.550   2.135
   62GLOH    C3 9044   2.885   2.580   1.876
   62GLOH   H06 9045   2.967   2.508   1.868
   62GLOH   H07 9046   2.925   2.677   1.850
   62GLOH    O3 9047   2.778   2.545   1.786
   62GLOH   H01 9048   2.820   2.522   1.699
   63GLOH   H03 9049   2.568   2.016   0.596
   63GLOH    O1 9050   2.591   1.955   0.520
   63GLOH    C1 9051   2.662   1.841   0.571
   63GLOH   H02 9052   2.631   1.818   0.673
   63GLOH   H08 9053   2.769   1.862   0.575
   63GLOH    C2 9054   2.640   1.715   0.485
   63GLOH   H04 9055   2.672   1.736   0.382
   63GLOH    O2 9056   2.719   1.606   0.538
   63GLOH   H05 9057   2.675   1.519   0.519
   63GLOH    C3 9058   2.490   1.679   0.484
   63GLOH   H06 9059   2.433   1.767   0.453
   63GLOH   H07 9060   2.459   1.657   0.586
   63GLOH    O3 9061   2.459   1.568   0.397
   63GLOH   H01 9062   2.457   1.602   0.305
   64GLOH   H03 9063   3.957   4.088   1.369
   64GLOH    O1 9064   3.984   4.183   1.380
   64GLOH    C1 9065   4.109   4.189   1.451
   64GLOH   H02 9066   4.096   4.141   1.548
   64GLOH   H08 9067   4.136   4.292   1.471
   64GLOH    C2 9068   4.227   4.121   1.379
   64GLOH   H04 9069   4.207   4.013   1.372
   64GLOH    O2 9070   4.248   4.174   1.247
   64GLOH   H05 9071   4.329   4.131   1.206
   64GLOH    C3 9072   4.356   4.141   1.462
   64GLOH   H06 9073   4.375   4.248   1.469
   64GLOH   H07 9074   4.439   4.098   1.407
   64GLOH    O3 9075   4.346   4.083   1.593
   64GLOH   H01 9076   4.353   3.984   1.581
   65GLOH   H03 9077   3.865   9.515   2.393
   65GLOH    O1 9078   3.791   9.562   2.349
   65GLOH    C1 9079   3.778   9.512   2.214
   65GLOH   H02 9080   3.748   9.407   2.216
   65GLOH   H08 9081   3.873   9.517   2.162
   65GLOH    C2 9082   3.674   9.591   2.132
   65GLOH   H04 9083   3.713   9.693   2.117
   65GLOH    O2 9084   3.654   9.529   2.003
   65GLOH   H05 9085   3.636   9.431   2.015
   65GLOH    C3 9086   3.541   9.602   2.209
   65GLOH   H06 9087   3.504   9.502   2.230
   65GLOH   H07 9088   3.467   9.651   2.146
   65GLOH    O3 9089   3.561   9.675   2.331
   65GLOH   H01 9090   3.647   9.642   2.367
   66GLOH   H03 9091   2.835   8.363   1.500
   66GLOH    O1 9092   2.882   8.276   1.509
   66GLOH    C1 9093   3.021   8.303   1.533
   66GLOH   H02 9094   3.034   8.362   1.624
   66GLOH   H08 9095   3.061   8.363   1.451
   66GLOH    C2 9096   3.105   8.175   1.545
   66GLOH   H04 9097   3.094   8.119   1.451
   66GLOH    O2 9098   3.244   8.208   1.564
   66GLOH   H05 9099   3.257   8.237   1.659
   66GLOH    C3 9100   3.052   8.085   1.659
   66GLOH   H06 9101   3.102   7.988   1.650
   66GLOH   H07 9102   2.946   8.067   1.643
   66GLOH    O3 9103   3.074   8.138   1.791
   66GLOH   H01 9104   3.025   8.223   1.805
   67GLOH   H03 9105   3.536   1.778   2.499
   67GLOH    O1 9106   3.617   1.831   2.485
   67GLOH    C1 9107   3.636   1.852   2.344
   67GLOH   H02 9108   3.573   1.934   2.309
   67GLOH   H08 9109   3.607   1.763   2.288
   67GLOH    C2 9110   3.783   1.884   2.309
   67GLOH   H04 9111   3.844   1.798   2.339
   67GLOH    O2 9112   3.795   1.904   2.167
   67GLOH   H05 9113   3.882   1.864   2.139
   67GLOH    C3 9114   3.832   2.007   2.389
   67GLOH   H06 9115   3.832   1.981   2.495
   67GLOH   H07 9116   3.758   2.087   2.377
   67GLOH    O3 9117   3.962   2.055   2.350
   67GLOH   H01 9118   4.029   1.981   2.354
   68GLOH   H03 9119   2.839   7.245   0.745
   68GLOH    O1 9120   2.820   7.150   0.724
   68GLOH    C1 9121   2.688   7.117   0.773
   68GLOH   H02 9122   2.613   7.176   0.721
   68GLOH   H08 9123   2.679   7.142   0.878
   68GLOH    C2 9124   2.652   6.968   0.756
   68GLOH   H04 9125   2.550   6.954   0.794
   68GLOH    O2 9126   2.655   6.926   0.617
   68GLOH   H05 9127   2.721   6.851   0.605
   68GLOH    C3 9128   2.745   6.881   0.843
   68GLOH   H06 9129   2.849   6.900   0.814
   68GLOH   H07 9130   2.725   6.776   0.822
   68GLOH    O3 9131   2.729   6.907   0.984
   68GLOH   H01 9132   2.649   6.857   1.015
   69GLOH   H03 9133   3.417   4.394   0.275
   69GLOH    O1 9134   3.481   4.465   0.248
   69GLOH    C1 9135   3.494   4.467   0.104
   69GLOH   H02 9136   3.513   4.366   0.068
   69GLOH   H08 9137   3.580   4.527   0.076
   69GLOH    C2 9138   3.370   4.522   0.031
   69GLOH   H04 9139   3.281   4.468   0.068
   69GLOH    O2 9140   3.351   4.663   0.054
   69GLOH   H05 9141   3.422   4.709   0.005
   69GLOH    C3 9142   3.380   4.494   2.739
   69GLOH   H06 9143   3.288   4.528   2.692
   69GLOH   H07 9144   3.386   4.387   2.724
   69GLOH    O3 9145   3.493   4.559   2.678
   69GLOH   H01 9146   3.480   4.560   2.580
   70GLOH   H03 9147   2.555   7.867   2.079
   70GLOH    O1 9148   2.610   7.943   2.109
   70GLOH    C1 9149   2.690   7.985   1.996
   70GLOH   H02 9150   2.641   7.959   1.903
   70GLOH   H08 9151   2.786   7.933   1.998
   70GLOH    C2 9152   2.719   8.136   1.996
   70GLOH   H04 9153   2.785   8.160   2.080
   70GLOH    O2 9154   2.785   8.170   1.872
   70GLOH   H05 9155   2.841   8.252   1.885
   70GLOH    C3 9156   2.588   8.217   2.010
   70GLOH   H06 9157   2.528   8.174   2.090
   70GLOH   H07 9158   2.531   8.206   1.918
   70GLOH    O3 9159   2.612   8.356   2.036
   70GLOH   H01 9160   2.662   8.363   2.122
   71GLOH   H03 9161   3.713   1.709   1.034
   71GLOH    O1 9162   3.740   1.804   1.046
   71GLOH    C1 9163   3.785   1.819   1.183
   71GLOH   H02 9164   3.848   1.907   1.193
   71GLOH   H08 9165   3.847   1.734   1.212
   71GLOH    C2 9166   3.669   1.830   1.284
   71GLOH   H04 9167   3.595   1.900   1.241
   71GLOH    O2 9168   3.602   1.704   1.308
   71GLOH   H05 9169   3.506   1.714   1.280
   71GLOH    C3 9170   3.719   1.893   1.415
   71GLOH   H06 9171   3.635   1.902   1.483
   71GLOH   H07 9172   3.752   1.995   1.394
   71GLOH    O3 9173   3.827   1.820   1.476
   71GLOH   H01 9174   3.792   1.738   1.521
   72GLOH   H03 9175   3.712   9.095   0.023
   72GLOH    O1 9176   3.694   9.064   0.116
   72GLOH    C1 9177   3.579   8.976   0.115
   72GLOH   H02 9178   3.571   8.924   0.210
   72GLOH   H08 9179   3.590   8.900   0.038
   72GLOH    C2 9180   3.446   9.051   0.090
   72GLOH   H04 9181   3.363   8.981   0.109
   72GLOH    O2 9182   3.436   9.162   0.182
   72GLOH   H05 9183   3.528   9.188   0.204
   72GLOH    C3 9184   3.436   9.101   2.805
   72GLOH   H06 9185   3.509   9.180   2.790
   72GLOH   H07 9186   3.337   9.146   2.792
   72GLOH    O3 9187   3.455   8.995   2.710
   72GLOH   H01 9188   3.421   9.021   2.622
   73GLOH   H03 9189   3.428   8.292   2.453
   73GLOH    O1 9190   3.386   8.278   2.541
   73GLOH    C1 9191   3.296   8.386   2.570
   73GLOH   H02 9192   3.329   8.479   2.522
   73GLOH   H08 9193   3.294   8.405   2.677
   73GLOH    C2 9194   3.152   8.356   2.524
   73GLOH   H04 9195   3.118   8.268   2.581
   73GLOH    O2 9196   3.061   8.465   2.552
   73GLOH   H05 9197   3.107   8.553   2.543
   73GLOH    C3 9198   3.148   8.315   2.375
   73GLOH   H06 9199   3.043   8.310   2.343
   73GLOH   H07 9200   3.187   8.214   2.367
   73GLOH    O3 9201   3.221   8.404   2.288
   73GLOH   H01 9202   3.316   8.373   2.290
   74GLOH   H03 9203   4.852   1.973   0.024
   74GLOH    O1 9204   4.797   1.912   0.077
   74GLOH    C1 9205   4.757   1.799   2.857
   74GLOH   H02 9206   4.843   1.734   2.837
   74GLOH   H08 9207   4.719   1.831   2.760
   74GLOH    C2 9208   4.649   1.715   0.067
   74GLOH   H04 9209   4.560   1.779   0.081
   74GLOH    O2 9210   4.613   1.601   2.847
   74GLOH   H05 9211   4.552   1.627   2.775
   74GLOH    C3 9212   4.698   1.670   0.206
   74GLOH   H06 9213   4.784   1.604   0.193
   74GLOH   H07 9214   4.620   1.609   0.254
   74GLOH    O3 9215   4.731   1.783   0.289
   74GLOH   H01 9216   4.762   1.852   0.226
   75GLOH   H03 9217   2.789   4.857   1.529
   75GLOH    O1 9218   2.796   4.950   1.495
   75GLOH    C1 9219   2.913   5.008   1.555
   75GLOH   H02 9220   3.002   4.978   1.500
   75GLOH   H08 9221   2.926   4.971   1.657
   75GLOH    C2 9222   2.911   5.163   1.562
   75GLOH   H04 9223   3.004   5.194   1.612
   75GLOH    O2 9224   2.906   5.224   1.432
   75GLOH   H05 9225   2.968   5.174   1.370
   75GLOH    C3 9226   2.794   5.212   1.648
   75GLOH   H06 9227   2.701   5.178   1.602
   75GLOH   H07 9228   2.792   5.321   1.646
   75GLOH    O3 9229   2.801   5.166   1.785
   75GLOH   H01 9230   2.748   5.081   1.791
   76GLOH   H03 9231   4.409   3.763   1.540
   76GLOH    O1 9232   4.344   3.837   1.554
   76GLOH    C1 9233   4.214   3.778   1.569
   76GLOH   H02 9234   4.222   3.670   1.585
   76GLOH   H08 9235   4.156   3.791   1.477
   76GLOH    C2 9236   4.134   3.839   1.685
   76GLOH   H04 9237   4.112   3.944   1.659
   76GLOH    O2 9238   4.010   3.769   1.703
   76GLOH   H05 9239   4.031   3.675   1.731
   76GLOH    C3 9240   4.217   3.841   1.816
   76GLOH   H06 9241   4.154   3.880   1.895
   76GLOH   H07 9242   4.299   3.911   1.803
   76GLOH    O3 9243   4.269   3.711   1.853
   76GLOH   H01 9244   4.203   3.641   1.828
   77GLOH   H03 9245   3.170   8.711   2.424
   77GLOH    O1 9246   3.139   8.708   2.518
   77GLOH    C1 9247   3.001   8.747   2.521
   77GLOH   H02 9248   2.964   8.743   2.623
   77GLOH   H08 9249   2.941   8.676   2.464
   77GLOH    C2 9250   2.975   8.890   2.468
   77GLOH   H04 9251   3.019   8.961   2.539
   77GLOH    O2 9252   3.033   8.911   2.337
   77GLOH   H05 9253   3.002   8.838   2.277
   77GLOH    C3 9254   2.823   8.917   2.461
   77GLOH   H06 9255   2.808   9.016   2.418
   77GLOH   H07 9256   2.785   8.920   2.563
   77GLOH    O3 9257   2.750   8.819   2.384
   77GLOH   H01 9258   2.810   8.779   2.316
   78GLOH   H03 9259   3.899   4.456   1.796
   78GLOH    O1 9260   3.838   4.529   1.770
   78GLOH    C1 9261   3.817   4.529   1.627
   78GLOH   H02 9262   3.912   4.546   1.577
   78GLOH   H08 9263   3.751   4.611   1.599
   78GLOH    C2 9264   3.756   4.397   1.573
   78GLOH   H04 9265   3.819   4.314   1.607
   78GLOH    O2 9266   3.621   4.375   1.618
   78GLOH   H05 9267   3.603   4.423   1.704
   78GLOH    C3 9268   3.759   4.400   1.419
   78GLOH   H06 9269   3.694   4.480   1.384
   78GLOH   H07 9270   3.716   4.306   1.382
   78GLOH    O3 9271   3.893   4.416   1.366
   78GLOH   H01 9272   3.936   4.326   1.370
   79GLOH   H03 9273   2.649   2.467   1.789
   79GLOH    O1 9274   2.573   2.406   1.766
   79GLOH    C1 9275   2.624   2.310   1.672
   79GLOH   H02 9276   2.722   2.274   1.703
   79GLOH   H08 9277   2.636   2.355   1.574
   79GLOH    C2 9278   2.532   2.187   1.658
   79GLOH   H04 9279   2.434   2.222   1.621
   79GLOH    O2 9280   2.587   2.094   1.563
   79GLOH   H05 9281   2.524   2.017   1.551
   79GLOH    C3 9282   2.512   2.121   1.796
   79GLOH   H06 9283   2.609   2.086   1.832
   79GLOH   H07 9284   2.448   2.033   1.784
   79GLOH    O3 9285   2.453   2.214   1.888
   79GLOH   H01 9286   2.485   2.303   1.858
   80GLOH   H03 9287   3.369   9.623   0.408
   80GLOH    O1 9288   3.458   9.665   0.397
   80GLOH    C1 9289   3.530   9.654   0.521
   80GLOH   H02 9290   3.469   9.693   0.603
   80GLOH   H08 9291   3.621   9.714   0.518
   80GLOH    C2 9292   3.570   9.509   0.554
   80GLOH   H04 9293   3.479   9.448   0.562
   80GLOH    O2 9294   3.656   9.454   0.452
   80GLOH   H05 9295   3.641   9.507   0.371
   80GLOH    C3 9296   3.641   9.508   0.691
   80GLOH   H06 9297   3.722   9.581   0.689
   80GLOH   H07 9298   3.686   9.410   0.706
   80GLOH    O3 9299   3.548   9.538   0.797
   80GLOH   H01 9300   3.532   9.451   0.842
   81GLOH   H03 9301   4.392   3.192   1.239
   81GLOH    O1 9302   4.462   3.259   1.217
   81GLOH    C1 9303   4.416   3.342   1.108
   81GLOH   H02 9304   4.402   3.282   1.018
   81GLOH   H08 9305   4.493   3.416   1.083
   81GLOH    C2 9306   4.285   3.417   1.139
   81GLOH   H04 9307   4.265   3.483   1.053
   81GLOH    O2 9308   4.173   3.326   1.152
   81GLOH   H05 9309   4.204   3.242   1.196
   81GLOH    C3 9310   4.303   3.507   1.263
   81GLOH   H06 9311   4.206   3.553   1.286
   81GLOH   H07 9312   4.370   3.589   1.236
   81GLOH    O3 9313   4.353   3.437   1.378
   81GLOH   H01 9314   4.421   3.372   1.347
   82GLOH   H03 9315   3.273   0.301   1.100
   82GLOH    O1 9316   3.305   0.388   1.137
   82GLOH    C1 9317   3.260   0.394   1.274
   82GLOH   H02 9318   3.154   0.374   1.278
   82GLOH   H08 9319   3.277   0.493   1.315
   82GLOH    C2 9320   3.330   0.290   1.364
   82GLOH   H04 9321   3.300   0.189   1.330
   82GLOH    O2 9322   3.473   0.303   1.354
   82GLOH   H05 9323   3.504   0.240   1.284
   82GLOH    C3 9324   3.284   0.307   1.509
   82GLOH   H06 9325   3.326   0.399   1.549
   82GLOH   H07 9326   3.325   0.226   1.569
   82GLOH    O3 9327   3.141   0.309   1.521
   82GLOH   H01 9328   3.119   0.278   1.614
   83GLOH   H03 9329   2.908   2.365   1.566
   83GLOH    O1 9330   2.882   2.460   1.578
   83GLOH    C1 9331   2.976   2.545   1.509
   83GLOH   H02 9332   3.070   2.548   1.564
   83GLOH   H08 9333   2.938   2.647   1.504
   83GLOH    C2 9334   3.007   2.497   1.366
   83GLOH   H04 9335   3.052   2.397   1.374
   83GLOH    O2 9336   2.889   2.487   1.284
   83GLOH   H05 9337   2.892   2.399   1.237
   83GLOH    C3 9338   3.112   2.590   1.302
   83GLOH   H06 9339   3.078   2.693   1.311
   83GLOH   H07 9340   3.119   2.568   1.195
   83GLOH    O3 9341   3.241   2.574   1.364
   83GLOH   H01 9342   3.284   2.663   1.374
   84GLOH   H03 9343   3.527   1.799   1.689
   84GLOH    O1 9344   3.519   1.865   1.763
   84GLOH    C1 9345   3.636   1.949   1.771
   84GLOH   H02 9346   3.702   1.933   1.686
   84GLOH   H08 9347   3.693   1.923   1.860
   84GLOH    C2 9348   3.601   2.099   1.779
   84GLOH   H04 9349   3.525   2.111   1.857
   84GLOH    O2 9350   3.718   2.176   1.817
   84GLOH   H05 9351   3.767   2.205   1.733
   84GLOH    C3 9352   3.539   2.151   1.648
   84GLOH   H06 9353   3.603   2.119   1.565
   84GLOH   H07 9354   3.541   2.260   1.649
   84GLOH    O3 9355   3.405   2.103   1.628
   84GLOH   H01 9356   3.346   2.149   1.693
   85GLOH   H03 9357   4.047   1.975   0.358
   85GLOH    O1 9358   4.100   2.059   0.362
   85GLOH    C1 9359   4.027   2.155   0.440
   85GLOH   H02 9360   4.095   2.220   0.494
   85GLOH   H08 9361   3.967   2.104   0.516
   85GLOH    C2 9362   3.932   2.242   0.356
   85GLOH   H04 9363   3.868   2.299   0.426
   85GLOH    O2 9364   4.005   2.337   0.274
   85GLOH   H05 9365   4.075   2.290   0.223
   85GLOH    C3 9366   3.839   2.155   0.269
   85GLOH   H06 9367   3.900   2.102   0.195
   85GLOH   H07 9368   3.772   2.220   0.214
   85GLOH    O3 9369   3.764   2.062   0.349
   85GLOH   H01 9370   3.819   1.981   0.364
   86GLOH   H03 9371   2.916   5.952   2.701
   86GLOH    O1 9372   2.909   6.007   2.783
   86GLOH    C1 9373   2.991   5.951   0.027
   86GLOH   H02 9374   3.083   6.008   0.039
   86GLOH   H08 9375   3.021   5.849   0.002
   86GLOH    C2 9376   2.918   5.948   0.163
   86GLOH   H04 9377   2.828   5.885   0.151
   86GLOH    O2 9378   3.001   5.892   0.267
   86GLOH   H05 9379   2.967   5.800   0.288
   86GLOH    C3 9380   2.872   6.090   0.201
   86GLOH   H06 9381   2.959   6.155   0.205
   86GLOH   H07 9382   2.830   6.087   0.302
   86GLOH    O3 9383   2.776   6.140   0.107
   86GLOH   H01 9384   2.808   6.109   0.019
   87GLOH   H03 9385   5.159   3.985   0.461
   87GLOH    O1 9386   5.084   3.963   0.402
   87GLOH    C1 9387   4.968   3.934   0.483
   87GLOH   H02 9388   4.878   3.972   0.435
   87GLOH   H08 9389   4.975   3.984   0.580
   87GLOH    C2 9390   4.953   3.783   0.506
   87GLOH   H04 9391   4.861   3.766   0.565
   87GLOH    O2 9392   4.940   3.716   0.379
   87GLOH   H05 9393   4.994   3.769   0.316
   87GLOH    C3 9394   5.072   3.727   0.586
   87GLOH   H06 9395   5.164   3.752   0.534
   87GLOH   H07 9396   5.065   3.618   0.586
   87GLOH    O3 9397   5.075   3.776   0.721
   87GLOH   H01 9398   5.011   3.719   0.772
   88GLOH   H03 9399   4.850   3.568   1.398
   88GLOH    O1 9400   4.868   3.612   1.310
   88GLOH    C1 9401   4.959   3.528   1.236
   88GLOH   H02 9402   5.024   3.473   1.305
   88GLOH   H08 9403   5.023   3.589   1.173
   88GLOH    C2 9404   4.886   3.426   1.146
   88GLOH   H04 9405   4.830   3.483   1.070
   88GLOH    O2 9406   4.983   3.341   1.081
   88GLOH   H05 9407   4.933   3.276   1.024
   88GLOH    C3 9408   4.783   3.344   1.227
   88GLOH   H06 9409   4.716   3.414   1.278
   88GLOH   H07 9410   4.837   3.290   1.305
   88GLOH    O3 9411   4.706   3.254   1.146
   88GLOH   H01 9412   4.614   3.250   1.183
   89GLOH   H03 9413   3.697   9.024   1.004
   89GLOH    O1 9414   3.616   9.077   1.027
   89GLOH    C1 9415   3.657   9.210   1.066
   89GLOH   H02 9416   3.752   9.236   1.018
   89GLOH   H08 9417   3.674   9.214   1.174
   89GLOH    C2 9418   3.554   9.318   1.029
   89GLOH   H04 9419   3.600   9.416   1.048
   89GLOH    O2 9420   3.519   9.311   0.889
   89GLOH   H05 9421   3.515   9.216   0.863
   89GLOH    C3 9422   3.428   9.309   1.117
   89GLOH   H06 9423   3.392   9.206   1.116
   89GLOH   H07 9424   3.349   9.370   1.072
   89GLOH    O3 9425   3.454   9.352   1.252
   89GLOH   H01 9426   3.431   9.449   1.259
   90GLOH   H03 9427   3.363   7.980   1.899
   90GLOH    O1 9428   3.369   8.079   1.908
   90GLOH    C1 9429   3.506   8.120   1.894
   90GLOH   H02 9430   3.547   8.084   1.800
   90GLOH   H08 9431   3.567   8.075   1.974
   90GLOH    C2 9432   3.520   8.273   1.901
   90GLOH   H04 9433   3.480   8.307   1.998
   90GLOH    O2 9434   3.659   8.312   1.892
   90GLOH   H05 9435   3.698   8.269   1.810
   90GLOH    C3 9436   3.438   8.339   1.789
   90GLOH   H06 9437   3.481   8.312   1.693
   90GLOH   H07 9438   3.445   8.447   1.799
   90GLOH    O3 9439   3.300   8.298   1.794
   90GLOH   H01 9440   3.297   8.212   1.844
   91GLOH   H03 9441   3.486   1.145   2.093
   91GLOH    O1 9442   3.557   1.190   2.146
   91GLOH    C1 9443   3.679   1.116   2.123
   91GLOH   H02 9444   3.765   1.171   2.162
   91GLOH   H08 9445   3.695   1.102   2.017
   91GLOH    C2 9446   3.676   0.977   2.189
   91GLOH   H04 9447   3.592   0.921   2.147
   91GLOH    O2 9448   3.798   0.904   2.163
   91GLOH   H05 9449   3.790   0.814   2.206
   91GLOH    C3 9450   3.654   0.991   2.341
   91GLOH   H06 9451   3.737   1.049   2.383
   91GLOH   H07 9452   3.658   0.892   2.387
   91GLOH    O3 9453   3.529   1.055   2.368
   91GLOH   H01 9454   3.521   1.129   2.304
   92GLOH   H03 9455   3.167   9.618   2.081
   92GLOH    O1 9456   3.118   9.582   2.160
   92GLOH    C1 9457   3.056   9.457   2.124
   92GLOH   H02 9458   3.021   9.409   2.215
   92GLOH   H08 9459   3.129   9.390   2.079
   92GLOH    C2 9460   2.936   9.470   2.029
   92GLOH   H04 9461   2.972   9.509   1.933
   92GLOH    O2 9462   2.879   9.339   2.009
   92GLOH   H05 9463   2.849   9.303   2.097
   92GLOH    C3 9464   2.831   9.568   2.084
   92GLOH   H06 9465   2.875   9.667   2.086
   92GLOH   H07 9466   2.811   9.540   2.188
   92GLOH    O3 9467   2.708   9.569   2.008
   92GLOH   H01 9468   2.709   9.491   1.947
   93GLOH   H03 9469   2.627   6.184   0.494
   93GLOH    O1 9470   2.653   6.197   0.589
   93GLOH    C1 9471   2.663   6.340   0.610
   93GLOH   H02 9472   2.581   6.392   0.561
   93GLOH   H08 9473   2.755   6.377   0.563
   93GLOH    C2 9474   2.665   6.382   0.758
   93GLOH   H04 9475   2.746   6.326   0.808
   93GLOH    O2 9476   2.692   6.523   0.769
   93GLOH   H05 9477   2.606   6.575   0.771
   93GLOH    C3 9478   2.532   6.348   0.829
   93GLOH   H06 9479   2.451   6.395   0.773
   93GLOH   H07 9480   2.532   6.395   0.927
   93GLOH    O3 9481   2.507   6.207   0.841
   93GLOH   H01 9482   2.590   6.163   0.873
   94GLOH   H03 9483   3.001   0.970   1.782
   94GLOH    O1 9484   2.993   0.889   1.724
   94GLOH    C1 9485   3.125   0.864   1.670
   94GLOH   H02 9486   3.189   0.819   1.746
   94GLOH   H08 9487   3.172   0.958   1.641
   94GLOH    C2 9488   3.123   0.771   1.546
   94GLOH   H04 9489   3.067   0.680   1.573
   94GLOH    O2 9490   3.059   0.836   1.434
   94GLOH   H05 9491   2.973   0.788   1.412
   94GLOH    C3 9492   3.265   0.729   1.506
   94GLOH   H06 9493   3.324   0.820   1.491
   94GLOH   H07 9494   3.260   0.680   1.409
   94GLOH    O3 9495   3.331   0.643   1.601
   94GLOH   H01 9496   3.270   0.614   1.673
   95GLOH   H03 9497   4.430   4.043   0.821
   95GLOH    O1 9498   4.485   3.996   0.752
   95GLOH    C1 9499   4.430   4.032   0.624
   95GLOH   H02 9500   4.335   4.084   0.636
   95GLOH   H08 9501   4.409   3.943   0.566
   95GLOH    C2 9502   4.525   4.122   0.542
   95GLOH   H04 9503   4.561   4.202   0.609
   95GLOH    O2 9504   4.638   4.049   0.491
   95GLOH   H05 9505   4.628   3.952   0.510
   95GLOH    C3 9506   4.447   4.189   0.427
   95GLOH   H06 9507   4.405   4.111   0.364
   95GLOH   H07 9508   4.518   4.246   0.366
   95GLOH    O3 9509   4.343   4.276   0.476
   95GLOH   H01 9510   4.257   4.249   0.435
   96GLOH   H03 9511   3.090   7.054   0.690
   96GLOH    O1 9512   3.158   7.110   0.736
   96GLOH    C1 9513   3.275   7.116   0.653
   96GLOH   H02 9514   3.326   7.019   0.652
   96GLOH   H08 9515   3.346   7.188   0.694
   96GLOH    C2 9516   3.248   7.156   0.506
   96GLOH   H04 9517   3.345   7.164   0.455
   96GLOH    O2 9518   3.167   7.057   0.438
   96GLOH   H05 9519   3.092   7.028   0.496
   96GLOH    C3 9520   3.180   7.294   0.499
   96GLOH   H06 9521   3.084   7.288   0.550
   96GLOH   H07 9522   3.158   7.316   0.394
   96GLOH    O3 9523   3.260   7.399   0.555
   96GLOH   H01 9524   3.257   7.477   0.494
   97GLOH   H03 9525   4.783   3.183   1.034
   97GLOH    O1 9526   4.839   3.167   0.953
   97GLOH    C1 9527   4.914   3.044   0.965
   97GLOH   H02 9528   5.017   3.066   0.993
   97GLOH   H08 9529   4.918   2.994   0.868
   97GLOH    C2 9530   4.858   2.942   1.067
   97GLOH   H04 9531   4.929   2.858   1.069
   97GLOH    O2 9532   4.853   2.997   1.201
   97GLOH   H05 9533   4.945   2.988   1.239
   97GLOH    C3 9534   4.722   2.886   1.022
   97GLOH   H06 9535   4.657   2.969   0.995
   97GLOH   H07 9536   4.676   2.835   1.107
   97GLOH    O3 9537   4.737   2.795   0.912
   97GLOH   H01 9538   4.796   2.721   0.943
   98GLOH   H03 9539   3.301   2.807   0.572
   98GLOH    O1 9540   3.330   2.719   0.606
   98GLOH    C1 9541   3.450   2.676   0.538
   98GLOH   H02 9542   3.529   2.750   0.553
   98GLOH   H08 9543   3.432   2.669   0.431
   98GLOH    C2 9544   3.501   2.539   0.588
   98GLOH   H04 9545   3.523   2.548   0.696
   98GLOH    O2 9546   3.403   2.435   0.568
   98GLOH   H05 9547   3.317   2.465   0.608
   98GLOH    C3 9548   3.633   2.503   0.516
   98GLOH   H06 9549   3.614   2.500   0.409
   98GLOH   H07 9550   3.661   2.401   0.545
   98GLOH    O3 9551   3.740   2.594   0.546
   98GLOH   H01 9552   3.813   2.584   0.479
   99GLOH   H03 9553   3.937   0.725   0.673
   99GLOH    O1 9554   3.943   0.670   0.756
   99GLOH    C1 9555   4.070   0.692   0.821
   99GLOH   H02 9556   4.087   0.799   0.836
   99GLOH   H08 9557   4.152   0.656   0.759
   99GLOH    C2 9558   4.077   0.623   0.959
   99GLOH   H04 9559   3.998   0.666   1.022
   99GLOH    O2 9560   4.056   0.480   0.950
   99GLOH   H05 9561   4.023   0.449   1.039
   99GLOH    C3 9562   4.212   0.652   1.026
   99GLOH   H06 9563   4.292   0.627   0.956
   99GLOH   H07 9564   4.224   0.585   1.112
   99GLOH    O3 9565   4.225   0.789   1.069
   99GLOH   H01 9566   4.257   0.787   1.163
  100GLOH   H03 9567   3.580   8.412   2.778
  100GLOH    O1 9568   3.569   8.383   0.012
  100GLOH    C1 9569   3.544   8.499   0.092
  100GLOH   H02 9570   3.638   8.546   0.121
  100GLOH   H08 9571   3.492   8.471   0.184
  100GLOH    C2 9572   3.458   8.604   0.017
  100GLOH   H04 9573   3.366   8.555   2.844
  100GLOH    O2 9574   3.424   8.714   0.104
  100GLOH   H05 9575   3.329   8.704   0.131
  100GLOH    C3 9576   3.534   8.652   2.752
  100GLOH   H06 9577   3.624   8.704   2.784
  100GLOH   H07 9578   3.471   8.725   2.699
  100GLOH    O3 9579   3.568   8.543   2.664
  100GLOH   H01 9580   3.582   8.576   2.572
  101GLOH   H03 9581   2.719   7.579   2.158
  101GLOH    O1 9582   2.801   7.633   2.172
  101GLOH    C1 9583   2.881   7.621   2.052
  101GLOH   H02 9584   2.937   7.528   2.052
  101GLOH   H08 9585   2.953   7.703   2.047
  101GLOH    C2 9586   2.793   7.626   1.925
  101GLOH   H04 9587   2.739   7.721   1.925
  101GLOH    O2 9588   2.872   7.617   1.804
  101GLOH   H05 9589   2.850   7.532   1.755
  101GLOH    C3 9590   2.689   7.512   1.930
  101GLOH   H06 9591   2.742   7.417   1.931
  101GLOH   H07 9592   2.631   7.515   1.838
  101GLOH    O3 9593   2.602   7.521   2.044
  101GLOH   H01 9594   2.535   7.448   2.031
  102GLOH   H03 9595   2.820   5.363   1.049
  102GLOH    O1 9596   2.903   5.314   1.025
  102GLOH    C1 9597   3.009   5.409   1.003
  102GLOH   H02 9598   2.967   5.508   0.984
  102GLOH   H08 9599   3.065   5.382   0.913
  102GLOH    C2 9600   3.107   5.419   1.121
  102GLOH   H04 9601   3.048   5.435   1.212
  102GLOH    O2 9602   3.185   5.298   1.138
  102GLOH   H05 9603   3.226   5.274   1.049
  102GLOH    C3 9604   3.200   5.541   1.103
  102GLOH   H06 9605   3.261   5.525   1.014
  102GLOH   H07 9606   3.268   5.545   1.188
  102GLOH    O3 9607   3.127   5.664   1.092
  102GLOH   H01 9608   3.075   5.677   1.176
  103GLOH   H03 9609   3.231   2.210   1.398
  103GLOH    O1 9610   3.175   2.149   1.452
  103GLOH    C1 9611   3.156   2.025   1.381
  103GLOH   H02 9612   3.126   2.045   1.278
  103GLOH   H08 9613   3.074   1.969   1.426
  103GLOH    C2 9614   3.279   1.933   1.379
  103GLOH   H04 9615   3.362   1.987   1.330
  103GLOH    O2 9616   3.319   1.896   1.513
  103GLOH   H05 9617   3.350   1.981   1.558
  103GLOH    C3 9618   3.244   1.810   1.293
  103GLOH   H06 9619   3.203   1.846   1.198
  103GLOH   H07 9620   3.163   1.758   1.343
  103GLOH    O3 9621   3.353   1.719   1.267
  103GLOH   H01 9622   3.308   1.634   1.242
  104GLOH   H03 9623   4.605   3.423   2.138
  104GLOH    O1 9624   4.535   3.354   2.131
  104GLOH    C1 9625   4.474   3.330   2.259
  104GLOH   H02 9626   4.424   3.419   2.296
  104GLOH   H08 9627   4.549   3.302   2.333
  104GLOH    C2 9628   4.370   3.216   2.251
  104GLOH   H04 9629   4.425   3.128   2.214
  104GLOH    O2 9630   4.316   3.183   2.381
  104GLOH   H05 9631   4.268   3.260   2.418
  104GLOH    C3 9632   4.259   3.245   2.149
  104GLOH   H06 9633   4.189   3.161   2.150
  104GLOH   H07 9634   4.304   3.246   2.049
  104GLOH    O3 9635   4.186   3.368   2.169
  104GLOH   H01 9636   4.134   3.367   2.253
  105GLOH   H03 9637   2.683   3.572   1.338
  105GLOH    O1 9638   2.755   3.517   1.297
  105GLOH    C1 9639   2.881   3.543   1.363
  105GLOH   H02 9640   2.864   3.582   1.463
  105GLOH   H08 9641   2.936   3.619   1.309
  105GLOH    C2 9642   2.969   3.417   1.374
  105GLOH   H04 9643   2.910   3.339   1.424
  105GLOH    O2 9644   3.009   3.368   1.244
  105GLOH   H05 9645   3.095   3.412   1.214
  105GLOH    C3 9646   3.091   3.447   1.463
  105GLOH   H06 9647   3.056   3.496   1.555
  105GLOH   H07 9648   3.155   3.519   1.412
  105GLOH    O3 9649   3.166   3.329   1.497
  105GLOH   H01 9650   3.263   3.349   1.485
  106GLOH   H03 9651   3.153   0.466   0.403
  106GLOH    O1 9652   3.240   0.449   0.357
  106GLOH    C1 9653   3.214   0.400   0.224
  106GLOH   H02 9654   3.109   0.410   0.199
  106GLOH   H08 9655   3.238   0.294   0.219
  106GLOH    C2 9656   3.297   0.474   0.118
  106GLOH   H04 9657   3.403   0.471   0.147
  106GLOH    O2 9658   3.281   0.411   2.849
  106GLOH   H05 9659   3.344   0.336   2.841
  106GLOH    C3 9660   3.253   0.622   0.109
  106GLOH   H06 9661   3.323   0.675   0.044
  106GLOH   H07 9662   3.261   0.667   0.208
  106GLOH    O3 9663   3.119   0.634   0.058
  106GLOH   H01 9664   3.113   0.571   2.844
  107GLOH   H03 9665   3.614   4.874   2.324
  107GLOH    O1 9666   3.549   4.910   2.257
  107GLOH    C1 9667   3.423   4.934   2.322
  107GLOH   H02 9668   3.439   4.971   2.424
  107GLOH   H08 9669   3.367   4.841   2.331
  107GLOH    C2 9670   3.337   5.036   2.246
  107GLOH   H04 9671   3.327   5.004   2.142
  107GLOH    O2 9672   3.207   5.040   2.309
  107GLOH   H05 9673   3.150   5.109   2.265
  107GLOH    C3 9674   3.405   5.175   2.249
  107GLOH   H06 9675   3.507   5.163   2.213
  107GLOH   H07 9676   3.412   5.207   2.353
  107GLOH    O3 9677   3.336   5.275   2.172
  107GLOH   H01 9678   3.238   5.264   2.185
  108GLOH   H03 9679   3.107   4.740   1.130
  108GLOH    O1 9680   3.177   4.801   1.097
  108GLOH    C1 9681   3.184   4.920   1.179
  108GLOH   H02 9682   3.258   4.989   1.138
  108GLOH   H08 9683   3.216   4.895   1.280
  108GLOH    C2 9684   3.049   4.992   1.187
  108GLOH   H04 9685   2.977   4.925   1.237
  108GLOH    O2 9686   3.060   5.113   1.264
  108GLOH   H05 9687   3.106   5.184   1.210
  108GLOH    C3 9688   2.997   5.020   1.044
  108GLOH   H06 9689   3.004   4.929   0.984
  108GLOH   H07 9690   3.063   5.093   0.998
  108GLOH    O3 9691   2.862   5.069   1.046
  108GLOH   H01 9692   2.871   5.167   1.034
  109GLOH   H03 9693   2.947   4.541   0.612
  109GLOH    O1 9694   2.918   4.503   0.699
  109GLOH    C1 9695   2.815   4.587   0.754
  109GLOH   H02 9696   2.729   4.592   0.686
  109GLOH   H08 9697   2.852   4.688   0.767
  109GLOH    C2 9698   2.767   4.535   0.890
  109GLOH   H04 9699   2.850   4.549   0.960
  109GLOH    O2 9700   2.654   4.610   0.940
  109GLOH   H05 9701   2.693   4.695   0.979
  109GLOH    C3 9702   2.737   4.384   0.883
  109GLOH   H06 9703   2.663   4.366   0.806
  109GLOH   H07 9704   2.694   4.352   0.978
  109GLOH    O3 9705   2.859   4.313   0.855
  109GLOH   H01 9706   2.904   4.369   0.786
  110GLOH   H03 9707   3.921   0.482   2.249
  110GLOH    O1 9708   3.971   0.498   2.165
  110GLOH    C1 9709   3.884   0.480   2.052
  110GLOH   H02 9710   3.822   0.391   2.065
  110GLOH   H08 9711   3.945   0.463   1.963
  110GLOH    C2 9712   3.791   0.600   2.024
  110GLOH   H04 9713   3.854   0.690   2.014
  110GLOH    O2 9714   3.717   0.581   1.901
  110GLOH   H05 9715   3.761   0.511   1.845
  110GLOH    C3 9716   3.692   0.623   2.139
  110GLOH   H06 9717   3.642   0.528   2.160
  110GLOH   H07 9718   3.615   0.692   2.106
  110GLOH    O3 9719   3.756   0.673   2.258
  110GLOH   H01 9720   3.782   0.596   2.314
  111GLOH   H03 9721   4.508   2.934   0.410
  111GLOH    O1 9722   4.547   2.999   0.345
  111GLOH    C1 9723   4.480   2.988   0.218
  111GLOH   H02 9724   4.414   2.901   0.216
  111GLOH   H08 9725   4.554   2.973   0.139
  111GLOH    C2 9726   4.397   3.113   0.184
  111GLOH   H04 9727   4.462   3.201   0.185
  111GLOH    O2 9728   4.340   3.097   0.051
  111GLOH   H05 9729   4.411   3.074   2.847
  111GLOH    C3 9730   4.286   3.131   0.290
  111GLOH   H06 9731   4.332   3.121   0.389
  111GLOH   H07 9732   4.216   3.048   0.280
  111GLOH    O3 9733   4.216   3.256   0.282
  111GLOH   H01 9734   4.133   3.245   0.336
  112GLOH   H03 9735   3.198   8.552   2.282
  112GLOH    O1 9736   3.183   8.650   2.271
  112GLOH    C1 9737   3.273   8.699   2.169
  112GLOH   H02 9738   3.371   8.652   2.179
  112GLOH   H08 9739   3.288   8.806   2.182
  112GLOH    C2 9740   3.223   8.674   2.025
  112GLOH   H04 9741   3.124   8.722   2.015
  112GLOH    O2 9742   3.313   8.734   1.930
  112GLOH   H05 9743   3.259   8.792   1.867
  112GLOH    C3 9744   3.207   8.524   1.994
  112GLOH   H06 9745   3.303   8.475   2.012
  112GLOH   H07 9746   3.187   8.514   1.887
  112GLOH    O3 9747   3.103   8.460   2.070
  112GLOH   H01 9748   3.143   8.423   2.152
  113GLOH   H03 9749   3.144   9.738   0.981
  113GLOH    O1 9750   3.136   9.647   0.944
  113GLOH    C1 9751   3.010   9.592   0.984
  113GLOH   H02 9752   2.958   9.660   1.052
  113GLOH   H08 9753   3.025   9.499   1.039
  113GLOH    C2 9754   2.916   9.563   0.865
  113GLOH   H04 9755   2.965   9.486   0.803
  113GLOH    O2 9756   2.791   9.510   0.914
  113GLOH   H05 9757   2.717   9.538   0.854
  113GLOH    C3 9758   2.895   9.688   0.778
  113GLOH   H06 9759   2.886   9.775   0.844
  113GLOH   H07 9760   2.799   9.679   0.727
  113GLOH    O3 9761   2.997   9.711   0.679
  113GLOH   H01 9762   3.078   9.752   0.720
  114GLOH   H03 9763   4.200   1.644   0.370
  114GLOH    O1 9764   4.276   1.687   0.323
  114GLOH    C1 9765   4.331   1.591   0.231
  114GLOH   H02 9766   4.361   1.500   0.284
  114GLOH   H08 9767   4.421   1.631   0.185
  114GLOH    C2 9768   4.233   1.554   0.119
  114GLOH   H04 9769   4.132   1.547   0.162
  114GLOH    O2 9770   4.232   1.658   0.018
  114GLOH   H05 9771   4.220   1.744   0.062
  114GLOH    C3 9772   4.267   1.417   0.058
  114GLOH   H06 9773   4.369   1.421   0.021
  114GLOH   H07 9774   4.202   1.400   2.832
  114GLOH    O3 9775   4.251   1.312   0.155
  114GLOH   H01 9776   4.208   1.236   0.112
  115GLOH   H03 9777   4.142   3.943   2.488
  115GLOH    O1 9778   4.099   3.873   2.434
  115GLOH    C1 9779   4.204   3.794   2.375
  115GLOH   H02 9780   4.280   3.770   2.450
  115GLOH   H08 9781   4.253   3.851   2.296
  115GLOH    C2 9782   4.155   3.661   2.314
  115GLOH   H04 9783   4.075   3.683   2.242
  115GLOH    O2 9784   4.266   3.600   2.244
  115GLOH   H05 9785   4.234   3.515   2.202
  115GLOH    C3 9786   4.099   3.567   2.423
  115GLOH   H06 9787   4.020   3.620   2.476
  115GLOH   H07 9788   4.178   3.548   2.496
  115GLOH    O3 9789   4.049   3.443   2.370
  115GLOH   H01 9790   3.956   3.460   2.338
  116GLOH   H03 9791   3.902   8.766   2.628
  116GLOH    O1 9792   3.887   8.832   2.558
  116GLOH    C1 9793   3.791   8.929   2.607
  116GLOH   H02 9794   3.714   8.879   2.667
  116GLOH   H08 9795   3.740   8.976   2.523
  116GLOH    C2 9796   3.857   9.039   2.692
  116GLOH   H04 9797   3.927   9.094   2.627
  116GLOH    O2 9798   3.758   9.132   2.741
  116GLOH   H05 9799   3.725   9.183   2.664
  116GLOH    C3 9800   3.941   8.978   2.806
  116GLOH   H06 9801   3.981   9.060   0.006
  116GLOH   H07 9802   4.027   8.926   2.763
  116GLOH    O3 9803   3.866   8.888   0.030
  116GLOH   H01 9804   3.802   8.942   0.082
  117GLOH   H03 9805   4.161   1.798   1.810
  117GLOH    O1 9806   4.084   1.848   1.848
  117GLOH    C1 9807   4.105   1.989   1.826
  117GLOH   H02 9808   4.186   2.025   1.889
  117GLOH   H08 9809   4.016   2.044   1.855
  117GLOH    C2 9810   4.138   2.026   1.679
  117GLOH   H04 9811   4.053   1.996   1.616
  117GLOH    O2 9812   4.155   2.169   1.669
  117GLOH   H05 9813   4.149   2.200   1.574
  117GLOH    C3 9814   4.265   1.955   1.630
  117GLOH   H06 9815   4.349   1.985   1.693
  117GLOH   H07 9816   4.287   1.989   1.529
  117GLOH    O3 9817   4.252   1.812   1.631
  117GLOH   H01 9818   4.191   1.788   1.555
  118GLOH   H03 9819   3.333   9.617   1.366
  118GLOH    O1 9820   3.380   9.590   1.283
  118GLOH    C1 9821   3.378   9.700   1.190
  118GLOH   H02 9822   3.291   9.763   1.206
  118GLOH   H08 9823   3.372   9.662   1.088
  118GLOH    C2 9824   3.505   9.787   1.201
  118GLOH   H04 9825   3.592   9.722   1.186
  118GLOH    O2 9826   3.506   9.889   1.099
  118GLOH   H05 9827   3.506   9.979   1.142
  118GLOH    C3 9828   3.518   9.849   1.342
  118GLOH   H06 9829   3.615   9.900   1.347
  118GLOH   H07 9830   3.522   9.768   1.415
  118GLOH    O3 9831   3.413   9.941   1.376
  118GLOH   H01 9832   3.451  10.000   1.447
  119GLOH   H03 9833   4.209   1.313   0.602
  119GLOH    O1 9834   4.151   1.309   0.682
  119GLOH    C1 9835   4.216   1.370   0.795
  119GLOH   H02 9836   4.322   1.382   0.776
  119GLOH   H08 9837   4.207   1.305   0.882
  119GLOH    C2 9838   4.156   1.508   0.831
  119GLOH   H04 9839   4.159   1.571   0.741
  119GLOH    O2 9840   4.020   1.495   0.877
  119GLOH   H05 9841   3.963   1.467   0.799
  119GLOH    C3 9842   4.242   1.576   0.939
  119GLOH   H06 9843   4.240   1.514   1.029
  119GLOH   H07 9844   4.197   1.671   0.965
  119GLOH    O3 9845   4.378   1.596   0.896
  119GLOH   H01 9846   4.437   1.551   0.963
  120GLOH   H03 9847   4.225   1.968   0.589
  120GLOH    O1 9848   4.202   2.006   0.678
  120GLOH    C1 9849   4.274   1.931   0.777
  120GLOH   H02 9850   4.217   1.844   0.808
  120GLOH   H08 9851   4.289   1.993   0.867
  120GLOH    C2 9852   4.413   1.885   0.728
  120GLOH   H04 9853   4.471   1.973   0.698
  120GLOH    O2 9854   4.483   1.816   0.834
  120GLOH   H05 9855   4.439   1.729   0.855
  120GLOH    C3 9856   4.398   1.793   0.605
  120GLOH   H06 9857   4.343   1.704   0.634
  120GLOH   H07 9858   4.497   1.761   0.573
  120GLOH    O3 9859   4.330   1.861   0.497
  120GLOH   H01 9860   4.317   1.796   0.423
  121ACOH    H4 9861   4.838   1.114   0.428
  121ACOH    O2 9862   4.904   1.069   0.369
  121ACOH    C2 9863   4.899   1.131   0.250
  121ACOH    O1 9864   4.817   1.214   0.215
  121ACOH    C1 9865   5.005   1.079   0.160
  121ACOH    H1 9866   4.960   1.039   0.070
  121ACOH    H2 9867   5.062   1.001   0.209
  121ACOH    H3 9868   5.072   1.160   0.133
  122ACOH    H4 9869   3.581   7.730   0.730
  122ACOH    O2 9870   3.591   7.644   0.680
  122ACOH    C2 9871   3.550   7.545   0.762
  122ACOH    O1 9872   3.472   7.556   0.855
  122ACOH    C1 9873   3.588   7.413   0.707
  122ACOH    H1 9874   3.501   7.367   0.661
  122ACOH    H2 9875   3.623   7.349   0.788
  122ACOH    H3 9876   3.667   7.423   0.633
  123ACOH    H4 9877   4.074   0.595   2.124
  123ACOH    O2 9878   4.139   0.659   2.084
  123ACOH    C2 9879   4.142   0.766   2.167
  123ACOH    O1 9880   4.083   0.779   2.272
  123ACOH    C1 9881   4.233   0.870   2.115
  123ACOH    H1 9882   4.288   0.835   2.028
  123ACOH    H2 9883   4.303   0.900   2.192
  123ACOH    H3 9884   4.174   0.957   2.086
  124ACOH    H4 9885   4.543   2.698   2.850
  124ACOH    O2 9886   4.629   2.745   0.012
  124ACOH    C2 9887   4.654   2.724   0.142
  124ACOH    O1 9888   4.581   2.666   0.221
  124ACOH    C1 9889   4.781   2.786   0.185
  124ACOH    H1 9890   4.845   2.710   0.232
  124ACOH    H2 9891   4.761   2.864   0.258
  124ACOH    H3 9892   4.834   2.829   0.101
  125ACOH    H4 9893   5.490   9.316   1.711
  125ACOH    O2 9894   5.394   9.330   1.704
  125ACOH    C2 9895   5.339   9.207   1.701
  125ACOH    O1 9896   5.399   9.102   1.706
  125ACOH    C1 9897   5.191   9.216   1.691
  125ACOH    H1 9898   5.147   9.117   1.691
  125ACOH    H2 9899   5.164   9.267   1.599
  125ACOH    H3 9900   5.153   9.273   1.775
  126ACOH    H4 9901   4.092   0.429   0.812
  126ACOH    O2 9902   4.125   0.399   0.723
  126ACOH    C2 9903   4.018   0.358   0.653
  126ACOH    O1 9904   3.905   0.339   0.695
  126ACOH    C1 9905   4.056   0.322   0.514
  126ACOH    H1 9906   3.971   0.283   0.458
  126ACOH    H2 9907   4.134   0.246   0.517
  126ACOH    H3 9908   4.095   0.410   0.464
  127ACOH    H4 9909   3.105   2.270   0.251
  127ACOH    O2 9910   3.148   2.291   0.163
  127ACOH    C2 9911   3.157   2.425   0.156
  127ACOH    O1 9912   3.121   2.506   0.240
  127ACOH    C1 9913   3.219   2.466   0.028
  127ACOH    H1 9914   3.158   2.431   2.805
  127ACOH    H2 9915   3.318   2.421   0.020
  127ACOH    H3 9916   3.228   2.574   0.022
  128ACOH    H4 9917   2.534   4.587   1.719
  128ACOH    O2 9918   2.536   4.657   1.789
  128ACOH    C2 9919   2.509   4.596   1.906
  128ACOH    O1 9920   2.480   4.478   1.921
  128ACOH    C1 9921   2.512   4.694   2.017
  128ACOH    H1 9922   2.445   4.776   1.994
  128ACOH    H2 9923   2.613   4.732   2.029
  128ACOH    H3 9924   2.480   4.648   2.110
  129ACOH    H4 9925   2.515   1.221   0.835
  129ACOH    O2 9926   2.468   1.247   0.751
  129ACOH    C2 9927   2.337   1.233   0.775
  129ACOH    O1 9928   2.284   1.203   0.881
  129ACOH    C1 9929   2.260   1.260   0.651
  129ACOH    H1 9930   2.153   1.247   0.669
  129ACOH    H2 9931   2.291   1.192   0.573
  129ACOH    H3 9932   2.278   1.363   0.619
  130ACOH    H4 9933   4.637   3.996   0.762
  130ACOH    O2 9934   4.736   3.992   0.773
  130ACOH    C2 9935   4.767   4.070   0.877
  130ACOH    O1 9936   4.690   4.118   0.958
  130ACOH    C1 9937   4.915   4.080   0.890
  130ACOH    H1 9938   4.942   4.138   0.977
  130ACOH    H2 9939   4.956   4.126   0.801
  130ACOH    H3 9940   4.957   3.980   0.900
  131ACOH    H4 9941   5.132   3.359   1.081
  131ACOH    O2 9942   5.230   3.376   1.081
  131ACOH    C2 9943   5.290   3.258   1.105
  131ACOH    O1 9944   5.237   3.151   1.130
  131ACOH    C1 9945   5.438   3.274   1.104
  131ACOH    H1 9946   5.469   3.301   1.003
  131ACOH    H2 9947   5.487   3.182   1.134
  131ACOH    H3 9948   5.466   3.354   1.172
  132ACOH    H4 9949   4.745   1.748   0.443
  132ACOH    O2 9950   4.755   1.696   0.527
  132ACOH    C2 9951   4.775   1.782   0.629
  132ACOH    O1 9952   4.763   1.903   0.627
  132ACOH    C1 9953   4.805   1.708   0.753
  132ACOH    H1 9954   4.892   1.645   0.738
  132ACOH    H2 9955   4.720   1.645   0.780
  132ACOH    H3 9956   4.824   1.777   0.836
  133ACOH    H4 9957   4.130   5.010   1.184
  133ACOH    O2 9958   4.229   5.021   1.177
  133ACOH    C2 9959   4.267   4.952   1.068
  133ACOH    O1 9960   4.199   4.872   1.005
  133ACOH    C1 9961   4.412   4.969   1.044
  133ACOH    H1 9962   4.431   5.072   1.015
  133ACOH    H2 9963   4.447   4.903   0.965
  133ACOH    H3 9964   4.467   4.947   1.135
  134ACOH    H4 9965   3.021   5.784   1.895
  134ACOH    O2 9966   3.080   5.765   1.974
  134ACOH    C2 9967   3.036   5.651   2.029
  134ACOH    O1 9968   2.946   5.580   1.989
  134ACOH    C1 9969   3.116   5.618   2.149
  134ACOH    H1 9970   3.109   5.700   2.221
  134ACOH    H2 9971   3.221   5.606   2.121
  134ACOH    H3 9972   3.081   5.526   2.195
  135ACOH    H4 9973   2.824   6.272   1.492
  135ACOH    O2 9974   2.813   6.307   1.586
  135ACOH    C2 9975   2.776   6.436   1.574
  135ACOH    O1 9976   2.781   6.505   1.473
  135ACOH    C1 9977   2.741   6.490   1.707
  135ACOH    H1 9978   2.822   6.472   1.776
  135ACOH    H2 9979   2.651   6.440   1.743
  135ACOH    H3 9980   2.721   6.597   1.701
  136ACOH    H4 9981   4.336   4.179   2.152
  136ACOH    O2 9982   4.434   4.161   2.156
  136ACOH    C2 9983   4.458   4.097   2.272
  136ACOH    O1 9984   4.379   4.074   2.362
  136ACOH    C1 9985   4.602   4.061   2.281
  136ACOH    H1 9986   4.626   3.990   2.203
  136ACOH    H2 9987   4.624   4.017   2.378
  136ACOH    H3 9988   4.662   4.150   2.268
  137ACOH    H4 9989   2.691   9.973   0.548
  137ACOH    O2 9990   2.606   0.019   0.524
  137ACOH    C2 9991   2.507   9.952   0.587
  137ACOH    O1 9992   2.517   9.848   0.649
  137ACOH    C1 9993   2.377   0.020   0.566
  137ACOH    H1 9994   2.357   0.027   0.459
  137ACOH    H2 9995   2.382   0.121   0.607
  137ACOH    H3 9996   2.297   9.965   0.614
  138ACOH    H4 9997   4.089   0.990   0.662
  138ACOH    O2 9998   4.131   0.919   0.606
  138ACOH    C2 9999   4.104   0.951   0.478
  138ACOH    O110000   4.064   1.058   0.436
  138ACOH    C110001   4.146   0.840   0.389
  138ACOH    H110002   4.138   0.870   0.284
  138ACOH    H210003   4.081   0.755   0.406
  138ACOH    H310004   4.248   0.812   0.411
  139ACOH    H410005   3.913   8.865   2.412
  139ACOH    O210006   3.933   8.871   2.315
  139ACOH    C210007   3.950   9.002   2.287
  139ACOH    O110008   3.940   9.096   2.363
  139ACOH    C110009   3.990   9.018   2.145
  139ACOH    H110010   4.005   9.124   2.121
  139ACOH    H210011   3.914   8.978   2.080
  139ACOH    H310012   4.083   8.965   2.128
  140ACOH    H410013   3.405   5.384   2.097
  140ACOH    O210014   3.435   5.456   2.036
  140ACOH    C210015   3.531   5.403   1.958
  140ACOH    O110016   3.593   5.300   1.979
  140ACOH    C110017   3.561   5.492   1.844
  140ACOH    H110018   3.473   5.501   1.781
  140ACOH    H210019   3.644   5.453   1.786
  140ACOH    H310020   3.587   5.591   1.882
  141ACOH    H410021   4.629   1.297   0.320
  141ACOH    O210022   4.582   1.341   0.395
  141ACOH    C210023   4.652   1.308   0.505
  141ACOH    O110024   4.728   1.213   0.516
  141ACOH    C110025   4.610   1.389   0.622
  141ACOH    H110026   4.659   1.355   0.712
  141ACOH    H210027   4.503   1.383   0.635
  141ACOH    H310028   4.638   1.493   0.604
  142ACOH    H410029   3.785   0.042   2.054
  142ACOH    O210030   3.858   0.084   2.108
  142ACOH    C210031   3.943   0.140   2.020
  142ACOH    O110032   3.921   0.170   1.905
  142ACOH    C110033   4.065   0.185   2.092
  142ACOH    H110034   4.036   0.249   2.174
  142ACOH    H210035   4.131   0.240   2.025
  142ACOH    H310036   4.118   0.099   2.131
  143ACOH    H410037   2.422   6.157   0.723
  143ACOH    O210038   2.363   6.097   0.669
  143ACOH    C210039   2.314   6.169   0.567
  143ACOH    O110040   2.341   6.283   0.536
  143ACOH    C110041   2.220   6.085   0.488
  143ACOH    H110042   2.138   6.054   0.551
  143ACOH    H210043   2.272   5.997   0.451
  143ACOH    H310044   2.180   6.141   0.404
  144ACOH    H410045   4.657   3.746   2.011
  144ACOH    O210046   4.744   3.775   2.049
  144ACOH    C210047   4.811   3.666   2.088
  144ACOH    O110048   4.774   3.550   2.078
  144ACOH    C110049   4.942   3.701   2.148
  144ACOH    H110050   4.946   3.663   2.250
  144ACOH    H210051   4.955   3.809   2.151
  144ACOH    H310052   5.022   3.658   2.090
  145ACOH    H410053   3.863   8.405   0.344
  145ACOH    O210054   3.856   8.307   0.325
  145ACOH    C210055   3.873   8.242   0.442
  145ACOH    O110056   3.897   8.291   0.550
  145ACOH    C110057   3.856   8.096   0.422
  145ACOH    H110058   3.931   8.060   0.352
  145ACOH    H210059   3.757   8.077   0.381
  145ACOH    H310060   3.866   8.043   0.516
  146ACOH    H410061   4.224   4.320   1.248
  146ACOH    O210062   4.222   4.420   1.259
  146ACOH    C210063   4.301   4.469   1.162
  146ACOH    O110064   4.353   4.408   1.071
  146ACOH    C110065   4.314   4.616   1.178
  146ACOH    H110066   4.216   4.661   1.172
  146ACOH    H210067   4.377   4.657   1.099
  146ACOH    H310068   4.358   4.638   1.274
  147ACOH    H410069   3.792   8.359   1.263
  147ACOH    O210070   3.886   8.380   1.241
  147ACOH    C210071   3.956   8.365   1.355
  147ACOH    O110072   3.915   8.320   1.460
  147ACOH    C110073   4.096   8.409   1.335
  147ACOH    H110074   4.097   8.513   1.303
  147ACOH    H210075   4.143   8.348   1.259
  147ACOH    H310076   4.153   8.400   1.428
  148ACOH    H410077   5.295   3.090   1.537
  148ACOH    O210078   5.377   3.144   1.517
  148ACOH    C210079   5.361   3.264   1.575
  148ACOH    O110080   5.267   3.301   1.642
  148ACOH    C110081   5.477   3.353   1.548
  148ACOH    H110082   5.550   3.302   1.484
  148ACOH    H210083   5.525   3.379   1.642
  148ACOH    H310084   5.443   3.443   1.498
  149ACOH    H410085   5.166   3.881   0.771
  149ACOH    O210086   5.227   3.947   0.815
  149ACOH    C210087   5.291   4.014   0.718
  149ACOH    O110088   5.270   4.009   0.598
  149ACOH    C110089   5.392   4.105   0.777
  149ACOH    H110090   5.344   4.173   0.846
  149ACOH    H210091   5.443   4.162   0.699
  149ACOH    H310092   5.465   4.045   0.831
  150ACOH    H410093   2.871   6.138   2.262
  150ACOH    O210094   2.955   6.161   2.214
  150ACOH    C210095   2.923   6.175   2.084
  150ACOH    O110096   2.827   6.125   2.028
  150ACOH    C110097   3.035   6.237   2.009
  150ACOH    H110098   3.126   6.183   2.031
  150ACOH    H210099   3.046   6.340   2.041
  150ACOH    H310100   3.018   6.234   1.902
  151ACOH    H410101   2.488   5.002   0.688
  151ACOH    O210102   2.403   5.002   0.637
  151ACOH    C210103   2.403   4.892   0.559
  151ACOH    O110104   2.474   4.794   0.572
  151ACOH    C110105   2.289   4.894   0.463
  151ACOH    H110106   2.215   4.821   0.493
  151ACOH    H210107   2.325   4.870   0.364
  151ACOH    H310108   2.243   4.993   0.461
  152ACOH    H410109   2.518   0.926   0.601
  152ACOH    O210110   2.469   0.898   0.683
  152ACOH    C210111   2.340   0.891   0.647
  152ACOH    O110112   2.294   0.919   0.537
  152ACOH    C110113   2.253   0.848   0.759
  152ACOH    H110114   2.185   0.929   0.785
  152ACOH    H210115   2.312   0.822   0.846
  152ACOH    H310116   2.194   0.762   0.729
  153ACOH    H410117   5.073   2.792   1.269
  153ACOH    O210118   5.054   2.694   1.267
  153ACOH    C210119   5.056   2.652   1.395
  153ACOH    O110120   5.079   2.720   1.493
  153ACOH    C110121   5.026   2.507   1.405
  153ACOH    H110122   4.933   2.494   1.460
  153ACOH    H210123   5.105   2.457   1.459
  153ACOH    H310124   5.015   2.462   1.307
  154ACOH    H410125   3.502   0.977   1.214
  154ACOH    O210126   3.477   1.062   1.258
  154ACOH    C210127   3.475   1.156   1.162
  154ACOH    O110128   3.521   1.148   1.050
  154ACOH    C110129   3.418   1.282   1.215
  154ACOH    H110130   3.315   1.265   1.245
  154ACOH    H210131   3.420   1.360   1.140
  154ACOH    H310132   3.475   1.315   1.301
  155ACOH    H410133   2.802   6.733   1.952
  155ACOH    O210134   2.845   6.784   1.879
  155ACOH    C210135   2.963   6.725   1.852
  155ACOH    O110136   3.007   6.624   1.904
  155ACOH    C110137   3.032   6.791   1.740
  155ACOH    H110138   3.032   6.726   1.653
  155ACOH    H210139   3.135   6.813   1.768
  155ACOH    H310140   2.982   6.885   1.714
  156ACOH    H410141   4.045   0.913   2.382
  156ACOH    O210142   4.035   0.981   2.452
  156ACOH    C210143   4.059   1.101   2.396
  156ACOH    O110144   4.086   1.124   2.280
  156ACOH    C110145   4.049   1.209   2.498
  156ACOH    H110146   4.066   1.306   2.453
  156ACOH    H210147   4.124   1.192   2.575
  156ACOH    H310148   3.951   1.207   2.543
  157ACOH    H410149   4.632   3.009   1.963
  157ACOH    O210150   4.632   2.909   1.969
  157ACOH    C210151   4.719   2.863   1.878
  157ACOH    O110152   4.790   2.928   1.804
  157ACOH    C110153   4.723   2.715   1.880
  157ACOH    H110154   4.797   2.677   1.810
  157ACOH    H210155   4.626   2.676   1.854
  157ACOH    H310156   4.749   2.682   1.981
  158ACOH    H410157   3.263   5.335   1.559
  158ACOH    O210158   3.276   5.329   1.658
  158ACOH    C210159   3.172   5.390   1.718
  158ACOH    O110160   3.084   5.457   1.665
  158ACOH    C110161   3.183   5.379   1.865
  158ACOH    H110162   3.214   5.475   1.906
  158ACOH    H210163   3.255   5.303   1.893
  158ACOH    H310164   3.086   5.353   1.907
  159ACOH    H410165   2.371   0.342   0.990
  159ACOH    O210166   2.371   0.252   0.946
  159ACOH    C210167   2.328   0.164   1.038
  159ACOH    O110168   2.315   0.183   1.158
  159ACOH    C110169   2.309   0.031   0.976
  159ACOH    H110170   2.401   9.999   0.927
  159ACOH    H210171   2.230   0.037   0.902
  159ACOH    H310172   2.282   9.957   1.051
  160ACOH    H410173   2.922   6.639   1.030
  160ACOH    O210174   3.011   6.681   1.027
  160ACOH    C210175   3.044   6.712   1.153
  160ACOH    O110176   2.968   6.723   1.248
  160ACOH    C110177   3.186   6.751   1.164
  160ACOH    H110178   3.236   6.684   1.234
  160ACOH    H210179   3.194   6.853   1.201
  160ACOH    H310180   3.235   6.744   1.067
  161ACOH    H410181   3.419   5.763   0.689
  161ACOH    O210182   3.513   5.794   0.683
  161ACOH    C210183   3.591   5.689   0.715
  161ACOH    O110184   3.556   5.574   0.728
  161ACOH    C110185   3.733   5.729   0.730
  161ACOH    H110186   3.747   5.833   0.703
  161ACOH    H210187   3.796   5.667   0.666
  161ACOH    H310188   3.764   5.714   0.833
  162ACOH    H410189   3.831   8.068   1.128
  162ACOH    O210190   3.922   8.059   1.165
  162ACOH    C210191   4.006   8.105   1.072
  162ACOH    O110192   3.976   8.157   0.966
  162ACOH    C110193   4.148   8.086   1.111
  162ACOH    H110194   4.196   8.018   1.042
  162ACOH    H210195   4.154   8.044   1.212
  162ACOH    H310196   4.199   8.182   1.109
  163SOL     OW10197   2.463   5.162   1.172
  163SOL    HW110198   2.404   5.174   1.252
  163SOL    HW210199   2.553   5.129   1.202
  164SOL     OW10200   2.662   9.373   1.821
  164SOL    HW110201   2.681   9.362   1.724
  164SOL    HW210202   2.681   9.287   1.869
  165SOL     OW10203   3.936   2.576   0.370
  165SOL    HW110204   3.962   2.485   0.337
  165SOL    HW210205   3.942   2.641   0.295
  166SOL     OW10206   3.459   9.102   0.670
  166SOL    HW110207   3.392   9.177   0.669
  166SOL    HW210208   3.533   9.124   0.607
  167SOL     OW10209   2.309   6.952   1.050
  167SOL    HW110210   2.251   6.981   1.127
  167SOL    HW210211   2.344   7.033   1.002
  168SOL     OW10212   3.569   8.761   1.859
  168SOL    HW110213   3.612   8.679   1.823
  168SOL    HW210214   3.477   8.739   1.892
  169SOL     OW10215   2.380   3.779   1.636
  169SOL    HW110216   2.364   3.682   1.615
  169SOL    HW210217   2.394   3.829   1.551
  170SOL     OW10218   2.852   6.082   1.737
  170SOL    HW110219   2.835   6.107   1.832
  170SOL    HW210220   2.840   6.162   1.678
  171SOL     OW10221   3.583   2.581   1.159
  171SOL    HW110222   3.541   2.506   1.108
  171SOL    HW210223   3.560   2.668   1.115
  172SOL     OW10224   3.727   3.037   0.652
  172SOL    HW110225   3.650   3.044   0.715
  172SOL    HW210226   3.726   3.116   0.590
  173SOL     OW10227   3.673   3.103   1.833
  173SOL    HW110228   3.639   3.020   1.876
  173SOL    HW210229   3.614   3.128   1.756
  174SOL     OW10230   2.527   0.322   1.298
  174SOL    HW110231   2.445   0.282   1.257
  174SOL    HW210232   2.520   0.422   1.298
  175SOL     OW10233   3.739   1.518   2.008
  175SOL    HW110234   3.640   1.523   2.010
  175SOL    HW210235   3.776   1.598   1.961
  176SOL     OW10236   2.817   3.558   1.043
  176SOL    HW110237   2.782   3.526   1.131
  176SOL    HW210238   2.904   3.605   1.057
  177SOL     OW10239   3.334   7.413   1.067
  177SOL    HW110240   3.392   7.462   1.003
  177SOL    HW210241   3.292   7.335   1.021
  178SOL     OW10242   2.663   5.301   0.816
  178SOL    HW110243   2.669   5.334   0.910
  178SOL    HW210244   2.610   5.367   0.761
  179SOL     OW10245   3.149   4.061   0.715
  179SOL    HW110246   3.089   3.981   0.720
  179SOL    HW210247   3.219   4.054   0.786
  180SOL     OW10248   3.509   4.469   1.840
  180SOL    HW110249   3.545   4.563   1.840
  180SOL    HW210250   3.416   4.470   1.878
  181SOL     OW10251   2.488   4.941   1.005
  181SOL    HW110252   2.465   5.026   1.053
  181SOL    HW210253   2.506   4.868   1.071
  182SOL     OW10254   2.300   8.796   2.250
  182SOL    HW110255   2.220   8.782   2.309
  182SOL    HW210256   2.320   8.713   2.200
  183SOL     OW10257   3.016   9.820   1.893
  183SOL    HW110258   3.023   9.891   1.964
  183SOL    HW210259   3.094   9.758   1.900
  184SOL     OW10260   3.604   5.015   1.960
  184SOL    HW110261   3.606   5.113   1.980
  184SOL    HW210262   3.673   4.968   2.015
  185SOL     OW10263   3.157   2.735   1.725
  185SOL    HW110264   3.178   2.639   1.739
  185SOL    HW210265   3.238   2.791   1.743
  186SOL     OW10266   3.207   3.052   2.047
  186SOL    HW110267   3.245   3.133   2.093
  186SOL    HW210268   3.211   3.064   1.948
  187SOL     OW10269   3.169   9.987   0.322
  187SOL    HW110270   3.158   9.937   0.236
  187SOL    HW210271   3.082   0.030   0.347
  188SOL     OW10272   3.744   4.284   1.046
  188SOL    HW110273   3.747   4.194   1.088
  188SOL    HW210274   3.712   4.277   0.952
  189SOL     OW10275   2.762   9.935   2.137
  189SOL    HW110276   2.715   9.849   2.161
  189SOL    HW210277   2.731   9.965   2.047
  190SOL     OW10278   2.804   9.311   1.309
  190SOL    HW110279   2.790   9.226   1.258
  190SOL    HW210280   2.754   9.306   1.395
  191SOL     OW10281   2.981   3.836   0.679
  191SOL    HW110282   2.952   3.748   0.716
  191SOL    HW210283   2.900   3.893   0.662
  192SOL     OW10284   4.456   3.802   1.095
  192SOL    HW110285   4.517   3.758   1.161
  192SOL    HW210286   4.484   3.776   1.002
  193SOL     OW10287   4.239   2.553   1.692
  193SOL    HW110288   4.222   2.479   1.757
  193SOL    HW210289   4.166   2.620   1.697
  194SOL     OW10290   2.957   8.366   1.870
  194SOL    HW110291   3.007   8.391   1.952
  194SOL    HW210292   2.951   8.446   1.809
  195SOL     OW10293   4.519   2.173   1.177
  195SOL    HW110294   4.610   2.213   1.186
  195SOL    HW210295   4.473   2.173   1.266
  196SOL     OW10296   4.600   3.786   0.514
  196SOL    HW110297   4.518   3.783   0.456
  196SOL    HW210298   4.656   3.706   0.496
  197SOL     OW10299   3.339   8.109   2.171
  197SOL    HW110300   3.257   8.063   2.206
  197SOL    HW210301   3.345   8.097   2.072
  198SOL     OW10302   4.150   1.959   1.260
  198SOL    HW110303   4.126   1.890   1.328
  198SOL    HW210304   4.078   2.029   1.257
  199SOL     OW10305   2.466   8.731   1.113
  199SOL    HW110306   2.511   8.724   1.024
  199SOL    HW210307   2.450   8.639   1.149
  200SOL     OW10308   3.715   1.240   1.458
  200SOL    HW110309   3.728   1.154   1.410
  200SOL    HW210310   3.679   1.223   1.550
  201SOL     OW10311   3.649   2.263   0.849
  201SOL    HW110312   3.686   2.185   0.899
  201SOL    HW210313   3.589   2.316   0.908
  202SOL     OW10314   3.585   9.914   0.368
  202SOL    HW110315   3.533   9.829   0.364
  202SOL    HW210316   3.576   9.954   0.459
  203SOL     OW10317   4.283   3.508   0.362
  203SOL    HW110318   4.264   3.418   0.323
  203SOL    HW210319   4.273   3.503   0.462
  204SOL     OW10320   3.037   3.131   1.594
  204SOL    HW110321   3.088   3.205   1.550
  204SOL    HW210322   2.954   3.168   1.637
  205SOL     OW10323   2.560   2.509   0.311
  205SOL    HW110324   2.627   2.455   0.361
  205SOL    HW210325   2.538   2.592   0.362
  206SOL     OW10326   3.815   1.285   1.882
  206SOL    HW110327   3.898   1.247   1.923
  206SOL    HW210328   3.792   1.371   1.927
  207SOL     OW10329   2.241   2.062   1.960
  207SOL    HW110330   2.319   2.120   1.936
  207SOL    HW210331   2.179   2.058   1.882
  208SOL     OW10332   2.406   3.109   1.745
  208SOL    HW110333   2.310   3.108   1.717
  208SOL    HW210334   2.438   3.015   1.760
  209SOL     OW10335   2.580   1.373   0.528
  209SOL    HW110336   2.538   1.337   0.611
  209SOL    HW210337   2.515   1.434   0.482
  210SOL     OW10338   2.560   9.207   0.771
  210SOL    HW110339   2.585   9.246   0.860
  210SOL    HW210340   2.462   9.215   0.757
  211SOL     OW10341   3.767   0.994   0.723
  211SOL    HW110342   3.729   0.952   0.805
  211SOL    HW210343   3.853   1.041   0.746
  212SOL     OW10344   4.370   3.769   0.366
  212SOL    HW110345   4.337   3.676   0.351
  212SOL    HW210346   4.294   3.829   0.391
  213SOL     OW10347   2.323   7.641   2.328
  213SOL    HW110348   2.292   7.717   2.270
  213SOL    HW210349   2.383   7.676   2.399
  214SOL     OW10350   2.817   6.013   0.687
  214SOL    HW110351   2.899   6.003   0.630
  214SOL    HW210352   2.756   6.081   0.646
  215SOL     OW10353   3.673   1.553   1.022
  215SOL    HW110354   3.678   1.477   0.957
  215SOL    HW210355   3.683   1.517   1.115
  216SOL     OW10356   2.763   7.293   1.190
  216SOL    HW110357   2.803   7.206   1.161
  216SOL    HW210358   2.806   7.368   1.139
  217SOL     OW10359   4.540   3.506   1.778
  217SOL    HW110360   4.625   3.458   1.795
  217SOL    HW210361   4.525   3.574   1.851
  218SOL     OW10362   2.639   3.391   2.160
  218SOL    HW110363   2.631   3.295   2.134
  218SOL    HW210364   2.613   3.403   2.256
  219SOL     OW10365   3.558   8.524   1.493
  219SOL    HW110366   3.553   8.621   1.519
  219SOL    HW210367   3.466   8.488   1.478
  220SOL     OW10368   4.079   2.646   2.065
  220SOL    HW110369   4.001   2.645   2.003
  220SOL    HW210370   4.148   2.708   2.030
  221SOL     OW10371   2.730   4.305   1.247
  221SOL    HW110372   2.702   4.216   1.209
  221SOL    HW210373   2.658   4.372   1.232
  222SOL     OW10374   3.062   9.225   0.501
  222SOL    HW110375   3.099   9.224   0.408
  222SOL    HW210376   3.005   9.306   0.513
  223SOL     OW10377   3.303   8.278   0.702
  223SOL    HW110378   3.394   8.301   0.736
  223SOL    HW210379   3.240   8.267   0.780
  224SOL     OW10380   3.772   4.540   2.390
  224SOL    HW110381   3.696   4.480   2.364
  224SOL    HW210382   3.830   4.493   2.456
  225SOL     OW10383   2.555   6.902   2.396
  225SOL    HW110384   2.605   6.980   2.358
  225SOL    HW210385   2.477   6.880   2.338
  226SOL     OW10386   3.526   4.452   1.094
  226SOL    HW110387   3.609   4.397   1.097
  226SOL    HW210388   3.522   4.502   1.008
  227SOL     OW10389   3.085   2.405   2.160
  227SOL    HW110390   3.087   2.351   2.244
  227SOL    HW210391   3.010   2.373   2.102
  228SOL     OW10392   2.622   7.562   0.934
  228SOL    HW110393   2.619   7.541   0.836
  228SOL    HW210394   2.711   7.535   0.971
  229SOL     OW10395   3.009   9.258   1.791
  229SOL    HW110396   2.946   9.294   1.860
  229SOL    HW210397   3.083   9.208   1.836
  230SOL     OW10398   3.450   4.552   2.418
  230SOL    HW110399   3.439   4.625   2.351
  230SOL    HW210400   3.484   4.470   2.372
  231SOL     OW10401   2.403   8.112   0.376
  231SOL    HW110402   2.445   8.142   0.461
  231SOL    HW210403   2.386   8.192   0.318
  232SOL     OW10404   2.433   5.895   1.171
  232SOL    HW110405   2.527   5.888   1.139
  232SOL    HW210406   2.430   5.891   1.270
  233SOL     OW10407   2.423   8.518   1.949
  233SOL    HW110408   2.383   8.477   1.868
  233SOL    HW210409   2.492   8.456   1.987
  234SOL     OW10410   2.902   0.871   1.069
  234SOL    HW110411   2.979   0.818   1.034
  234SOL    HW210412   2.831   0.808   1.100
  235SOL     OW10413   4.047   3.149   1.455
  235SOL    HW110414   3.950   3.147   1.428
  235SOL    HW210415   4.064   3.080   1.525
  236SOL     OW10416   2.663   8.074   1.664
  236SOL    HW110417   2.692   7.980   1.650
  236SOL    HW210418   2.714   8.114   1.739
  237SOL     OW10419   2.391   3.511   1.568
  237SOL    HW110420   2.430   3.440   1.510
  237SOL    HW210421   2.386   3.479   1.662
  238SOL     OW10422   3.059   2.524   0.932
  238SOL    HW110423   3.100   2.528   0.841
  238SOL    HW210424   3.049   2.617   0.969
  239SOL     OW10425   2.463   3.728   2.395
  239SOL    HW110426   2.465   3.821   2.360
  239SOL    HW210427   2.374   3.687   2.375
  240SOL     OW10428   3.648   1.335   0.858
  240SOL    HW110429   3.577   1.362   0.792
  240SOL    HW210430   3.617   1.257   0.912
  241SOL     OW10431   3.949   4.467   1.098
  241SOL    HW110432   3.875   4.408   1.066
  241SOL    HW210433   3.965   4.451   1.196
  242SOL     OW10434   2.527   0.243   0.370
  242SOL    HW110435   2.555   0.319   0.429
  242SOL    HW210436   2.556   0.157   0.412
  243SOL     OW10437   4.181   2.482   1.245
  243SOL    HW110438   4.141   2.557   1.193
  243SOL    HW210439   4.246   2.432   1.188
  244SOL     OW10440   3.380   1.070   2.008
  244SOL    HW110441   3.296   1.026   2.040
  244SOL    HW210442   3.392   1.052   1.910
  245SOL     OW10443   3.962   1.401   1.118
  245SOL    HW110444   3.972   1.438   1.027
  245SOL    HW210445   3.866   1.406   1.146
  246SOL     OW10446   3.490   1.697   1.553
  246SOL    HW110447   3.413   1.760   1.537
  246SOL    HW210448   3.546   1.692   1.470
  247SOL     OW10449   2.618   2.400   0.718
  247SOL    HW110450   2.566   2.484   0.730
  247SOL    HW210451   2.690   2.395   0.786
  248SOL     OW10452   3.795   1.423   2.258
  248SOL    HW110453   3.716   1.371   2.289
  248SOL    HW210454   3.780   1.455   2.165
  249SOL     OW10455   3.192   1.517   1.234
  249SOL    HW110456   3.107   1.510   1.182
  249SOL    HW210457   3.171   1.509   1.332
  250SOL     OW10458   3.850   1.261   0.470
  250SOL    HW110459   3.921   1.192   0.454
  250SOL    HW210460   3.762   1.216   0.487
  251SOL     OW10461   2.370   5.762   0.928
  251SOL    HW110462   2.372   5.814   1.013
  251SOL    HW210463   2.293   5.698   0.930
  252SOL     OW10464   4.884   2.604   1.009
  252SOL    HW110465   4.947   2.608   1.087
  252SOL    HW210466   4.861   2.509   0.989
  253SOL     OW10467   3.597   8.653   0.970
  253SOL    HW110468   3.575   8.562   1.004
  253SOL    HW210469   3.521   8.686   0.914
  254SOL     OW10470   2.687   0.727   1.158
  254SOL    HW110471   2.648   0.756   1.070
  254SOL    HW210472   2.619   0.675   1.209
  255SOL     OW10473   2.730   5.857   1.985
  255SOL    HW110474   2.792   5.819   1.916
  255SOL    HW210475   2.765   5.945   2.016
  256SOL     OW10476   2.438   8.402   0.913
  256SOL    HW110477   2.437   8.465   0.835
  256SOL    HW210478   2.405   8.313   0.885
  257SOL     OW10479   3.409   1.145   1.524
  257SOL    HW110480   3.431   1.111   1.433
  257SOL    HW210481   3.398   1.244   1.522
  258SOL     OW10482   2.448   3.917   1.411
  258SOL    HW110483   2.469   4.002   1.460
  258SOL    HW210484   2.424   3.937   1.316
  259SOL     OW10485   2.921   8.712   2.209
  259SOL    HW110486   2.888   8.705   2.115
  259SOL    HW210487   3.005   8.658   2.218
  260SOL     OW10488   3.625   5.082   1.136
  260SOL    HW110489   3.585   4.992   1.127
  260SOL    HW210490   3.705   5.089   1.077
  261SOL     OW10491   2.415   4.344   0.631
  261SOL    HW110492   2.437   4.427   0.683
  261SOL    HW210493   2.316   4.335   0.622
  262SOL     OW10494   3.473   3.649   1.218
  262SOL    HW110495   3.569   3.675   1.207
  262SOL    HW210496   3.427   3.655   1.129
  263SOL     OW10497   2.428   2.886   0.680
  263SOL    HW110498   2.434   2.946   0.760
  263SOL    HW210499   2.368   2.928   0.612
  264SOL     OW10500   2.504   9.467   1.324
  264SOL    HW110501   2.493   9.511   1.414
  264SOL    HW210502   2.589   9.498   1.282
  265SOL     OW10503   3.452   2.605   1.606
  265SOL    HW110504   3.388   2.558   1.666
  265SOL    HW210505   3.401   2.663   1.542
  266SOL     OW10506   4.223   2.554   0.729
  266SOL    HW110507   4.216   2.599   0.640
  266SOL    HW210508   4.256   2.620   0.797
  267SOL     OW10509   4.594   3.310   1.505
  267SOL    HW110510   4.528   3.287   1.576
  267SOL    HW210511   4.636   3.227   1.469
  268SOL     OW10512   2.012   7.507   2.132
  268SOL    HW110513   2.104   7.480   2.160
  268SOL    HW210514   2.005   7.606   2.129
  269SOL     OW10515   2.427   8.011   1.292
  269SOL    HW110516   2.474   8.099   1.295
  269SOL    HW210517   2.349   8.012   1.355
  270SOL     OW10518   2.979   0.264   0.901
  270SOL    HW110519   2.909   0.198   0.872
  270SOL    HW210520   2.961   0.291   0.996
  271SOL     OW10521   3.288   0.083   1.856
  271SOL    HW110522   3.336   0.170   1.869
  271SOL    HW210523   3.285   0.034   1.942
  272SOL     OW10524   2.350   8.156   0.835
  272SOL    HW110525   2.260   8.115   0.820
  272SOL    HW210526   2.401   8.100   0.900
  273SOL     OW10527   3.509   9.913   2.222
  273SOL    HW110528   3.529   9.832   2.278
  273SOL    HW210529   3.496   9.992   2.282
  274SOL     OW10530   3.842   2.271   1.611
  274SOL    HW110531   3.908   2.346   1.607
  274SOL    HW210532   3.800   2.258   1.521
  275SOL     OW10533   3.757   3.380   0.849
  275SOL    HW110534   3.855   3.375   0.870
  275SOL    HW210535   3.743   3.360   0.752
  276SOL     OW10536   2.483   4.762   1.509
  276SOL    HW110537   2.511   4.824   1.582
  276SOL    HW210538   2.503   4.668   1.534
  277SOL     OW10539   2.938   8.961   1.895
  277SOL    HW110540   2.908   8.869   1.921
  277SOL    HW210541   2.859   9.022   1.891
  278SOL     OW10542   2.496   6.109   2.327
  278SOL    HW110543   2.416   6.170   2.328
  278SOL    HW210544   2.466   6.015   2.308
  279SOL     OW10545   2.726   3.639   2.054
  279SOL    HW110546   2.688   3.553   2.089
  279SOL    HW210547   2.660   3.681   1.991
  280SOL     OW10548   2.732   4.765   0.444
  280SOL    HW110549   2.720   4.811   0.356
  280SOL    HW210550   2.643   4.756   0.489
  281SOL     OW10551   3.895   2.330   0.745
  281SOL    HW110552   3.799   2.320   0.769
  281SOL    HW210553   3.911   2.421   0.706
  282SOL     OW10554   4.333   2.318   0.798
  282SOL    HW110555   4.284   2.400   0.768
  282SOL    HW210556   4.295   2.238   0.752
  283SOL     OW10557   2.722   3.938   0.622
  283SOL    HW110558   2.661   4.013   0.596
  283SOL    HW210559   2.746   3.886   0.540
  284SOL     OW10560   2.387   0.982   1.042
  284SOL    HW110561   2.319   1.044   1.003
  284SOL    HW210562   2.478   1.022   1.033
  285SOL     OW10563   3.746   2.771   0.746
  285SOL    HW110564   3.744   2.863   0.707
  285SOL    HW210565   3.741   2.703   0.673
  286SOL     OW10566   3.030   5.960   0.526
  286SOL    HW110567   3.117   5.923   0.557
  286SOL    HW210568   3.021   5.945   0.427
  287SOL     OW10569   3.721   3.351   1.951
  287SOL    HW110570   3.819   3.369   1.954
  287SOL    HW210571   3.704   3.266   1.901
  288SOL     OW10572   3.814   3.601   0.566
  288SOL    HW110573   3.817   3.693   0.525
  288SOL    HW210574   3.896   3.587   0.622
  289SOL     OW10575   2.482   6.662   0.816
  289SOL    HW110576   2.498   6.701   0.906
  289SOL    HW210577   2.389   6.682   0.786
  290SOL     OW10578   2.959   2.024   0.699
  290SOL    HW110579   2.890   2.069   0.641
  290SOL    HW210580   3.024   1.975   0.642
  291SOL     OW10581   2.466   5.838   2.264
  291SOL    HW110582   2.392   5.777   2.291
  291SOL    HW210583   2.470   5.842   2.164
  292SOL     OW10584   4.141   2.349   1.857
  292SOL    HW110585   4.044   2.359   1.881
  292SOL    HW210586   4.151   2.278   1.788
  293SOL     OW10587   3.383   0.592   2.258
  293SOL    HW110588   3.375   0.534   2.339
  293SOL    HW210589   3.386   0.688   2.285
  294SOL     OW10590   3.454   4.942   0.498
  294SOL    HW110591   3.484   4.849   0.479
  294SOL    HW210592   3.374   4.963   0.443
  295SOL     OW10593   2.383   2.111   2.331
  295SOL    HW110594   2.327   2.040   2.288
  295SOL    HW210595   2.397   2.089   2.427
  296SOL     OW10596   2.356   4.031   1.751
  296SOL    HW110597   2.407   4.086   1.684
  296SOL    HW210598   2.347   3.938   1.717
  297SOL     OW10599   2.991   2.780   1.029
  297SOL    HW110600   2.956   2.834   1.106
  297SOL    HW210601   2.920   2.770   0.960
  298SOL     OW10602   2.379   6.158   1.086
  298SOL    HW110603   2.405   6.169   0.990
  298SOL    HW210604   2.385   6.061   1.111
  299SOL     OW10605   2.516   2.865   1.754
  299SOL    HW110606   2.603   2.875   1.802
  299SOL    HW210607   2.514   2.777   1.706
  300SOL     OW10608   2.726   1.818   0.925
  300SOL    HW110609   2.780   1.817   1.009
  300SOL    HW210610   2.776   1.769   0.853
  301SOL     OW10611   3.212   4.713   0.510
  301SOL    HW110612   3.214   4.798   0.458
  301SOL    HW210613   3.122   4.671   0.503
  302SOL     OW10614   2.316   0.822   1.435
  302SOL    HW110615   2.236   0.851   1.487
  302SOL    HW210616   2.382   0.779   1.497
  303SOL     OW10617   2.983   2.201   2.334
  303SOL    HW110618   2.896   2.183   2.289
  303SOL    HW210619   2.973   2.189   2.433
  304SOL     OW10620   2.720   6.088   0.932
  304SOL    HW110621   2.767   6.061   0.848
  304SOL    HW210622   2.703   6.007   0.989
  305SOL     OW10623   3.067   4.107   1.869
  305SOL    HW110624   3.164   4.087   1.879
  305SOL    HW210625   3.016   4.064   1.944
  306SOL     OW10626   2.338   0.744   1.168
  306SOL    HW110627   2.358   0.823   1.111
  306SOL    HW210628   2.303   0.774   1.257
  307SOL     OW10629   2.573   9.605   0.787
  307SOL    HW110630   2.548   9.682   0.729
  307SOL    HW210631   2.558   9.630   0.883
  308SOL     OW10632   4.081   1.512   1.333
  308SOL    HW110633   4.172   1.471   1.338
  308SOL    HW210634   4.035   1.482   1.249
  309SOL     OW10635   4.026   3.356   0.903
  309SOL    HW110636   4.078   3.344   0.987
  309SOL    HW210637   4.042   3.278   0.842
  310SOL     OW10638   3.681   3.652   0.894
  310SOL    HW110639   3.698   3.671   0.991
  310SOL    HW210640   3.718   3.562   0.871
  311SOL     OW10641   3.855   2.546   1.160
  311SOL    HW110642   3.756   2.553   1.169
  311SOL    HW210643   3.879   2.455   1.124
  312SOL     OW10644   3.463   8.317   2.289
  312SOL    HW110645   3.542   8.353   2.240
  312SOL    HW210646   3.434   8.231   2.248
  313SOL     OW10647   4.758   2.302   1.224
  313SOL    HW110648   4.775   2.323   1.128
  313SOL    HW210649   4.726   2.384   1.271
  314SOL     OW10650   3.246   8.285   0.443
  314SOL    HW110651   3.269   8.290   0.540
  314SOL    HW210652   3.298   8.211   0.400
  315SOL     OW10653   2.451   9.199   1.319
  315SOL    HW110654   2.469   9.298   1.321
  315SOL    HW210655   2.475   9.162   1.230
  316SOL     OW10656   2.803   2.121   0.488
  316SOL    HW110657   2.772   2.215   0.477
  316SOL    HW210658   2.726   2.059   0.477
  317SOL     OW10659   4.177   1.900   2.334
  317SOL    HW110660   4.211   1.807   2.347
  317SOL    HW210661   4.251   1.965   2.353
  318SOL     OW10662   2.649   9.945   0.996
  318SOL    HW110663   2.615   9.853   1.015
  318SOL    HW210664   2.655   9.997   1.081
  319SOL     OW10665   3.600   2.948   1.512
  319SOL    HW110666   3.672   2.985   1.454
  319SOL    HW210667   3.554   3.023   1.560
  320SOL     OW10668   2.761   9.093   1.149
  320SOL    HW110669   2.830   9.069   1.081
  320SOL    HW210670   2.723   9.010   1.189
  321SOL     OW10671   3.118   1.328   0.970
  321SOL    HW110672   3.203   1.375   0.946
  321SOL    HW210673   3.058   1.390   1.020
  322SOL     OW10674   4.025   4.036   2.234
  322SOL    HW110675   4.047   3.966   2.302
  322SOL    HW210676   3.938   4.013   2.191
  323SOL     OW10677   2.607   7.771   0.572
  323SOL    HW110678   2.634   7.852   0.624
  323SOL    HW210679   2.534   7.795   0.508
  324SOL     OW10680   2.873   7.851   2.313
  324SOL    HW110681   2.853   7.766   2.264
  324SOL    HW210682   2.788   7.898   2.334
  325SOL     OW10683   3.250   3.138   1.165
  325SOL    HW110684   3.186   3.199   1.117
  325SOL    HW210685   3.336   3.186   1.181
  326SOL     OW10686   2.940   2.882   1.655
  326SOL    HW110687   2.980   2.969   1.628
  326SOL    HW210688   3.013   2.819   1.683
  327SOL     OW10689   3.468   1.424   2.044
  327SOL    HW110690   3.509   1.347   2.094
  327SOL    HW210691   3.454   1.398   1.949
  328SOL     OW10692   2.740   5.385   1.933
  328SOL    HW110693   2.769   5.306   1.879
  328SOL    HW210694   2.817   5.449   1.942
  329SOL     OW10695   3.008   7.986   0.593
  329SOL    HW110696   2.948   7.984   0.673
  329SOL    HW210697   3.001   8.076   0.549
  330SOL     OW10698   2.849   8.709   1.951
  330SOL    HW110699   2.751   8.706   1.932
  330SOL    HW210700   2.898   8.655   1.881
  331SOL     OW10701   2.933   1.767   1.116
  331SOL    HW110702   2.990   1.811   1.046
  331SOL    HW210703   2.945   1.668   1.110
  332SOL     OW10704   4.612   3.680   1.279
  332SOL    HW110705   4.576   3.668   1.372
  332SOL    HW210706   4.711   3.666   1.280
  333SOL     OW10707   3.086   0.917   2.353
  333SOL    HW110708   3.044   0.832   2.324
  333SOL    HW210709   3.066   0.934   2.450
  334SOL     OW10710   2.760   8.595   1.217
  334SOL    HW110711   2.820   8.655   1.165
  334SOL    HW210712   2.723   8.525   1.156
  335SOL     OW10713   2.796   1.349   2.158
  335SOL    HW110714   2.749   1.279   2.104
  335SOL    HW210715   2.877   1.309   2.201
  336SOL     OW10716   4.469   2.459   1.559
  336SOL    HW110717   4.540   2.443   1.627
  336SOL    HW210718   4.389   2.500   1.604
  337SOL     OW10719   3.001   4.423   2.282
  337SOL    HW110720   3.037   4.332   2.264
  337SOL    HW210721   3.017   4.447   2.378
  338SOL     OW10722   2.982   0.045   1.548
  338SOL    HW110723   2.918   9.982   1.594
  338SOL    HW210724   3.018   0.110   1.615
  339SOL     OW10725   3.738   8.217   1.666
  339SOL    HW110726   3.703   8.128   1.634
  339SOL    HW210727   3.806   8.250   1.601
  340SOL     OW10728   4.398   3.277   1.703
  340SOL    HW110729   4.311   3.306   1.663
  340SOL    HW210730   4.443   3.355   1.746
  341SOL     OW10731   2.821   3.246   1.709
  341SOL    HW110732   2.756   3.182   1.670
  341SOL    HW210733   2.786   3.339   1.699
  342SOL     OW10734   3.124   8.270   0.928
  342SOL    HW110735   3.057   8.276   1.001
  342SOL    HW210736   3.190   8.344   0.937
  343SOL     OW10737   3.609   4.751   1.373
  343SOL    HW110738   3.704   4.721   1.371
  343SOL    HW210739   3.603   4.840   1.419
  344SOL     OW10740   2.587   1.785   1.746
  344SOL    HW110741   2.550   1.692   1.748
  344SOL    HW210742   2.652   1.797   1.821
  345SOL     OW10743   3.727   0.575   0.870
  345SOL    HW110744   3.745   0.502   0.936
  345SOL    HW210745   3.812   0.602   0.825
  346SOL     OW10746   2.658   8.861   1.260
  346SOL    HW110747   2.572   8.841   1.213
  346SOL    HW210748   2.714   8.777   1.264
  347SOL     OW10749   3.456   1.330   1.788
  347SOL    HW110750   3.521   1.256   1.771
  347SOL    HW210751   3.430   1.372   1.701
  348SOL     OW10752   2.966   1.739   1.578
  348SOL    HW110753   2.921   1.826   1.561
  348SOL    HW210754   2.899   1.665   1.571
  349SOL     OW10755   2.650   9.990   1.895
  349SOL    HW110756   2.583   0.065   1.888
  349SOL    HW210757   2.602   9.902   1.888
  350SOL     OW10758   2.558   3.332   1.449
  350SOL    HW110759   2.558   3.320   1.350
  350SOL    HW210760   2.588   3.247   1.492
  351SOL     OW10761   2.432   0.169   1.893
  351SOL    HW110762   2.382   0.091   1.932
  351SOL    HW210763   2.428   0.165   1.793
  352SOL     OW10764   4.557   2.702   0.738
  352SOL    HW110765   4.569   2.603   0.746
  352SOL    HW210766   4.628   2.748   0.790
  353SOL     OW10767   3.544   5.215   1.356
  353SOL    HW110768   3.567   5.167   1.271
  353SOL    HW210769   3.594   5.302   1.359
  354SOL     OW10770   4.657   2.382   1.740
  354SOL    HW110771   4.689   2.366   1.833
  354SOL    HW210772   4.657   2.296   1.689
  355SOL     OW10773   2.782   6.558   1.021
  355SOL    HW110774   2.747   6.550   0.927
  355SOL    HW210775   2.709   6.586   1.082
  356SOL     OW10776   3.470   4.685   0.404
  356SOL    HW110777   3.484   4.612   0.338
  356SOL    HW210778   3.381   4.674   0.447
  357SOL     OW10779   2.895   3.798   2.218
  357SOL    HW110780   2.826   3.740   2.176
  357SOL    HW210781   2.983   3.750   2.220
  358SOL     OW10782   3.414   7.793   0.494
  358SOL    HW110783   3.351   7.725   0.457
  358SOL    HW210784   3.493   7.747   0.534
  359SOL     OW10785   2.799   4.709   1.601
  359SOL    HW110786   2.816   4.621   1.557
  359SOL    HW210787   2.806   4.698   1.700
  360SOL     OW10788   2.694   9.413   0.626
  360SOL    HW110789   2.662   9.324   0.658
  360SOL    HW210790   2.640   9.485   0.670
  361SOL     OW10791   4.081   1.764   1.441
  361SOL    HW110792   3.985   1.789   1.457
  361SOL    HW210793   4.085   1.673   1.399
  362SOL     OW10794   3.150   0.934   2.086
  362SOL    HW110795   3.077   0.877   2.048
  362SOL    HW210796   3.139   0.942   2.185
  363SOL     OW10797   2.518   8.185   0.615
  363SOL    HW110798   2.449   8.190   0.686
  363SOL    HW210799   2.584   8.113   0.637
  364SOL     OW10800   2.457   5.846   0.684
  364SOL    HW110801   2.424   5.812   0.771
  364SOL    HW210802   2.426   5.940   0.670
  365SOL     OW10803   3.303   0.844   0.543
  365SOL    HW110804   3.227   0.823   0.605
  365SOL    HW210805   3.277   0.921   0.484
  366SOL     OW10806   3.225   4.936   0.343
  366SOL    HW110807   3.235   4.904   0.249
  366SOL    HW210808   3.169   5.019   0.344
  367SOL     OW10809   2.829   9.888   1.713
  367SOL    HW110810   2.902   9.853   1.772
  367SOL    HW210811   2.763   9.938   1.768
  368SOL     OW10812   2.470   6.363   1.520
  368SOL    HW110813   2.461   6.461   1.532
  368SOL    HW210814   2.482   6.342   1.422
  369SOL     OW10815   2.844   7.892   1.189
  369SOL    HW110816   2.787   7.881   1.108
  369SOL    HW210817   2.832   7.985   1.225
  370SOL     OW10818   3.335   4.106   1.909
  370SOL    HW110819   3.416   4.117   1.851
  370SOL    HW210820   3.358   4.128   2.003
  371SOL     OW10821   2.752   2.873   1.462
  371SOL    HW110822   2.717   2.782   1.441
  371SOL    HW210823   2.820   2.866   1.536
  372SOL     OW10824   4.529   2.517   2.280
  372SOL    HW110825   4.459   2.454   2.312
  372SOL    HW210826   4.620   2.475   2.288
  373SOL     OW10827   3.222   0.175   1.014
  373SOL    HW110828   3.144   0.205   0.959
  373SOL    HW210829   3.306   0.187   0.962
  374SOL     OW10830   4.046   0.713   1.821
  374SOL    HW110831   4.101   0.681   1.898
  374SOL    HW210832   4.000   0.799   1.846
  375SOL     OW10833   2.479   6.640   1.507
  375SOL    HW110834   2.519   6.721   1.552
  375SOL    HW210835   2.512   6.635   1.413
  376SOL     OW10836   3.090   1.544   1.858
  376SOL    HW110837   2.995   1.543   1.889
  376SOL    HW210838   3.118   1.638   1.839
  377SOL     OW10839   4.184   2.397   2.125
  377SOL    HW110840   4.153   2.492   2.121
  377SOL    HW210841   4.197   2.363   2.032
  378SOL     OW10842   3.789   0.600   1.250
  378SOL    HW110843   3.695   0.589   1.217
  378SOL    HW210844   3.788   0.657   1.332
  379SOL     OW10845   2.448   3.471   0.416
  379SOL    HW110846   2.474   3.374   0.415
  379SOL    HW210847   2.425   3.500   0.323
  380SOL     OW10848   4.022   1.574   2.281
  380SOL    HW110849   3.942   1.514   2.284
  380SOL    HW210850   4.008   1.645   2.212
  381SOL     OW10851   3.900   1.689   0.612
  381SOL    HW110852   3.871   1.597   0.636
  381SOL    HW210853   3.847   1.756   0.664
  382SOL     OW10854   3.366   4.827   0.923
  382SOL    HW110855   3.287   4.813   0.982
  382SOL    HW210856   3.449   4.827   0.979
  383SOL     OW10857   3.786   2.067   0.985
  383SOL    HW110858   3.859   2.054   0.918
  383SOL    HW210859   3.759   1.978   1.022
  384SOL     OW10860   3.287   5.313   1.397
  384SOL    HW110861   3.376   5.270   1.385
  384SOL    HW210862   3.239   5.316   1.309
  385SOL     OW10863   4.175   3.370   1.564
  385SOL    HW110864   4.119   3.295   1.529
  385SOL    HW210865   4.237   3.402   1.492
  386SOL     OW10866   2.308   2.789   1.211
  386SOL    HW110867   2.338   2.709   1.159
  386SOL    HW210868   2.292   2.762   1.306
  387SOL     OW10869   3.830   2.452   2.352
  387SOL    HW110870   3.895   2.527   2.355
  387SOL    HW210871   3.866   2.378   2.296
  388SOL     OW10872   2.717   1.194   0.378
  388SOL    HW110873   2.764   1.244   0.305
  388SOL    HW210874   2.663   1.258   0.433
  389SOL     OW10875   2.962   9.680   1.343
  389SOL    HW110876   3.030   9.753   1.349
  389SOL    HW210877   3.008   9.591   1.347
  390SOL     OW10878   2.664   7.358   1.442
  390SOL    HW110879   2.578   7.407   1.424
  390SOL    HW210880   2.705   7.329   1.356
  391SOL     OW10881   3.257   2.135   0.851
  391SOL    HW110882   3.324   2.157   0.781
  391SOL    HW210883   3.180   2.087   0.809
  392SOL     OW10884   2.257   3.302   0.861
  392SOL    HW110885   2.264   3.359   0.779
  392SOL    HW210886   2.298   3.351   0.938
  393SOL     OW10887   2.588   8.710   0.865
  393SOL    HW110888   2.524   8.678   0.795
  393SOL    HW210889   2.615   8.804   0.845
  394SOL     OW10890   2.259   7.404   2.214
  394SOL    HW110891   2.320   7.332   2.246
  394SOL    HW210892   2.285   7.491   2.257
  395SOL     OW10893   2.310   6.310   2.035
  395SOL    HW110894   2.258   6.345   1.956
  395SOL    HW210895   2.399   6.277   2.003
  396SOL     OW10896   2.178   9.760   2.131
  396SOL    HW110897   2.081   9.757   2.154
  396SOL    HW210898   2.194   9.706   2.048
  397SOL     OW10899   2.939   9.018   0.947
  397SOL    HW110900   3.026   9.023   0.996
  397SOL    HW210901   2.954   9.042   0.851
  398SOL     OW10902   2.524   2.747   0.454
  398SOL    HW110903   2.498   2.784   0.543
  398SOL    HW210904   2.553   2.821   0.393
  399SOL     OW10905   3.541   0.538   1.475
  399SOL    HW110906   3.513   0.463   1.415
  399SOL    HW210907   3.461   0.578   1.518
  400SOL     OW10908   2.624   1.352   1.171
  400SOL    HW110909   2.607   1.449   1.186
  400SOL    HW210910   2.703   1.323   1.225
  401SOL     OW10911   3.839   0.953   1.102
  401SOL    HW110912   3.781   0.913   1.031
  401SOL    HW210913   3.929   0.975   1.063
  402SOL     OW10914   2.669   0.291   1.528
  402SOL    HW110915   2.764   0.303   1.501
  402SOL    HW210916   2.610   0.302   1.448
  403SOL     OW10917   2.858   1.352   1.331
  403SOL    HW110918   2.837   1.419   1.402
  403SOL    HW210919   2.898   1.271   1.373
  404SOL     OW10920   3.576   4.347   2.287
  404SOL    HW110921   3.630   4.271   2.325
  404SOL    HW210922   3.607   4.366   2.193
  405SOL     OW10923   3.340   1.214   0.584
  405SOL    HW110924   3.296   1.181   0.668
  405SOL    HW210925   3.299   1.169   0.505
  406SOL     OW10926   2.723   0.888   1.669
  406SOL    HW110927   2.694   0.982   1.652
  406SOL    HW210928   2.823   0.883   1.672
  407SOL     OW10929   4.487   3.620   1.525
  407SOL    HW110930   4.520   3.585   1.613
  407SOL    HW210931   4.442   3.547   1.474
  408SOL     OW10932   3.340   4.267   0.339
  408SOL    HW110933   3.407   4.206   0.381
  408SOL    HW210934   3.251   4.253   0.382
  409SOL     OW10935   3.385   0.343   1.855
  409SOL    HW110936   3.324   0.419   1.833
  409SOL    HW210937   3.460   0.340   1.789
  410SOL     OW10938   4.575   1.925   1.057
  410SOL    HW110939   4.546   1.900   0.965
  410SOL    HW210940   4.550   2.019   1.076
  411SOL     OW10941   3.085   0.873   0.716
  411SOL    HW110942   2.995   0.889   0.675
  411SOL    HW210943   3.127   0.961   0.740
  412SOL     OW10944   3.561   8.088   0.632
  412SOL    HW110945   3.570   8.181   0.665
  412SOL    HW210946   3.506   8.087   0.548
  413SOL     OW10947   3.224   2.948   0.542
  413SOL    HW110948   3.207   3.025   0.481
  413SOL    HW210949   3.233   2.982   0.636
  414SOL     OW10950   3.725   0.214   2.323
  414SOL    HW110951   3.768   0.154   2.256
  414SOL    HW210952   3.628   0.191   2.331
  415SOL     OW10953   2.956   4.366   1.112
  415SOL    HW110954   2.938   4.345   1.016
  415SOL    HW210955   2.875   4.348   1.166
  416SOL     OW10956   2.685   0.871   1.949
  416SOL    HW110957   2.681   0.867   1.849
  416SOL    HW210958   2.638   0.792   1.988
  417SOL     OW10959   5.162   2.996   1.550
  417SOL    HW110960   5.155   2.897   1.562
  417SOL    HW210961   5.076   3.039   1.577
  418SOL     OW10962   2.930   2.246   1.173
  418SOL    HW110963   2.888   2.192   1.100
  418SOL    HW210964   3.027   2.261   1.152
  419SOL     OW10965   3.052   9.415   1.353
  419SOL    HW110966   3.126   9.362   1.310
  419SOL    HW210967   2.965   9.370   1.334
  420SOL     OW10968   4.171   1.294   1.642
  420SOL    HW110969   4.205   1.223   1.579
  420SOL    HW210970   4.081   1.326   1.611
  421SOL     OW10971   2.619   3.141   2.009
  421SOL    HW110972   2.538   3.171   1.957
  421SOL    HW210973   2.675   3.082   1.951
  422SOL     OW10974   3.836   4.082   0.660
  422SOL    HW110975   3.875   3.990   0.667
  422SOL    HW210976   3.910   4.150   0.667
  423SOL     OW10977   2.565   9.162   2.161
  423SOL    HW110978   2.479   9.197   2.124
  423SOL    HW210979   2.547   9.084   2.220
  424SOL     OW10980   3.769   0.985   1.358
  424SOL    HW110981   3.788   0.975   1.260
  424SOL    HW210982   3.744   0.896   1.396
  425SOL     OW10983   2.382   5.551   1.172
  425SOL    HW110984   2.368   5.477   1.106
  425SOL    HW210985   2.322   5.627   1.151
  426SOL     OW10986   4.645   2.525   1.353
  426SOL    HW110987   4.698   2.602   1.390
  426SOL    HW210988   4.576   2.496   1.419
  427SOL     OW10989   3.481   3.324   1.195
  427SOL    HW110990   3.490   3.320   1.096
  427SOL    HW210991   3.566   3.358   1.235
  428SOL     OW10992   2.511   1.472   1.486
  428SOL    HW110993   2.479   1.381   1.461
  428SOL    HW210994   2.511   1.531   1.405
  429SOL     OW10995   3.785   8.693   2.157
  429SOL    HW110996   3.854   8.734   2.216
  429SOL    HW210997   3.757   8.759   2.087
  430SOL     OW10998   3.500   0.445   0.777
  430SOL    HW110999   3.484   0.450   0.679
  430SOL    HW211000   3.580   0.500   0.801
  431SOL     OW11001   3.321   3.937   1.132
  431SOL    HW111002   3.264   3.879   1.189
  431SOL    HW211003   3.394   3.978   1.188
  432SOL     OW11004   2.261   3.414   0.614
  432SOL    HW111005   2.323   3.449   0.543
  432SOL    HW211006   2.195   3.351   0.573
  433SOL     OW11007   3.410   9.235   1.482
  433SOL    HW111008   3.411   9.305   1.553
  433SOL    HW211009   3.441   9.275   1.395
  434SOL     OW11010   3.843   4.990   0.975
  434SOL    HW111011   3.863   5.039   0.890
  434SOL    HW211012   3.804   4.900   0.953
  435SOL     OW11013   2.467   2.601   1.070
  435SOL    HW111014   2.504   2.509   1.085
  435SOL    HW211015   2.539   2.668   1.088
  436SOL     OW11016   4.770   3.375   1.848
  436SOL    HW111017   4.854   3.364   1.794
  436SOL    HW211018   4.791   3.428   1.931
  437SOL     OW11019   3.957   2.062   0.771
  437SOL    HW111020   3.942   2.159   0.753
  437SOL    HW211021   4.049   2.036   0.741
  438SOL     OW11022   2.612   3.518   0.638
  438SOL    HW111023   2.554   3.523   0.556
  438SOL    HW211024   2.592   3.434   0.687
  439SOL     OW11025   2.704   4.008   1.905
  439SOL    HW111026   2.636   3.937   1.891
  439SOL    HW211027   2.669   4.096   1.872
  440SOL     OW11028   2.815   7.404   1.667
  440SOL    HW111029   2.754   7.401   1.588
  440SOL    HW211030   2.851   7.313   1.685
  441SOL     OW11031   3.269   9.345   2.314
  441SOL    HW111032   3.199   9.275   2.302
  441SOL    HW211033   3.236   9.432   2.279
  442SOL     OW11034   2.794   3.800   0.389
  442SOL    HW111035   2.721   3.783   0.323
  442SOL    HW211036   2.838   3.714   0.413
  443SOL     OW11037   3.366   4.171   2.180
  443SOL    HW111038   3.416   4.249   2.218
  443SOL    HW211039   3.269   4.181   2.199
  444SOL     OW11040   2.455   8.297   2.352
  444SOL    HW111041   2.500   8.209   2.362
  444SOL    HW211042   2.370   8.286   2.301
  445SOL     OW11043   3.529   2.653   2.051
  445SOL    HW111044   3.435   2.623   2.032
  445SOL    HW211045   3.562   2.609   2.134
  446SOL     OW11046   2.575   0.632   2.059
  446SOL    HW111047   2.584   0.533   2.046
  446SOL    HW211048   2.578   0.653   2.157
  447SOL     OW11049   2.292   5.234   0.749
  447SOL    HW111050   2.296   5.275   0.658
  447SOL    HW211051   2.314   5.137   0.742
  448SOL     OW11052   3.248   9.688   1.963
  448SOL    HW111053   3.329   9.658   1.912
  448SOL    HW211054   3.266   9.778   2.004
  449SOL     OW11055   3.407   8.975   0.904
  449SOL    HW111056   3.482   9.002   0.964
  449SOL    HW211057   3.420   9.015   0.814
  450SOL     OW11058   2.670   4.947   1.823
  450SOL    HW111059   2.620   4.972   1.905
  450SOL    HW211060   2.668   4.847   1.811
  451SOL     OW11061   3.005   1.295   1.603
  451SOL    HW111062   3.074   1.283   1.674
  451SOL    HW211063   2.998   1.211   1.549
  452SOL     OW11064   3.845   1.715   1.848
  452SOL    HW111065   3.831   1.681   1.754
  452SOL    HW211066   3.929   1.768   1.852
  453SOL     OW11067   3.681   8.543   1.750
  453SOL    HW111068   3.665   8.518   1.655
  453SOL    HW211069   3.690   8.461   1.806
  454SOL     OW11070   3.150   9.884   1.399
  454SOL    HW111071   3.243   9.916   1.383
  454SOL    HW211072   3.101   9.949   1.457
  455SOL     OW11073   3.625   3.930   0.896
  455SOL    HW111074   3.657   3.836   0.885
  455SOL    HW211075   3.672   3.973   0.973
  456SOL     OW11076   3.791   3.229   1.105
  456SOL    HW111077   3.762   3.260   1.014
  456SOL    HW211078   3.841   3.142   1.096
  457SOL     OW11079   2.980   0.688   2.235
  457SOL    HW111080   2.966   0.720   2.142
  457SOL    HW211081   2.963   0.590   2.240
  458SOL     OW11082   3.864   2.632   1.889
  458SOL    HW111083   3.783   2.667   1.841
  458SOL    HW211084   3.851   2.535   1.908
  459SOL     OW11085   2.959   4.608   0.463
  459SOL    HW111086   2.878   4.666   0.452
  459SOL    HW211087   2.967   4.546   0.385
  460SOL     OW11088   2.619   7.142   1.617
  460SOL    HW111089   2.717   7.132   1.635
  460SOL    HW211090   2.604   7.218   1.553
  461SOL     OW11091   2.465   5.813   1.987
  461SOL    HW111092   2.564   5.825   1.985
  461SOL    HW211093   2.428   5.833   1.896
  462SOL     OW11094   3.457   3.695   0.740
  462SOL    HW111095   3.458   3.783   0.693
  462SOL    HW211096   3.546   3.679   0.783
  463SOL     OW11097   3.725   3.741   1.150
  463SOL    HW111098   3.816   3.718   1.184
  463SOL    HW211099   3.713   3.841   1.151
  464SOL     OW11100   3.177   3.835   0.477
  464SOL    HW111101   3.123   3.824   0.561
  464SOL    HW211102   3.125   3.890   0.411
  465SOL     OW11103   2.476   2.986   1.126
  465SOL    HW111104   2.554   2.924   1.118
  465SOL    HW211105   2.397   2.936   1.163
  466SOL     OW11106   2.505   3.204   0.488
  466SOL    HW111107   2.427   3.142   0.486
  466SOL    HW211108   2.526   3.227   0.583
  467SOL     OW11109   2.145   7.024   2.358
  467SOL    HW111110   2.109   7.084   2.288
  467SOL    HW211111   2.079   7.015   2.433
  468SOL     OW11112   4.476   2.617   1.148
  468SOL    HW111113   4.547   2.597   1.216
  468SOL    HW211114   4.434   2.531   1.118
  469SOL     OW11115   2.679   8.950   1.519
  469SOL    HW111116   2.676   8.927   1.422
  469SOL    HW211117   2.762   9.004   1.538
  470SOL     OW11118   4.909   3.619   0.840
  470SOL    HW111119   4.893   3.525   0.811
  470SOL    HW211120   4.853   3.639   0.920
  471SOL     OW11121   4.365   2.995   1.722
  471SOL    HW111122   4.269   2.986   1.698
  471SOL    HW211123   4.389   3.092   1.730
  472SOL     OW11124   2.955   2.211   1.572
  472SOL    HW111125   3.042   2.190   1.528
  472SOL    HW211126   2.965   2.205   1.672
  473SOL     OW11127   2.523   6.774   1.063
  473SOL    HW111128   2.441   6.830   1.072
  473SOL    HW211129   2.533   6.716   1.144
  474SOL     OW11130   4.366   2.373   1.070
  474SOL    HW111131   4.346   2.356   0.974
  474SOL    HW211132   4.420   2.297   1.107
  475SOL     OW11133   3.520   3.947   2.209
  475SOL    HW111134   3.461   4.025   2.192
  475SOL    HW211135   3.527   3.930   2.307
  476SOL     OW11136   2.462   1.764   2.217
  476SOL    HW111137   2.380   1.821   2.215
  476SOL    HW211138   2.452   1.690   2.150
  477SOL     OW11139   3.247   2.891   1.035
  477SOL    HW111140   3.247   2.972   1.093
  477SOL    HW211141   3.158   2.845   1.039
  478SOL     OW11142   3.581   2.530   2.287
  478SOL    HW111143   3.674   2.502   2.311
  478SOL    HW211144   3.515   2.476   2.339
  479SOL     OW11145   3.823   1.518   0.366
  479SOL    HW111146   3.920   1.544   0.372
  479SOL    HW211147   3.814   1.421   0.385
  480SOL     OW11148   3.953   2.158   1.266
  480SOL    HW111149   3.963   2.211   1.182
  480SOL    HW211150   3.867   2.184   1.311
  481SOL     OW11151   4.143   2.265   1.424
  481SOL    HW111152   4.157   2.355   1.381
  481SOL    HW211153   4.074   2.214   1.373
  482SOL     OW11154   3.060   4.140   1.230
  482SOL    HW111155   3.032   4.230   1.195
  482SOL    HW211156   3.108   4.152   1.317
  483SOL     OW11157   2.836   6.744   0.571
  483SOL    HW111158   2.822   6.652   0.609
  483SOL    HW211159   2.860   6.736   0.474
  484SOL     OW11160   3.212   9.860   0.743
  484SOL    HW111161   3.233   9.925   0.669
  484SOL    HW211162   3.298   9.822   0.778
  485SOL     OW11163   2.264   5.655   2.283
  485SOL    HW111164   2.165   5.661   2.289
  485SOL    HW211165   2.290   5.610   2.198
  486SOL     OW11166   2.394   0.496   1.034
  486SOL    HW111167   2.357   0.579   1.076
  486SOL    HW211168   2.481   0.517   0.988
  487SOL     OW11169   2.783   4.804   1.049
  487SOL    HW111170   2.854   4.759   1.103
  487SOL    HW211171   2.804   4.902   1.042
  488SOL     OW11172   3.659   9.968   1.998
  488SOL    HW111173   3.601   9.941   2.075
  488SOL    HW211174   3.612   9.948   1.912
  489SOL     OW11175   3.675   2.734   1.707
  489SOL    HW111176   3.683   2.808   1.640
  489SOL    HW211177   3.602   2.671   1.678
  490SOL     OW11178   4.500   3.706   1.980
  490SOL    HW111179   4.414   3.714   1.929
  490SOL    HW211180   4.483   3.722   2.077
  491SOL     OW11181   4.185   3.773   1.081
  491SOL    HW111182   4.152   3.842   1.015
  491SOL    HW211183   4.284   3.782   1.092
  492SOL     OW11184   4.101   3.984   0.917
  492SOL    HW111185   4.185   4.037   0.907
  492SOL    HW211186   4.033   4.038   0.967
  493SOL     OW11187   3.067   8.985   1.433
  493SOL    HW111188   3.151   9.022   1.395
  493SOL    HW211189   3.051   8.894   1.395
  494SOL     OW11190   2.597   0.957   0.460
  494SOL    HW111191   2.534   0.920   0.392
  494SOL    HW211192   2.639   1.041   0.425
  495SOL     OW11193   3.078   5.236   2.185
  495SOL    HW111194   3.042   5.202   2.098
  495SOL    HW211195   3.002   5.267   2.243
  496SOL     OW11196   2.523   8.949   2.321
  496SOL    HW111197   2.445   8.890   2.303
  496SOL    HW211198   2.602   8.893   2.348
  497SOL     OW11199   2.758   7.036   2.024
  497SOL    HW111200   2.732   6.981   1.945
  497SOL    HW211201   2.824   6.986   2.080
  498SOL     OW11202   3.157   1.803   1.758
  498SOL    HW111203   3.089   1.779   1.689
  498SOL    HW211204   3.241   1.834   1.714
  499SOL     OW11205   4.756   2.737   1.484
  499SOL    HW111206   4.677   2.794   1.506
  499SOL    HW211207   4.836   2.770   1.534
  500SOL     OW11208   2.752   6.292   1.114
  500SOL    HW111209   2.786   6.378   1.076
  500SOL    HW211210   2.750   6.222   1.043
  501SOL     OW11211   3.180   4.157   1.477
  501SOL    HW111212   3.253   4.225   1.490
  501SOL    HW211213   3.212   4.068   1.510
  502SOL     OW11214   2.290   6.294   2.307
  502SOL    HW111215   2.296   6.387   2.341
  502SOL    HW211216   2.285   6.295   2.207
  503SOL     OW11217   2.259   1.690   1.497
  503SOL    HW111218   2.245   1.647   1.408
  503SOL    HW211219   2.254   1.621   1.569
  504SOL     OW11220   3.913   2.305   1.035
  504SOL    HW111221   3.856   2.223   1.027
  504SOL    HW211222   3.942   2.334   0.944
  505SOL     OW11223   3.580   0.334   1.662
  505SOL    HW111224   3.568   0.404   1.591
  505SOL    HW211225   3.670   0.344   1.703
  506SOL     OW11226   2.979   3.594   1.963
  506SOL    HW111227   2.887   3.621   1.993
  506SOL    HW211228   2.982   3.495   1.950
  507SOL     OW11229   2.430   7.842   0.379
  507SOL    HW111230   2.419   7.941   0.373
  507SOL    HW211231   2.360   7.798   0.323
  508SOL     OW11232   3.570   4.816   1.105
  508SOL    HW111233   3.580   4.782   1.198
  508SOL    HW211234   3.643   4.777   1.048
  509SOL     OW11235   3.619   4.992   1.503
  509SOL    HW111236   3.574   4.983   1.592
  509SOL    HW211237   3.587   5.075   1.458
  510SOL     OW11238   4.774   2.351   0.949
  510SOL    HW111239   4.802   2.274   0.892
  510SOL    HW211240   4.697   2.398   0.907
  511SOL     OW11241   3.530   0.072   1.565
  511SOL    HW111242   3.533   0.012   1.645
  511SOL    HW211243   3.551   0.166   1.593
  512SOL     OW11244   3.394   1.995   1.052
  512SOL    HW111245   3.393   1.896   1.038
  512SOL    HW211246   3.342   2.039   0.979
  513SOL     OW11247   2.564   3.247   1.186
  513SOL    HW111248   2.520   3.158   1.170
  513SOL    HW211249   2.663   3.237   1.174
  514SOL     OW11250   3.084   0.718   0.937
  514SOL    HW111251   3.092   0.777   0.856
  514SOL    HW211252   3.161   0.655   0.940
  515SOL     OW11253   3.664   8.441   2.149
  515SOL    HW111254   3.677   8.394   2.062
  515SOL    HW211255   3.716   8.526   2.148
  516SOL     OW11256   3.416   8.056   0.392
  516SOL    HW111257   3.408   7.961   0.423
  516SOL    HW211258   3.454   8.059   0.300
  517SOL     OW11259   4.194   2.670   0.480
  517SOL    HW111260   4.096   2.651   0.466
  517SOL    HW211261   4.241   2.661   0.392
  518SOL     OW11262   3.275   0.531   0.917
  518SOL    HW111263   3.286   0.484   1.005
  518SOL    HW211264   3.353   0.509   0.858
  519SOL     OW11265   2.949   1.136   0.515
  519SOL    HW111266   2.871   1.167   0.459
  519SOL    HW211267   2.954   1.192   0.598
  520SOL     OW11268   2.935   7.798   0.845
  520SOL    HW111269   3.000   7.866   0.879
  520SOL    HW211270   2.983   7.734   0.784
  521SOL     OW11271   3.266   9.282   0.671
  521SOL    HW111272   3.263   9.377   0.702
  521SOL    HW211273   3.186   9.263   0.613
  522SOL     OW11274   3.364   2.799   1.430
  522SOL    HW111275   3.453   2.844   1.434
  522SOL    HW211276   3.292   2.868   1.416
  523SOL     OW11277   2.590   2.760   2.348
  523SOL    HW111278   2.580   2.684   2.284
  523SOL    HW211279   2.635   2.836   2.303
  524SOL     OW11280   2.512   2.264   2.150
  524SOL    HW111281   2.481   2.238   2.059
  524SOL    HW211282   2.459   2.213   2.219
  525SOL     OW11283   2.224   6.760   0.866
  525SOL    HW111284   2.250   6.833   0.929
  525SOL    HW211285   2.125   6.758   0.856
  526SOL     OW11286   2.590   8.716   1.871
  526SOL    HW111287   2.526   8.647   1.905
  526SOL    HW211288   2.542   8.803   1.858
  527SOL     OW11289   2.377   1.765   1.117
  527SOL    HW111290   2.400   1.848   1.169
  527SOL    HW211291   2.391   1.782   1.020
  528SOL     OW11292   2.632   8.085   2.329
  528SOL    HW111293   2.620   8.027   2.248
  528SOL    HW211294   2.701   8.155   2.310
  529SOL     OW11295   3.280   5.237   0.904
  529SOL    HW111296   3.298   5.152   0.854
  529SOL    HW211297   3.289   5.314   0.841
  530SOL     OW11298   2.338   5.342   0.995
  530SOL    HW111299   2.323   5.302   0.905
  530SOL    HW211300   2.389   5.277   1.052
  531SOL     OW11301   2.639   7.514   0.660
  531SOL    HW111302   2.632   7.452   0.582
  531SOL    HW211303   2.628   7.608   0.628
  532SOL     OW11304   2.277   7.053   2.046
  532SOL    HW111305   2.186   7.094   2.046
  532SOL    HW211306   2.321   7.069   1.958
  533SOL     OW11307   2.377   3.756   2.068
  533SOL    HW111308   2.370   3.657   2.080
  533SOL    HW211309   2.413   3.797   2.152
  534SOL     OW11310   3.253   1.344   2.251
  534SOL    HW111311   3.267   1.415   2.320
  534SOL    HW211312   3.304   1.367   2.168
  535SOL     OW11313   4.354   2.719   0.922
  535SOL    HW111314   4.420   2.732   0.848
  535SOL    HW211315   4.402   2.691   1.005
  536SOL     OW11316   2.688   9.102   1.918
  536SOL    HW111317   2.621   9.045   1.872
  536SOL    HW211318   2.656   9.121   2.011
  537SOL     OW11319   3.596   4.528   0.830
  537SOL    HW111320   3.516   4.562   0.780
  537SOL    HW211321   3.619   4.436   0.796
  538SOL     OW11322   2.627   5.657   0.928
  538SOL    HW111323   2.530   5.678   0.912
  538SOL    HW211324   2.680   5.683   0.847
  539SOL     OW11325   2.724   3.803   1.196
  539SOL    HW111326   2.661   3.759   1.261
  539SOL    HW211327   2.732   3.746   1.115
  540SOL     OW11328   3.608   3.324   2.198
  540SOL    HW111329   3.629   3.233   2.234
  540SOL    HW211330   3.647   3.334   2.107
  541SOL     OW11331   3.337   3.288   2.131
  541SOL    HW111332   3.272   3.333   2.191
  541SOL    HW211333   3.430   3.310   2.160
  542SOL     OW11334   2.747   4.404   2.180
  542SOL    HW111335   2.758   4.410   2.081
  542SOL    HW211336   2.836   4.411   2.224
  543SOL     OW11337   3.693   8.769   1.200
  543SOL    HW111338   3.793   8.782   1.198
  543SOL    HW211339   3.662   8.731   1.113
  544SOL     OW11340   2.875   5.289   0.630
  544SOL    HW111341   2.811   5.296   0.707
  544SOL    HW211342   2.943   5.219   0.649
  545SOL     OW11343   2.887   6.473   2.281
  545SOL    HW111344   2.816   6.429   2.227
  545SOL    HW211345   2.861   6.472   2.378
  546SOL     OW11346   4.745   2.456   0.332
  546SOL    HW111347   4.688   2.377   0.352
  546SOL    HW211348   4.686   2.534   0.307
  547SOL     OW11349   2.837   2.988   0.722
  547SOL    HW111350   2.804   3.040   0.644
  547SOL    HW211351   2.865   3.051   0.795
  548SOL     OW11352   3.277   0.056   0.559
  548SOL    HW111353   3.224   0.137   0.584
  548SOL    HW211354   3.253   0.028   0.466
  549SOL     OW11355   2.721   0.437   1.760
  549SOL    HW111356   2.710   0.377   1.681
  549SOL    HW211357   2.651   0.509   1.757
  550SOL     OW11358   3.413   4.567   1.324
  550SOL    HW111359   3.479   4.637   1.352
  550SOL    HW211360   3.441   4.528   1.236
  551SOL     OW11361   4.091   1.569   0.455
  551SOL    HW111362   4.033   1.612   0.525
  551SOL    HW211363   4.125   1.481   0.490
  552SOL     OW11364   3.497   9.907   1.782
  552SOL    HW111365   3.488   9.808   1.793
  552SOL    HW211366   3.409   9.951   1.800
  553SOL     OW11367   2.472   8.955   1.823
  553SOL    HW111368   2.402   8.959   1.894
  553SOL    HW211369   2.439   9.002   1.741
  554SOL     OW11370   3.305   8.439   1.453
  554SOL    HW111371   3.291   8.349   1.493
  554SOL    HW211372   3.262   8.443   1.363
  555SOL     OW11373   2.385   7.170   2.270
  555SOL    HW111374   2.342   7.124   2.347
  555SOL    HW211375   2.359   7.125   2.185
  556SOL     OW11376   3.387   4.003   0.554
  556SOL    HW111377   3.326   3.937   0.509
  556SOL    HW211378   3.336   4.053   0.624
  557SOL     OW11379   2.775   4.377   1.518
  557SOL    HW111380   2.773   4.350   1.422
  557SOL    HW211381   2.840   4.319   1.568
  558SOL     OW11382   2.105   3.163   0.675
  558SOL    HW111383   2.009   3.147   0.701
  558SOL    HW211384   2.154   3.206   0.751
  559SOL     OW11385   3.150   3.417   2.275
  559SOL    HW111386   3.059   3.378   2.259
  559SOL    HW211387   3.148   3.515   2.256
  560SOL     OW11388   3.835   0.453   2.381
  560SOL    HW111389   3.864   0.457   2.477
  560SOL    HW211390   3.790   0.365   2.364
  561SOL     OW11391   3.032   2.241   0.389
  561SOL    HW111392   2.962   2.177   0.420
  561SOL    HW211393   3.028   2.324   0.445
  562SOL     OW11394   2.962   1.090   1.433
  562SOL    HW111395   2.890   1.078   1.364
  562SOL    HW211396   3.009   1.003   1.447
  563SOL     OW11397   2.555   6.850   1.867
  563SOL    HW111398   2.593   6.775   1.922
  563SOL    HW211399   2.581   6.838   1.772
  564SOL     OW11400   2.400   8.461   1.174
  564SOL    HW111401   2.412   8.440   1.077
  564SOL    HW211402   2.303   8.468   1.195
  565SOL     OW11403   4.321   2.360   2.357
  565SOL    HW111404   4.275   2.367   2.269
  565SOL    HW211405   4.252   2.365   2.430
  566SOL     OW11406   3.310   5.012   0.735
  566SOL    HW111407   3.368   4.996   0.655
  566SOL    HW211408   3.330   4.944   0.805
  567SOL     OW11409   2.694   5.038   1.261
  567SOL    HW111410   2.766   5.056   1.195
  567SOL    HW211411   2.735   5.021   1.351
  568SOL     OW11412   3.679   4.396   2.040
  568SOL    HW111413   3.736   4.475   2.062
  568SOL    HW211414   3.614   4.420   1.967
  569SOL     OW11415   2.994   1.942   1.928
  569SOL    HW111416   3.059   1.889   1.873
  569SOL    HW211417   3.036   1.965   2.016
  570SOL     OW11418   2.417   3.080   0.876
  570SOL    HW111419   2.435   3.047   0.969
  570SOL    HW211420   2.347   3.152   0.880
  571SOL     OW11421   2.444   5.419   1.563
  571SOL    HW111422   2.466   5.416   1.660
  571SOL    HW211423   2.355   5.375   1.547
  572SOL     OW11424   3.197   0.551   1.807
  572SOL    HW111425   3.111   0.506   1.834
  572SOL    HW211426   3.230   0.606   1.884
  573SOL     OW11427   2.510   0.594   1.321
  573SOL    HW111428   2.517   0.633   1.413
  573SOL    HW211429   2.437   0.640   1.271
  574SOL     OW11430   3.481   4.708   2.096
  574SOL    HW111431   3.502   4.788   2.151
  574SOL    HW211432   3.537   4.708   2.013
  575SOL     OW11433   2.741   9.562   1.220
  575SOL    HW111434   2.811   9.624   1.252
  575SOL    HW211435   2.770   9.467   1.236
  576SOL     OW11436   3.703   4.368   0.368
  576SOL    HW111437   3.624   4.416   0.327
  576SOL    HW211438   3.671   4.284   0.412
  577SOL     OW11439   2.689   3.477   1.655
  577SOL    HW111440   2.710   3.575   1.652
  577SOL    HW211441   2.650   3.449   1.568
  578SOL     OW11442   2.944   1.487   1.113
  578SOL    HW111443   2.880   1.475   1.037
  578SOL    HW211444   2.910   1.438   1.193
  579SOL     OW11445   2.767   1.776   1.329
  579SOL    HW111446   2.830   1.780   1.251
  579SOL    HW211447   2.783   1.855   1.389
  580SOL     OW11448   3.231   1.089   0.806
  580SOL    HW111449   3.317   1.040   0.798
  580SOL    HW211450   3.203   1.093   0.902
  581SOL     OW11451   3.633   8.338   1.303
  581SOL    HW111452   3.615   8.413   1.367
  581SOL    HW211453   3.605   8.252   1.344
  582SOL     OW11454   3.119   1.069   1.067
  582SOL    HW111455   3.029   1.028   1.077
  582SOL    HW211456   3.110   1.168   1.050
  583SOL     OW11457   2.775   1.050   1.243
  583SOL    HW111458   2.811   0.983   1.177
  583SOL    HW211459   2.686   1.020   1.276
  584SOL     OW11460   3.484   3.165   1.639
  584SOL    HW111461   3.471   3.241   1.575
  584SOL    HW211462   3.398   3.147   1.687
  585SOL     OW11463   2.544   0.977   1.374
  585SOL    HW111464   2.584   0.989   1.465
  585SOL    HW211465   2.462   0.920   1.380
  586SOL     OW11466   4.023   4.660   0.921
  586SOL    HW111467   4.008   4.590   0.991
  586SOL    HW211468   4.085   4.730   0.956
  587SOL     OW11469   3.820   4.611   2.122
  587SOL    HW111470   3.816   4.602   2.222
  587SOL    HW211471   3.827   4.708   2.097
  588SOL     OW11472   3.302   9.049   1.313
  588SOL    HW111473   3.364   8.970   1.311
  588SOL    HW211474   3.341   9.120   1.372
  589SOL     OW11475   3.057   6.662   2.188
  589SOL    HW111476   3.003   6.590   2.233
  589SOL    HW211477   3.067   6.640   2.091
  590SOL     OW11478   3.364   9.238   1.933
  590SOL    HW111479   3.377   9.190   1.847
  590SOL    HW211480   3.281   9.204   1.978
  591SOL     OW11481   2.245   1.564   1.257
  591SOL    HW111482   2.271   1.475   1.219
  591SOL    HW211483   2.277   1.636   1.196
  592SOL     OW11484   3.369   4.635   0.727
  592SOL    HW111485   3.363   4.706   0.797
  592SOL    HW211486   3.309   4.657   0.650
  593SOL     OW11487   2.565   1.611   1.247
  593SOL    HW111488   2.493   1.658   1.196
  593SOL    HW211489   2.635   1.677   1.273
  594SOL     OW11490   2.379   9.831   2.307
  594SOL    HW111491   2.306   9.806   2.243
  594SOL    HW211492   2.344   9.829   2.400
  595SOL     OW11493   4.120   3.052   0.920
  595SOL    HW111494   4.056   3.035   0.994
  595SOL    HW211495   4.202   2.996   0.933
  596SOL     OW11496   2.274   4.237   1.155
  596SOL    HW111497   2.175   4.227   1.162
  596SOL    HW211498   2.295   4.311   1.090
  597SOL     OW11499   3.254   2.216   1.814
  597SOL    HW111500   3.292   2.188   1.902
  597SOL    HW211501   3.155   2.210   1.817
  598SOL     OW11502   2.294   0.038   1.428
  598SOL    HW111503   2.300   9.941   1.402
  598SOL    HW211504   2.282   0.094   1.346
  599SOL     OW11505   2.395   5.228   2.125
  599SOL    HW111506   2.306   5.271   2.115
  599SOL    HW211507   2.465   5.298   2.141
  600SOL     OW11508   2.957   3.072   2.321
  600SOL    HW111509   2.952   3.163   2.280
  600SOL    HW211510   2.867   3.029   2.315
  601SOL     OW11511   2.680   5.430   1.067
  601SOL    HW111512   2.642   5.429   1.159
  601SOL    HW211513   2.657   5.516   1.022
  602SOL     OW11514   3.230   9.539   0.462
  602SOL    HW111515   3.132   9.525   0.446
  602SOL    HW211516   3.247   9.545   0.560
  603SOL     OW11517   3.016   3.707   1.716
  603SOL    HW111518   2.920   3.726   1.692
  603SOL    HW211519   3.020   3.671   1.809
  604SOL     OW11520   2.984   3.325   1.920
  604SOL    HW111521   3.080   3.328   1.892
  604SOL    HW211522   2.928   3.286   1.847
  605SOL     OW11523   3.758   4.727   0.929
  605SOL    HW111524   3.699   4.659   0.884
  605SOL    HW211525   3.853   4.700   0.918
  606SOL     OW11526   3.568   4.145   1.754
  606SOL    HW111527   3.647   4.141   1.815
  606SOL    HW211528   3.573   4.228   1.699
  607SOL     OW11529   2.324   9.579   1.155
  607SOL    HW111530   2.382   9.525   1.216
  607SOL    HW211531   2.258   9.519   1.110
  608SOL     OW11532   3.815   3.498   2.271
  608SOL    HW111533   3.799   3.579   2.214
  608SOL    HW211534   3.736   3.437   2.266
  609SOL     OW11535   4.366   1.802   1.196
  609SOL    HW111536   4.441   1.849   1.149
  609SOL    HW211537   4.291   1.866   1.212
  610SOL     OW11538   2.542   8.258   1.304
  610SOL    HW111539   2.543   8.280   1.402
  610SOL    HW211540   2.502   8.334   1.253
  611SOL     OW11541   4.178   1.232   1.142
  611SOL    HW111542   4.095   1.287   1.133
  611SOL    HW211543   4.238   1.275   1.209
  612SOL     OW11544   2.449   0.143   1.628
  612SOL    HW111545   2.394   0.106   1.554
  612SOL    HW211546   2.532   0.185   1.591
  613SOL     OW11547   4.018   1.095   0.763
  613SOL    HW111548   4.058   1.183   0.737
  613SOL    HW211549   4.048   1.071   0.856
  614SOL     OW11550   2.747   3.756   1.670
  614SOL    HW111551   2.685   3.761   1.749
  614SOL    HW211552   2.748   3.844   1.623
  615SOL     OW11553   3.137   3.672   2.171
  615SOL    HW111554   3.232   3.694   2.153
  615SOL    HW211555   3.091   3.648   2.086
  616SOL     OW11556   2.711   8.366   2.278
  616SOL    HW111557   2.620   8.362   2.317
  616SOL    HW211558   2.771   8.417   2.339
  617SOL     OW11559   3.515   3.072   0.816
  617SOL    HW111560   3.421   3.045   0.796
  617SOL    HW211561   3.516   3.160   0.863
  618SOL     OW11562   3.010   5.472   0.473
  618SOL    HW111563   2.960   5.413   0.536
  618SOL    HW211564   3.107   5.447   0.475
  619SOL     OW11565   3.719   2.259   1.368
  619SOL    HW111566   3.648   2.216   1.313
  619SOL    HW211567   3.694   2.354   1.387
  620SOL     OW11568   4.910   3.088   1.604
  620SOL    HW111569   4.842   3.093   1.531
  620SOL    HW211570   4.872   3.037   1.681
  621SOL     OW11571   2.718   0.268   2.202
  621SOL    HW111572   2.663   0.200   2.249
  621SOL    HW211573   2.667   0.306   2.125
  622SOL     OW11574   2.704   8.416   1.010
  622SOL    HW111575   2.745   8.457   0.929
  622SOL    HW211576   2.608   8.395   0.992
  623SOL     OW11577   2.337   9.249   1.779
  623SOL    HW111578   2.356   9.346   1.763
  623SOL    HW211579   2.370   9.195   1.701
  624SOL     OW11580   2.324   9.246   2.050
  624SOL    HW111581   2.330   9.241   1.950
  624SOL    HW211582   2.264   9.321   2.076
  625SOL     OW11583   2.935   2.893   2.062
  625SOL    HW111584   2.952   2.797   2.083
  625SOL    HW211585   3.018   2.946   2.081
  626SOL     OW11586   2.472   1.309   1.926
  626SOL    HW111587   2.395   1.245   1.921
  626SOL    HW211588   2.556   1.260   1.947
  627SOL     OW11589   2.949   0.110   1.281
  627SOL    HW111590   2.956   0.100   1.380
  627SOL    HW211591   3.005   0.040   1.236
  628SOL     OW11592   2.981   2.811   0.558
  628SOL    HW111593   2.927   2.867   0.621
  628SOL    HW211594   3.070   2.854   0.543
  629SOL     OW11595   2.896   7.133   1.598
  629SOL    HW111596   2.891   7.046   1.548
  629SOL    HW211597   2.961   7.194   1.552
  630SOL     OW11598   4.094   2.975   1.663
  630SOL    HW111599   4.067   2.879   1.664
  630SOL    HW211600   4.043   3.024   1.733
  631SOL     OW11601   3.008   0.468   0.476
  631SOL    HW111602   2.957   0.538   0.525
  631SOL    HW211603   2.947   0.422   0.410
  632SOL     OW11604   3.165   3.170   0.391
  632SOL    HW111605   3.172   3.184   0.293
  632SOL    HW211606   3.167   3.259   0.437
  633SOL     OW11607   2.668   2.781   1.108
  633SOL    HW111608   2.736   2.832   1.161
  633SOL    HW211609   2.702   2.768   1.015
  634SOL     OW11610   3.366   4.018   0.877
  634SOL    HW111611   3.334   4.001   0.970
  634SOL    HW211612   3.461   3.990   0.868
  635SOL     OW11613   3.104   3.247   0.880
  635SOL    HW111614   3.118   3.340   0.916
  635SOL    HW211615   3.046   3.252   0.798
  636SOL     OW11616   2.598   7.337   0.460
  636SOL    HW111617   2.660   7.270   0.418
  636SOL    HW211618   2.504   7.303   0.455
  637SOL     OW11619   2.917   5.822   1.779
  637SOL    HW111620   2.900   5.915   1.747
  637SOL    HW211621   2.883   5.757   1.711
  638SOL     OW11622   2.559   4.533   1.184
  638SOL    HW111623   2.554   4.624   1.225
  638SOL    HW211624   2.595   4.541   1.091
  639SOL     OW11625   3.522   8.590   0.615
  639SOL    HW111626   3.476   8.641   0.688
  639SOL    HW211627   3.463   8.589   0.534
  640SOL     OW11628   3.668   9.181   0.491
  640SOL    HW111629   3.703   9.144   0.405
  640SOL    HW211630   3.668   9.281   0.486
  641SOL     OW11631   2.404   3.435   1.047
  641SOL    HW111632   2.426   3.532   1.056
  641SOL    HW211633   2.466   3.382   1.104
  642SOL     OW11634   2.179   4.205   2.172
  642SOL    HW111635   2.212   4.136   2.108
  642SOL    HW211636   2.089   4.178   2.207
  643SOL     OW11637   3.904   2.559   1.464
  643SOL    HW111638   3.936   2.566   1.370
  643SOL    HW211639   3.804   2.548   1.464
  644SOL     OW11640   2.660   7.118   2.267
  644SOL    HW111641   2.695   7.103   2.175
  644SOL    HW211642   2.570   7.162   2.262
  645SOL     OW11643   3.936   3.428   1.229
  645SOL    HW111644   4.031   3.396   1.216
  645SOL    HW211645   3.874   3.363   1.185
  646SOL     OW11646   2.431   1.225   1.404
  646SOL    HW111647   2.472   1.138   1.378
  646SOL    HW211648   2.378   1.262   1.327
  647SOL     OW11649   3.776   4.006   2.126
  647SOL    HW111650   3.780   4.057   2.040
  647SOL    HW211651   3.684   3.969   2.139
  648SOL     OW11652   3.058   5.085   0.642
  648SOL    HW111653   3.144   5.056   0.684
  648SOL    HW211654   2.989   5.014   0.656
  649SOL     OW11655   2.508   7.380   1.110
  649SOL    HW111656   2.593   7.340   1.144
  649SOL    HW211657   2.530   7.453   1.045
  650SOL     OW11658   2.480   1.532   1.750
  650SOL    HW111659   2.485   1.449   1.805
  650SOL    HW211660   2.489   1.509   1.653
  651SOL     OW11661   3.184   9.024   1.062
  651SOL    HW111662   3.260   9.010   0.999
  651SOL    HW211663   3.219   9.037   1.155
  652SOL     OW11664   3.609   8.613   2.414
  652SOL    HW111665   3.616   8.532   2.356
  652SOL    HW211666   3.641   8.693   2.364
  653SOL     OW11667   3.282   9.930   2.077
  653SOL    HW111668   3.363   9.927   2.136
  653SOL    HW211669   3.201   9.948   2.134
  654SOL     OW11670   2.349   4.420   2.184
  654SOL    HW111671   2.384   4.427   2.091
  654SOL    HW211672   2.284   4.345   2.190
  655SOL     OW11673   2.982   8.249   0.514
  655SOL    HW111674   3.078   8.261   0.489
  655SOL    HW211675   2.926   8.314   0.463
  656SOL     OW11676   2.491   5.432   1.824
  656SOL    HW111677   2.431   5.471   1.894
  656SOL    HW211678   2.581   5.413   1.863
  657SOL     OW11679   2.771   2.758   0.858
  657SOL    HW111680   2.695   2.706   0.819
  657SOL    HW211681   2.790   2.838   0.799
  658SOL     OW11682   3.394   2.870   1.762
  658SOL    HW111683   3.446   2.830   1.687
  658SOL    HW211684   3.452   2.876   1.843
  659SOL     OW11685   2.716   2.966   2.209
  659SOL    HW111686   2.795   2.933   2.158
  659SOL    HW211687   2.664   3.030   2.151
  660SOL     OW11688   3.735   0.729   1.492
  660SOL    HW111689   3.733   0.763   1.586
  660SOL    HW211690   3.664   0.659   1.481
  661SOL     OW11691   3.718   1.452   1.270
  661SOL    HW111692   3.684   1.538   1.310
  661SOL    HW211693   3.710   1.379   1.338
  662SOL     OW11694   3.166   8.446   1.221
  662SOL    HW111695   3.199   8.524   1.168
  662SOL    HW211696   3.082   8.411   1.180
  663SOL     OW11697   2.449   7.102   1.837
  663SOL    HW111698   2.497   7.134   1.756
  663SOL    HW211699   2.483   7.012   1.862
  664SOL     OW11700   2.868   7.488   1.029
  664SOL    HW111701   2.936   7.554   1.059
  664SOL    HW211702   2.894   7.452   0.940
  665SOL     OW11703   3.231   0.870   1.223
  665SOL    HW111704   3.199   0.943   1.163
  665SOL    HW211705   3.168   0.859   1.299
  666SOL     OW11706   4.368   2.111   0.410
  666SOL    HW111707   4.275   2.120   0.374
  666SOL    HW211708   4.382   2.017   0.443
  667SOL     OW11709   2.431   9.509   1.770
  667SOL    HW111710   2.446   9.552   1.680
  667SOL    HW211711   2.515   9.461   1.797
  668SOL     OW11712   3.434   1.607   0.896
  668SOL    HW111713   3.515   1.596   0.953
  668SOL    HW211714   3.438   1.544   0.818
  669SOL     OW11715   3.449   0.944   0.763
  669SOL    HW111716   3.424   0.889   0.684
  669SOL    HW211717   3.522   0.899   0.814
  670SOL     OW11718   4.695   3.314   0.535
  670SOL    HW111719   4.687   3.237   0.472
  670SOL    HW211720   4.712   3.398   0.483
  671SOL     OW11721   3.985   3.138   0.702
  671SOL    HW111722   3.898   3.089   0.694
  671SOL    HW211723   4.041   3.094   0.771
  672SOL     OW11724   3.283   3.606   0.374
  672SOL    HW111725   3.247   3.692   0.409
  672SOL    HW211726   3.379   3.619   0.347
  673SOL     OW11727   2.337   9.781   1.345
  673SOL    HW111728   2.311   9.714   1.275
  673SOL    HW211729   2.430   9.814   1.326
  674SOL     OW11730   2.823   1.526   1.939
  674SOL    HW111731   2.816   1.477   2.026
  674SOL    HW211732   2.791   1.620   1.951
  675SOL     OW11733   2.828   0.910   0.603
  675SOL    HW111734   2.740   0.904   0.555
  675SOL    HW211735   2.880   0.987   0.567
  676SOL     OW11736   3.382   1.439   1.548
  676SOL    HW111737   3.429   1.528   1.553
  676SOL    HW211738   3.285   1.454   1.531
  677SOL     OW11739   4.132   2.708   1.086
  677SOL    HW111740   4.208   2.716   1.021
  677SOL    HW211741   4.046   2.723   1.038
  678SOL     OW11742   3.054   7.937   1.958
  678SOL    HW111743   3.061   8.017   1.899
  678SOL    HW211744   3.080   7.855   1.907
  679SOL     OW11745   2.523   4.148   1.552
  679SOL    HW111746   2.614   4.108   1.544
  679SOL    HW211747   2.512   4.221   1.484
  680SOL     OW11748   4.030   1.806   2.112
  680SOL    HW111749   4.062   1.819   2.018
  680SOL    HW211750   4.097   1.843   2.176
  681SOL     OW11751   2.622   1.138   1.612
  681SOL    HW111752   2.676   1.203   1.665
  681SOL    HW211753   2.554   1.187   1.558
  682SOL     OW11754   2.668   2.200   1.325
  682SOL    HW111755   2.766   2.201   1.309
  682SOL    HW211756   2.649   2.172   1.419
  683SOL     OW11757   3.950   2.264   2.190
  683SOL    HW111758   3.953   2.182   2.247
  683SOL    HW211759   4.043   2.298   2.177
  684SOL     OW11760   2.532   9.743   1.906
  684SOL    HW111761   2.477   9.686   1.845
  684SOL    HW211762   2.608   9.689   1.943
  685SOL     OW11763   4.260   3.105   1.278
  685SOL    HW111764   4.295   3.011   1.277
  685SOL    HW211765   4.183   3.111   1.341
  686SOL     OW11766   2.761   1.801   1.960
  686SOL    HW111767   2.733   1.821   2.054
  686SOL    HW211768   2.845   1.851   1.939
  687SOL     OW11769   3.840   8.640   0.847
  687SOL    HW111770   3.861   8.542   0.840
  687SOL    HW211771   3.752   8.652   0.894
  688SOL     OW11772   3.215   2.814   2.177
  688SOL    HW111773   3.221   2.901   2.128
  688SOL    HW211774   3.162   2.826   2.261
  689SOL     OW11775   2.547   2.119   0.719
  689SOL    HW111776   2.555   2.215   0.693
  689SOL    HW211777   2.551   2.111   0.819
  690SOL     OW11778   2.233   9.856   1.716
  690SOL    HW111779   2.238   9.911   1.633
  690SOL    HW211780   2.269   9.910   1.793
  691SOL     OW11781   2.773   7.718   0.360
  691SOL    HW111782   2.720   7.730   0.276
  691SOL    HW211783   2.714   7.733   0.439
  692SOL     OW11784   2.528   0.716   1.573
  692SOL    HW111785   2.605   0.775   1.594
  692SOL    HW211786   2.502   0.664   1.654
  693SOL     OW11787   2.839   4.925   0.651
  693SOL    HW111788   2.807   4.865   0.578
  693SOL    HW211789   2.761   4.958   0.704
  694SOL     OW11790   2.414   3.994   1.151
  694SOL    HW111791   2.507   4.021   1.128
  694SOL    HW211792   2.354   4.074   1.145
  695SOL     OW11793   4.289   1.333   0.461
  695SOL    HW111794   4.385   1.349   0.440
  695SOL    HW211795   4.243   1.293   0.381
  696SOL     OW11796   3.344   3.572   1.738
  696SOL    HW111797   3.272   3.641   1.739
  696SOL    HW211798   3.310   3.488   1.781
  697SOL     OW11799   2.594   0.669   2.332
  697SOL    HW111800   2.614   0.613   2.413
  697SOL    HW211801   2.604   0.766   2.355
  698SOL     OW11802   4.037   1.186   2.006
  698SOL    HW111803   4.115   1.235   1.967
  698SOL    HW211804   4.052   1.174   2.104
  699SOL     OW11805   2.466   3.373   1.803
  699SOL    HW111806   2.554   3.403   1.765
  699SOL    HW211807   2.449   3.278   1.776
  700SOL     OW11808   3.262   2.580   2.040
  700SOL    HW111809   3.244   2.668   2.085
  700SOL    HW211810   3.209   2.508   2.086
  701SOL     OW11811   2.826   1.973   1.518
  701SOL    HW111812   2.882   2.055   1.529
  701SOL    HW211813   2.733   1.992   1.550
  702SOL     OW11814   2.575   0.048   2.310
  702SOL    HW111815   2.497   9.986   2.308
  702SOL    HW211816   2.650   0.009   2.257
  703SOL     OW11817   3.156   1.791   2.273
  703SOL    HW111818   3.134   1.879   2.231
  703SOL    HW211819   3.224   1.743   2.217
  704SOL     OW11820   2.933   8.306   1.116
  704SOL    HW111821   2.854   8.353   1.078
  704SOL    HW211822   2.903   8.240   1.185
  705SOL     OW11823   3.771   1.600   1.604
  705SOL    HW111824   3.684   1.564   1.638
  705SOL    HW211825   3.835   1.525   1.589
  706SOL     OW11826   3.643   2.102   2.085
  706SOL    HW111827   3.711   2.041   2.125
  706SOL    HW211828   3.679   2.141   2.000
  707SOL     OW11829   2.602   0.788   0.905
  707SOL    HW111830   2.605   0.691   0.882
  707SOL    HW211831   2.550   0.838   0.836
  708SOL     OW11832   3.577   8.347   0.742
  708SOL    HW111833   3.672   8.348   0.773
  708SOL    HW211834   3.558   8.430   0.690
  709SOL     OW11835   2.640   9.303   1.010
  709SOL    HW111836   2.686   9.234   1.066
  709SOL    HW211837   2.702   9.379   0.993
  710SOL     OW11838   3.850   1.427   0.690
  710SOL    HW111839   3.859   1.368   0.610
  710SOL    HW211840   3.779   1.391   0.751
  711SOL     OW11841   3.692   3.433   1.372
  711SOL    HW111842   3.661   3.507   1.432
  711SOL    HW211843   3.783   3.455   1.337
  712SOL     OW11844   3.207   8.001   1.168
  712SOL    HW111845   3.144   7.986   1.245
  712SOL    HW211846   3.158   7.987   1.082
  713SOL     OW11847   3.157   3.418   0.519
  713SOL    HW111848   3.212   3.416   0.602
  713SOL    HW211849   3.197   3.482   0.454
  714SOL     OW11850   3.285   8.704   1.162
  714SOL    HW111851   3.357   8.742   1.220
  714SOL    HW211852   3.288   8.748   1.072
  715SOL     OW11853   3.531   8.401   1.050
  715SOL    HW111854   3.566   8.333   0.985
  715SOL    HW211855   3.562   8.378   1.142
  716SOL     OW11856   2.174   8.102   2.109
  716SOL    HW111857   2.209   8.137   2.022
  716SOL    HW211858   2.076   8.121   2.116
  717SOL     OW11859   3.371   4.255   1.212
  717SOL    HW111860   3.417   4.329   1.164
  717SOL    HW211861   3.285   4.234   1.166
  718SOL     OW11862   3.249   7.904   0.695
  718SOL    HW111863   3.319   7.868   0.632
  718SOL    HW211864   3.170   7.935   0.642
  719SOL     OW11865   2.485   1.980   1.261
  719SOL    HW111866   2.469   1.939   1.351
  719SOL    HW211867   2.537   2.065   1.272
  720SOL     OW11868   3.022   8.585   0.918
  720SOL    HW111869   2.953   8.559   0.850
  720SOL    HW211870   3.108   8.537   0.899
  721SOL     OW11871   2.432   7.342   1.985
  721SOL    HW111872   2.435   7.256   1.935
  721SOL    HW211873   2.346   7.346   2.037
  722SOL     OW11874   2.692   7.829   0.957
  722SOL    HW111875   2.645   7.741   0.958
  722SOL    HW211876   2.783   7.818   0.915
  723SOL     OW11877   3.830   0.396   1.749
  723SOL    HW111878   3.876   0.314   1.785
  723SOL    HW211879   3.893   0.445   1.689
  724SOL     OW11880   3.268   5.358   0.453
  724SOL    HW111881   3.214   5.280   0.423
  724SOL    HW211882   3.347   5.369   0.393
  725SOL     OW11883   3.309   5.434   0.714
  725SOL    HW111884   3.404   5.464   0.723
  725SOL    HW211885   3.293   5.400   0.622
  726SOL     OW11886   3.512   4.043   1.306
  726SOL    HW111887   3.461   4.129   1.294
  726SOL    HW211888   3.515   4.020   1.403
  727SOL     OW11889   2.460   1.842   0.867
  727SOL    HW111890   2.447   1.922   0.808
  727SOL    HW211891   2.557   1.831   0.888
  728SOL     OW11892   2.844   9.927   0.589
  728SOL    HW111893   2.894   9.987   0.528
  728SOL    HW211894   2.898   9.844   0.607
  729SOL     OW11895   3.237   3.455   1.141
  729SOL    HW111896   3.252   3.535   1.083
  729SOL    HW211897   3.325   3.419   1.173
  730SOL     OW11898   2.862   8.190   0.756
  730SOL    HW111899   2.908   8.233   0.834
  730SOL    HW211900   2.904   8.221   0.671
  731SOL     OW11901   2.577   5.458   1.327
  731SOL    HW111902   2.505   5.501   1.272
  731SOL    HW211903   2.540   5.431   1.415
  732SOL     OW11904   2.749   8.494   1.473
  732SOL    HW111905   2.754   8.526   1.378
  732SOL    HW211906   2.737   8.573   1.534
  733SOL     OW11907   2.763   2.941   1.860
  733SOL    HW111908   2.820   2.923   1.940
  733SOL    HW211909   2.815   2.922   1.777
  734SOL     OW11910   4.095   1.012   1.008
  734SOL    HW111911   4.133   1.088   1.060
  734SOL    HW211912   4.150   0.930   1.025
  735SOL     OW11913   2.866   5.302   2.346
  735SOL    HW111914   2.810   5.383   2.360
  735SOL    HW211915   2.830   5.226   2.400
  736SOL     OW11916   2.328   4.458   1.000
  736SOL    HW111917   2.353   4.493   0.910
  736SOL    HW211918   2.360   4.521   1.071
  737SOL     OW11919   3.463   8.830   1.326
  737SOL    HW111920   3.553   8.814   1.284
  737SOL    HW211921   3.469   8.813   1.425
  738SOL     OW11922   4.230   2.670   1.439
  738SOL    HW111923   4.240   2.633   1.532
  738SOL    HW211924   4.216   2.595   1.375
  739SOL     OW11925   3.132   7.507   0.763
  739SOL    HW111926   3.180   7.460   0.689
  739SOL    HW211927   3.198   7.550   0.825
  740SOL     OW11928   3.088   4.162   2.244
  740SOL    HW111929   3.093   4.097   2.320
  740SOL    HW211930   3.024   4.128   2.175
  741SOL     OW11931   3.029   1.086   1.882
  741SOL    HW111932   3.060   1.056   1.972
  741SOL    HW211933   3.079   1.169   1.856
  742SOL     OW11934   2.784   0.086   0.811
  742SOL    HW111935   2.738   0.031   0.880
  742SOL    HW211936   2.811   0.028   0.734
  743SOL     OW11937   3.186   2.313   1.048
  743SOL    HW111938   3.204   2.244   0.978
  743SOL    HW211939   3.138   2.391   1.006
  744SOL     OW11940   2.530   5.475   0.647
  744SOL    HW111941   2.553   5.562   0.603
  744SOL    HW211942   2.434   5.454   0.630
  745SOL     OW11943   2.589   0.365   1.987
  745SOL    HW111944   2.521   0.295   1.964
  745SOL    HW211945   2.648   0.382   1.908
  746SOL     OW11946   2.515   6.329   1.248
  746SOL    HW111947   2.606   6.308   1.212
  746SOL    HW211948   2.446   6.274   1.199
  747SOL     OW11949   3.443   9.776   0.863
  747SOL    HW111950   3.470   9.818   0.950
  747SOL    HW211951   3.501   9.697   0.845
  748SOL     OW11952   3.247   3.094   1.770
  748SOL    HW111953   3.293   3.006   1.764
  748SOL    HW211954   3.169   3.096   1.706
  749SOL     OW11955   2.277   4.008   2.014
  749SOL    HW111956   2.294   3.910   2.027
  749SOL    HW211957   2.300   4.034   1.920
  750SOL     OW11958   2.371   5.563   2.046
  750SOL    HW111959   2.449   5.517   2.089
  750SOL    HW211960   2.398   5.655   2.018
  751SOL     OW11961   2.743   9.739   1.504
  751SOL    HW111962   2.824   9.708   1.453
  751SOL    HW211963   2.773   9.789   1.585
  752SOL     OW11964   2.826   4.413   1.913
  752SOL    HW111965   2.770   4.346   1.865
  752SOL    HW211966   2.923   4.395   1.894
  753SOL     OW11967   2.616   5.028   0.781
  753SOL    HW111968   2.639   5.125   0.795
  753SOL    HW211969   2.582   4.990   0.867
  754SOL     OW11970   3.481   9.634   1.832
  754SOL    HW111971   3.459   9.562   1.767
  754SOL    HW211972   3.554   9.604   1.893
  755SOL     OW11973   2.552   4.533   2.329
  755SOL    HW111974   2.628   4.487   2.282
  755SOL    HW211975   2.465   4.497   2.296
  756SOL     OW11976   4.164   3.932   0.462
  756SOL    HW111977   4.106   3.903   0.538
  756SOL    HW211978   4.136   4.023   0.431
  757SOL     OW11979   4.010   3.212   0.434
  757SOL    HW111980   4.014   3.192   0.532
  757SOL    HW211981   3.915   3.209   0.404
  758SOL     OW11982   4.841   3.363   0.769
  758SOL    HW111983   4.839   3.283   0.829
  758SOL    HW211984   4.797   3.339   0.682
  759SOL     OW11985   2.261   7.844   2.161
  759SOL    HW111986   2.330   7.820   2.093
  759SOL    HW211987   2.232   7.939   2.146
  760SOL     OW11988   2.824   6.192   1.358
  760SOL    HW111989   2.796   6.096   1.357
  760SOL    HW211990   2.808   6.233   1.268
  761SOL     OW11991   2.520   2.648   0.798
  761SOL    HW111992   2.474   2.726   0.754
  761SOL    HW211993   2.477   2.630   0.886
  762SOL     OW11994   2.732   7.805   1.656
  762SOL    HW111995   2.792   7.750   1.715
  762SOL    HW211996   2.748   7.780   1.561
  763SOL     OW11997   4.637   2.159   1.586
  763SOL    HW111998   4.552   2.164   1.533
  763SOL    HW211999   4.712   2.133   1.526
  764SOL     OW12000   4.057   2.853   1.307
  764SOL    HW112001   4.092   2.811   1.391
  764SOL    HW212002   4.087   2.800   1.228
  765SOL     OW12003   4.416   2.224   1.429
  765SOL    HW112004   4.439   2.311   1.472
  765SOL    HW212005   4.316   2.216   1.423
  766SOL     OW12006   2.344   5.314   0.490
  766SOL    HW112007   2.308   5.346   0.403
  766SOL    HW212008   2.437   5.279   0.477
  767SOL     OW12009   3.097   7.986   2.221
  767SOL    HW112010   3.027   7.939   2.274
  767SOL    HW212011   3.082   7.970   2.124
  768SOL     OW12012   3.923   1.850   0.378
  768SOL    HW112013   3.900   1.788   0.303
  768SOL    HW212014   3.920   1.800   0.464
  769SOL     OW12015   5.103   2.955   1.282
  769SOL    HW112016   5.128   2.973   1.377
  769SOL    HW212017   5.153   3.016   1.222
  770SOL     OW12018   2.979   2.199   1.840
  770SOL    HW112019   2.973   2.104   1.871
  770SOL    HW212020   2.932   2.258   1.907
  771SOL     OW12021   2.801   1.448   0.888
  771SOL    HW112022   2.811   1.535   0.840
  771SOL    HW212023   2.838   1.374   0.832
  772SOL     OW12024   2.628   0.518   0.886
  772SOL    HW112025   2.727   0.528   0.894
  772SOL    HW212026   2.607   0.432   0.840
  773SOL     OW12027   2.995   3.959   1.028
  773SOL    HW112028   2.927   3.997   0.966
  773SOL    HW212029   3.029   4.030   1.089
  774SOL     OW12030   3.108   4.189   0.470
  774SOL    HW112031   3.119   4.161   0.565
  774SOL    HW212032   3.060   4.118   0.419
  775SOL     OW12033   4.518   1.476   1.076
  775SOL    HW112034   4.511   1.524   1.163
  775SOL    HW212035   4.555   1.385   1.091
  776SOL     OW12036   2.507   2.538   2.196
  776SOL    HW112037   2.512   2.439   2.182
  776SOL    HW212038   2.421   2.560   2.243
  777SOL     OW12039   4.729   3.554   0.401
  777SOL    HW112040   4.814   3.606   0.395
  777SOL    HW212041   4.675   3.569   0.318
  778SOL     OW12042   3.303   1.576   2.398
  778SOL    HW112043   3.348   1.606   2.314
  778SOL    HW212044   3.222   1.633   2.415
  779SOL     OW12045   2.470   7.751   2.001
  779SOL    HW112046   2.458   7.750   1.901
  779SOL    HW212047   2.511   7.664   2.030
  780SOL     OW12048   2.663   0.416   0.543
  780SOL    HW112049   2.712   0.499   0.569
  780SOL    HW212050   2.633   0.368   0.625
  781SOL     OW12051   2.891   9.114   1.587
  781SOL    HW112052   2.936   9.159   1.665
  781SOL    HW212053   2.960   9.069   1.531
  782SOL     OW12054   3.074   1.877   0.911
  782SOL    HW112055   3.015   1.919   0.843
  782SOL    HW212056   3.161   1.852   0.869
  783SOL     OW12057   2.554   5.017   2.056
  783SOL    HW112058   2.487   5.089   2.076
  783SOL    HW212059   2.608   4.999   2.138
  784SOL     OW12060   2.860   2.939   1.217
  784SOL    HW112061   2.856   3.035   1.191
  784SOL    HW212062   2.832   2.928   1.312
  785SOL     OW12063   2.681   9.280   1.559
  785SOL    HW112064   2.597   9.227   1.562
  785SOL    HW212065   2.759   9.220   1.574
  786SOL     OW12066   4.813   3.478   1.521
  786SOL    HW112067   4.727   3.425   1.522
  786SOL    HW212068   4.877   3.437   1.585
  787SOL     OW12069   2.960   0.122   0.440
  787SOL    HW112070   2.905   0.190   0.391
  787SOL    HW212071   3.012   0.167   0.513
  788SOL     OW12072   3.979   3.699   1.239
  788SOL    HW112073   3.969   3.600   1.242
  788SOL    HW212074   4.058   3.724   1.182
  789SOL     OW12075   3.732   0.411   0.462
  789SOL    HW112076   3.771   0.383   0.550
  789SOL    HW212077   3.633   0.417   0.470
  790SOL     OW12078   3.096   4.376   1.871
  790SOL    HW112079   3.097   4.276   1.871
  790SOL    HW212080   3.169   4.410   1.931
  791SOL     OW12081   2.756   2.144   2.187
  791SOL    HW112082   2.665   2.186   2.185
  791SOL    HW212083   2.747   2.045   2.200
  792SOL     OW12084   2.902   4.031   2.085
  792SOL    HW112085   2.831   4.025   2.014
  792SOL    HW212086   2.903   3.946   2.138
  793SOL     OW12087   2.405   8.010   1.733
  793SOL    HW112088   2.407   7.910   1.735
  793SOL    HW212089   2.493   8.045   1.704
  794SOL     OW12090   3.717   3.348   0.579
  794SOL    HW112091   3.744   3.444   0.571
  794SOL    HW212092   3.718   3.305   0.488
  795SOL     OW12093   4.378   2.846   1.297
  795SOL    HW112094   4.316   2.790   1.353
  795SOL    HW212095   4.422   2.788   1.228
  796SOL     OW12096   4.461   4.073   1.137
  796SOL    HW112097   4.458   3.973   1.128
  796SOL    HW212098   4.546   4.107   1.097
  797SOL     OW12099   4.488   1.599   1.325
  797SOL    HW112100   4.568   1.639   1.369
  797SOL    HW212101   4.432   1.671   1.284
  798SOL     OW12102   3.125   8.531   0.385
  798SOL    HW112103   3.177   8.447   0.398
  798SOL    HW212104   3.158   8.578   0.303
  799SOL     OW12105   4.122   0.563   1.364
  799SOL    HW112106   4.074   0.562   1.452
  799SOL    HW212107   4.077   0.500   1.301
  800SOL     OW12108   2.879   7.400   0.765
  800SOL    HW112109   2.969   7.441   0.751
  800SOL    HW212110   2.811   7.454   0.716
  801SOL     OW12111   3.732   4.023   1.154
  801SOL    HW112112   3.646   4.035   1.204
  801SOL    HW212113   3.806   4.007   1.219
  802SOL     OW12114   2.329   6.855   2.236
  802SOL    HW112115   2.259   6.894   2.296
  802SOL    HW212116   2.326   6.901   2.147
  803SOL     OW12117   2.960   8.598   1.723
  803SOL    HW112118   2.879   8.638   1.681
  803SOL    HW212119   3.039   8.614   1.665
  804SOL     OW12120   3.087   3.532   0.867
  804SOL    HW112121   3.092   3.593   0.946
  804SOL    HW212122   3.003   3.551   0.816
  805SOL     OW12123   2.441   8.562   0.681
  805SOL    HW112124   2.368   8.584   0.617
  805SOL    HW212125   2.516   8.517   0.632
  806SOL     OW12126   3.122   7.711   1.814
  806SOL    HW112127   3.029   7.675   1.818
  806SOL    HW212128   3.172   7.666   1.740
  807SOL     OW12129   2.620   4.251   1.806
  807SOL    HW112130   2.581   4.229   1.716
  807SOL    HW212131   2.561   4.317   1.852
  808SOL     OW12132   3.130   9.120   2.009
  808SOL    HW112133   3.065   9.053   1.973
  808SOL    HW212134   3.112   9.136   2.106
  809SOL     OW12135   3.461   8.770   1.593
  809SOL    HW112136   3.509   8.796   1.678
  809SOL    HW212137   3.364   8.755   1.613
  810SOL     OW12138   2.511   2.625   1.607
  810SOL    HW112139   2.573   2.618   1.529
  810SOL    HW212140   2.519   2.543   1.664
  811SOL     OW12141   2.982   4.642   1.177
  811SOL    HW112142   2.976   4.547   1.147
  811SOL    HW212143   3.031   4.647   1.264
  812SOL     OW12144   3.949   3.108   1.856
  812SOL    HW112145   3.975   3.053   1.936
  812SOL    HW212146   3.851   3.101   1.841
  813SOL     OW12147   2.589   6.184   0.337
  813SOL    HW112148   2.638   6.173   0.251
  813SOL    HW212149   2.505   6.235   0.321
  814SOL     OW12150   2.899   0.532   0.868
  814SOL    HW112151   2.937   0.440   0.877
  814SOL    HW212152   2.966   0.598   0.902
  815SOL     OW12153   3.508   2.799   1.015
  815SOL    HW112154   3.413   2.830   1.023
  815SOL    HW212155   3.552   2.846   0.938
  816SOL     OW12156   4.265   2.839   1.993
  816SOL    HW112157   4.319   2.874   1.917
  816SOL    HW212158   4.326   2.798   2.061
  817SOL     OW12159   2.622   9.723   2.229
  817SOL    HW112160   2.619   9.651   2.160
  817SOL    HW212161   2.529   9.748   2.255
  818SOL     OW12162   2.494   7.755   1.380
  818SOL    HW112163   2.593   7.746   1.389
  818SOL    HW212164   2.472   7.845   1.343
  819SOL     OW12165   2.975   2.549   0.481
  819SOL    HW112166   2.963   2.644   0.507
  819SOL    HW212167   3.019   2.544   0.391
  820SOL     OW12168   2.467   3.712   1.045
  820SOL    HW112169   2.502   3.728   0.953
  820SOL    HW212170   2.430   3.798   1.081
  821SOL     OW12171   2.973   6.984   0.597
  821SOL    HW112172   2.935   6.892   0.591
  821SOL    HW212173   2.907   7.044   0.643
  822SOL     OW12174   3.155   4.660   1.381
  822SOL    HW112175   3.157   4.705   1.470
  822SOL    HW212176   3.245   4.624   1.359
  823SOL     OW12177   2.277   3.039   0.504
  823SOL    HW112178   2.226   2.989   0.434
  823SOL    HW212179   2.213   3.083   0.567
  824SOL     OW12180   3.264   5.709   0.722
  824SOL    HW112181   3.265   5.609   0.716
  824SOL    HW212182   3.206   5.738   0.797
  825SOL     OW12183   2.580   5.429   2.150
  825SOL    HW112184   2.626   5.454   2.235
  825SOL    HW212185   2.648   5.410   2.080
  826SOL     OW12186   2.596   1.168   0.964
  826SOL    HW112187   2.618   1.235   1.036
  826SOL    HW212188   2.680   1.122   0.935
  827SOL     OW12189   3.902   3.936   1.358
  827SOL    HW112190   3.942   3.854   1.319
  827SOL    HW212191   3.853   3.913   1.442
  828SOL     OW12192   3.511   1.929   0.625
  828SOL    HW112193   3.495   2.027   0.637
  828SOL    HW212194   3.600   1.904   0.664
  829SOL     OW12195   2.910   3.315   2.184
  829SOL    HW112196   2.818   3.354   2.185
  829SOL    HW212197   2.941   3.307   2.089
  830SOL     OW12198   2.540   4.802   1.249
  830SOL    HW112199   2.508   4.791   1.343
  830SOL    HW212200   2.606   4.877   1.245
  831SOL     OW12201   3.307   1.812   0.780
  831SOL    HW112202   3.353   1.737   0.829
  831SOL    HW212203   3.371   1.856   0.719
  832SOL     OW12204   3.703   4.803   2.434
  832SOL    HW112205   3.726   4.707   2.418
  832SOL    HW212206   3.733   4.830   2.526
  833SOL     OW12207   3.617   4.136   0.489
  833SOL    HW112208   3.539   4.078   0.513
  833SOL    HW212209   3.697   4.108   0.541
  834SOL     OW12210   4.627   3.167   1.965
  834SOL    HW112211   4.683   3.223   1.904
  834SOL    HW212212   4.580   3.226   2.030
  835SOL     OW12213   3.535   0.535   1.139
  835SOL    HW112214   3.599   0.473   1.093
  835SOL    HW212215   3.448   0.488   1.152
  836SOL     OW12216   3.416   3.370   1.463
  836SOL    HW112217   3.438   3.349   1.368
  836SOL    HW212218   3.463   3.454   1.490
  837SOL     OW12219   3.928   2.993   1.110
  837SOL    HW112220   3.968   2.963   1.197
  837SOL    HW212221   3.897   2.914   1.058
  838SOL     OW12222   2.473   7.742   1.723
  838SOL    HW112223   2.431   7.687   1.650
  838SOL    HW212224   2.567   7.764   1.698
  839SOL     OW12225   2.672   4.133   2.230
  839SOL    HW112226   2.674   4.233   2.222
  839SOL    HW212227   2.752   4.094   2.184
  840SOL     OW12228   3.091   9.460   1.622
  840SOL    HW112229   3.054   9.392   1.685
  840SOL    HW212230   3.068   9.435   1.528
  841SOL     OW12231   2.722   1.592   2.283
  841SOL    HW112232   2.622   1.602   2.277
  841SOL    HW212233   2.748   1.501   2.250
  842SOL     OW12234   4.319   1.377   1.336
  842SOL    HW112235   4.387   1.450   1.345
  842SOL    HW212236   4.335   1.307   1.405
  843SOL     OW12237   2.725   8.709   1.636
  843SOL    HW112238   2.708   8.797   1.593
  843SOL    HW212239   2.673   8.702   1.721
  844SOL     OW12240   2.776   1.558   1.495
  844SOL    HW112241   2.685   1.523   1.517
  844SOL    HW212242   2.768   1.635   1.432
  845SOL     OW12243   3.146   9.883   2.346
  845SOL    HW112244   3.051   9.855   2.359
  845SOL    HW212245   3.205   9.802   2.351
  846SOL     OW12246   3.218   3.738   1.289
  846SOL    HW112247   3.199   3.776   1.380
  846SOL    HW212248   3.310   3.697   1.289
  847SOL     OW12249   2.337   9.927   1.971
  847SOL    HW112250   2.408   9.859   1.954
  847SOL    HW212251   2.270   9.891   2.036
  848SOL     OW12252   3.167   8.661   1.552
  848SOL    HW112253   3.123   8.693   1.468
  848SOL    HW212254   3.224   8.582   1.531
  849SOL     OW12255   2.578   2.105   0.992
  849SOL    HW112256   2.676   2.091   0.980
  849SOL    HW212257   2.542   2.036   1.055
  850SOL     OW12258   3.289   4.527   2.015
  850SOL    HW112259   3.198   4.561   2.038
  850SOL    HW212260   3.358   4.589   2.050
  851SOL     OW12261   3.114   7.995   0.910
  851SOL    HW112262   3.174   7.961   0.838
  851SOL    HW212263   3.116   8.095   0.911
  852SOL     OW12264   2.814   1.028   0.863
  852SOL    HW112265   2.798   0.974   0.781
  852SOL    HW212266   2.842   0.967   0.938
  853SOL     OW12267   3.244   3.029   0.800
  853SOL    HW112268   3.247   2.964   0.876
  853SOL    HW212269   3.198   3.113   0.829
  854SOL     OW12270   2.786   8.536   0.779
  854SOL    HW112271   2.727   8.611   0.810
  854SOL    HW212272   2.748   8.495   0.697
  855SOL     OW12273   2.847   2.135   0.933
  855SOL    HW112274   2.886   2.086   0.855
  855SOL    HW212275   2.835   2.231   0.910
  856SOL     OW12276   4.037   3.572   0.723
  856SOL    HW112277   4.023   3.508   0.799
  856SOL    HW212278   4.125   3.554   0.679
  857SOL     OW12279   4.713   3.080   1.415
  857SOL    HW112280   4.751   3.053   1.327
  857SOL    HW212281   4.648   3.010   1.447
  858SOL     OW12282   2.944   1.246   0.765
  858SOL    HW112283   3.022   1.270   0.822
  858SOL    HW212284   2.896   1.168   0.806
  859SOL     OW12285   4.030   2.967   2.068
  859SOL    HW112286   3.985   2.922   2.145
  859SOL    HW212287   4.115   2.919   2.047
  860SOL     OW12288   2.573   3.754   0.793
  860SOL    HW112289   2.620   3.825   0.741
  860SOL    HW212290   2.570   3.670   0.739
  861SOL     OW12291   3.130   3.856   1.517
  861SOL    HW112292   3.052   3.885   1.462
  861SOL    HW212293   3.098   3.808   1.599
  862SOL     OW12294   2.578   3.261   0.746
  862SOL    HW112295   2.656   3.281   0.806
  862SOL    HW212296   2.516   3.197   0.793
  863SOL     OW12297   2.673   2.621   1.381
  863SOL    HW112298   2.625   2.644   1.296
  863SOL    HW212299   2.753   2.565   1.360
  864SOL     OW12300   3.621   4.709   1.855
  864SOL    HW112301   3.719   4.694   1.846
  864SOL    HW212302   3.596   4.793   1.807
  865SOL     OW12303   2.768   7.734   1.397
  865SOL    HW112304   2.795   7.795   1.323
  865SOL    HW212305   2.821   7.649   1.393
  866SOL     OW12306   2.677   8.961   0.826
  866SOL    HW112307   2.636   9.047   0.795
  866SOL    HW212308   2.762   8.981   0.876
  867SOL     OW12309   2.560   4.135   0.531
  867SOL    HW112310   2.514   4.209   0.580
  867SOL    HW212311   2.540   4.143   0.433
  868SOL     OW12312   3.271   2.491   1.781
  868SOL    HW112313   3.269   2.391   1.781
  868SOL    HW212314   3.274   2.524   1.876
  869SOL     OW12315   3.895   4.796   1.782
  869SOL    HW112316   3.900   4.697   1.768
  869SOL    HW212317   3.894   4.842   1.693
  870SOL     OW12318   2.778   3.139   0.496
  870SOL    HW112319   2.682   3.162   0.484
  870SOL    HW212320   2.812   3.092   0.415
  871SOL     OW12321   3.652   0.835   0.925
  871SOL    HW112322   3.590   0.838   1.004
  871SOL    HW212323   3.677   0.740   0.906
  872SOL     OW12324   2.622   5.273   0.488
  872SOL    HW112325   2.716   5.247   0.509
  872SOL    HW212326   2.596   5.352   0.544
  873SOL     OW12327   3.865   8.566   0.363
  873SOL    HW112328   3.841   8.618   0.444
  873SOL    HW212329   3.888   8.629   0.289
  874SOL     OW12330   2.559   9.685   1.047
  874SOL    HW112331   2.470   9.659   1.084
  874SOL    HW212332   2.631   9.645   1.104
  875SOL     OW12333   2.839   5.479   1.387
  875SOL    HW112334   2.875   5.387   1.405
  875SOL    HW212335   2.744   5.472   1.358
  876SOL     OW12336   2.488   9.638   1.540
  876SOL    HW112337   2.581   9.675   1.532
  876SOL    HW212338   2.424   9.698   1.493
  877SOL     OW12339   2.807   2.404   0.914
  877SOL    HW112340   2.892   2.455   0.925
  877SOL    HW212341   2.750   2.416   0.996
  878SOL     OW12342   4.002   3.358   1.962
  878SOL    HW112343   4.069   3.360   2.036
  878SOL    HW212344   3.998   3.266   1.923
  879SOL     OW12345   3.943   0.937   1.943
  879SOL    HW112346   3.982   1.029   1.949
  879SOL    HW212347   3.885   0.920   2.023
  880SOL     OW12348   2.538   4.495   1.582
  880SOL    HW112349   2.629   4.457   1.569
  880SOL    HW212350   2.473   4.446   1.523
  881SOL     OW12351   2.543   3.775   1.858
  881SOL    HW112352   2.488   3.776   1.774
  881SOL    HW212353   2.482   3.774   1.937
  882SOL     OW12354   2.341   8.404   1.710
  882SOL    HW112355   2.286   8.456   1.645
  882SOL    HW212356   2.421   8.367   1.663
  883SOL     OW12357   3.114   2.039   2.154
  883SOL    HW112358   3.070   2.096   2.224
  883SOL    HW212359   3.200   2.081   2.125
  884SOL     OW12360   2.762   4.011   1.546
  884SOL    HW112361   2.812   3.975   1.467
  884SOL    HW212362   2.821   4.075   1.596
  885SOL     OW12363   2.712   1.872   2.225
  885SOL    HW112364   2.615   1.847   2.228
  885SOL    HW212365   2.766   1.798   2.265
  886SOL     OW12366   2.679   5.500   2.398
  886SOL    HW112367   2.680   5.600   2.403
  886SOL    HW212368   2.612   5.463   2.461
  887SOL     OW12369   3.217   4.524   1.675
  887SOL    HW112370   3.268   4.461   1.617
  887SOL    HW212371   3.162   4.472   1.741
  888SOL     OW12372   2.603   6.588   1.255
  888SOL    HW112373   2.683   6.580   1.314
  888SOL    HW212374   2.557   6.499   1.249
  889SOL     OW12375   2.680   7.992   0.726
  889SOL    HW112376   2.670   7.939   0.810
  889SOL    HW212377   2.746   8.066   0.741
  890SOL     OW12378   3.787   4.182   1.915
  890SOL    HW112379   3.745   4.256   1.968
  890SOL    HW212380   3.869   4.217   1.869
  891SOL     OW12381   4.535   2.901   1.519
  891SOL    HW112382   4.474   2.881   1.443
  891SOL    HW212383   4.481   2.926   1.600
  892SOL     OW12384   2.952   4.189   1.632
  892SOL    HW112385   3.030   4.187   1.569
  892SOL    HW212386   2.982   4.160   1.723
  893SOL     OW12387   3.510   2.169   1.224
  893SOL    HW112388   3.475   2.095   1.166
  893SOL    HW212389   3.434   2.214   1.270
  894SOL     OW12390   2.831   0.626   0.621
  894SOL    HW112391   2.856   0.598   0.713
  894SOL    HW212392   2.834   0.726   0.615
  895SOL     OW12393   2.566   3.476   2.411
  895SOL    HW112394   2.541   3.572   2.406
  895SOL    HW212395   2.619   3.459   2.493
  896SOL     OW12396   3.180   2.992   1.389
  896SOL    HW112397   3.115   3.040   1.449
  896SOL    HW212398   3.199   3.048   1.309
  897SOL     OW12399   3.251   9.650   1.500
  897SOL    HW112400   3.184   9.597   1.553
  897SOL    HW212401   3.214   9.740   1.479
  898SOL     OW12402   2.834   3.201   1.138
  898SOL    HW112403   2.897   3.262   1.187
  898SOL    HW212404   2.825   3.232   1.043
  899SOL     OW12405   3.080   5.166   0.385
  899SOL    HW112406   3.068   5.136   0.479
  899SOL    HW212407   3.003   5.223   0.358
  900SOL     OW12408   2.401   3.478   2.053
  900SOL    HW112409   2.487   3.449   2.095
  900SOL    HW212410   2.398   3.448   1.958
  901SOL     OW12411   3.378   1.663   2.151
  901SOL    HW112412   3.407   1.580   2.104
  901SOL    HW212413   3.414   1.743   2.102
  902SOL     OW12414   2.678   4.061   1.116
  902SOL    HW112415   2.699   3.972   1.155
  902SOL    HW212416   2.714   4.066   1.022
  903SOL     OW12417   3.075   0.213   1.748
  903SOL    HW112418   3.146   0.159   1.792
  903SOL    HW212419   3.037   0.279   1.813
  904SOL     OW12420   2.882   9.816   2.363
  904SOL    HW112421   2.853   9.873   2.286
  904SOL    HW212422   2.809   9.753   2.388
  905SOL     OW12423   3.459   2.194   0.669
  905SOL    HW112424   3.534   2.218   0.730
  905SOL    HW212425   3.433   2.274   0.615
  906SOL     OW12426   2.848   6.914   1.428
  906SOL    HW112427   2.893   6.833   1.391
  906SOL    HW212428   2.813   6.969   1.352
  907SOL     OW12429   2.624   6.864   1.596
  907SOL    HW112430   2.597   6.960   1.603
  907SOL    HW212431   2.709   6.856   1.545
  908SOL     OW12432   2.220   9.641   1.890
  908SOL    HW112433   2.203   9.712   1.822
  908SOL    HW212434   2.285   9.574   1.854
  909SOL     OW12435   3.173   8.870   1.749
  909SOL    HW112436   3.088   8.908   1.786
  909SOL    HW212437   3.151   8.808   1.673
  910SOL     OW12438   2.945   0.789   1.979
  910SOL    HW112439   2.975   0.788   1.884
  910SOL    HW212440   2.852   0.823   1.984
  911SOL     OW12441   3.016   7.740   0.477
  911SOL    HW112442   2.930   7.723   0.430
  911SOL    HW212443   3.015   7.831   0.518
  912SOL     OW12444   3.316   3.460   0.744
  912SOL    HW112445   3.234   3.486   0.795
  912SOL    HW212446   3.372   3.541   0.726
  913SOL     OW12447   3.062   8.743   1.311
  913SOL    HW112448   3.150   8.722   1.266
  913SOL    HW212449   2.991   8.752   1.241
  914SOL     OW12450   2.868   1.669   0.744
  914SOL    HW112451   2.966   1.665   0.724
  914SOL    HW212452   2.816   1.647   0.661
  915SOL     OW12453   3.058   9.163   2.269
  915SOL    HW112454   2.963   9.194   2.266
  915SOL    HW212455   3.061   9.069   2.302
  916SOL     OW12456   3.487   0.811   1.151
  916SOL    HW112457   3.506   0.713   1.150
  916SOL    HW212458   3.390   0.826   1.172
  917SOL     OW12459   3.963   4.429   0.335
  917SOL    HW112460   3.866   4.406   0.343
  917SOL    HW212461   3.975   4.527   0.344
  918SOL     OW12462   2.843   3.607   0.768
  918SOL    HW112463   2.765   3.582   0.711
  918SOL    HW212464   2.814   3.611   0.864
  919SOL     OW12465   3.634   2.512   1.421
  919SOL    HW112466   3.567   2.540   1.489
  919SOL    HW212467   3.607   2.549   1.331
  920SOL     OW12468   3.935   1.394   1.532
  920SOL    HW112469   3.984   1.435   1.455
  920SOL    HW212470   3.867   1.329   1.498
  921SOL     OW12471   3.755   1.871   0.755
  921SOL    HW112472   3.741   1.842   0.850
  921SOL    HW212473   3.825   1.943   0.752
  922SOL     OW12474   3.748   4.151   2.361
  922SOL    HW112475   3.761   4.100   2.276
  922SOL    HW212476   3.825   4.135   2.422
  923SOL     OW12477   4.000   2.665   2.326
  923SOL    HW112478   4.041   2.651   2.236
  923SOL    HW212479   3.946   2.749   2.325
  924SOL     OW12480   3.770   3.158   1.381
  924SOL    HW112481   3.772   3.157   1.281
  924SOL    HW212482   3.735   3.247   1.412
  925SOL     OW12483   2.799   3.324   0.892
  925SOL    HW112484   2.858   3.330   0.811
  925SOL    HW212485   2.804   3.409   0.943
  926SOL     OW12486   4.013   2.710   1.672
  926SOL    HW112487   3.974   2.662   1.593
  926SOL    HW212488   3.958   2.690   1.753
  927SOL     OW12489   2.998   5.107   1.951
  927SOL    HW112490   2.922   5.137   1.894
  927SOL    HW212491   3.062   5.054   1.895
  928SOL     OW12492   4.093   3.530   1.772
  928SOL    HW112493   4.054   3.473   1.844
  928SOL    HW212494   4.121   3.473   1.695
  929SOL     OW12495   3.189   1.058   0.409
  929SOL    HW112496   3.184   1.042   0.310
  929SOL    HW212497   3.099   1.087   0.442
  930SOL     OW12498   3.773   8.711   0.586
  930SOL    HW112499   3.682   8.668   0.586
  930SOL    HW212500   3.818   8.692   0.674
  931SOL     OW12501   2.561   8.313   1.571
  931SOL    HW112502   2.632   8.380   1.552
  931SOL    HW212503   2.602   8.229   1.605
  932SOL     OW12504   2.457   3.962   2.246
  932SOL    HW112505   2.388   4.008   2.190
  932SOL    HW212506   2.538   4.019   2.252
  933SOL     OW12507   3.466   1.438   0.682
  933SOL    HW112508   3.414   1.366   0.637
  933SOL    HW212509   3.510   1.496   0.614
  934SOL     OW12510   3.333   1.972   0.411
  934SOL    HW112511   3.410   1.953   0.473
  934SOL    HW212512   3.355   2.050   0.353
  935SOL     OW12513   3.122   1.516   1.498
  935SOL    HW112514   3.080   1.602   1.527
  935SOL    HW212515   3.070   1.439   1.535
  936SOL     OW12516   3.554   3.579   1.933
  936SOL    HW112517   3.489   3.570   1.858
  936SOL    HW212518   3.614   3.499   1.934
  937SOL     OW12519   3.275   9.545   0.739
  937SOL    HW112520   3.372   9.559   0.761
  937SOL    HW212521   3.218   9.581   0.812
  938SOL     OW12522   4.097   4.206   0.422
  938SOL    HW112523   4.052   4.275   0.366
  938SOL    HW212524   4.065   4.215   0.517
  939SOL     OW12525   2.648   8.429   0.561
  939SOL    HW112526   2.718   8.433   0.490
  939SOL    HW212527   2.615   8.335   0.571
  940SOL     OW12528   3.334   3.684   0.988
  940SOL    HW112529   3.372   3.684   0.895
  940SOL    HW212530   3.309   3.778   1.014
  941SOL     OW12531   3.296   7.652   1.217
  941SOL    HW112532   3.325   7.568   1.172
  941SOL    HW212533   3.203   7.675   1.189
  942SOL     OW12534   3.611   1.146   0.548
  942SOL    HW112535   3.650   1.094   0.623
  942SOL    HW212536   3.517   1.173   0.571
  943SOL     OW12537   2.440   1.569   2.031
  943SOL    HW112538   2.442   1.606   1.938
  943SOL    HW212539   2.452   1.470   2.028
  944SOL     OW12540   3.362   0.849   2.338
  944SOL    HW112541   3.269   0.882   2.350
  944SOL    HW212542   3.427   0.923   2.357
  945SOL     OW12543   3.439   0.163   2.317
  945SOL    HW112544   3.342   0.153   2.342
  945SOL    HW212545   3.447   0.231   2.244
  946SOL     OW12546   2.286   2.712   1.473
  946SOL    HW112547   2.207   2.712   1.535
  946SOL    HW212548   2.367   2.683   1.523
  947SOL     OW12549   2.892   3.553   0.449
  947SOL    HW112550   2.987   3.521   0.462
  947SOL    HW212551   2.831   3.498   0.506
  948SOL     OW12552   3.395   3.722   2.104
  948SOL    HW112553   3.443   3.804   2.135
  948SOL    HW212554   3.455   3.668   2.046
  949SOL     OW12555   3.875   2.358   1.943
  949SOL    HW112556   3.890   2.328   2.037
  949SOL    HW212557   3.811   2.296   1.897
  950SOL     OW12558   2.451   4.577   0.773
  950SOL    HW112559   2.526   4.593   0.837
  950SOL    HW212560   2.446   4.653   0.708
  951SOL     OW12561   2.237   1.924   2.193
  951SOL    HW112562   2.146   1.882   2.205
  951SOL    HW212563   2.240   1.973   2.107
  952SOL     OW12564   3.015   1.207   2.256
  952SOL    HW112565   3.035   1.116   2.292
  952SOL    HW212566   3.099   1.261   2.253
  953SOL     OW12567   3.475   2.363   1.033
  953SOL    HW112568   3.497   2.294   1.101
  953SOL    HW212569   3.375   2.366   1.020
  954SOL     OW12570   3.293   8.482   0.933
  954SOL    HW112571   3.370   8.450   0.989
  954SOL    HW212572   3.318   8.567   0.888
  955SOL     OW12573   2.636   3.099   1.572
  955SOL    HW112574   2.555   3.076   1.625
  955SOL    HW212575   2.669   3.017   1.524
  956SOL     OW12576   2.459   9.101   1.574
  956SOL    HW112577   2.431   9.132   1.483
  956SOL    HW212578   2.531   9.032   1.565
  957SOL     OW12579   3.216   9.284   0.277
  957SOL    HW112580   3.246   9.368   0.321
  957SOL    HW212581   3.295   9.234   0.241
  958SOL     OW12582   2.293   3.519   2.310
  958SOL    HW112583   2.364   3.471   2.362
  958SOL    HW212584   2.300   3.495   2.214
  959SOL     OW12585   4.438   2.826   0.511
  959SOL    HW112586   4.348   2.783   0.508
  959SOL    HW212587   4.490   2.788   0.587
  960SOL     OW12588   3.592   1.602   0.505
  960SOL    HW112589   3.581   1.702   0.501
  960SOL    HW212590   3.672   1.576   0.450
  961SOL     OW12591   2.396   7.188   0.943
  961SOL    HW112592   2.386   7.237   0.857
  961SOL    HW212593   2.427   7.252   1.014
  962SOL     OW12594   3.742   3.205   0.340
  962SOL    HW112595   3.769   3.243   0.252
  962SOL    HW212596   3.680   3.128   0.326
  963SOL     OW12597   2.916   8.768   1.079
  963SOL    HW112598   2.959   8.700   1.021
  963SOL    HW212599   2.917   8.857   1.033
  964SOL     OW12600   3.169   2.528   0.678
  964SOL    HW112601   3.093   2.527   0.613
  964SOL    HW212602   3.226   2.609   0.662
  965SOL     OW12603   2.557   5.675   1.592
  965SOL    HW112604   2.511   5.587   1.577
  965SOL    HW212605   2.652   5.658   1.618
  966SOL     OW12606   2.680   0.102   1.222
  966SOL    HW112607   2.632   0.185   1.248
  966SOL    HW212608   2.777   0.112   1.243
  967SOL     OW12609   2.997   3.977   0.326
  967SOL    HW112610   2.920   3.918   0.350
  967SOL    HW212611   2.994   3.996   0.227
  968SOL     OW12612   2.561   6.231   1.943
  968SOL    HW112613   2.540   6.210   1.848
  968SOL    HW212614   2.617   6.158   1.982
  969SOL     OW12615   3.147   9.903   1.003
  969SOL    HW112616   3.177   9.991   1.037
  969SOL    HW212617   3.163   9.898   0.904
  970SOL     OW12618   2.478   0.584   1.803
  970SOL    HW112619   2.502   0.618   1.894
  970SOL    HW212620   2.409   0.512   1.811
  971SOL     OW12621   2.798   9.261   2.252
  971SOL    HW112622   2.780   9.314   2.335
  971SOL    HW212623   2.713   9.220   2.219
  972SOL     OW12624   4.985   3.336   1.686
  972SOL    HW112625   4.958   3.244   1.656
  972SOL    HW212626   5.085   3.344   1.683
  973SOL     OW12627   3.787   8.988   0.663
  973SOL    HW112628   3.748   9.058   0.603
  973SOL    HW212629   3.783   8.899   0.618
  974SOL     OW12630   2.587   0.275   0.770
  974SOL    HW112631   2.658   0.206   0.782
  974SOL    HW212632   2.505   0.249   0.822
  975SOL     OW12633   2.830   5.607   1.627
  975SOL    HW112634   2.829   5.567   1.536
  975SOL    HW212635   2.905   5.565   1.680
  976SOL     OW12636   3.358   7.824   1.900
  976SOL    HW112637   3.401   7.763   1.966
  976SOL    HW212638   3.271   7.784   1.870
  977SOL     OW12639   2.599   2.360   1.107
  977SOL    HW112640   2.619   2.324   1.198
  977SOL    HW212641   2.573   2.285   1.047
  978SOL     OW12642   3.258   3.347   1.872
  978SOL    HW112643   3.292   3.341   1.966
  978SOL    HW212644   3.264   3.256   1.829
  979SOL     OW12645   3.441   0.353   2.126
  979SOL    HW112646   3.428   0.349   2.027
  979SOL    HW212647   3.426   0.446   2.158
  980SOL     OW12648   3.371   8.721   0.816
  980SOL    HW112649   3.379   8.816   0.847
  980SOL    HW212650   3.309   8.717   0.737
  981SOL     OW12651   2.857   8.453   0.374
  981SOL    HW112652   2.946   8.496   0.388
  981SOL    HW212653   2.829   8.462   0.279
  982SOL     OW12654   2.442   4.346   1.357
  982SOL    HW112655   2.479   4.422   1.303
  982SOL    HW212656   2.375   4.296   1.302
  983SOL     OW12657   2.348   1.323   1.155
  983SOL    HW112658   2.313   1.288   1.068
  983SOL    HW212659   2.448   1.330   1.150
  984SOL     OW12660   2.398   7.341   0.714
  984SOL    HW112661   2.468   7.411   0.697
  984SOL    HW212662   2.363   7.308   0.627
  985SOL     OW12663   3.817   8.940   0.929
  985SOL    HW112664   3.861   8.851   0.931
  985SOL    HW212665   3.808   8.971   0.834
  986SOL     OW12666   3.474   1.882   2.023
  986SOL    HW112667   3.485   1.867   1.924
  986SOL    HW212668   3.549   1.939   2.056
  987SOL     OW12669   2.780   1.315   1.758
  987SOL    HW112670   2.860   1.312   1.699
  987SOL    HW212671   2.784   1.396   1.817
  988SOL     OW12672   3.043   3.702   1.082
  988SOL    HW112673   3.104   3.702   1.161
  988SOL    HW212674   3.023   3.796   1.055
  989SOL     OW12675   3.848   4.876   2.038
  989SOL    HW112676   3.867   4.854   1.943
  989SOL    HW212677   3.917   4.940   2.072
  990SOL     OW12678   4.013   3.853   0.690
  990SOL    HW112679   4.047   3.899   0.772
  990SOL    HW212680   4.016   3.754   0.703
  991SOL     OW12681   2.301   8.970   2.031
  991SOL    HW112682   2.297   8.915   2.115
  991SOL    HW212683   2.296   9.067   2.054
  992SOL     OW12684   4.323   4.141   0.900
  992SOL    HW112685   4.364   4.155   0.991
  992SOL    HW212686   4.321   4.228   0.851
  993SOL     OW12687   3.496   3.329   0.919
  993SOL    HW112688   3.427   3.369   0.858
  993SOL    HW212689   3.587   3.359   0.892
  994SOL     OW12690   2.566   3.670   1.397
  994SOL    HW112691   2.531   3.763   1.403
  994SOL    HW212692   2.504   3.607   1.443
  995SOL     OW12693   2.794   4.060   0.868
  995SOL    HW112694   2.764   4.019   0.781
  995SOL    HW212695   2.822   4.155   0.852
  996SOL     OW12696   3.378   9.454   1.650
  996SOL    HW112697   3.292   9.424   1.691
  996SOL    HW212698   3.360   9.530   1.587
  997SOL     OW12699   2.968   0.418   1.900
  997SOL    HW112700   2.880   0.432   1.853
  997SOL    HW212701   2.954   0.428   1.999
  998SOL     OW12702   3.462   0.467   0.506
  998SOL    HW112703   3.489   0.561   0.486
  998SOL    HW212704   3.382   0.442   0.451
  999SOL     OW12705   3.364   9.081   1.714
  999SOL    HW112706   3.381   9.113   1.620
  999SOL    HW212707   3.299   9.006   1.712
 1000SOL     OW12708   2.181   5.566   0.946
 1000SOL    HW112709   2.088   5.546   0.917
 1000SOL    HW212710   2.232   5.480   0.958
 1001SOL     OW12711   3.371   4.361   1.512
 1001SOL    HW112712   3.371   4.419   1.430
 1001SOL    HW212713   3.463   4.360   1.551
 1002SOL     OW12714   2.798   8.142   1.296
 1002SOL    HW112715   2.835   8.176   1.382
 1002SOL    HW212716   2.705   8.176   1.284
 1003SOL     OW12717   2.947   9.481   0.535
 1003SOL    HW112718   2.969   9.565   0.585
 1003SOL    HW212719   2.854   9.453   0.556
 1004SOL     OW12720   2.064   7.213   2.168
 1004SOL    HW112721   1.981   7.259   2.139
 1004SOL    HW212722   2.134   7.280   2.190
 1005SOL     OW12723   3.650   4.246   0.792
 1005SOL    HW112724   3.715   4.188   0.744
 1005SOL    HW212725   3.557   4.212   0.777
 1006SOL     OW12726   2.923   3.924   1.345
 1006SOL    HW112727   2.969   3.997   1.294
 1006SOL    HW212728   2.863   3.873   1.283
 1007SOL     OW12729   2.587   9.865   1.318
 1007SOL    HW112730   2.622   9.953   1.288
 1007SOL    HW212731   2.652   9.824   1.383
 1008SOL     OW12732   3.884   2.757   0.981
 1008SOL    HW112733   3.857   2.681   1.040
 1008SOL    HW212734   3.829   2.756   0.898
 1009SOL     OW12735   2.256   8.192   1.868
 1009SOL    HW112736   2.275   8.277   1.819
 1009SOL    HW212737   2.303   8.116   1.822
 1010SOL     OW12738   2.694   1.157   1.977
 1010SOL    HW112739   2.749   1.192   1.901
 1010SOL    HW212740   2.699   1.057   1.978
 1011SOL     OW12741   3.096   0.257   0.639
 1011SOL    HW112742   3.062   0.266   0.732
 1011SOL    HW212743   3.084   0.344   0.591
 1012SOL     OW12744   3.201   8.978   0.562
 1012SOL    HW112745   3.288   9.019   0.590
 1012SOL    HW212746   3.137   9.051   0.536
 1013SOL     OW12747   2.442   7.487   1.362
 1013SOL    HW112748   2.445   7.587   1.364
 1013SOL    HW212749   2.437   7.456   1.268
 1014SOL     OW12750   3.294   2.320   1.297
 1014SOL    HW112751   3.253   2.318   1.206
 1014SOL    HW212752   3.288   2.413   1.334
 1015SOL     OW12753   2.912   6.762   0.308
 1015SOL    HW112754   3.001   6.802   0.289
 1015SOL    HW212755   2.873   6.725   0.224
 1016SOL     OW12756   3.841   8.359   0.816
 1016SOL    HW112757   3.889   8.297   0.878
 1016SOL    HW212758   3.871   8.343   0.722
 1017SOL     OW12759   2.747   2.388   0.480
 1017SOL    HW112760   2.696   2.397   0.565
 1017SOL    HW212761   2.824   2.452   0.480
 1018SOL     OW12762   2.915   6.893   2.193
 1018SOL    HW112763   2.972   6.812   2.194
 1018SOL    HW212764   2.907   6.930   2.285
 1019SOL     OW12765   4.276   1.649   2.335
 1019SOL    HW112766   4.186   1.606   2.335
 1019SOL    HW212767   4.320   1.633   2.246
 1020SOL     OW12768   3.233   7.605   0.398
 1020SOL    HW112769   3.225   7.595   0.299
 1020SOL    HW212770   3.152   7.653   0.433
 1021SOL     OW12771   2.451   1.879   1.530
 1021SOL    HW112772   2.373   1.820   1.511
 1021SOL    HW212773   2.503   1.842   1.607
 1022SOL     OW12774   2.476   8.000   1.017
 1022SOL    HW112775   2.552   7.937   1.000
 1022SOL    HW212776   2.453   7.997   1.114
 1023SOL     OW12777   3.283   0.692   2.019
 1023SOL    HW112778   3.322   0.649   2.101
 1023SOL    HW212779   3.258   0.787   2.040
 1024SOL     OW12780   3.966   0.587   1.593
 1024SOL    HW112781   3.889   0.639   1.557
 1024SOL    HW212782   4.004   0.634   1.674
 1025SOL     OW12783   2.859   1.366   0.218
 1025SOL    HW112784   2.843   1.394   0.123
 1025SOL    HW212785   2.928   1.426   0.259
 1026SOL     OW12786   3.353   2.127   2.056
 1026SOL    HW112787   3.376   2.030   2.042
 1026SOL    HW212788   3.434   2.175   2.090
 1027SOL     OW12789   3.181   1.296   1.809
 1027SOL    HW112790   3.151   1.388   1.834
 1027SOL    HW212791   3.281   1.292   1.815
 1028SOL     OW12792   3.230   8.707   0.586
 1028SOL    HW112793   3.210   8.803   0.568
 1028SOL    HW212794   3.179   8.649   0.521
 1029SOL     OW12795   2.818   0.331   0.333
 1029SOL    HW112796   2.767   0.321   0.247
 1029SOL    HW212797   2.755   0.359   0.405
 1030SOL     OW12798   2.946   3.294   0.655
 1030SOL    HW112799   3.019   3.337   0.602
 1030SOL    HW212800   2.888   3.239   0.594
 1031SOL     OW12801   3.022   7.677   1.169
 1031SOL    HW112802   2.998   7.621   1.248
 1031SOL    HW212803   2.967   7.760   1.168
  10.00000  10.00000   2.86000
