chitosan Film  in water:acetic acid 2% t= 2000.00000 step= 2000000
13542
    1CHTO  H203    1   5.328   6.595   1.833 -1.3709 -0.3673 -0.0800
    1CHTO   O82    2   5.343   6.507   1.806 -0.5931 -0.3374  0.2263
    1CHTO  C123    3   5.468   6.450   1.866  0.0067 -0.0237  0.1777
    1CHTO  H227    4   5.498   6.514   1.951 -0.2845 -1.0385  1.0521
    1CHTO   O77    5   5.420   6.325   1.921  0.3465 -0.0089 -0.4476
    1CHTO  C118    6   5.521   6.260   2.007  0.9257 -0.0578  0.2595
    1CHTO  H222    7   5.550   6.332   2.085  0.4433 -0.6365  0.9814
    1CHTO  C125    8   5.435   6.139   2.072 -0.1868  0.4246 -0.1784
    1CHTO   O84    9   5.517   6.076   2.168 -0.2042 -0.1722 -0.2172
    1CHTO  H205   10   5.546   5.993   2.135  1.2629  0.2240  0.0588
    1CHTO  C114   11   5.641   6.221   1.919 -0.6277 -0.3191  0.2989
    1CHTO  H218   12   5.604   6.146   1.848 -1.6846 -1.6914  2.2564
    1CHTO  C116   13   5.702   6.344   1.833 -0.7231  0.5884  1.3424
    1CHTO  H220   14   5.752   6.411   1.906  1.1921  0.4324  0.2322
    1CHTO   O79   15   5.802   6.302   1.735  0.1352 -0.3108  0.1030
    1CHTO  H201   16   5.872   6.363   1.724  0.6128 -1.0490 -1.0463
    1CHTO  C120   17   5.581   6.428   1.765 -0.0572 -0.2542 -0.6284
    1CHTO  H224   18   5.544   6.371   1.677  0.4043  0.2831 -1.1802
    1CHTO   N21   19   5.631   6.560   1.709 -0.0656 -0.2562  0.0321
    1CHTO  H211   20   5.672   6.563   1.609 -0.7212 -0.7549 -0.2508
    1CHTO  H212   21   5.556   6.637   1.718  0.2239 -0.0434  0.6230
    1CHTO   O75   22   5.725   6.174   2.017 -0.2854  0.4734 -0.7351
    1CHTO  C112   23   5.822   6.039   1.973 -0.4945 -0.1055 -0.1743
    1CHTO  H216   24   5.814   6.022   1.865  2.2587 -0.3906 -0.3751
    1CHTO   O73   25   5.769   5.926   2.046 -0.1088 -0.3587  0.4851
    1CHTO  C113   26   5.826   5.793   2.009 -0.2297 -0.4482  0.4896
    1CHTO  H217   27   5.808   5.789   1.900 -3.9182 -0.6322  1.0339
    1CHTO  C124   28   5.753   5.678   2.073  0.5479 -0.1790 -0.2979
    1CHTO   O83   29   5.767   5.673   2.215  0.0012  0.1219 -0.0036
    1CHTO  H204   30   5.682   5.678   2.254 -0.8668  0.5040 -1.9003
    1CHTO  C109   31   5.971   5.787   2.041 -0.2187 -0.0859  1.0815
    1CHTO  H213   32   5.974   5.786   2.151  4.1375 -0.8129  1.0437
    1CHTO  C110   33   6.052   5.907   1.982  0.0103 -0.2824  0.1805
    1CHTO  H214   34   6.065   5.894   1.875 -1.4876 -3.9018  0.3843
    1CHTO   O78   35   6.181   5.918   2.048  0.0911  0.8831 -0.4176
    1CHTO  H200   36   6.172   5.950   2.135 -4.9483 -1.7137  0.1510
    1CHTO  C111   37   5.974   6.044   2.007  0.1938 -0.0240  0.0107
    1CHTO  H215   38   5.980   6.067   2.115 -2.0920 -3.7804  1.0445
    1CHTO   N19   39   6.036   6.157   1.934 -0.2390 -0.0622  0.4173
    1CHTO  H207   40   5.960   6.229   1.908  0.4959  0.8263  0.7185
    1CHTO  H208   41   6.110   6.136   1.859 -0.5122  0.5248 -0.0242
    1CHTO   O74   42   6.029   5.665   1.990 -0.4429  0.2020 -0.2470
    1CHTO  C115   43   6.115   5.591   2.100  0.5288  0.8451 -0.1125
    1CHTO  H219   44   6.114   5.643   2.196 -2.3499  0.0412  0.3505
    1CHTO   O76   45   6.058   5.435   2.136 -0.0141 -0.3242  0.1450
    1CHTO  C122   46   6.041   5.368   2.007 -0.2342  1.0867 -0.4650
    1CHTO  H226   47   5.961   5.411   1.947  0.2829 -0.2938 -2.1673
    1CHTO  C126   48   5.991   5.219   2.036  0.4477  0.2582 -0.6346
    1CHTO   O85   49   6.088   5.153   2.113  0.1037  0.4607  0.2620
    1CHTO  H206   50   6.144   5.100   2.060  0.0563  0.8368 -0.1696
    1CHTO  C121   51   6.170   5.361   1.922  0.0394  0.6577  0.1676
    1CHTO  H225   52   6.200   5.255   1.915  0.8298  0.8124  1.0151
    1CHTO   O81   53   6.143   5.393   1.784  0.5142  0.2288  0.4156
    1CHTO  H202   54   6.076   5.334   1.756  0.3800  0.8114 -0.5098
    1CHTO  C119   55   6.291   5.438   1.981 -0.5155  0.0788 -0.0004
    1CHTO  H223   56   6.311   5.379   2.070 -0.1443 -0.9441 -0.7452
    1CHTO  C117   57   6.264   5.590   2.036 -0.7232 -0.2868  0.1741
    1CHTO  H221   58   6.274   5.671   1.964  0.6343 -1.1434 -0.6355
    1CHTO   N20   59   6.360   5.627   2.141 -0.3854  0.0184 -0.1117
    1CHTO  H209   60   6.381   5.543   2.207 -4.6463 -0.9691  0.1315
    1CHTO  H210   61   6.446   5.674   2.095 -0.6934 -0.3204 -1.0422
    1CHTO   O80   62   6.423   5.414   1.896 -1.0045  0.0241 -0.1286
    1CHTO  C103   63   6.527   5.307   1.937  0.6288  0.5455 -0.1687
    1CHTO  H190   64   6.533   5.278   2.042 -0.2010  0.2236 -0.2038
    1CHTO  C101   65   6.505   5.166   1.863 -0.1051  0.2272  0.5359
    1CHTO  H188   66   6.508   5.186   1.756  3.9555  0.9457  0.7078
    1CHTO   O68   67   6.372   5.106   1.902 -0.2336 -0.0268 -0.2610
    1CHTO  H168   68   6.372   5.015   1.924  1.1815  0.2227  0.8621
    1CHTO   C99   69   6.633   5.070   1.876  0.8770  0.3358 -0.4379
    1CHTO  H186   70   6.647   5.042   1.982 -0.4108  0.6999 -0.1592
    1CHTO   N17   71   6.619   4.947   1.798 -0.5078  0.0128  0.4269
    1CHTO  H174   72   6.700   4.934   1.727 -0.9811  0.3732 -0.1807
    1CHTO  H175   73   6.520   4.935   1.757 -0.3339 -1.0885  0.3274
    1CHTO   C97   74   6.762   5.143   1.833  1.0476 -0.0700  0.3203
    1CHTO  H184   75   6.768   5.168   1.726 -1.8472 -1.9229 -0.3301
    1CHTO   O64   76   6.771   5.260   1.914  0.0677  0.2215 -0.6298
    1CHTO  C104   77   6.671   5.360   1.896 -0.4039 -0.5600 -0.4568
    1CHTO  H191   78   6.664   5.387   1.790 -0.3567  0.8182 -0.1166
    1CHTO  C108   79   6.704   5.490   1.974 -0.4018  0.4106 -0.1727
    1CHTO   O71   80   6.627   5.600   1.938  0.1253 -0.3379  0.1326
    1CHTO  H171   81   6.686   5.672   1.947  0.0810 -0.2148 -0.5063
    1CHTO   O62   82   6.876   5.072   1.875 -0.3398 -0.1839  0.1788
    1CHTO   C91   83   6.993   5.061   1.793 -0.0150 -0.1803  0.2309
    1CHTO  H178   84   6.957   5.039   1.692 -0.9443 -0.9801  0.7249
    1CHTO   C92   85   7.064   4.918   1.827 -0.1326  0.3667 -0.2793
    1CHTO  H179   86   7.073   4.907   1.936  0.6976 -2.2435 -0.5709
    1CHTO   O66   87   6.972   4.812   1.782  0.5926  0.3230  0.4112
    1CHTO  H166   88   6.932   4.829   1.699  0.8394  2.5413  0.7116
    1CHTO   C93   89   7.205   4.908   1.754  0.1128  0.4815 -0.7995
    1CHTO  H180   90   7.197   4.910   1.644 -1.2028 -3.2165 -0.8376
    1CHTO   N16   91   7.277   4.782   1.781 -0.3185 -0.2514 -0.5642
    1CHTO  H172   92   7.274   4.727   1.688 -0.3527 -1.9598  0.4173
    1CHTO  H173   93   7.381   4.797   1.807 -0.9877 -1.4160  3.0443
    1CHTO   C94   94   7.294   5.027   1.802 -0.1829  0.5193  0.0590
    1CHTO  H181   95   7.301   5.034   1.910  1.2324  1.6382 -0.1001
    1CHTO   O61   96   7.240   5.145   1.752 -0.5295 -0.1903  0.3035
    1CHTO   C95   97   7.111   5.177   1.800  0.6006  0.5488  0.0968
    1CHTO  H182   98   7.121   5.216   1.902  1.5625 -0.9829  0.6071
    1CHTO  C106   99   7.069   5.302   1.715 -0.8727 -0.1700 -1.1156
    1CHTO   O69  100   7.031   5.283   1.578  0.2936  0.1919 -0.0053
    1CHTO  H169  101   6.948   5.241   1.569  0.8182 -1.1247  1.1822
    1CHTO   O63  102   7.439   5.020   1.747  0.2060  0.2572  0.5724
    1CHTO   C96  103   7.548   5.109   1.832 -0.1860 -0.1372 -0.1656
    1CHTO  H183  104   7.494   5.188   1.884  0.1499  1.2524 -1.8662
    1CHTO   C98  105   7.655   5.191   1.752 -0.4287  0.4601  0.2093
    1CHTO  H185  106   7.611   5.263   1.681  3.4727  2.4879 -0.2891
    1CHTO   O67  107   7.733   5.268   1.848  0.5657 -0.0908 -0.3178
    1CHTO  H167  108   7.762   5.219   1.923  0.1588  0.9813  0.5437
    1CHTO  C102  109   7.754   5.088   1.679 -1.3654  0.3404 -0.0179
    1CHTO  H189  110   7.845   5.147   1.662 -0.8165 -0.0412  1.5492
    1CHTO   N18  111   7.705   5.039   1.546 -0.0328 -0.0634  0.0512
    1CHTO  H176  112   7.622   5.104   1.522  0.3535 -0.2318 -1.8104
    1CHTO  H177  113   7.664   4.939   1.557  1.6266 -0.8214 -0.4829
    1CHTO  C105  114   7.788   4.964   1.776  0.3891 -0.0713  0.0423
    1CHTO  H192  115   7.719   4.882   1.756  0.9109 -0.9534  1.8268
    1CHTO   O65  116   7.754   5.003   1.915 -0.0399 -0.1110  0.1662
    1CHTO  C100  117   7.613   5.013   1.936  0.2114 -0.4111  0.6888
    1CHTO  H187  118   7.572   4.911   1.929 -0.0698 -0.2486 -0.0066
    1CHTO  C107  119   7.587   5.058   2.088 -0.1692  0.3873  0.2190
    1CHTO   O70  120   7.449   5.045   2.111  0.0122 -0.2744  0.1575
    1CHTO  H170  121   7.430   4.958   2.142 -1.9525 -0.6186 -1.8034
    1CHTO   O57  122   7.946   4.925   1.746 -0.4491 -0.4850 -0.3548
    1CHTO   C85  123   7.965   4.812   1.660  0.4737  0.3423 -0.4369
    1CHTO  H157  124   7.870   4.800   1.604 -1.3375  1.1551  2.3764
    1CHTO   C83  125   7.988   4.691   1.755  0.0257 -1.1257 -0.6896
    1CHTO  H155  126   7.901   4.681   1.819  0.1030 -2.2302 -0.7452
    1CHTO   O56  127   8.100   4.709   1.843  0.0549  0.0847 -0.0273
    1CHTO  H135  128   8.067   4.737   1.926  0.0581 -0.8436  0.2813
    1CHTO   C81  129   8.009   4.566   1.664 -0.0973  0.3336  0.4082
    1CHTO  H153  130   7.920   4.555   1.603 -0.4278 -0.9569  1.0992
    1CHTO   N14  131   8.007   4.440   1.738 -0.1293  0.2226 -0.5348
    1CHTO  H141  132   7.929   4.435   1.812  0.1603  0.7389 -0.1935
    1CHTO  H142  133   7.994   4.356   1.673  0.5919 -1.0834  0.9622
    1CHTO   C79  134   8.129   4.578   1.573  0.0137  0.4853  0.6639
    1CHTO  H151  135   8.120   4.495   1.502  0.7189  1.3264 -0.4332
    1CHTO   O52  136   8.119   4.701   1.487  0.0526  0.0209 -0.0857
    1CHTO   C86  137   8.091   4.821   1.562  0.0142 -0.4691  0.3375
    1CHTO  H158  138   8.188   4.832   1.616  0.5489  1.1060 -0.9071
    1CHTO   C90  139   8.100   4.942   1.457  0.0346  0.0865  0.0806
    1CHTO   O60  140   8.082   5.066   1.526  0.0678 -0.3427 -0.0973
    1CHTO  H138  141   8.161   5.081   1.574  0.2987  1.5823 -1.0399
    1CHTO   O50  142   8.256   4.577   1.641  0.1085 -0.3523  0.2330
    1CHTO   C73  143   8.389   4.539   1.595  0.6030  0.4817 -0.1528
    1CHTO  H145  144   8.397   4.567   1.488 -2.2848  1.0706 -0.2625
    1CHTO   C74  145   8.414   4.386   1.612  0.3280 -0.1603 -0.4708
    1CHTO  H146  146   8.343   4.329   1.550 -0.1300  0.2333 -0.3126
    1CHTO   O54  147   8.546   4.355   1.565 -0.2080  0.3353 -0.1673
    1CHTO  H133  148   8.566   4.378   1.476  0.3682 -0.7776 -0.3272
    1CHTO   C75  149   8.405   4.344   1.764  0.6083  0.7342 -0.6389
    1CHTO  H147  150   8.301   4.363   1.796  1.5739 -0.8870  3.8547
    1CHTO   N13  151   8.418   4.199   1.793  0.5160 -0.0772 -0.4770
    1CHTO  H139  152   8.521   4.169   1.777  1.0107  1.2392  0.2066
    1CHTO  H140  153   8.409   4.189   1.900  3.8377 -2.4336 -0.3448
    1CHTO   C76  154   8.496   4.434   1.862 -0.5577  0.0778 -0.2158
    1CHTO  H148  155   8.600   4.400   1.854 -0.4708 -0.0286  1.3353
    1CHTO   O49  156   8.485   4.569   1.820 -0.4699  0.1895  0.0814
    1CHTO   C77  157   8.492   4.611   1.679 -0.4823 -0.8265  0.2786
    1CHTO  H149  158   8.593   4.595   1.639 -0.0905  0.0524  0.8969
    1CHTO   C88  159   8.474   4.763   1.668  0.2862  0.0599 -0.1300
    1CHTO   O58  160   8.579   4.831   1.690 -0.1754  0.1003 -0.0500
    1CHTO  H136  161   8.651   4.817   1.631 -0.7458  1.0161 -0.9782
    1CHTO   O51  162   8.444   4.426   2.012  0.0181  0.4425  0.5203
    1CHTO   C78  163   8.391   4.564   2.074 -0.2279 -0.3811 -0.1969
    1CHTO  H150  164   8.351   4.624   1.990 -1.4327 -0.9068 -0.0157
    1CHTO   C80  165   8.510   4.645   2.135 -0.4668  0.2755 -0.0180
    1CHTO  H152  166   8.545   4.588   2.223 -0.1229 -1.2822 -1.1406
    1CHTO   O55  167   8.615   4.664   2.049  0.0459  0.2821 -0.5173
    1CHTO  H134  168   8.631   4.595   1.987  0.6401 -0.9317  0.9267
    1CHTO   C84  169   8.458   4.785   2.188 -0.4732  0.5129 -0.1874
    1CHTO  H156  170   8.443   4.844   2.098  0.3401  1.2610  0.1603
    1CHTO   N15  171   8.554   4.864   2.275  0.0587 -0.0681  0.5212
    1CHTO  H143  172   8.649   4.863   2.225 -0.5236  1.8206 -0.6895
    1CHTO  H144  173   8.517   4.964   2.277 -0.2445 -0.1660 -0.0148
    1CHTO   C87  174   8.324   4.769   2.266  0.8699 -0.2483 -0.2624
    1CHTO  H159  175   8.337   4.721   2.363 -2.2785 -0.3055  0.1852
    1CHTO   O53  176   8.224   4.691   2.203 -0.2043  0.2596 -0.1078
    1CHTO   C82  177   8.268   4.557   2.167  0.9944  0.0454  0.0961
    1CHTO  H154  178   8.287   4.500   2.258  1.4404 -4.7492 -2.8302
    1CHTO   C89  179   8.149   4.489   2.094 -0.0760 -0.0553  0.3762
    1CHTO   O59  180   8.163   4.344   2.091 -0.4167  0.5616  0.0846
    1CHTO  H137  181   8.092   4.308   2.042  0.3711 -2.8046  1.3056
    1CHTO   O45  182   8.250   4.914   2.299  0.6510  0.6044  0.1696
    1CHTO   C67  183   8.203   4.995   2.193 -0.0707 -0.1050  0.1062
    1CHTO  H124  184   8.257   4.975   2.101 -1.5535  1.4215 -1.1180
    1CHTO   C65  185   8.051   4.959   2.166 -0.2076  0.1140  0.4177
    1CHTO  H122  186   8.056   4.851   2.151  5.5255  0.5100 -1.9144
    1CHTO   O44  187   8.009   5.018   2.039 -0.0626  0.8349  0.2375
    1CHTO  H102  188   7.915   5.015   2.035  0.0390  0.5039 -2.6405
    1CHTO   C63  189   7.974   5.007   2.297 -0.4735 -0.5627 -0.1085
    1CHTO  H120  190   8.026   4.967   2.383  0.1833  1.9736  0.7225
    1CHTO   N11  191   7.842   4.943   2.313  0.2823 -0.4436  0.7818
    1CHTO  H108  192   7.789   4.965   2.403 -0.8093  0.3256 -0.0290
    1CHTO  H109  193   7.778   4.982   2.236 -0.4230 -3.6296 -0.3209
    1CHTO   C61  194   7.975   5.164   2.311 -0.4277  0.0205  0.3129
    1CHTO  H118  195   7.933   5.183   2.411 -0.5867  1.6669 -0.0566
    1CHTO   O40  196   8.111   5.218   2.309  0.6773 -0.3580 -0.1255
    1CHTO   C68  197   8.224   5.151   2.232 -0.1672 -0.3326 -0.2984
    1CHTO  H125  198   8.318   5.159   2.289  0.3615  1.1591 -1.3612
    1CHTO   C72  199   8.244   5.244   2.113  0.9982  0.0137 -0.3265
    1CHTO   O48  200   8.363   5.234   2.034 -0.4819  0.2240 -0.1631
    1CHTO  H105  201   8.369   5.147   2.000 -0.5300  0.8077 -1.7066
    1CHTO   O38  202   7.901   5.239   2.210 -0.0663 -0.4198 -0.3663
    1CHTO   C55  203   7.838   5.359   2.266  0.5776 -0.6850 -0.5583
    1CHTO  H112  204   7.897   5.401   2.349 -0.9783 -1.2609  0.8580
    1CHTO   C56  205   7.686   5.338   2.311 -0.1407 -0.4684  0.6966
    1CHTO  H113  206   7.634   5.291   2.226 -0.7407  3.0738 -0.9512
    1CHTO   O42  207   7.674   5.237   2.417 -0.3518  0.2987  0.1338
    1CHTO  H100  208   7.762   5.215   2.442 -0.5919  0.4648  1.1342
    1CHTO   C57  209   7.621   5.476   2.350 -0.3447 -0.3508 -0.1794
    1CHTO  H114  210   7.661   5.506   2.447  1.4748 -3.4616  0.0845
    1CHTO   N10  211   7.473   5.473   2.379  0.6575 -0.2262 -0.1621
    1CHTO  H106  212   7.454   5.472   2.486 -1.0972  0.4118 -0.4538
    1CHTO  H107  213   7.417   5.393   2.334 -1.9006  1.4735 -0.1048
    1CHTO   C58  214   7.642   5.590   2.248  0.2268  0.4383  0.3594
    1CHTO  H115  215   7.598   5.559   2.151  0.1121  3.2913 -0.5501
    1CHTO   O37  216   7.783   5.600   2.228 -0.1037  0.4541 -0.3882
    1CHTO   C59  217   7.832   5.480   2.161 -0.1536  0.7842  0.5585
    1CHTO  H116  218   7.759   5.442   2.089  1.5706  1.2338 -1.5116
    1CHTO   C70  219   7.956   5.516   2.081 -0.0820  0.1183  0.7163
    1CHTO   O46  220   7.918   5.602   1.969 -0.0276 -0.9958 -0.1034
    1CHTO  H103  221   7.924   5.549   1.893 -0.7107 -3.1421  1.3013
    1CHTO   O39  222   7.590   5.744   2.288 -0.1670  0.1429 -0.4626
    1CHTO   C60  223   7.544   5.814   2.170  0.0054 -0.1101 -0.0520
    1CHTO  H117  224   7.562   5.762   2.075  1.2415 -1.0449  0.6805
    1CHTO   C62  225   7.389   5.819   2.171  0.7376 -0.2645  0.0754
    1CHTO  H119  226   7.350   5.718   2.148  0.6017 -0.2912  0.4179
    1CHTO   O43  227   7.337   5.851   2.308  0.3082 -0.2839  0.2818
    1CHTO  H101  228   7.353   5.942   2.322 -0.6689  0.0334 -0.5720
    1CHTO   C66  229   7.335   5.923   2.060  0.1573  0.0489  0.2329
    1CHTO  H123  230   7.364   5.885   1.962  0.4200 -0.6348  0.5751
    1CHTO   N12  231   7.183   5.935   2.053  0.4237 -0.5058  0.5128
    1CHTO  H110  232   7.159   6.015   1.984 -1.7730 -0.7207  1.0030
    1CHTO  H111  233   7.150   5.959   2.153  1.3842  0.8536  0.5121
    1CHTO   C69  234   7.396   6.063   2.089  0.0672  0.1927  0.2669
    1CHTO  H126  235   7.373   6.109   2.187 -2.2793 -1.6438  0.6335
    1CHTO   O41  236   7.545   6.042   2.071  0.1757 -0.8107 -0.0496
    1CHTO   C64  237   7.601   5.960   2.166 -0.9428  0.5014 -0.5389
    1CHTO  H121  238   7.589   5.999   2.269 -2.6796  0.8897 -0.8704
    1CHTO   C71  239   7.754   5.953   2.138 -0.3894  0.1660 -0.0143
    1CHTO   O47  240   7.789   5.895   2.011  0.6839  0.3438 -0.3585
    1CHTO  H104  241   7.857   5.948   1.974  3.0868 -1.8180  0.8047
    1CHTO   O34  242   7.361   6.179   1.983 -0.1191 -0.3157 -0.2451
    1CHTO   C49  243   7.356   6.313   1.968 -0.0862 -0.2470 -0.6556
    1CHTO   H91  244   7.341   6.345   1.865  0.9411 -0.2100 -0.7980
    1CHTO   C47  245   7.484   6.381   2.016  0.0358 -0.6223  0.1854
    1CHTO   H89  246   7.485   6.489   1.988 -0.6666 -1.0838 -1.7062
    1CHTO   O33  247   7.594   6.323   1.944  0.3161 -0.5771  0.4981
    1CHTO   H70  248   7.669   6.357   1.989 -0.3507  1.4090  0.1758
    1CHTO   C45  249   7.507   6.365   2.181 -0.0705  0.2543 -0.8277
    1CHTO   H87  250   7.507   6.259   2.212 -0.8317  0.6819  0.6712
    1CHTO    N8  251   7.632   6.426   2.232 -0.1027  0.8191 -0.2382
    1CHTO   H75  252   7.716   6.362   2.205 -0.9689 -0.2009 -0.5500
    1CHTO   H76  253   7.650   6.513   2.171 -1.0617  1.6594  0.6741
    1CHTO   C43  254   7.373   6.426   2.248  0.3825  0.6099 -0.6358
    1CHTO   H85  255   7.390   6.393   2.351 -1.0978 -2.9344 -1.4518
    1CHTO   O29  256   7.253   6.368   2.195 -0.0406 -0.0212  0.1607
    1CHTO   C50  257   7.226   6.361   2.053 -0.4456 -0.0219 -0.6004
    1CHTO   H92  258   7.144   6.289   2.041  0.0803 -0.8018  0.3626
    1CHTO   C54  259   7.159   6.498   2.005  0.0249  0.5686 -0.8119
    1CHTO   O36  260   7.032   6.515   2.069  0.1170 -0.8832 -0.1507
    1CHTO   H72  261   6.959   6.532   2.012  0.2478 -2.5960 -0.8551
    1CHTO   O27  262   7.369   6.574   2.245  0.0127 -0.5146  0.0893
    1CHTO   C37  263   7.369   6.691   2.327  0.9401 -0.2911 -0.0950
    1CHTO   H79  264   7.392   6.667   2.432 -1.8959 -0.9303  0.4351
    1CHTO   C38  265   7.474   6.796   2.282 -0.2518  0.5409 -0.2932
    1CHTO   H80  266   7.483   6.788   2.173 -4.7815 -1.5982 -0.6299
    1CHTO   O31  267   7.604   6.761   2.338 -0.6109  0.0955 -0.0048
    1CHTO   H68  268   7.652   6.708   2.277  0.4395  0.6418  0.3375
    1CHTO   C39  269   7.431   6.948   2.323 -0.1827  0.1954 -0.2424
    1CHTO   H81  270   7.443   6.958   2.431 -1.0749  0.1742 -0.1423
    1CHTO    N7  271   7.523   7.047   2.256 -0.2261 -0.6399 -0.4084
    1CHTO   H73  272   7.504   7.034   2.150  0.4594 -3.1647 -0.2604
    1CHTO   H74  273   7.491   7.145   2.287  0.7376 -0.4711  0.0595
    1CHTO   C40  274   7.281   6.986   2.292 -0.2886 -0.0253  0.4556
    1CHTO   H82  275   7.264   6.980   2.185 -0.3571  0.9979  0.4004
    1CHTO   O26  276   7.200   6.892   2.367 -0.2726  0.4785  0.2076
    1CHTO   C41  277   7.220   6.750   2.329  0.2769  0.7671  0.5487
    1CHTO   H83  278   7.183   6.760   2.226 -0.3750  0.9232  0.7991
    1CHTO   C52  279   7.130   6.658   2.403  0.6635 -0.2275  0.3389
    1CHTO   O35  280   6.979   6.704   2.380  0.1191 -0.6012  1.0662
    1CHTO   H71  281   6.953   6.694   2.291  0.4753 -1.8967  1.0925
    1CHTO   O28  282   7.229   7.107   2.353  0.2560 -0.5044 -0.1962
    1CHTO   C42  283   7.182   7.228   2.294  0.0142  0.3820  0.1899
    1CHTO   H84  284   7.197   7.225   2.186 -0.0331  2.4513  0.1090
    1CHTO   C44  285   7.264   7.353   2.334  0.1909 -0.1179 -0.1306
    1CHTO   H86  286   7.271   7.354   2.443  1.2667 -0.5489 -0.1903
    1CHTO   O32  287   7.401   7.332   2.301  0.3598 -0.5804  0.2124
    1CHTO   H69  288   7.409   7.331   2.207 -1.4214  1.4144 -0.0137
    1CHTO   C48  289   7.206   7.493   2.287 -0.2141  0.7414 -0.4244
    1CHTO   H90  290   7.247   7.502   2.186 -0.7906  0.5745 -0.6750
    1CHTO    N9  291   7.265   7.607   2.359 -0.0832 -0.2841 -0.0343
    1CHTO   H77  292   7.295   7.585   2.460  2.0058  1.6037 -0.2223
    1CHTO   H78  293   7.205   7.697   2.364 -0.1955 -0.3080 -0.8808
    1CHTO   C51  294   7.047   7.499   2.282  0.4724  0.4736  0.8977
    1CHTO   H93  295   7.009   7.523   2.381 -3.0527  1.9471 -0.7295
    1CHTO   O30  296   7.002   7.366   2.239  0.1420 -1.0344 -0.1534
    1CHTO   C46  297   7.033   7.258   2.316 -0.2106 -0.0867 -0.0923
    1CHTO   H88  298   7.001   7.277   2.418  0.6750 -1.8877  0.5407
    1CHTO   C53  299   6.948   7.135   2.273  0.3426 -0.2323  0.3557
    1CHTO   O72  300   6.816   7.163   2.243  1.1715 -0.2106  0.4123
    1CHTO  H199  301   6.758   7.090   2.247 -1.0837  1.4596 -0.2565
    1CHTO   O22  302   6.995   7.606   2.201 -0.2269 -0.1112  0.7742
    1CHTO   C31  303   6.968   7.614   2.066 -0.3012  0.3532 -1.0692
    1CHTO   H59  304   6.927   7.716   2.055 -0.2476  0.7848  2.3521
    1CHTO   C29  305   7.086   7.598   1.964 -0.4129 -0.4107 -0.2214
    1CHTO   H57  306   7.126   7.496   1.967  0.7030 -0.0071 -0.9169
    1CHTO   O21  307   7.197   7.678   2.017 -0.0792 -0.3269 -0.5802
    1CHTO   H37  308   7.270   7.633   1.979 -0.7975 -1.4125 -0.7124
    1CHTO   C27  309   7.038   7.631   1.815 -0.4633 -0.0684 -0.2313
    1CHTO   H55  310   7.002   7.735   1.819 -0.1805 -0.0185  1.5374
    1CHTO    N5  311   7.150   7.612   1.724  0.3816 -0.4017 -0.2337
    1CHTO   H43  312   7.172   7.510   1.697 -1.7935 -0.6565 -1.1229
    1CHTO   H44  313   7.247   7.646   1.757  0.0200 -0.3447  0.8077
    1CHTO   C25  314   6.916   7.541   1.781  0.2944 -0.4061 -0.1729
    1CHTO   H53  315   6.948   7.436   1.774  0.3672 -0.3647 -0.4850
    1CHTO   O17  316   6.820   7.543   1.886 -0.5794 -0.0870 -0.0374
    1CHTO   C32  317   6.856   7.513   2.019  0.5372 -0.8296 -0.1702
    1CHTO   H60  318   6.898   7.413   2.009  2.3187 -0.0576 -0.5896
    1CHTO   C36  319   6.724   7.518   2.095 -0.0467 -0.1466 -0.4354
    1CHTO   O25  320   6.638   7.406   2.063  0.0171 -0.0833  0.3243
    1CHTO   H40  321   6.659   7.331   2.114 -0.8213 -1.8634 -1.8402
    1CHTO   O15  322   6.841   7.578   1.644 -0.1432  0.3710 -0.5485
    1CHTO   C19  323   6.803   7.540   1.505 -0.7817 -0.8343  0.1539
    1CHTO   H47  324   6.716   7.605   1.491 -0.7085 -0.9209 -0.7665
    1CHTO   C20  325   6.918   7.562   1.395  0.4988 -0.1206  0.1718
    1CHTO   H48  326   7.006   7.498   1.414  0.9337  0.3031 -0.3794
    1CHTO   O19  327   6.941   7.701   1.409  0.0406 -0.0647  0.1523
    1CHTO   H35  328   6.972   7.734   1.327 -0.2786 -2.4556 -0.9831
    1CHTO   C21  329   6.863   7.520   1.253  0.5988 -0.4222  0.6007
    1CHTO   H49  330   6.788   7.591   1.219 -1.2995 -2.4934  0.3085
    1CHTO    N4  331   6.972   7.522   1.149  0.2043 -0.3752  0.4871
    1CHTO   H41  332   7.035   7.609   1.139 -1.4145  0.8046  0.4381
    1CHTO   H42  333   7.035   7.436   1.167  0.5157 -0.4400 -0.8338
    1CHTO   C22  334   6.818   7.371   1.267  0.2528 -0.4231 -0.1539
    1CHTO   H50  335   6.900   7.306   1.297  0.7075  0.0815 -0.2954
    1CHTO   O14  336   6.714   7.370   1.373 -0.1752 -0.1161  0.3369
    1CHTO   C23  337   6.760   7.393   1.505 -0.1731 -0.2560  0.4933
    1CHTO   H51  338   6.848   7.330   1.526 -0.3000 -0.6921 -0.2871
    1CHTO   C34  339   6.652   7.369   1.611  0.1695  0.5084  0.3584
    1CHTO   O23  340   6.616   7.230   1.614 -0.2668 -0.4943 -0.0205
    1CHTO   H38  341   6.546   7.209   1.554 -0.8242  0.1375  0.4044
    1CHTO   O16  342   6.744   7.332   1.151  0.5548  0.6260 -0.9366
    1CHTO   C24  343   6.829   7.200   1.074  0.0430  0.9036 -0.2390
    1CHTO   H52  344   6.934   7.199   1.103  0.5379  2.8495 -1.8065
    1CHTO   C26  345   6.821   7.223   0.925 -0.5344 -1.2460 -0.1288
    1CHTO   H54  346   6.720   7.260   0.897 -0.5145 -0.3109  1.0204
    1CHTO   O20  347   6.896   7.338   0.881 -0.0245 -0.4927  0.3749
    1CHTO   H36  348   6.982   7.315   0.909  0.1496  0.5477  0.6986
    1CHTO   C30  349   6.847   7.092   0.845 -0.8987 -0.0143  0.9014
    1CHTO   H58  350   6.956   7.081   0.837 -0.8892  0.3618  0.4981
    1CHTO    N6  351   6.804   7.101   0.701  0.0009  0.6523 -0.0592
    1CHTO   H45  352   6.793   7.002   0.657  1.9631  0.3409  0.0926
    1CHTO   H46  353   6.712   7.153   0.681  0.5014  1.4183 -0.3681
    1CHTO   C33  354   6.796   6.966   0.914  0.4825 -0.0179  0.4048
    1CHTO   H61  355   6.686   6.972   0.915  0.5178  0.9533 -0.4799
    1CHTO   O18  356   6.839   6.968   1.048  0.0933  0.1253  0.0803
    1CHTO   C28  357   6.769   7.066   1.120 -0.0524  0.5150  0.5570
    1CHTO   H56  358   6.662   7.067   1.101 -0.0153  2.2503  0.4141
    1CHTO   C35  359   6.784   7.036   1.270  0.5517  0.0488 -0.0439
    1CHTO   O24  360   6.733   6.907   1.307  0.2542  0.0097 -0.2042
    1CHTO   H39  361   6.657   6.914   1.362  0.9332  0.7167  0.6713
    1CHTO    O9  362   6.829   6.842   0.851 -0.0131  0.0930  0.2117
    1CHTO   C13  363   6.734   6.707   0.886 -0.2074 -0.1274 -0.5884
    1CHTO   H26  364   6.628   6.739   0.900 -0.2053 -0.7592  0.9455
    1CHTO   C11  365   6.797   6.646   1.019 -0.5620  0.1060 -0.3977
    1CHTO   H24  366   6.731   6.679   1.101  1.2402  2.3620  0.1936
    1CHTO    O8  367   6.934   6.684   1.047  0.2667  0.0243 -0.1666
    1CHTO    H3  368   6.989   6.670   0.973  1.0354 -0.8585  0.5590
    1CHTO    C9  369   6.766   6.492   1.009  0.1921  0.0766 -1.3907
    1CHTO   H22  370   6.658   6.487   0.988 -0.0552  3.2339 -1.1693
    1CHTO    N2  371   6.782   6.410   1.132  0.0539 -0.4134  0.1952
    1CHTO   H10  372   6.790   6.305   1.110 -1.0536 -0.6685  0.9692
    1CHTO   H11  373   6.846   6.445   1.211  0.0614 -0.7689  0.3462
    1CHTO    C7  374   6.853   6.433   0.887 -0.1654  0.4864 -0.1956
    1CHTO   H20  375   6.797   6.344   0.851 -0.2558  0.3176  0.3661
    1CHTO    O4  376   6.846   6.522   0.773 -0.6207 -0.3402 -0.1050
    1CHTO   C14  377   6.738   6.607   0.761 -1.1045 -0.4757 -0.4194
    1CHTO   H27  378   6.653   6.536   0.750 -0.0072 -1.8121 -0.3185
    1CHTO   C18  379   6.752   6.681   0.626 -0.0074 -0.1957  0.4576
    1CHTO   O13  380   6.633   6.756   0.600  0.1897  0.2025 -0.8129
    1CHTO    H7  381   6.621   6.791   0.513  0.1233  1.1714 -0.4275
    1CHTO    O2  382   7.011   6.404   0.918 -1.0011 -0.1364  0.0469
    1CHTO    C1  383   7.053   6.271   0.873  0.1869 -0.9246 -0.3628
    1CHTO   H14  384   6.972   6.222   0.815 -0.8993  1.6529 -1.0495
    1CHTO    C2  385   7.103   6.178   0.998  0.2989 -0.6195  0.1207
    1CHTO   H15  386   7.175   6.237   1.057 -1.9890  2.0302  0.3476
    1CHTO    O6  387   6.981   6.147   1.074  0.0971  0.1392  0.2367
    1CHTO    H1  388   6.981   6.066   1.121  0.1028  0.4389  0.7532
    1CHTO    C3  389   7.178   6.052   0.944 -0.2142  0.0922 -0.3409
    1CHTO   H16  390   7.096   5.987   0.910 -0.1597  0.3758 -1.0205
    1CHTO    N1  391   7.245   5.968   1.046 -0.5624 -0.0566  0.3088
    1CHTO    H8  392   7.242   5.870   1.001 -3.0466 -0.6275  1.6057
    1CHTO    H9  393   7.179   5.968   1.133 -0.1146  1.2446  0.6622
    1CHTO    C4  394   7.270   6.078   0.818 -0.1041  0.0737 -1.1342
    1CHTO   H17  395   7.367   6.117   0.849 -0.2388  0.9127 -1.7737
    1CHTO    O1  396   7.210   6.164   0.725  0.6223 -0.0543 -0.6566
    1CHTO    C5  397   7.173   6.293   0.775 -0.0315 -0.1380  0.2666
    1CHTO   H18  398   7.253   6.341   0.832  0.8718 -3.0155  1.5135
    1CHTO   C16  399   7.131   6.394   0.656 -0.2136  0.4551  0.8695
    1CHTO   O11  400   7.255   6.426   0.587  0.4969 -0.0234 -0.4629
    1CHTO    H5  401   7.263   6.373   0.510  1.8779 -0.5516  0.0267
    1CHTO    O3  402   7.292   5.954   0.744  0.3484  0.7853 -0.0580
    1CHTO    C6  403   7.400   5.943   0.644  0.2532  0.7851 -0.7820
    1CHTO   H19  404   7.412   6.041   0.599  0.3191  0.6496 -1.0644
    1CHTO    C8  405   7.536   5.887   0.697  0.1431 -0.7668  0.8756
    1CHTO   H21  406   7.514   5.789   0.741 -1.5890 -0.5859  0.4403
    1CHTO    O7  407   7.582   5.980   0.793  0.1706  0.1078 -0.1036
    1CHTO    H2  408   7.524   5.978   0.866 -0.8436 -0.9677 -0.9142
    1CHTO   C12  409   7.639   5.869   0.592  0.1968 -0.1301 -0.5263
    1CHTO   H25  410   7.653   5.972   0.554  0.8337  0.4015  1.1210
    1CHTO    N3  411   7.774   5.820   0.628 -0.4945 -0.1380 -0.0032
    1CHTO   H12  412   7.842   5.824   0.544  1.1164 -1.8612  1.1537
    1CHTO   H13  413   7.762   5.717   0.660 -1.1574 -0.4812 -1.3576
    1CHTO   C15  414   7.566   5.775   0.481 -1.0014  0.3995  0.3642
    1CHTO   H28  415   7.533   5.682   0.527  1.5778 -1.6737 -1.7583
    1CHTO   O10  416   7.665   5.744   0.356  0.5568 -0.0635 -0.2204
    1CHTO    H4  417   7.636   5.785   0.277  2.4094 -0.5082 -1.1683
    1CHTO    O5  418   7.454   5.835   0.430  0.0880  0.3393 -0.2594
    1CHTO   C10  419   7.349   5.850   0.529  0.7164 -0.7920 -0.3612
    1CHTO   H23  420   7.327   5.747   0.558  1.3548 -1.0627 -0.8307
    1CHTO   C17  421   7.223   5.905   0.454  0.0437 -0.1703  0.7315
    1CHTO   O12  422   7.237   6.042   0.415  0.2435  0.7156 -0.6568
    1CHTO    H6  423   7.309   6.048   0.355  1.8079 -0.5870  1.0422
    2CHTO  H203  424   6.631   4.274  -0.692  1.3991  0.0046 -0.3177
    2CHTO   O82  425   6.575   4.202  -0.671  1.0756  0.4018  0.2162
    2CHTO  C123  426   6.451   4.239  -0.608 -0.9332 -0.1834  0.3315
    2CHTO  H227  427   6.469   4.339  -0.566  1.5434 -0.3873 -0.1324
    2CHTO   O77  428   6.357   4.238  -0.723 -0.0406  0.6115  0.3833
    2CHTO  C118  429   6.231   4.299  -0.672  0.3492 -0.3990 -0.3299
    2CHTO  H222  430   6.253   4.403  -0.644  0.1081 -0.2700 -0.6103
    2CHTO  C125  431   6.140   4.305  -0.801 -0.2948  0.1269 -0.0337
    2CHTO   O84  432   6.096   4.174  -0.831  0.7579  0.4314 -0.0193
    2CHTO  H205  433   6.043   4.139  -0.762 -1.1634  0.3345 -1.5226
    2CHTO  C114  434   6.164   4.207  -0.560  1.0249 -0.3771  0.1427
    2CHTO  H218  435   6.137   4.111  -0.605  1.4570 -0.8694  0.9220
    2CHTO  C116  436   6.256   4.181  -0.440 -0.7040  0.4365 -0.8444
    2CHTO  H220  437   6.266   4.275  -0.382 -1.2411 -0.3451  0.5552
    2CHTO   O79  438   6.192   4.083  -0.353  0.3317  0.7545  0.2476
    2CHTO  H201  439   6.227   3.997  -0.364  1.2884  0.9368  1.7178
    2CHTO  C120  440   6.402   4.140  -0.492 -0.7107  0.1821 -0.0907
    2CHTO  H224  441   6.396   4.041  -0.543  0.5528  0.1765 -0.2463
    2CHTO   N21  442   6.498   4.132  -0.379  0.1850  0.2204  0.2501
    2CHTO  H211  443   6.477   4.208  -0.305  0.6664 -1.2880  1.9620
    2CHTO  H212  444   6.473   4.034  -0.341  0.0850  0.2521  0.2689
    2CHTO   O75  445   6.040   4.273  -0.524 -0.0282  0.4975  0.1827
    2CHTO  C112  446   5.917   4.185  -0.513  0.3224  0.1340  0.9139
    2CHTO  H216  447   5.945   4.092  -0.461 -1.6018  0.7524  3.1131
    2CHTO   O73  448   5.862   4.160  -0.644 -0.0896 -0.0714 -0.4231
    2CHTO  C113  449   5.753   4.070  -0.634  0.6821  0.1989 -0.4487
    2CHTO  H217  450   5.786   3.983  -0.572 -1.1507  0.2383  0.6146
    2CHTO  C124  451   5.721   4.017  -0.773 -0.2459 -0.2820 -0.1417
    2CHTO   O83  452   5.823   3.933  -0.830 -0.2186 -0.2129  0.0186
    2CHTO  H204  453   5.791   3.848  -0.853  2.5462 -1.0070 -1.1064
    2CHTO  C109  454   5.628   4.144  -0.568  0.9004 -0.5152 -0.5297
    2CHTO  H213  455   5.597   4.229  -0.630  0.8943  2.1128  2.9781
    2CHTO  C110  456   5.659   4.204  -0.431 -0.2513  0.2102  1.0086
    2CHTO  H214  457   5.653   4.118  -0.364  0.6585 -1.8578 -1.4666
    2CHTO   O78  458   5.565   4.311  -0.398 -0.0160 -0.1509  0.5408
    2CHTO  H200  459   5.486   4.271  -0.367 -0.5252  1.2110  1.0245
    2CHTO  C111  460   5.807   4.266  -0.432 -0.2674  0.4455  0.2956
    2CHTO  H215  461   5.802   4.362  -0.485 -0.3833  0.5000  0.4051
    2CHTO   N19  462   5.859   4.291  -0.296  0.4360 -0.2933  0.3289
    2CHTO  H207  463   5.805   4.370  -0.246 -0.5750 -2.3384  2.5672
    2CHTO  H208  464   5.837   4.211  -0.227  0.0528  0.0455  0.5986
    2CHTO   O74  465   5.513   4.055  -0.559 -0.0579  0.4125 -0.4197
    2CHTO  C115  466   5.366   4.133  -0.617  0.0101 -0.4203  0.3109
    2CHTO  H219  467   5.373   4.241  -0.606 -0.6821 -0.1768 -1.5704
    2CHTO   O76  468   5.339   4.105  -0.780 -0.3334  0.4139  0.1988
    2CHTO  C122  469   5.246   4.000  -0.807  0.2899 -0.3255 -0.4498
    2CHTO  H226  470   5.295   3.905  -0.785  4.4713  1.6706 -0.6915
    2CHTO  C126  471   5.221   4.000  -0.956  0.0489  0.1068 -0.1765
    2CHTO   O85  472   5.144   3.888  -0.993  1.0255 -0.4180 -0.7207
    2CHTO  H206  473   5.128   3.894  -1.085  0.4615  1.9692 -0.5148
    2CHTO  C121  474   5.102   4.022  -0.732  0.1070  0.0919  0.2543
    2CHTO  H225  475   5.039   4.073  -0.808  1.2019  1.5431  0.2946
    2CHTO   O81  476   5.044   3.897  -0.698 -0.9863 -0.1106 -0.4512
    2CHTO  H202  477   4.959   3.913  -0.661 -0.2089 -1.4828  2.0378
    2CHTO  C119  478   5.118   4.116  -0.615 -0.1015 -0.1782  0.5968
    2CHTO  H223  479   5.128   4.218  -0.653  0.2171 -0.3671  0.1809
    2CHTO  C117  480   5.244   4.078  -0.531 -0.0142  0.5779  0.1924
    2CHTO  H221  481   5.258   3.971  -0.517 -0.7012  0.2221 -1.5851
    2CHTO   N20  482   5.250   4.145  -0.398  0.1163 -0.2107 -0.8670
    2CHTO  H209  483   5.171   4.218  -0.391 -0.6582 -1.1437  0.2852
    2CHTO  H210  484   5.252   4.075  -0.316 -1.3753  2.0794  1.2036
    2CHTO   O80  485   4.980   4.125  -0.541  0.4026  0.3963  0.6431
    2CHTO  C103  486   4.888   4.243  -0.564  0.4809 -0.2516  0.0909
    2CHTO  H190  487   4.936   4.333  -0.526 -1.2093  1.2406 -1.1894
    2CHTO  C101  488   4.846   4.281  -0.713  0.2689  0.0735  0.3395
    2CHTO  H188  489   4.812   4.182  -0.745 -0.1945 -0.1130  1.3860
    2CHTO   O68  490   4.971   4.327  -0.799  0.2487 -0.3542  0.1421
    2CHTO  H168  491   5.042   4.274  -0.768  0.8644  0.6120  0.3996
    2CHTO   C99  492   4.727   4.392  -0.716  0.4450 -0.4988 -0.3561
    2CHTO  H186  493   4.765   4.491  -0.682  2.4911 -1.8798  1.5065
    2CHTO   N17  494   4.667   4.406  -0.857  0.0856  0.4607  0.2305
    2CHTO  H174  495   4.626   4.317  -0.903  2.6703  0.0511 -1.3559
    2CHTO  H175  496   4.739   4.458  -0.918  0.1427  0.2944  0.1564
    2CHTO   C97  497   4.614   4.361  -0.615  0.5061 -0.1924  0.0036
    2CHTO  H184  498   4.550   4.280  -0.654 -0.5327  1.3573 -1.5792
    2CHTO   O64  499   4.665   4.326  -0.484 -0.1977 -0.0536  0.6813
    2CHTO  C104  500   4.755   4.215  -0.479 -0.0718  0.5404 -0.0030
    2CHTO  H191  501   4.700   4.129  -0.516 -0.5284  0.0473  1.7598
    2CHTO  C108  502   4.781   4.188  -0.330  0.6881  0.0248  0.0050
    2CHTO   O71  503   4.670   4.112  -0.268  0.3622  0.8008  0.9646
    2CHTO  H171  504   4.704   4.042  -0.215  1.9019  0.3888 -0.5230
    2CHTO   O62  505   4.537   4.476  -0.578  0.0051 -0.2746  0.6251
    2CHTO   C91  506   4.414   4.466  -0.504 -0.2674 -0.1837 -0.4147
    2CHTO  H178  507   4.428   4.394  -0.424 -1.4151  0.1650  0.1205
    2CHTO   C92  508   4.305   4.402  -0.606  0.2311 -1.1912  1.1583
    2CHTO  H179  509   4.342   4.306  -0.648  1.1464 -0.0823 -0.6402
    2CHTO   O66  510   4.195   4.361  -0.528  0.3853 -0.3171  0.8752
    2CHTO  H166  511   4.188   4.397  -0.442 -0.3678  0.1113  0.6394
    2CHTO   C93  512   4.252   4.499  -0.714 -0.6147  0.1762  0.1288
    2CHTO  H180  513   4.144   4.485  -0.730 -0.8588  1.1713  0.8438
    2CHTO   N16  514   4.316   4.483  -0.849 -0.9084  0.2521  1.2187
    2CHTO  H172  515   4.419   4.460  -0.829 -0.8859  0.1645  0.9983
    2CHTO  H173  516   4.323   4.575  -0.905  0.2596 -1.0008 -0.7396
    2CHTO   C94  517   4.271   4.651  -0.672 -0.0881 -0.8310  0.5135
    2CHTO  H181  518   4.370   4.691  -0.693  0.0378 -0.8174  1.1114
    2CHTO   O61  519   4.256   4.663  -0.529  0.2031  0.1153 -0.0339
    2CHTO   C95  520   4.361   4.602  -0.452  0.1861 -0.4002 -0.1425
    2CHTO  H182  521   4.446   4.670  -0.459 -1.5652  1.7936 -0.5241
    2CHTO  C106  522   4.325   4.592  -0.295 -0.2101  0.0765  0.5159
    2CHTO   O69  523   4.450   4.585  -0.216 -0.3677 -0.3497  0.5588
    2CHTO  H169  524   4.483   4.672  -0.232 -0.3225 -0.1189  1.9056
    2CHTO   O63  525   4.143   4.743  -0.745  0.4760  0.2749 -1.1659
    2CHTO   C96  526   4.143   4.891  -0.712 -0.0320 -0.1628 -0.3639
    2CHTO  H183  527   4.220   4.912  -0.638  0.1056 -0.6467 -0.3706
    2CHTO   C98  528   4.005   4.942  -0.651  0.4135 -0.2123 -0.5600
    2CHTO  H185  529   3.920   4.907  -0.710 -0.7136 -0.5052  1.1969
    2CHTO   O67  530   3.988   4.879  -0.521  0.6843  0.1858 -0.0358
    2CHTO  H167  531   3.936   4.937  -0.467  1.5141  0.3608  0.5828
    2CHTO  C102  532   3.996   5.100  -0.635  0.2358 -0.5997  0.0986
    2CHTO  H189  533   4.070   5.131  -0.559 -0.8987  1.4992  0.4089
    2CHTO   N18  534   3.865   5.161  -0.593  0.4736 -0.1982 -0.3578
    2CHTO  H176  535   3.852   5.259  -0.638  0.3208 -0.9978 -2.0841
    2CHTO  H177  536   3.789   5.099  -0.637 -2.0007  0.5409  2.7307
    2CHTO  C105  537   4.049   5.164  -0.766  0.9127 -0.9313  0.0305
    2CHTO  H192  538   3.982   5.138  -0.848  1.5560 -1.7612 -0.2460
    2CHTO   O65  539   4.180   5.112  -0.803 -0.0651  0.7185  0.0533
    2CHTO  C100  540   4.180   4.969  -0.838  0.6359 -0.0152  0.1449
    2CHTO  H187  541   4.109   4.954  -0.921  0.1671  2.0073  0.1719
    2CHTO  C107  542   4.316   4.925  -0.891  0.7468 -0.4456 -0.2713
    2CHTO   O70  543   4.420   4.967  -0.798 -0.2135  0.1342  0.0154
    2CHTO  H170  544   4.429   4.913  -0.723  2.5920  2.8709  1.7792
    2CHTO   O57  545   4.061   5.312  -0.745 -0.0541 -0.1058  0.2717
    2CHTO   C85  546   4.008   5.412  -0.836 -0.5200 -0.4983  0.5545
    2CHTO  H157  547   3.898   5.399  -0.833 -0.5278 -0.7666 -0.9340
    2CHTO   C83  548   4.047   5.366  -0.986  0.1648  0.1351  0.4131
    2CHTO  H155  549   4.013   5.266  -1.011 -0.5664  0.6474 -0.7075
    2CHTO   O56  550   4.189   5.344  -0.994 -0.4691 -0.2541 -0.0729
    2CHTO  H135  551   4.212   5.349  -1.085  0.1748  0.0608  0.1000
    2CHTO   C81  552   3.987   5.470  -1.087 -0.2686  0.3648 -0.7672
    2CHTO  H153  553   3.882   5.484  -1.064 -0.3609 -1.5181 -0.0150
    2CHTO   N14  554   3.996   5.437  -1.230  0.3152  0.4639  0.6021
    2CHTO  H141  555   3.914   5.449  -1.297 -0.1249 -2.0225  0.6501
    2CHTO  H142  556   4.091   5.447  -1.279  0.7229  0.0106  1.2927
    2CHTO   C79  557   4.068   5.605  -1.063 -0.1399 -0.0776  0.4529
    2CHTO  H151  558   4.031   5.680  -1.132  0.3743 -1.8838 -1.8621
    2CHTO   O52  559   4.027   5.648  -0.923  0.2629 -0.1297 -0.3320
    2CHTO   C86  560   4.048   5.567  -0.800  0.1697  0.1142  0.1179
    2CHTO  H158  561   4.153   5.589  -0.772  0.3443  0.5124 -0.8209
    2CHTO   C90  562   3.971   5.631  -0.687  0.0457  0.3280  0.7194
    2CHTO   O60  563   3.954   5.551  -0.574 -0.4324  0.0727 -0.0868
    2CHTO  H138  564   3.957   5.462  -0.602  2.7956 -0.0367  0.3513
    2CHTO   O50  565   4.214   5.601  -1.085  0.6208 -0.2748 -0.2449
    2CHTO   C73  566   4.287   5.720  -1.111  0.1209 -0.0485  0.2032
    2CHTO  H145  567   4.228   5.813  -1.105 -0.0702 -0.2655  2.3145
    2CHTO   C74  568   4.342   5.715  -1.257  0.0210  0.1428  0.1381
    2CHTO  H146  569   4.255   5.695  -1.322  0.5201 -1.5278 -0.0382
    2CHTO   O54  570   4.407   5.840  -1.292 -0.1373 -0.1123  0.2087
    2CHTO  H133  571   4.424   5.839  -1.384  0.4943 -0.7989  0.3218
    2CHTO   C75  572   4.446   5.595  -1.263 -0.9170  0.6807  0.7407
    2CHTO  H147  573   4.391   5.501  -1.246 -1.9669  0.9374 -1.0768
    2CHTO   N13  574   4.517   5.588  -1.391 -0.5464  0.2681 -0.5876
    2CHTO  H139  575   4.596   5.661  -1.385  0.5123 -0.9066  0.1214
    2CHTO  H140  576   4.452   5.613  -1.473 -1.6172 -0.4836  0.0144
    2CHTO   C76  577   4.553   5.599  -1.141  0.6453 -0.9907  0.2047
    2CHTO  H148  578   4.624   5.677  -1.167 -1.6857  2.5565  3.8730
    2CHTO   O49  579   4.495   5.622  -1.009  0.2819  0.2053 -0.0565
    2CHTO   C77  580   4.404   5.734  -1.010 -0.2177  0.0458  0.1666
    2CHTO  H149  581   4.462   5.821  -1.039 -1.5723  0.2392 -2.0473
    2CHTO   C88  582   4.348   5.748  -0.861 -0.0452  0.5123 -0.2907
    2CHTO   O58  583   4.266   5.851  -0.855 -0.2856 -0.3681 -0.1737
    2CHTO  H136  584   4.201   5.846  -0.788 -0.8962  2.2921 -0.5138
    2CHTO   O51  585   4.644   5.458  -1.151 -0.1376 -1.0876  0.4109
    2CHTO   C78  586   4.718   5.432  -1.006  0.1487 -0.1482 -0.3406
    2CHTO  H150  587   4.686   5.501  -0.925  2.4986  0.9108 -0.2456
    2CHTO   C80  588   4.873   5.450  -1.013 -0.1390  0.0263  0.5297
    2CHTO  H152  589   4.915   5.399  -1.102  0.6555 -0.3169  1.1047
    2CHTO   O55  590   4.892   5.588  -1.041  0.7218 -0.9031 -0.5362
    2CHTO  H134  591   4.902   5.594  -1.134 -1.8412  0.5085 -0.7810
    2CHTO   C84  592   4.955   5.392  -0.885 -0.1328 -0.0916  0.1170
    2CHTO  H156  593   4.932   5.457  -0.801  2.9344  1.3445 -0.0613
    2CHTO   N15  594   5.104   5.388  -0.908  0.4916  0.3309  0.4654
    2CHTO  H143  595   5.145   5.374  -0.810 -0.9125  0.3409  1.0593
    2CHTO  H144  596   5.137   5.303  -0.965  2.8942  1.0211  0.7679
    2CHTO   C87  597   4.892   5.255  -0.856 -0.2028 -0.2136  0.0575
    2CHTO  H159  598   4.922   5.184  -0.933  0.0730  0.5465 -0.5511
    2CHTO   O53  599   4.749   5.267  -0.850  0.7289  0.1030 -0.0301
    2CHTO   C82  600   4.681   5.290  -0.971  0.3146 -0.1129  0.0054
    2CHTO  H154  601   4.706   5.210  -1.040  0.2682 -0.2397  0.1359
    2CHTO   C89  602   4.535   5.267  -0.940 -0.0711  0.4948 -0.4453
    2CHTO   O59  603   4.448   5.259  -1.052 -0.7376 -0.2422 -0.0505
    2CHTO  H137  604   4.482   5.188  -1.104 -1.5189 -1.0257  0.4855
    2CHTO   O45  605   4.938   5.198  -0.692 -0.0777 -0.0013 -0.5721
    2CHTO   C67  606   4.835   5.147  -0.603 -0.6261 -0.6851  1.0684
    2CHTO  H124  607   4.741   5.200  -0.611 -1.9574 -3.0378  0.5685
    2CHTO   C65  608   4.809   4.997  -0.646 -0.3484 -0.2097 -0.1009
    2CHTO  H122  609   4.873   4.951  -0.722  0.5576 -2.4526  1.9502
    2CHTO   O44  610   4.677   4.993  -0.697  0.1892  0.1783 -0.1608
    2CHTO  H102  611   4.618   5.015  -0.628 -1.8412  1.6081 -2.2527
    2CHTO   C63  612   4.836   4.897  -0.523 -0.6112  0.5402  1.2077
    2CHTO  H120  613   4.939   4.901  -0.486 -0.1502  0.4958 -0.0671
    2CHTO   N11  614   4.810   4.749  -0.548 -0.3467 -0.0998  0.1109
    2CHTO  H108  615   4.783   4.718  -0.647 -2.0326 -1.3803  0.9394
    2CHTO  H109  616   4.729   4.717  -0.485 -0.0249 -2.4119 -0.5787
    2CHTO   C61  617   4.751   4.951  -0.404  0.0023 -0.2392 -0.0200
    2CHTO  H118  618   4.778   4.882  -0.323  0.6321  0.8209  0.6936
    2CHTO   O40  619   4.803   5.082  -0.361 -0.0188  0.3192 -0.2152
    2CHTO   C68  620   4.878   5.156  -0.458  0.5525 -0.4020 -0.3961
    2CHTO  H125  621   4.982   5.118  -0.452  0.0839 -1.4080  1.6610
    2CHTO   C72  622   4.882   5.292  -0.403 -0.8145 -0.0855 -0.5802
    2CHTO   O48  623   4.956   5.387  -0.475 -0.1772 -0.6558 -0.1309
    2CHTO  H105  624   5.035   5.410  -0.429 -1.1127  2.2071  0.1159
    2CHTO   O38  625   4.610   4.946  -0.428 -0.1339 -0.1673  0.3995
    2CHTO   C55  626   4.529   5.006  -0.327  0.3405  0.7010  0.7708
    2CHTO  H112  627   4.573   5.097  -0.282 -0.1186  0.8313  0.9635
    2CHTO   C56  628   4.492   4.895  -0.222 -0.0545  0.2964  0.1132
    2CHTO  H113  629   4.444   4.815  -0.279 -0.5696 -1.1785  2.5204
    2CHTO   O42  630   4.616   4.849  -0.159 -0.3878  0.2121 -0.2371
    2CHTO  H100  631   4.654   4.914  -0.103  0.3036  0.9003 -1.4768
    2CHTO   C57  632   4.390   4.959  -0.114 -0.0248 -0.0938  0.0028
    2CHTO  H114  633   4.447   5.031  -0.055  2.8471 -1.0122 -1.5411
    2CHTO   N10  634   4.351   4.858  -0.017  0.1038  0.1647  0.0978
    2CHTO  H106  635   4.425   4.852   0.061  0.0862  1.8914  0.2480
    2CHTO  H107  636   4.342   4.759  -0.059 -2.4410  1.5038 -2.6920
    2CHTO   C58  637   4.267   5.030  -0.180 -1.1854 -0.0137  0.2463
    2CHTO  H115  638   4.202   4.955  -0.229 -0.2959 -0.2875 -0.5333
    2CHTO   O37  639   4.312   5.118  -0.289 -0.1088  0.1072 -0.4072
    2CHTO   C59  640   4.386   5.044  -0.389  0.4104 -0.1936 -0.1852
    2CHTO  H116  641   4.336   4.954  -0.424 -1.5535  0.9310 -0.2861
    2CHTO   C70  642   4.404   5.130  -0.519  0.0590  0.2530  0.4102
    2CHTO   O46  643   4.481   5.249  -0.503 -0.4852 -0.0694 -0.2033
    2CHTO  H103  644   4.566   5.220  -0.479 -0.7638 -1.7246 -1.1439
    2CHTO   O39  645   4.174   5.112  -0.079 -0.1106 -0.4540 -0.0761
    2CHTO   C60  646   4.049   5.146  -0.154 -0.0502 -0.0290  0.2048
    2CHTO  H117  647   4.056   5.123  -0.261 -1.5121 -0.9064  0.2818
    2CHTO   C62  648   3.927   5.063  -0.098 -0.6876 -0.9731  0.5010
    2CHTO  H119  649   3.953   4.956  -0.111  4.3172  0.0436  0.9211
    2CHTO   O43  650   3.916   5.089   0.044 -0.6199  0.2975  0.1718
    2CHTO  H101  651   3.904   5.179   0.065 -0.9864  0.5794 -1.1956
    2CHTO   C66  652   3.797   5.111  -0.179 -0.1411 -0.1659  0.2337
    2CHTO  H123  653   3.810   5.086  -0.284 -3.1142  0.3766 -0.3028
    2CHTO   N12  654   3.680   5.028  -0.145 -0.2483 -0.3406 -0.0508
    2CHTO  H110  655   3.598   5.033  -0.215 -0.3478 -1.5142 -0.0294
    2CHTO  H111  656   3.708   4.930  -0.109  0.6384  0.0018  0.2011
    2CHTO   C69  657   3.776   5.260  -0.164  0.1844  0.0120 -0.1052
    2CHTO  H126  658   3.763   5.281  -0.056  0.7318 -0.5396  0.0755
    2CHTO   O41  659   3.905   5.330  -0.218  0.9361 -0.3256  0.0332
    2CHTO   C64  660   4.018   5.300  -0.142 -0.3320  0.6235 -0.1289
    2CHTO  H121  661   4.009   5.341  -0.039 -1.0455  1.1030 -0.3774
    2CHTO   C71  662   4.128   5.381  -0.213  0.3623 -0.1497  0.0024
    2CHTO   O47  663   4.138   5.350  -0.356 -0.3332 -0.2506 -0.4179
    2CHTO  H104  664   4.226   5.354  -0.388  0.6173 -0.1668  2.1313
    2CHTO   O34  665   3.651   5.298  -0.234  0.1704 -0.3810 -0.1516
    2CHTO   C49  666   3.535   5.426  -0.225  0.3412  1.1888 -0.1036
    2CHTO   H91  667   3.449   5.378  -0.179  1.2921 -1.6276 -1.1323
    2CHTO   C47  668   3.498   5.463  -0.370 -0.0364  0.5439 -0.3177
    2CHTO   H89  669   3.418   5.539  -0.362 -0.4779  0.0430  0.0800
    2CHTO   O33  670   3.437   5.348  -0.433 -0.1622 -0.0101  0.4334
    2CHTO   H70  671   3.347   5.333  -0.413 -0.1150 -0.9215 -0.0152
    2CHTO   C45  672   3.618   5.518  -0.447  0.3763  0.0028  0.4331
    2CHTO   H87  673   3.707   5.456  -0.430 -0.1451 -0.3570  1.9232
    2CHTO    N8  674   3.598   5.541  -0.593 -0.9435  0.4041  0.3522
    2CHTO   H75  675   3.528   5.622  -0.609  1.4975  2.1049 -2.3063
    2CHTO   H76  676   3.683   5.568  -0.654 -0.0619 -1.5658  0.6816
    2CHTO   C43  677   3.669   5.656  -0.365  0.6551 -0.2809 -0.4237
    2CHTO   H85  678   3.758   5.700  -0.409 -0.9465  0.9050 -2.5465
    2CHTO   O29  679   3.681   5.633  -0.229  0.3303  0.3809 -0.2198
    2CHTO   C50  680   3.592   5.548  -0.149 -0.1295 -0.4692  0.3899
    2CHTO   H92  681   3.644   5.505  -0.062  0.7059 -0.4934 -0.1079
    2CHTO   C54  682   3.486   5.633  -0.085  0.1299 -0.1013 -0.2554
    2CHTO   O36  683   3.535   5.749  -0.013  0.1212 -0.8984 -0.1185
    2CHTO   H72  684   3.602   5.721   0.047  0.1263 -0.3125  0.1493
    2CHTO   O27  685   3.563   5.757  -0.377  0.5135 -0.8193 -0.1228
    2CHTO   C37  686   3.550   5.895  -0.412 -0.3995 -0.6935  0.6291
    2CHTO   H79  687   3.616   5.922  -0.495 -1.1708  0.3349  0.3364
    2CHTO   C38  688   3.406   5.913  -0.476 -0.2435  0.7100 -0.8192
    2CHTO   H80  689   3.333   5.857  -0.416  1.5249  0.9118  1.6018
    2CHTO   O31  690   3.390   5.846  -0.606  0.2150  0.0035  0.0712
    2CHTO   H68  691   3.468   5.837  -0.657 -0.7806  0.2577 -1.5390
    2CHTO   C39  692   3.367   6.062  -0.487 -0.0897  0.8617 -0.9543
    2CHTO   H81  693   3.424   6.102  -0.571  1.6308 -3.0395 -1.7497
    2CHTO    N7  694   3.223   6.090  -0.525 -0.4641 -0.2909 -0.0647
    2CHTO   H73  695   3.228   6.145  -0.617 -0.1320  0.2794  0.2894
    2CHTO   H74  696   3.182   5.990  -0.536  1.3359 -1.2157  1.2142
    2CHTO   C40  697   3.400   6.141  -0.354 -0.3565 -0.5721 -0.2610
    2CHTO   H82  698   3.335   6.100  -0.277  0.3641  2.1663  1.8603
    2CHTO   O26  699   3.535   6.118  -0.324 -0.1683  0.3899 -0.4293
    2CHTO   C41  700   3.573   5.984  -0.292  0.5752  0.5786 -0.2558
    2CHTO   H83  701   3.510   5.948  -0.209  2.1659  0.6037  0.9799
    2CHTO   C52  702   3.721   5.971  -0.250 -0.1785  0.4499 -0.4317
    2CHTO   O35  703   3.759   6.059  -0.152  0.3390  0.0716  0.1997
    2CHTO   H71  704   3.772   6.147  -0.180  0.9764  0.3890  1.4342
    2CHTO   O28  705   3.376   6.288  -0.358  0.1690 -0.0365 -0.5127
    2CHTO   C42  706   3.433   6.390  -0.276  0.3708  0.4537 -0.0417
    2CHTO   H84  707   3.383   6.479  -0.312  0.9934  0.6960 -0.3184
    2CHTO   C44  708   3.589   6.417  -0.287  0.4948  0.1445 -0.6101
    2CHTO   H86  709   3.647   6.329  -0.257 -0.4180 -0.2018  0.1641
    2CHTO   O32  710   3.609   6.438  -0.425  0.1437 -0.0697 -0.0387
    2CHTO   H69  711   3.682   6.496  -0.435  0.3037 -0.1023  0.8597
    2CHTO   C48  712   3.638   6.534  -0.199  0.4348  0.3698  0.2512
    2CHTO   H90  713   3.574   6.618  -0.226 -3.3061 -1.8964  1.6803
    2CHTO    N9  714   3.785   6.571  -0.224  0.1729 -0.4803 -0.6079
    2CHTO   H77  715   3.823   6.493  -0.288 -0.4515 -1.0164 -0.3254
    2CHTO   H78  716   3.839   6.580  -0.131 -0.1316  1.4664 -0.5841
    2CHTO   C51  717   3.600   6.507  -0.048  0.2767 -0.0547 -0.0759
    2CHTO   H93  718   3.662   6.424  -0.013  1.1827 -0.6377 -2.9278
    2CHTO   O30  719   3.458   6.475  -0.044 -0.5921 -0.2768 -0.2751
    2CHTO   C46  720   3.401   6.369  -0.118 -0.1259  0.2321  0.8845
    2CHTO   H88  721   3.434   6.275  -0.074  0.0467  0.4645  1.2539
    2CHTO   C53  722   3.247   6.372  -0.101 -0.0076  0.4690 -0.5871
    2CHTO   O72  723   3.200   6.364   0.038 -0.7875 -0.4386  0.2540
    2CHTO  H199  724   3.242   6.433   0.088 -1.5915  0.0019  0.3339
    2CHTO   O22  725   3.627   6.623   0.037 -0.8277 -0.2877 -0.1967
    2CHTO   C31  726   3.645   6.614   0.187  0.0594  0.2567 -0.3127
    2CHTO   H59  727   3.654   6.717   0.227 -0.0281 -0.4839  1.6644
    2CHTO   C29  728   3.527   6.552   0.263  0.4863  0.2246 -0.4352
    2CHTO   H57  729   3.525   6.450   0.223 -0.7451  0.1564 -0.2240
    2CHTO   O21  730   3.408   6.619   0.229 -0.4316 -0.4066 -0.3148
    2CHTO   H37  731   3.432   6.709   0.229  1.2239 -0.8316  0.4486
    2CHTO   C27  732   3.548   6.544   0.418  0.1732  0.4860 -0.6675
    2CHTO   H55  733   3.555   6.646   0.457 -1.3991 -0.0862  1.1593
    2CHTO    N5  734   3.435   6.472   0.489 -0.0124 -0.0091 -0.7150
    2CHTO   H43  735   3.476   6.432   0.581 -2.0391  1.0174  0.6716
    2CHTO   H44  736   3.360   6.542   0.522  1.2708  0.5195  1.1704
    2CHTO   C25  737   3.692   6.479   0.454  0.1663  0.6559  0.5550
    2CHTO   H53  738   3.693   6.377   0.412 -2.5657  0.0099  1.9091
    2CHTO   O17  739   3.801   6.559   0.377  0.0397  0.9816  0.3820
    2CHTO   C32  740   3.772   6.552   0.233  0.2723 -0.5716 -0.1943
    2CHTO   H60  741   3.774   6.452   0.188  1.3546 -0.6698  0.0751
    2CHTO   C36  742   3.887   6.624   0.164  0.0601  0.7588 -0.5810
    2CHTO   O25  743   3.996   6.529   0.156 -0.1252 -0.2612  0.1239
    2CHTO   H40  744   4.044   6.579   0.092 -0.2975 -0.5574 -0.2414
    2CHTO   O15  745   3.712   6.470   0.599 -0.3469 -0.0279  0.2071
    2CHTO   C19  746   3.669   6.428   0.726 -0.3708 -0.3533  0.0533
    2CHTO   H47  747   3.561   6.445   0.720 -0.5348 -0.5159  2.2553
    2CHTO   C20  748   3.701   6.279   0.774  0.2921  0.0028 -0.3269
    2CHTO   H48  749   3.809   6.261   0.787  0.0212 -0.0771  2.1821
    2CHTO   O19  750   3.640   6.198   0.671 -0.3683  0.4061  0.2260
    2CHTO   H35  751   3.690   6.199   0.592 -2.2835 -3.0574 -1.1272
    2CHTO   C21  752   3.634   6.246   0.911 -0.0128  0.1894  0.0845
    2CHTO   H49  753   3.526   6.242   0.894 -0.0729  2.5329 -0.1741
    2CHTO    N4  754   3.676   6.112   0.959 -0.1488  0.3796 -0.6442
    2CHTO   H41  755   3.783   6.101   0.957 -0.2538 -0.6141 -0.8526
    2CHTO   H42  756   3.643   6.092   1.060 -1.4597 -0.2637 -1.1823
    2CHTO   C22  757   3.672   6.351   1.015 -0.9794 -0.4378 -0.4064
    2CHTO   H50  758   3.779   6.353   1.033 -1.2517  3.6388  1.3660
    2CHTO   O14  759   3.638   6.477   0.961 -0.0585  0.7068 -0.0406
    2CHTO   C23  760   3.713   6.521   0.849  0.0702 -0.5616 -0.1536
    2CHTO   H51  761   3.821   6.521   0.865 -0.0163 -2.5339  0.6378
    2CHTO   C34  762   3.670   6.666   0.824 -0.2150 -0.2003 -0.4034
    2CHTO   O23  763   3.680   6.736   0.952 -0.2308 -0.1179  0.6612
    2CHTO   H38  764   3.604   6.724   1.005  0.2853  0.0483  1.4358
    2CHTO   O16  765   3.598   6.340   1.140 -0.6514 -0.1003  0.2007
    2CHTO   C24  766   3.643   6.448   1.242  0.2351  0.0985  0.0424
    2CHTO   H52  767   3.684   6.537   1.194 -1.2394  2.0137  2.2105
    2CHTO   C26  768   3.743   6.377   1.341  0.0390 -0.2490  0.4431
    2CHTO   H54  769   3.702   6.276   1.361  1.0875 -1.1210 -1.6775
    2CHTO   O20  770   3.870   6.367   1.273  0.0023 -0.0627  1.0148
    2CHTO   H36  771   3.863   6.304   1.204 -0.1790  1.2719 -0.1968
    2CHTO   C30  772   3.760   6.455   1.476  0.3651 -0.1545 -0.6442
    2CHTO   H58  773   3.816   6.549   1.460  0.1677  0.1537  0.4561
    2CHTO    N6  774   3.839   6.377   1.574 -0.3981  0.1156  0.2879
    2CHTO   H45  775   3.781   6.288   1.599  2.3770 -1.5038  1.1444
    2CHTO   H46  776   3.860   6.433   1.663 -0.5946  1.6808 -0.6401
    2CHTO   C33  777   3.623   6.499   1.527  0.3127  0.5852  0.9256
    2CHTO   H61  778   3.569   6.408   1.557  1.1207  0.9021  3.5021
    2CHTO   O18  779   3.542   6.565   1.422 -0.0956 -0.4496 -0.7293
    2CHTO   C28  780   3.513   6.493   1.306  0.1097 -0.2894 -0.0672
    2CHTO   H56  781   3.455   6.404   1.331  0.0643 -1.5601 -4.4181
    2CHTO   C35  782   3.430   6.591   1.212 -0.0394 -0.9162 -0.3064
    2CHTO   O24  783   3.497   6.714   1.182 -0.1006 -0.4613 -0.2032
    2CHTO   H39  784   3.546   6.705   1.102  0.4507  0.0621  0.0821
    2CHTO    O9  785   3.631   6.583   1.648  0.2746 -0.0774  0.1347
    2CHTO   C13  786   3.496   6.625   1.732 -0.2161 -0.8471  0.4332
    2CHTO   H26  787   3.419   6.547   1.711 -2.6194  1.5308  0.0945
    2CHTO   C11  788   3.457   6.764   1.670  0.4115 -0.5352  0.1510
    2CHTO   H24  789   3.433   6.736   1.567  0.2674 -2.5797  0.7102
    2CHTO    O8  790   3.558   6.868   1.659 -0.7105  0.0965  0.1603
    2CHTO    H3  791   3.640   6.837   1.624  0.0391  0.2709  1.7286
    2CHTO    C9  792   3.328   6.804   1.745 -0.1207  0.4201  0.0182
    2CHTO   H22  793   3.265   6.715   1.754 -0.1677  0.6031  1.6343
    2CHTO    N2  794   3.247   6.901   1.665 -0.0897 -0.5194 -0.0695
    2CHTO   H10  795   3.148   6.916   1.708  0.4204 -1.3322  1.4350
    2CHTO   H11  796   3.302   6.994   1.666 -0.8527 -0.0627  0.0895
    2CHTO    C7  797   3.377   6.838   1.890 -0.3917 -0.4569  0.1657
    2CHTO   H20  798   3.284   6.860   1.947 -0.2193 -0.2460  0.3670
    2CHTO    O4  799   3.438   6.723   1.962  0.3306  0.3195 -0.1153
    2CHTO   C14  800   3.527   6.633   1.888  0.2936  0.0924 -0.8921
    2CHTO   H27  801   3.503   6.532   1.927 -3.3819  1.6977  1.2950
    2CHTO   C18  802   3.672   6.666   1.932  0.3189  0.2266 -0.0729
    2CHTO   O13  803   3.690   6.618   2.066  0.3686  0.1940  0.8596
    2CHTO    H7  804   3.755   6.668   2.112 -0.1872 -0.1379  2.0400
    2CHTO    O2  805   3.462   6.959   1.896  0.1713 -0.7469  0.2591
    2CHTO    C1  806   3.442   7.065   1.993  0.2765  0.1152 -0.6003
    2CHTO   H14  807   3.371   7.031   2.072 -0.7404 -0.9839 -1.9542
    2CHTO    C2  808   3.383   7.192   1.926 -0.6210 -0.6824 -0.0744
    2CHTO   H15  809   3.450   7.208   1.840 -1.2423  1.7253 -0.1444
    2CHTO    O6  810   3.261   7.157   1.857 -0.3950  0.0355 -0.1487
    2CHTO    H1  811   3.245   7.208   1.781  0.1491  2.6240  1.4218
    2CHTO    C3  812   3.375   7.318   2.024  0.5931  0.1454 -0.1688
    2CHTO   H16  813   3.298   7.307   2.102  0.6933 -0.0316 -0.0957
    2CHTO    N1  814   3.331   7.437   1.946  0.1232 -0.1320  0.5857
    2CHTO    H8  815   3.351   7.521   2.011  2.7972  0.1496 -0.4969
    2CHTO    H9  816   3.225   7.435   1.928  0.4855 -1.1573 -1.5496
    2CHTO    C4  817   3.511   7.329   2.101  0.2024 -0.9486 -0.1290
    2CHTO   H17  818   3.588   7.372   2.038 -0.1813  0.3220  0.2539
    2CHTO    O1  819   3.561   7.208   2.159  0.4055  0.2931 -0.0380
    2CHTO    C5  820   3.576   7.099   2.068  1.0400  0.0146 -0.4891
    2CHTO   H18  821   3.647   7.119   1.988  2.7719  0.2423  1.0764
    2CHTO   C16  822   3.633   6.979   2.149 -0.3029 -0.0702 -0.5199
    2CHTO   O11  823   3.773   6.998   2.159 -0.6511 -0.1367 -0.4590
    2CHTO    H5  824   3.813   6.920   2.193  0.2985  0.5215 -0.0326
    2CHTO    O3  825   3.490   7.422   2.215 -0.2159  0.0111  0.4927
    2CHTO    C6  826   3.613   7.465   2.277  0.1091 -0.2466 -0.4136
    2CHTO   H19  827   3.694   7.398   2.248 -1.0435 -2.2125  0.8241
    2CHTO    C8  828   3.641   7.605   2.241 -0.6802  0.0576  0.1735
    2CHTO   H21  829   3.566   7.674   2.280 -0.9339  0.9506 -1.8450
    2CHTO    O7  830   3.635   7.618   2.100 -0.0324  0.4456  0.6037
    2CHTO    H2  831   3.712   7.584   2.058 -0.9254 -0.9611  0.0513
    2CHTO   C12  832   3.787   7.643   2.299 -0.1513  0.0304  0.1182
    2CHTO   H25  833   3.863   7.571   2.263  0.7755  1.4497 -0.8602
    2CHTO    N3  834   3.835   7.775   2.255  0.3877  0.3593  0.6750
    2CHTO   H12  835   3.912   7.768   2.179  1.4683 -0.6976  1.8505
    2CHTO   H13  836   3.759   7.830   2.201  1.0189 -0.4482 -1.0831
    2CHTO   C15  837   3.774   7.626   2.458  0.4607 -0.5163 -0.7653
    2CHTO   H28  838   3.718   7.711   2.498  1.5937  1.3396 -3.0363
    2CHTO   O10  839   3.911   7.610   2.499 -0.0506 -0.8342 -0.5109
    2CHTO    H4  840   3.951   7.694   2.496  1.0058 -1.3676 -2.3630
    2CHTO    O5  841   3.729   7.494   2.498  0.0692  0.7830 -0.1169
    2CHTO   C10  842   3.606   7.453   2.433 -0.1357 -0.2677 -0.7429
    2CHTO   H23  843   3.521   7.512   2.467 -0.3205  0.0303 -1.6973
    2CHTO   C17  844   3.573   7.304   2.474  0.1723  0.2293  0.1179
    2CHTO   O12  845   3.530   7.298   2.613 -0.0087 -0.4691 -0.4215
    2CHTO    H6  846   3.452   7.247   2.620 -1.0512  0.9833 -1.0755
    3CHTO  H203  847   7.886   0.959   1.008  0.5374  0.9586  0.4584
    3CHTO   O82  848   7.806   0.998   1.038  0.2400  0.5102  0.2497
    3CHTO  C123  849   7.719   0.910   1.114 -1.0397 -0.3789  0.8156
    3CHTO  H227  850   7.784   0.859   1.187 -0.1950  0.1456  0.4414
    3CHTO   O77  851   7.614   0.993   1.165 -0.5959 -0.2467 -0.0964
    3CHTO  C118  852   7.524   0.932   1.260  0.4074 -0.2631  0.2067
    3CHTO  H222  853   7.595   0.902   1.337  1.2718  1.1617 -0.0115
    3CHTO  C125  854   7.424   1.035   1.329 -0.0681 -0.5085 -0.6317
    3CHTO   O84  855   7.346   1.111   1.238  0.5999  0.1799 -0.2960
    3CHTO  H205  856   7.259   1.079   1.226  0.5816  0.1020  0.0328
    3CHTO  C114  857   7.450   0.810   1.197  1.2356  0.1585 -0.0687
    3CHTO  H218  858   7.384   0.851   1.121 -0.5696  0.4372  1.6150
    3CHTO  C116  859   7.553   0.716   1.132 -0.2322 -0.6576 -0.2476
    3CHTO  H220  860   7.616   0.670   1.210  1.0172  1.8865  0.2777
    3CHTO   O79  861   7.470   0.620   1.074 -0.6959 -0.2178  0.0710
    3CHTO  H201  862   7.509   0.602   0.990  0.5492  2.8401 -0.0617
    3CHTO  C120  863   7.642   0.798   1.034 -0.0471  0.5508 -0.0201
    3CHTO  H224  864   7.577   0.844   0.956  0.8599 -0.7976 -1.6034
    3CHTO   N21  865   7.733   0.695   0.964 -0.7651 -0.1930 -0.6171
    3CHTO  H211  866   7.681   0.637   0.890 -1.4131  0.1930 -0.4664
    3CHTO  H212  867   7.796   0.629   1.022 -2.4073 -1.6036 -0.4024
    3CHTO   O75  868   7.375   0.751   1.302  0.5210 -0.1950 -0.7929
    3CHTO  C112  869   7.222   0.714   1.257  0.5791 -0.4849 -0.4484
    3CHTO  H216  870   7.231   0.668   1.158  0.5389 -0.4567 -0.4654
    3CHTO   O73  871   7.141   0.837   1.255 -0.2811 -0.4369 -0.2387
    3CHTO  C113  872   7.017   0.822   1.194  0.3703  0.1656  0.4391
    3CHTO  H217  873   7.036   0.794   1.088 -1.2370  2.2067 -0.4309
    3CHTO  C124  874   6.943   0.958   1.180 -0.2009  0.4825  0.1172
    3CHTO   O83  875   6.948   1.038   1.296 -0.6354 -0.1075 -0.0870
    3CHTO  H204  876   6.914   0.978   1.360 -0.4238  0.1861  0.3051
    3CHTO  C109  877   6.923   0.723   1.272  0.1199  0.3685 -0.5619
    3CHTO  H213  878   6.887   0.776   1.361 -0.8928  0.6069 -1.1101
    3CHTO  C110  879   7.001   0.591   1.291  0.8162 -0.1321 -0.2262
    3CHTO  H214  880   7.000   0.537   1.197  0.3657 -2.6000  1.1377
    3CHTO   O78  881   6.921   0.519   1.387  0.4643 -0.1286  0.1489
    3CHTO  H200  882   6.973   0.446   1.415  0.5742  0.1226  0.6045
    3CHTO  C111  883   7.145   0.619   1.356  0.1589  0.0815  0.0164
    3CHTO  H215  884   7.131   0.666   1.454  0.6986  0.2959 -0.0088
    3CHTO   N19  885   7.226   0.497   1.380  0.6127  0.3053  0.5281
    3CHTO  H207  886   7.272   0.456   1.291  1.7781  2.3852  0.1523
    3CHTO  H208  887   7.165   0.426   1.434 -0.8284  1.2638  0.1847
    3CHTO   O74  888   6.814   0.688   1.187  0.1876  0.4751  0.5096
    3CHTO  C115  889   6.665   0.760   1.250  0.4767  0.1759  0.0735
    3CHTO  H219  890   6.668   0.761   1.359 -2.1878  1.7806  0.1875
    3CHTO   O76  891   6.647   0.898   1.208 -0.5322 -0.1793 -0.4106
    3CHTO  C122  892   6.528   0.967   1.248 -0.6227  0.2688  0.0517
    3CHTO  H226  893   6.526   1.048   1.175  0.9472 -0.1821 -0.5067
    3CHTO  C126  894   6.559   1.027   1.388 -0.3262  0.0295  0.5057
    3CHTO   O85  895   6.462   1.117   1.445  0.1417 -0.1487 -0.0561
    3CHTO  H206  896   6.509   1.193   1.474  0.6950 -0.3596 -0.4042
    3CHTO  C121  897   6.395   0.885   1.251  0.0738  0.6750  0.3750
    3CHTO  H225  898   6.314   0.928   1.314  0.7802  2.9149 -0.2037
    3CHTO   O81  899   6.343   0.898   1.120 -0.2064  0.2929  0.6137
    3CHTO  H202  900   6.408   0.873   1.057 -1.7547 -0.8872 -0.5516
    3CHTO  C119  901   6.418   0.729   1.286  0.6604  0.9790  0.4274
    3CHTO  H223  902   6.444   0.726   1.392 -2.5321 -0.8600  1.2446
    3CHTO  C117  903   6.540   0.677   1.206 -1.0506 -0.1540 -0.0200
    3CHTO  H221  904   6.538   0.694   1.098  0.0017  1.1425  0.1629
    3CHTO   N20  905   6.580   0.533   1.218  1.0130  0.4703 -0.1505
    3CHTO  H209  906   6.527   0.488   1.300 -0.9157 -0.0893 -1.6783
    3CHTO  H210  907   6.562   0.468   1.134 -0.3259  0.6710 -0.0305
    3CHTO   O80  908   6.285   0.654   1.271  0.1649  0.9669  0.4497
    3CHTO  C103  909   6.170   0.687   1.355 -0.3715 -0.3890  0.2276
    3CHTO  H190  910   6.189   0.733   1.452  0.1078 -0.0604 -0.0229
    3CHTO  C101  911   6.056   0.772   1.287 -0.4356  0.5005 -0.3491
    3CHTO  H188  912   6.079   0.762   1.181  3.7021  0.2929  0.5078
    3CHTO   O68  913   6.089   0.913   1.309  0.2583 -0.4426  0.4691
    3CHTO  H168  914   6.072   0.950   1.394  0.8068 -0.3803  0.5528
    3CHTO   C99  915   5.904   0.729   1.312 -0.2425 -0.2081  0.3615
    3CHTO  H186  916   5.863   0.774   1.405  0.6129 -0.3325  0.8025
    3CHTO   N17  917   5.808   0.779   1.207 -0.2052  0.2748  0.0201
    3CHTO  H174  918   5.858   0.855   1.149 -0.4265 -0.4220 -1.1045
    3CHTO  H175  919   5.714   0.813   1.246 -0.4932  0.6345 -0.9598
    3CHTO   C97  920   5.894   0.581   1.330  0.1031  0.4108 -0.3460
    3CHTO  H184  921   5.918   0.537   1.233  0.8779  2.5468 -1.1575
    3CHTO   O64  922   5.984   0.542   1.432 -0.1325 -0.6612 -0.3774
    3CHTO  C104  923   6.118   0.541   1.385  0.0725  0.2623  0.1850
    3CHTO  H191  924   6.124   0.484   1.292 -1.2641  1.8225 -0.8835
    3CHTO  C108  925   6.198   0.466   1.494 -0.1318 -0.1727 -0.4516
    3CHTO   O71  926   6.190   0.327   1.511 -0.1223 -0.4935 -0.1278
    3CHTO  H171  927   6.098   0.309   1.510  0.0873 -1.6626  0.2498
    3CHTO   O62  928   5.759   0.534   1.372 -0.2958 -0.2618 -0.3828
    3CHTO   C91  929   5.700   0.420   1.314  0.3515 -0.4967  0.3850
    3CHTO  H178  930   5.716   0.423   1.206 -0.6452  1.8581  0.2827
    3CHTO   C92  931   5.542   0.451   1.317  0.4420  0.1798 -0.9026
    3CHTO  H179  932   5.523   0.477   1.422  1.6207  1.6820 -1.0539
    3CHTO   O66  933   5.510   0.565   1.230  0.7127  0.0787 -0.3926
    3CHTO  H166  934   5.504   0.550   1.138 -1.0264  0.7964 -0.3973
    3CHTO   C93  935   5.463   0.332   1.269  0.0426  0.3864 -0.4333
    3CHTO  H180  936   5.482   0.320   1.162  0.5965 -1.4003 -0.1518
    3CHTO   N16  937   5.316   0.356   1.274  0.0846 -0.7853 -0.3997
    3CHTO  H172  938   5.272   0.257   1.264  1.1207 -1.4378  1.3288
    3CHTO  H173  939   5.296   0.396   1.372  2.2578  0.0798 -0.2801
    3CHTO   C94  940   5.491   0.197   1.345  0.1493 -0.0124  0.0702
    3CHTO  H181  941   5.404   0.169   1.404 -1.1082 -0.6161 -2.0232
    3CHTO   O61  942   5.610   0.209   1.426  0.2121 -0.2827 -0.3441
    3CHTO   C95  943   5.728   0.284   1.392 -0.2241  0.1176 -0.5463
    3CHTO  H182  944   5.786   0.297   1.484  1.7155  0.5259 -1.8005
    3CHTO  C106  945   5.827   0.189   1.312  0.5634 -0.8096  0.1726
    3CHTO   O69  946   5.962   0.237   1.308 -0.1113  0.0972  0.4569
    3CHTO  H169  947   5.959   0.325   1.275  0.2348  0.0854  0.3931
    3CHTO   O63  948   5.518   0.086   1.225 -0.0673  0.3163 -0.0330
    3CHTO   C96  949   5.427  -0.049   1.242  0.9272 -0.1061  0.8019
    3CHTO  H183  950   5.457  -0.121   1.166  2.1499 -0.7273  1.8533
    3CHTO   C98  951   5.268  -0.018   1.228  0.1318  0.7089  0.1013
    3CHTO  H185  952   5.253   0.068   1.295  0.9873  1.4642 -0.6637
    3CHTO   O67  953   5.250   0.028   1.090 -0.1510 -0.3127  0.3003
    3CHTO  H167  954   5.170   0.078   1.086 -0.2337 -0.4634  0.0906
    3CHTO  C102  955   5.167  -0.148   1.261  0.1214 -0.4694  0.6098
    3CHTO  H189  956   5.186  -0.215   1.176  0.0669 -0.2508  0.4260
    3CHTO   N18  957   5.020  -0.120   1.266 -0.7148 -0.3710 -0.1724
    3CHTO  H176  958   5.002  -0.063   1.176  4.4292  1.4446 -0.1902
    3CHTO  H177  959   4.989  -0.064   1.353  0.5776  0.8613 -0.4757
    3CHTO  C105  960   5.229  -0.219   1.386 -0.8793  0.2797 -0.1420
    3CHTO  H192  961   5.209  -0.160   1.475 -0.7563 -0.6620  0.5236
    3CHTO   O65  962   5.369  -0.248   1.373  0.4706 -0.1626 -0.1076
    3CHTO  C100  963   5.444  -0.130   1.380  0.8358  0.2214 -0.5027
    3CHTO  H187  964   5.418  -0.071   1.470 -0.3384 -0.0742 -0.6421
    3CHTO  C107  965   5.601  -0.155   1.406  0.0348 -0.0799  0.3081
    3CHTO   O70  966   5.652  -0.273   1.335  0.0564  0.1563 -0.1511
    3CHTO  H170  967   5.623  -0.285   1.247 -1.2022  0.5214  0.2096
    3CHTO   O57  968   5.157  -0.355   1.388  0.2678  0.5634 -0.2475
    3CHTO   C85  969   5.125  -0.438   1.504 -0.2113  0.0641  0.3545
    3CHTO  H157  970   5.118  -0.537   1.453  4.3411  1.0446 -2.4465
    3CHTO   C83  971   4.974  -0.397   1.559 -0.8962 -0.2639  0.1341
    3CHTO  H155  972   4.897  -0.413   1.484 -1.8707  1.7721  0.6679
    3CHTO   O56  973   4.972  -0.252   1.583  0.0044 -0.3479 -0.0998
    3CHTO  H135  974   4.988  -0.212   1.499 -2.4316 -0.4599 -0.6557
    3CHTO   C81  975   4.950  -0.487   1.677 -0.1698 -0.2782  0.3471
    3CHTO  H153  976   4.963  -0.591   1.648 -1.1824 -0.3704  0.2191
    3CHTO   N14  977   4.805  -0.473   1.712  0.5565 -0.2217  0.3652
    3CHTO  H141  978   4.782  -0.531   1.799  0.6485  1.0873  1.2760
    3CHTO  H142  979   4.749  -0.508   1.628 -0.8786  0.2351  1.1264
    3CHTO   C79  980   5.045  -0.449   1.796  0.7039 -0.0793 -0.1431
    3CHTO  H151  981   5.015  -0.507   1.883  0.6528  0.5118  0.2329
    3CHTO   O52  982   5.180  -0.495   1.754 -0.0162  0.5336  0.0653
    3CHTO   C86  983   5.228  -0.437   1.624  0.2987 -0.5333 -0.4479
    3CHTO  H158  984   5.249  -0.333   1.655  0.7609 -1.1588  1.3769
    3CHTO   C90  985   5.364  -0.502   1.591  0.3925  0.2936 -0.7341
    3CHTO   O60  986   5.337  -0.641   1.567 -0.3247 -0.8468 -0.4656
    3CHTO  H138  987   5.414  -0.687   1.538  0.8171 -1.3192  3.1544
    3CHTO   O50  988   5.051  -0.311   1.837  0.4650  0.1388 -0.5342
    3CHTO   C73  989   5.084  -0.220   1.942  0.2135 -0.2825  0.5682
    3CHTO  H145  990   5.169  -0.257   2.001 -0.7908  0.6959  2.6973
    3CHTO   C74  991   4.959  -0.215   2.041 -0.1933 -0.3564  0.1380
    3CHTO  H146  992   4.933  -0.318   2.067 -1.0297 -0.3597 -0.6668
    3CHTO   O54  993   5.001  -0.136   2.157 -0.1117 -0.0147  0.3723
    3CHTO  H133  994   5.060  -0.191   2.204 -0.6658  0.2348  1.3764
    3CHTO   C75  995   4.840  -0.144   1.956 -0.1272 -0.5932  0.5546
    3CHTO  H147  996   4.815  -0.211   1.873 -0.2816  0.8312 -0.5634
    3CHTO   N13  997   4.711  -0.122   2.014 -0.1164 -0.2018  0.4778
    3CHTO  H139  998   4.679  -0.019   2.006 -0.1618 -0.2554 -0.0290
    3CHTO  H140  999   4.634  -0.176   1.962  0.1650  0.4874 -0.6541
    3CHTO   C76 1000   4.895   0.001   1.903  0.4012  0.0471  0.6035
    3CHTO  H148 1001   4.921   0.061   1.990  3.8163  0.5318 -0.6511
    3CHTO   O49 1002   5.019  -0.011   1.825  0.2887 -0.0001 -0.6533
    3CHTO   C77 1003   5.120  -0.081   1.886  0.3793  0.9143  0.3662
    3CHTO  H149 1004   5.142  -0.013   1.968  0.6071 -0.1917  1.2447
    3CHTO   C88 1005   5.238  -0.087   1.794 -0.5285 -0.4302  0.5065
    3CHTO   O58 1006   5.356  -0.163   1.834 -0.8133 -0.3881 -0.1649
    3CHTO  H136 1007   5.356  -0.227   1.903  1.3211 -0.9405 -0.6290
    3CHTO   O51 1008   4.798   0.080   1.798 -0.6313  0.5178 -0.0945
    3CHTO   C78 1009   4.831   0.208   1.768 -0.4119  0.4774 -0.3390
    3CHTO  H150 1010   4.931   0.231   1.808  0.4094 -1.2904 -1.3109
    3CHTO   C80 1011   4.736   0.302   1.834 -0.5849 -0.0650  0.4908
    3CHTO  H152 1012   4.634   0.259   1.822 -0.9165 -0.3806  3.8104
    3CHTO   O55 1013   4.762   0.298   1.978 -0.1514 -0.3228  0.0119
    3CHTO  H134 1014   4.699   0.251   2.029 -0.1133 -0.2605  0.1170
    3CHTO   C84 1015   4.749   0.452   1.785  0.4141  0.0940  0.7611
    3CHTO  H156 1016   4.837   0.493   1.834  0.9896 -0.6626  0.3753
    3CHTO   N15 1017   4.638   0.541   1.828  0.0661 -0.2618  0.0548
    3CHTO  H143 1018   4.565   0.550   1.750  0.6347 -1.7824 -0.6821
    3CHTO  H144 1019   4.670   0.640   1.852 -1.4774  0.3189 -0.2230
    3CHTO   C87 1020   4.776   0.471   1.636 -0.3157  0.0012  0.6098
    3CHTO  H159 1021   4.691   0.453   1.569 -0.3328  2.5899 -0.1073
    3CHTO   O53 1022   4.889   0.369   1.601  0.3998  0.1138 -0.5703
    3CHTO   C82 1023   4.835   0.235   1.617 -0.4218 -0.3151 -0.0060
    3CHTO  H154 1024   4.737   0.226   1.572 -0.5717 -1.4442  0.5397
    3CHTO   C89 1025   4.929   0.138   1.543 -0.6685  0.1377 -0.0367
    3CHTO   O59 1026   4.937   0.175   1.400 -0.3845 -0.1603 -0.2934
    3CHTO  H137 1027   4.855   0.208   1.366 -1.2584 -1.5239  0.4515
    3CHTO   O45 1028   4.824   0.624   1.609 -0.1268 -0.4697 -0.2150
    3CHTO   C67 1029   4.964   0.649   1.612 -0.2724 -0.3211  0.0678
    3CHTO  H124 1030   5.018   0.566   1.658  0.2096  0.5829  1.1504
    3CHTO   C65 1031   5.013   0.664   1.460 -0.4466  0.0710  0.2687
    3CHTO  H122 1032   4.934   0.708   1.398 -0.6792  0.0167  0.5252
    3CHTO   O44 1033   5.026   0.527   1.413 -0.1060 -0.6185  0.3248
    3CHTO  H102 1034   5.072   0.531   1.331  0.7951 -2.5831  0.6844
    3CHTO   C63 1035   5.135   0.761   1.445  0.1368 -0.2481 -0.7234
    3CHTO  H120 1036   5.098   0.863   1.451 -2.1319 -1.0911  0.4117
    3CHTO   N11 1037   5.200   0.774   1.309 -0.1224  0.2726 -0.3784
    3CHTO  H108 1038   5.270   0.694   1.293  1.4724  1.2073  1.8233
    3CHTO  H109 1039   5.224   0.873   1.278 -0.6985  1.5262  2.9908
    3CHTO   C61 1040   5.234   0.741   1.564  0.4819 -0.1272  0.3325
    3CHTO  H118 1041   5.297   0.830   1.549  0.1963 -0.2355 -1.6968
    3CHTO   O40 1042   5.161   0.757   1.695 -0.0380 -0.1234  0.0336
    3CHTO   C68 1043   5.013   0.773   1.692 -0.2763  0.1916 -0.1755
    3CHTO  H125 1044   4.988   0.873   1.650  2.0423  1.4356  1.2765
    3CHTO   C72 1045   4.955   0.773   1.845  0.4556 -0.0202  0.8083
    3CHTO   O48 1046   5.027   0.855   1.930 -0.1478 -0.2069 -0.3791
    3CHTO  H105 1047   5.054   0.939   1.898  0.7069 -0.0518  0.6789
    3CHTO   O38 1048   5.298   0.617   1.555  0.0910  0.7038  0.0089
    3CHTO   C55 1049   5.382   0.577   1.665 -0.4919 -0.2854  0.1235
    3CHTO  H112 1050   5.328   0.600   1.758  1.1890 -0.6780  1.2079
    3CHTO   C56 1051   5.523   0.646   1.662 -0.5819  0.1152  0.2200
    3CHTO  H113 1052   5.550   0.625   1.557  1.2887  2.1067  0.2775
    3CHTO   O42 1053   5.512   0.790   1.661 -0.3250 -0.0431  0.5823
    3CHTO  H100 1054   5.564   0.829   1.728  0.9540  0.7874 -0.8913
    3CHTO   C57 1055   5.627   0.590   1.764  0.3316  0.3028 -0.7510
    3CHTO  H114 1056   5.594   0.624   1.862  1.0742  0.6942 -0.6387
    3CHTO   N10 1057   5.764   0.644   1.745  0.5149  0.4303  0.0294
    3CHTO  H106 1058   5.823   0.605   1.664 -0.1258  0.9102 -0.6712
    3CHTO  H107 1059   5.823   0.652   1.835 -0.5511 -0.3248  0.8075
    3CHTO   C58 1060   5.621   0.431   1.758 -0.5357  0.2464  0.7028
    3CHTO  H115 1061   5.653   0.399   1.657 -1.9345 -1.5566  0.8103
    3CHTO   O37 1062   5.483   0.384   1.769 -0.1807  0.0164  0.2993
    3CHTO   C59 1063   5.395   0.423   1.658 -1.0551 -0.5160 -1.2287
    3CHTO  H116 1064   5.420   0.380   1.561  0.1372  1.2720 -1.7342
    3CHTO   C70 1065   5.258   0.370   1.682 -0.3345  0.2192  0.1020
    3CHTO   O46 1066   5.253   0.227   1.667 -0.0913 -0.2285  0.0202
    3CHTO  H103 1067   5.272   0.200   1.580 -3.1871 -0.1102 -0.7161
    3CHTO   O39 1068   5.733   0.363   1.863  0.0964 -0.0187 -0.2486
    3CHTO   C60 1069   5.759   0.223   1.832 -0.1789  0.2938 -0.5232
    3CHTO  H117 1070   5.705   0.196   1.741 -0.7182 -0.9203  0.1422
    3CHTO   C62 1071   5.907   0.198   1.804 -0.8124 -0.5191 -0.6772
    3CHTO  H119 1072   5.928   0.270   1.723  0.9926 -1.5691 -1.1702
    3CHTO   O43 1073   5.992   0.231   1.925  0.2181  0.4480 -0.1127
    3CHTO  H101 1074   6.017   0.322   1.932 -1.8333  0.9947  0.2587
    3CHTO   C66 1075   5.928   0.049   1.761  0.0772 -0.0574  0.3976
    3CHTO  H123 1076   5.856   0.032   1.681 -0.9925  0.9941  1.1230
    3CHTO   N12 1077   6.066   0.014   1.705 -0.3879 -0.5488 -0.1352
    3CHTO  H110 1078   6.073  -0.093   1.723  1.3693 -0.1676  1.5491
    3CHTO  H111 1079   6.082   0.054   1.607 -0.0061 -2.4085 -0.8471
    3CHTO   C69 1080   5.886  -0.040   1.879  0.1467 -0.1251  0.0530
    3CHTO  H126 1081   5.946  -0.018   1.970  2.5178  0.7046 -1.6494
    3CHTO   O41 1082   5.733  -0.021   1.922  0.0337 -0.1413 -0.0207
    3CHTO   C64 1083   5.706   0.133   1.950  0.1119  0.6864  0.0274
    3CHTO  H121 1084   5.766   0.166   2.037  1.5432 -2.4603  0.2749
    3CHTO   C71 1085   5.559   0.152   1.971  0.0563 -0.1879 -0.3230
    3CHTO   O47 1086   5.512   0.073   2.079 -0.5009  0.3310 -0.3063
    3CHTO  H104 1087   5.425   0.095   2.108 -0.4174  0.1834  0.0566
    3CHTO   O34 1088   5.906  -0.213   1.844  0.4687  0.4943  1.1204
    3CHTO   C49 1089   5.992  -0.348   1.809  0.7006 -0.4124 -0.6530
    3CHTO   H91 1090   6.073  -0.310   1.747  1.5922 -0.6355  0.3454
    3CHTO   C47 1091   5.904  -0.443   1.726  1.0171 -0.3326  0.6294
    3CHTO   H89 1092   5.887  -0.392   1.629 -1.6050 -1.5426  0.4231
    3CHTO   O33 1093   5.770  -0.474   1.778  0.4586  0.3741 -0.6005
    3CHTO   H70 1094   5.697  -0.444   1.729 -0.8798 -2.5391 -0.5211
    3CHTO   C45 1095   5.966  -0.584   1.719 -0.5331  0.0892 -0.1587
    3CHTO   H87 1096   5.912  -0.651   1.787 -0.1495  0.0282  0.0857
    3CHTO    N8 1097   5.951  -0.642   1.584 -0.3589 -0.1281 -0.3104
    3CHTO   H75 1098   5.847  -0.671   1.575  0.0107 -1.1075 -1.5300
    3CHTO   H76 1099   5.950  -0.558   1.516 -0.0374 -0.6684 -0.9785
    3CHTO   C43 1100   6.115  -0.590   1.776 -0.0337  0.3309 -0.4490
    3CHTO   H85 1101   6.139  -0.696   1.768  0.7872  0.5809 -1.5697
    3CHTO   O29 1102   6.114  -0.540   1.913 -0.0398  0.0740  0.6509
    3CHTO   C50 1103   6.050  -0.416   1.935  0.1599 -0.0068 -0.2242
    3CHTO   H92 1104   5.970  -0.429   2.010  0.1041 -1.7594 -0.5598
    3CHTO   C54 1105   6.159  -0.339   2.010  0.2631  0.0002 -0.6167
    3CHTO   O36 1106   6.128  -0.206   2.043  0.4917  0.1142 -0.1259
    3CHTO   H72 1107   6.186  -0.172   2.108  0.3498  0.1570 -0.0217
    3CHTO   O27 1108   6.207  -0.514   1.686 -0.0438 -0.0922 -0.1480
    3CHTO   C37 1109   6.327  -0.432   1.653 -0.1924 -0.9045  0.8931
    3CHTO   H79 1110   6.316  -0.325   1.673 -0.1531 -0.4303 -1.3969
    3CHTO   C38 1111   6.462  -0.473   1.727  0.1414 -0.5929  0.1768
    3CHTO   H80 1112   6.472  -0.582   1.716 -0.7146 -0.4771 -1.9923
    3CHTO   O31 1113   6.435  -0.440   1.866 -0.1895 -0.1401  0.2341
    3CHTO   H68 1114   6.499  -0.478   1.923  1.0968 -0.2819 -1.2818
    3CHTO   C39 1115   6.586  -0.405   1.664  0.4882 -0.2146 -0.5898
    3CHTO   H81 1116   6.582  -0.300   1.690 -0.3164 -0.1859 -0.8168
    3CHTO    N7 1117   6.717  -0.451   1.725  0.1050 -0.0636 -0.6740
    3CHTO   H73 1118   6.698  -0.543   1.779  0.0560 -0.0679 -0.6974
    3CHTO   H74 1119   6.768  -0.371   1.776 -0.4633 -1.2180  1.7461
    3CHTO   C40 1120   6.591  -0.413   1.508  0.2740 -0.8225 -0.3878
    3CHTO   H82 1121   6.629  -0.508   1.471  2.3064 -1.3335  2.7382
    3CHTO   O26 1122   6.466  -0.377   1.451  0.0437 -0.6882  0.1500
    3CHTO   C41 1123   6.347  -0.445   1.500 -0.7726  0.8529  0.2530
    3CHTO   H83 1124   6.360  -0.554   1.493 -1.4104  0.7052  1.1664
    3CHTO   C52 1125   6.233  -0.381   1.422  0.4559 -0.1146  0.0365
    3CHTO   O35 1126   6.235  -0.411   1.268  0.3945  0.5649  0.3912
    3CHTO   H71 1127   6.289  -0.344   1.230 -0.6826  1.4306  0.3418
    3CHTO   O28 1128   6.689  -0.321   1.455 -0.2312 -0.1006  0.0001
    3CHTO   C42 1129   6.667  -0.204   1.370  0.6639 -0.2858 -0.6447
    3CHTO   H84 1130   6.769  -0.182   1.340 -0.0765  1.4493 -2.0494
    3CHTO   C44 1131   6.627  -0.078   1.453  0.8472 -1.0641 -0.4208
    3CHTO   H86 1132   6.526  -0.100   1.488  1.0734 -1.1544  0.1917
    3CHTO   O32 1133   6.727  -0.059   1.555 -0.2475  0.0543 -1.0718
    3CHTO   H69 1134   6.765  -0.136   1.592  0.7212  1.0912  0.1608
    3CHTO   C48 1135   6.615   0.045   1.360  0.1871 -0.1049 -0.0552
    3CHTO   H90 1136   6.718   0.076   1.339  1.0552 -1.9194  1.3435
    3CHTO    N9 1137   6.553   0.155   1.443  0.2612  0.2376  0.2517
    3CHTO   H77 1138   6.631   0.205   1.499 -0.2195  0.2781  0.8821
    3CHTO   H78 1139   6.486   0.107   1.512  0.2046 -3.2761 -2.1235
    3CHTO   C51 1140   6.526   0.021   1.227 -0.0216 -0.8191 -0.0514
    3CHTO   H93 1141   6.420   0.003   1.248 -0.3377  1.3898  0.3726
    3CHTO   O30 1142   6.585  -0.084   1.148  0.6504  0.2991  0.1863
    3CHTO   C46 1143   6.583  -0.215   1.234  0.0487  0.0426  0.1114
    3CHTO   H88 1144   6.479  -0.228   1.265  0.1345 -0.2893  0.2619
    3CHTO   C53 1145   6.639  -0.324   1.149 -0.1479 -0.0212  0.0409
    3CHTO   O72 1146   6.584  -0.456   1.161  0.7196 -0.1285  0.1439
    3CHTO  H199 1147   6.575  -0.475   1.252  0.1266 -1.2735 -0.1473
    3CHTO   O22 1148   6.536   0.135   1.144  0.4188  0.1953 -0.0404
    3CHTO   C31 1149   6.420   0.160   1.047 -0.1602 -0.1236 -0.5873
    3CHTO   H59 1150   6.375   0.060   1.030  2.1785 -1.6110  1.6370
    3CHTO   C29 1151   6.314   0.256   1.107 -0.1417  0.0661 -0.6642
    3CHTO   H57 1152   6.360   0.347   1.149  0.3584 -0.6484  0.3840
    3CHTO   O21 1153   6.267   0.190   1.224  0.7924  0.0523 -0.3523
    3CHTO   H37 1154   6.173   0.186   1.223  0.6666  2.2153 -0.3731
    3CHTO   C27 1155   6.204   0.295   1.000  0.9767 -0.4963  0.0768
    3CHTO   H55 1156   6.148   0.203   0.976  0.4702 -1.1818  3.6482
    3CHTO    N5 1157   6.103   0.397   1.049  0.5977  0.0328  0.0280
    3CHTO   H43 1158   6.032   0.333   1.100  1.2557 -1.0430 -0.3889
    3CHTO   H44 1159   6.136   0.470   1.122 -0.8000  0.5044  0.2050
    3CHTO   C25 1160   6.271   0.348   0.865 -0.4829  0.1308 -0.6993
    3CHTO   H53 1161   6.331   0.439   0.880 -1.5893  0.5387  1.5459
    3CHTO   O17 1162   6.361   0.250   0.819 -0.1605 -0.6479  0.5492
    3CHTO   C32 1163   6.471   0.209   0.909  0.6426 -0.1850 -0.2281
    3CHTO   H60 1164   6.535   0.296   0.925 -2.5766  1.9544  1.6152
    3CHTO   C36 1165   6.533   0.094   0.839  0.9141 -0.4801  0.5721
    3CHTO   O25 1166   6.655   0.049   0.906  0.0027  0.2633 -0.6707
    3CHTO   H40 1167   6.687  -0.030   0.867 -0.6615  0.3157 -1.3358
    3CHTO   O15 1168   6.156   0.366   0.749 -0.6851 -0.3410 -0.2357
    3CHTO   C19 1169   6.136   0.461   0.643 -0.6343 -0.0328 -0.2912
    3CHTO   H47 1170   6.056   0.416   0.582 -2.1002  1.2251  0.6777
    3CHTO   C20 1171   6.096   0.596   0.692  0.4927  0.0418  0.7106
    3CHTO   H48 1172   6.179   0.642   0.747  2.1860 -0.7157 -1.1460
    3CHTO   O19 1173   5.976   0.577   0.766 -0.5113 -0.1375  0.3055
    3CHTO   H35 1174   5.967   0.655   0.816  1.9704  1.2735 -1.3237
    3CHTO   C21 1175   6.084   0.707   0.575  0.9132  0.1557  0.3005
    3CHTO   H49 1176   5.991   0.689   0.521  1.9754 -1.7040 -0.9844
    3CHTO    N4 1177   6.071   0.848   0.632  0.0338  0.5253 -0.1730
    3CHTO   H41 1178   6.160   0.864   0.692  0.9872 -2.6203 -0.6438
    3CHTO   H42 1179   5.987   0.866   0.697  0.5912 -1.5975  1.1775
    3CHTO   C22 1180   6.200   0.690   0.473 -0.2649 -0.0407  0.7431
    3CHTO   H50 1181   6.298   0.715   0.513  0.3535 -2.4252  0.7952
    3CHTO   O14 1182   6.214   0.554   0.436 -0.3009  0.5147  0.1911
    3CHTO   C23 1183   6.263   0.475   0.542  0.1846 -0.4475  0.6610
    3CHTO   H51 1184   6.348   0.526   0.589 -0.0900 -0.6417  1.3794
    3CHTO   C34 1185   6.316   0.343   0.488  0.1400  0.1312  0.4512
    3CHTO   O23 1186   6.451   0.345   0.441  0.1435  0.3332 -0.3597
    3CHTO   H38 1187   6.476   0.254   0.439  0.1090  0.3351 -1.2200
    3CHTO   O16 1188   6.174   0.756   0.348  0.2018  0.1926 -0.7532
    3CHTO   C24 1189   6.267   0.859   0.299  0.4015  0.0570  0.4211
    3CHTO   H52 1190   6.329   0.901   0.379  0.4797  0.4322  0.1658
    3CHTO   C26 1191   6.183   0.979   0.254 -0.1354 -0.3961 -0.3531
    3CHTO   H54 1192   6.110   0.945   0.178 -0.2589 -1.9767  0.4556
    3CHTO   O20 1193   6.101   1.018   0.366 -0.1707 -0.6465 -0.0618
    3CHTO   H36 1194   6.072   1.105   0.346  2.4381  0.3858  0.4810
    3CHTO   C30 1195   6.267   1.094   0.198 -0.1296 -0.9739  0.3661
    3CHTO   H58 1196   6.323   1.145   0.278 -0.1697  0.1872 -0.3367
    3CHTO    N6 1197   6.186   1.213   0.151 -0.0775  0.7652  0.9910
    3CHTO   H45 1198   6.238   1.267   0.074 -1.0740  1.9591  1.1457
    3CHTO   H46 1199   6.176   1.274   0.239  0.1029  2.0222  0.1461
    3CHTO   C33 1200   6.377   1.039   0.100  0.2430 -0.2972 -0.2035
    3CHTO   H61 1201   6.328   1.014   0.004  0.5355 -2.5301  0.1945
    3CHTO   O18 1202   6.441   0.920   0.147 -0.4033  0.0142  0.4780
    3CHTO   C28 1203   6.363   0.807   0.181 -0.8156 -0.2969 -0.1636
    3CHTO   H56 1204   6.301   0.790   0.094 -0.8865  0.9221 -0.3589
    3CHTO   C35 1205   6.457   0.695   0.223 -0.2118 -0.1902  0.9126
    3CHTO   O24 1206   6.540   0.717   0.335 -0.2132  0.3501 -0.2975
    3CHTO   H39 1207   6.481   0.758   0.396 -1.6076  2.2360 -2.8156
    3CHTO    O9 1208   6.476   1.141   0.063  0.6244  0.3849  0.1621
    3CHTO   C13 1209   6.592   1.166   0.186 -0.3846  0.6271  0.9251
    3CHTO   H26 1210   6.544   1.129   0.279 -3.0107  2.0722  0.1991
    3CHTO   C11 1211   6.619   1.324   0.195 -0.9122 -0.2045  0.3633
    3CHTO   H24 1212   6.520   1.360   0.228 -0.8176 -2.2795  3.1159
    3CHTO    O8 1213   6.658   1.388   0.071  0.0409  0.1283  0.0730
    3CHTO    H3 1214   6.605   1.377  -0.006 -1.0749 -0.9981  0.9882
    3CHTO    C9 1215   6.728   1.342   0.304 -0.3249 -0.1359  0.4126
    3CHTO   H22 1216   6.690   1.308   0.402  1.0621  0.5028  1.2010
    3CHTO    N2 1217   6.758   1.481   0.343 -0.4572 -1.0616 -0.2097
    3CHTO   H10 1218   6.806   1.486   0.440  0.9220 -1.2592 -0.8712
    3CHTO   H11 1219   6.669   1.542   0.337  0.5367  0.5873  1.0586
    3CHTO    C7 1220   6.857   1.253   0.273 -0.9969 -0.5472  0.3739
    3CHTO   H20 1221   6.918   1.256   0.366 -0.2638  0.2284 -0.1180
    3CHTO    O4 1222   6.828   1.117   0.247  0.6401 -0.4108  0.1623
    3CHTO   C14 1223   6.716   1.077   0.163 -0.0875 -0.2322 -0.3816
    3CHTO   H27 1224   6.690   0.976   0.200 -2.2107  0.2991 -0.3609
    3CHTO   C18 1225   6.751   1.069   0.006 -0.3502 -0.1488 -0.1480
    3CHTO   O13 1226   6.840   0.955  -0.010 -0.2526  0.0288 -0.1661
    3CHTO    H7 1227   6.814   0.899  -0.081 -0.8684  0.1977 -0.0773
    3CHTO    O2 1228   6.955   1.316   0.146  1.0144 -0.2682  0.1552
    3CHTO    C1 1229   7.065   1.249   0.084 -0.3523 -0.4443  0.2438
    3CHTO   H14 1230   7.023   1.151   0.054  0.0305  0.0350 -1.9031
    3CHTO    C2 1231   7.193   1.224   0.180 -0.2740  0.5471 -0.1348
    3CHTO   H15 1232   7.234   1.319   0.218 -0.9118  0.1859  1.5149
    3CHTO    O6 1233   7.154   1.152   0.303  0.5417  0.2704  0.0527
    3CHTO    H1 1234   7.084   1.201   0.342  1.9745  1.9631  0.5627
    3CHTO    C3 1235   7.302   1.144   0.107  0.8132 -0.2128  0.4039
    3CHTO   H16 1236   7.261   1.044   0.083 -0.5557  0.9838 -2.4701
    3CHTO    N1 1237   7.429   1.125   0.185  0.2957 -0.5352  0.1694
    3CHTO    H8 1238   7.417   1.182   0.275  0.1507  0.1171 -0.2578
    3CHTO    H9 1239   7.463   1.025   0.210 -0.0710 -0.0291  2.7466
    3CHTO    C4 1240   7.336   1.207  -0.032 -0.7387  0.5192  0.1655
    3CHTO   H17 1241   7.387   1.302  -0.017 -2.3029  1.2800  0.7167
    3CHTO    O1 1242   7.218   1.233  -0.110 -0.0435 -0.0189 -0.0770
    3CHTO    C5 1243   7.123   1.319  -0.047  0.4364  0.1240 -0.2885
    3CHTO   H18 1244   7.169   1.413  -0.016  0.6742 -0.0668 -0.0563
    3CHTO   C16 1245   7.009   1.351  -0.158  0.0457  0.2238  0.2375
    3CHTO   O11 1246   6.911   1.448  -0.111 -0.0107 -0.1674  0.1997
    3CHTO    H5 1247   6.862   1.490  -0.180  1.9870  2.5999  0.3553
    3CHTO    O3 1248   7.429   1.128  -0.114 -0.0161 -0.3696  0.0312
    3CHTO    C6 1249   7.489   1.183  -0.234 -0.3936 -0.0118  0.3585
    3CHTO   H19 1250   7.432   1.272  -0.260  0.1175  0.3547  0.4768
    3CHTO    C8 1251   7.636   1.228  -0.206 -0.3724 -0.0131 -1.0005
    3CHTO   H21 1252   7.695   1.147  -0.162  0.0794  1.2657  0.8416
    3CHTO    O7 1253   7.638   1.333  -0.107 -0.0417 -0.2397  0.4739
    3CHTO    H2 1254   7.714   1.323  -0.054 -0.0141 -1.7103  0.1642
    3CHTO   C12 1255   7.704   1.280  -0.339 -0.0881 -0.2156 -0.6471
    3CHTO   H25 1256   7.645   1.369  -0.370 -1.0080  0.0966  1.8936
    3CHTO    N3 1257   7.847   1.330  -0.323 -0.0816 -0.0429  0.1970
    3CHTO   H12 1258   7.847   1.432  -0.289 -1.2210  1.0874 -2.9700
    3CHTO   H13 1259   7.890   1.328  -0.422  0.5706 -0.8687  0.4875
    3CHTO   C15 1260   7.678   1.173  -0.451  0.4452  0.1054 -0.0774
    3CHTO   H28 1261   7.738   1.084  -0.430  0.2949 -0.4861 -2.0513
    3CHTO   O10 1262   7.714   1.224  -0.585 -0.1567 -0.3764  0.0413
    3CHTO    H4 1263   7.797   1.268  -0.581  0.5154 -1.4660 -1.4664
    3CHTO    O5 1264   7.537   1.148  -0.477  0.1313  0.6064  0.4680
    3CHTO   C10 1265   7.479   1.086  -0.357 -0.5282 -0.2570 -0.5176
    3CHTO   H23 1266   7.535   0.995  -0.335 -1.2829 -0.3452  1.1862
    3CHTO   C17 1267   7.333   1.053  -0.390  0.2373  0.6399 -0.1400
    3CHTO   O12 1268   7.263   0.981  -0.286 -0.3673 -0.2567  0.1931
    3CHTO    H6 1269   7.172   0.967  -0.308 -0.5825  1.0822  0.2248
    4CHTO  H203 1270   5.916   6.611   1.808 -0.5251  0.0084  0.0562
    4CHTO   O82 1271   5.985   6.661   1.768 -0.3128 -0.2984  0.0437
    4CHTO  C123 1272   5.941   6.798   1.742  0.4633 -0.6588  0.3944
    4CHTO  H227 1273   5.835   6.811   1.770  0.2774 -1.7966  0.2620
    4CHTO   O77 1274   6.034   6.857   1.847 -0.1031 -0.5476 -0.1839
    4CHTO  C118 1275   5.984   6.987   1.877 -0.4119  0.1773 -0.2081
    4CHTO  H222 1276   5.883   6.976   1.917 -1.0076  0.7615 -1.5262
    4CHTO  C125 1277   6.074   7.044   1.992  0.5198  0.6268 -0.3325
    4CHTO   O84 1278   6.213   7.022   1.972 -0.0062  0.1034  0.1094
    4CHTO  H205 1279   6.251   7.103   1.947 -0.3356  0.3135  0.2865
    4CHTO  C114 1280   5.991   7.074   1.750  0.5670  0.4064 -0.0248
    4CHTO  H218 1281   6.095   7.105   1.737  0.9838  1.1647  4.4551
    4CHTO  C116 1282   5.946   7.009   1.610 -0.1404 -0.3409  0.6526
    4CHTO  H220 1283   5.836   7.025   1.607  0.0464  1.2539  1.4911
    4CHTO   O79 1284   5.997   7.097   1.505  0.1625 -0.5930 -0.5760
    4CHTO  H201 1285   5.998   7.056   1.421 -0.1147 -0.3317 -0.7068
    4CHTO  C120 1286   5.985   6.865   1.610 -0.9280 -0.2122  0.5458
    4CHTO  H224 1287   6.096   6.862   1.607 -0.8902  0.7659  0.8517
    4CHTO   N21 1288   5.929   6.788   1.490  0.0276 -0.0633  0.2288
    4CHTO  H211 1289   5.836   6.826   1.451 -0.6481 -0.7081  1.1920
    4CHTO  H212 1290   5.919   6.684   1.519  0.5834 -0.0323  0.5265
    4CHTO   O75 1291   5.915   7.190   1.787  0.3319  0.7705 -0.0862
    4CHTO  C112 1292   5.984   7.331   1.723  0.2682  0.5832  0.0450
    4CHTO  H216 1293   6.000   7.323   1.614 -0.5456  0.8803 -0.1038
    4CHTO   O73 1294   6.112   7.349   1.789  0.1032 -0.2036  0.8435
    4CHTO  C113 1295   6.180   7.466   1.746  0.6893 -0.4680  0.0760
    4CHTO  H217 1296   6.201   7.472   1.637 -0.3683 -1.0069 -0.1617
    4CHTO  C124 1297   6.318   7.468   1.816  0.2479 -0.3773  0.7630
    4CHTO   O83 1298   6.364   7.334   1.860  0.5773  0.5622  0.1424
    4CHTO  H204 1299   6.301   7.296   1.918  2.2927 -1.2334  0.8631
    4CHTO  C109 1300   6.094   7.586   1.793 -0.7960 -0.1119 -0.0482
    4CHTO  H213 1301   6.081   7.578   1.902  1.0167 -0.0371  0.1853
    4CHTO  C110 1302   5.958   7.586   1.709 -0.4797  0.7841  0.1713
    4CHTO  H214 1303   5.983   7.587   1.603 -2.6615  0.6091 -0.3717
    4CHTO   O78 1304   5.889   7.706   1.748  0.4405  0.7441  0.1683
    4CHTO  H200 1305   5.799   7.691   1.726  0.5450 -1.0235  0.9216
    4CHTO  C111 1306   5.881   7.454   1.739 -0.8079  0.1883  0.0703
    4CHTO  H215 1307   5.846   7.455   1.843  1.5029  0.5779  0.8652
    4CHTO   N19 1308   5.760   7.420   1.655 -0.1920  0.4826  0.2247
    4CHTO  H207 1309   5.706   7.332   1.685  0.4982 -0.1998 -0.4983
    4CHTO  H208 1310   5.767   7.446   1.550 -0.2437  0.0384  0.1102
    4CHTO   O74 1311   6.167   7.712   1.766  0.7644 -0.2036 -0.0374
    4CHTO  C115 1312   6.178   7.816   1.875  0.2254  0.3643 -0.7818
    4CHTO  H219 1313   6.119   7.790   1.963 -1.0961  1.1374 -1.4302
    4CHTO   O76 1314   6.332   7.824   1.932 -0.0369 -0.5452 -0.0346
    4CHTO  C122 1315   6.418   7.857   1.821  0.7712 -0.7045  0.1200
    4CHTO  H226 1316   6.406   7.772   1.753  1.9230  0.8325 -2.0929
    4CHTO  C126 1317   6.562   7.849   1.874 -0.6186  0.2627  0.5841
    4CHTO   O85 1318   6.583   7.915   2.003  0.3731  0.2911  0.2897
    4CHTO  H206 1319   6.670   7.913   2.036 -0.0921  2.7260  1.7493
    4CHTO  C121 1320   6.385   8.001   1.766 -0.2067  0.7628  0.0610
    4CHTO  H225 1321   6.476   8.061   1.789  0.5352  0.4698 -1.9382
    4CHTO   O81 1322   6.370   7.989   1.629 -0.4117  0.5601  0.2066
    4CHTO  H202 1323   6.402   8.062   1.580  1.3910  1.8961  3.2071
    4CHTO  C119 1324   6.259   8.067   1.826  0.4223 -0.0281 -0.0869
    4CHTO  H223 1325   6.288   8.094   1.927  0.1436 -3.2561  0.9006
    4CHTO  C117 1326   6.135   7.966   1.828 -0.0970 -0.5936  0.3870
    4CHTO  H221 1327   6.086   7.944   1.733 -1.3906 -2.6770  1.5067
    4CHTO   N20 1328   6.021   8.025   1.906  0.4885  0.7602 -0.1451
    4CHTO  H209 1329   5.961   8.096   1.852 -0.7009  0.6414  0.9889
    4CHTO  H210 1330   6.058   8.072   1.996  2.5511 -1.3338  0.1638
    4CHTO   O80 1331   6.235   8.214   1.754 -0.5989  0.2389 -0.7441
    4CHTO  C103 1332   6.281   8.358   1.825  0.1350  0.0477 -0.2959
    4CHTO  H190 1333   6.213   8.373   1.909 -1.3347  0.0877 -1.4727
    4CHTO  C101 1334   6.431   8.389   1.860 -0.1481  0.1071 -0.8512
    4CHTO  H188 1335   6.497   8.370   1.775  2.1839 -0.1014  0.9386
    4CHTO   O68 1336   6.484   8.284   1.986 -0.1660 -0.5592 -0.1584
    4CHTO  H168 1337   6.548   8.224   1.954 -0.5183 -0.7335 -0.5391
    4CHTO   C99 1338   6.449   8.539   1.908  0.2099  0.5223 -0.3169
    4CHTO  H186 1339   6.381   8.557   1.994  0.9531 -0.6620  0.5328
    4CHTO   N17 1340   6.580   8.570   1.971 -0.1493 -0.3140  0.2326
    4CHTO  H174 1341   6.586   8.532   2.072 -1.1359 -0.1668  0.3535
    4CHTO  H175 1342   6.657   8.543   1.900  0.6444  1.1901  0.5143
    4CHTO   C97 1343   6.399   8.629   1.796  0.7246  0.9047  0.6231
    4CHTO  H184 1344   6.460   8.619   1.705  0.2299  1.0649  0.2701
    4CHTO   O64 1345   6.261   8.595   1.771 -0.7984 -0.4731  0.2738
    4CHTO  C104 1346   6.239   8.462   1.718  0.4727 -0.0165  0.0443
    4CHTO  H191 1347   6.294   8.444   1.625  0.7546  1.9206 -0.1892
    4CHTO  C108 1348   6.094   8.453   1.676  0.2441  0.1919  0.0542
    4CHTO   O71 1349   6.002   8.426   1.779  0.2607  0.0731 -0.5695
    4CHTO  H171 1350   5.918   8.425   1.736 -0.6158  1.4905  1.0428
    4CHTO   O62 1351   6.404   8.765   1.836  0.7308 -0.0647  0.2052
    4CHTO   C91 1352   6.406   8.876   1.754 -0.0003  0.1859 -0.3140
    4CHTO  H178 1353   6.357   8.852   1.660 -2.1132 -0.4404  0.9164
    4CHTO   C92 1354   6.549   8.928   1.722 -1.2447  0.2781 -0.1035
    4CHTO  H179 1355   6.590   8.969   1.816  0.9175  0.3017 -1.0261
    4CHTO   O66 1356   6.636   8.819   1.686  0.1669 -0.3616 -0.0772
    4CHTO  H166 1357   6.601   8.773   1.612  1.3797 -1.7685  0.1898
    4CHTO   C93 1358   6.552   9.032   1.608  0.4658 -0.0059  0.8527
    4CHTO  H180 1359   6.567   8.970   1.518 -2.3105  0.5658 -0.0638
    4CHTO   N16 1360   6.659   9.131   1.626 -0.0342  0.1451  0.0729
    4CHTO  H172 1361   6.710   9.114   1.719  2.9279  1.0156 -1.3253
    4CHTO  H173 1362   6.729   9.114   1.545  1.1453  1.6815  0.7548
    4CHTO   C94 1363   6.410   9.099   1.588  0.4663  0.4146 -0.6816
    4CHTO  H181 1364   6.415   9.203   1.557  1.1603  0.4046 -0.6124
    4CHTO   O61 1365   6.330   9.113   1.703  0.1479 -0.1073  0.8124
    4CHTO   C95 1366   6.314   9.002   1.794 -0.8863 -0.5151 -0.4383
    4CHTO  H182 1367   6.348   9.035   1.892  2.5653 -2.7007 -0.8089
    4CHTO  C106 1368   6.168   8.955   1.804 -0.9228 -0.3991 -0.2582
    4CHTO   O69 1369   6.111   8.894   1.687  0.3540  0.3314 -0.4570
    4CHTO  H169 1370   6.123   8.801   1.682 -1.2404 -0.0071  1.5099
    4CHTO   O63 1371   6.325   9.019   1.473 -0.1999  0.8469 -0.1614
    4CHTO   C96 1372   6.385   9.017   1.330  0.4805  0.0585 -0.0502
    4CHTO  H183 1373   6.494   9.010   1.331  0.3978 -1.4295 -0.5779
    4CHTO   C98 1374   6.351   9.146   1.258 -0.2544  0.2396  0.5204
    4CHTO  H185 1375   6.243   9.171   1.262  0.0509  1.4742  1.4074
    4CHTO   O67 1376   6.408   9.257   1.332  0.2323  0.3720  0.1093
    4CHTO  H167 1377   6.500   9.253   1.315  0.5537  1.0549  1.6192
    4CHTO  C102 1378   6.398   9.149   1.097  0.0909 -0.3667  0.3016
    4CHTO  H189 1379   6.508   9.146   1.102  0.1470 -0.1883 -0.7117
    4CHTO   N18 1380   6.362   9.269   1.013  0.0061  0.3467 -0.5692
    4CHTO  H176 1381   6.303   9.335   1.073  0.4895  1.0997 -0.9148
    4CHTO  H177 1382   6.304   9.248   0.925  0.8574  0.2723 -1.1239
    4CHTO  C105 1383   6.351   9.018   1.039  0.5666 -0.3569 -0.1599
    4CHTO  H192 1384   6.242   9.020   1.030  0.5882 -1.6477 -0.8261
    4CHTO   O65 1385   6.380   8.900   1.111  0.3665 -0.4991 -0.4646
    4CHTO  C100 1386   6.328   8.897   1.246  0.6122  0.1153  0.0776
    4CHTO  H187 1387   6.218   8.901   1.238  0.4501 -1.7823  0.9828
    4CHTO  C107 1388   6.374   8.763   1.310 -0.3762  0.1904 -0.4783
    4CHTO   O70 1389   6.521   8.750   1.338  0.0825 -0.2086  0.4596
    4CHTO  H170 1390   6.572   8.737   1.261 -0.2730 -2.0416  0.5154
    4CHTO   O57 1391   6.413   9.008   0.894  0.4662  0.1539 -0.4399
    4CHTO   C85 1392   6.348   8.933   0.793  0.1713  0.4167 -0.1808
    4CHTO  H157 1393   6.238   8.948   0.800 -0.1212 -1.4008 -0.5449
    4CHTO   C83 1394   6.388   8.784   0.814  0.5094 -0.0538 -0.0360
    4CHTO  H155 1395   6.342   8.755   0.908  2.5419 -0.6949  0.7765
    4CHTO   O56 1396   6.532   8.778   0.835  0.0264  0.2354 -0.0097
    4CHTO  H135 1397   6.565   8.691   0.821 -0.3651  0.0134  0.4341
    4CHTO   C81 1398   6.326   8.700   0.693  0.3750 -0.1639  0.5959
    4CHTO  H153 1399   6.217   8.708   0.688  0.4588  0.4711 -0.2540
    4CHTO   N14 1400   6.360   8.562   0.718  0.3716 -0.2209 -0.7268
    4CHTO  H141 1401   6.303   8.500   0.653 -0.0431  0.1536 -0.7188
    4CHTO  H142 1402   6.464   8.559   0.692  0.4761  1.0367 -0.5298
    4CHTO   C79 1403   6.391   8.748   0.558  0.8020  0.3919 -0.0706
    4CHTO  H151 1404   6.346   8.688   0.478  1.0429  1.1948 -0.8154
    4CHTO   O52 1405   6.366   8.890   0.526 -0.2448 -0.1220 -0.1027
    4CHTO   C86 1406   6.410   8.970   0.647  0.4829  0.6458  0.1810
    4CHTO  H158 1407   6.521   8.963   0.649  0.4857  0.3359 -1.1600
    4CHTO   C90 1408   6.391   9.123   0.618 -0.5959 -0.3783  0.3213
    4CHTO   O60 1409   6.247   9.153   0.613 -0.1883 -0.1396  0.4458
    4CHTO  H138 1410   6.242   9.243   0.588  0.3453 -0.2564 -0.1016
    4CHTO   O50 1411   6.533   8.726   0.544 -0.3712  0.6737 -0.3141
    4CHTO   C73 1412   6.612   8.733   0.427  0.1289  0.2156  0.1221
    4CHTO  H145 1413   6.579   8.812   0.358  1.5857  0.1819 -0.6376
    4CHTO   C74 1414   6.583   8.595   0.355  0.6368  0.0779 -0.3493
    4CHTO  H146 1415   6.474   8.584   0.344  0.5411  0.7680 -0.1022
    4CHTO   O54 1416   6.647   8.599   0.227 -0.0303 -0.3372 -0.2050
    4CHTO  H133 1417   6.731   8.635   0.244  0.5694 -2.5991  1.9680
    4CHTO   C75 1418   6.643   8.474   0.443 -0.3741  0.1820 -0.8202
    4CHTO  H147 1419   6.581   8.477   0.534  0.3151  1.2387 -0.3686
    4CHTO   N13 1420   6.618   8.333   0.392 -0.5108 -0.0804  0.5305
    4CHTO  H139 1421   6.716   8.291   0.374 -0.2809  0.0443  1.4694
    4CHTO  H140 1422   6.588   8.270   0.474  0.7751  0.7694  1.6787
    4CHTO   C76 1423   6.790   8.510   0.492 -0.5634 -0.0175  0.8339
    4CHTO  H148 1424   6.858   8.499   0.408  1.5948 -0.1315  2.5457
    4CHTO   O49 1425   6.810   8.642   0.548  0.2340  0.2163  0.0307
    4CHTO   C77 1426   6.761   8.745   0.462  0.0198  0.1972 -0.1678
    4CHTO  H149 1427   6.825   8.736   0.374 -0.1519  1.3908 -0.4323
    4CHTO   C88 1428   6.789   8.886   0.515 -0.3985 -0.0931 -0.1762
    4CHTO   O58 1429   6.742   8.999   0.407  0.5428  0.2946 -0.8131
    4CHTO  H136 1430   6.653   8.978   0.386 -0.0886  1.7460  0.3297
    4CHTO   O51 1431   6.832   8.417   0.611  0.0906 -0.1901  0.2307
    4CHTO   C78 1432   6.981   8.325   0.596 -0.5454  0.6612  0.0349
    4CHTO  H150 1433   7.031   8.312   0.695 -1.1113  0.4634  0.3016
    4CHTO   C80 1434   7.082   8.368   0.488  0.3195  0.0502  0.5157
    4CHTO  H152 1435   7.018   8.378   0.398 -1.4646 -1.1780  1.6084
    4CHTO   O55 1436   7.126   8.503   0.521 -0.1782  0.0143 -0.5891
    4CHTO  H134 1437   7.198   8.540   0.473  0.6157  0.7880  1.1218
    4CHTO   C84 1438   7.201   8.269   0.471 -0.0834 -0.1574  0.0839
    4CHTO  H156 1439   7.259   8.267   0.563 -0.5898 -3.9169  0.4043
    4CHTO   N15 1440   7.289   8.302   0.357 -0.3519 -0.2497 -0.0354
    4CHTO  H143 1441   7.391   8.295   0.386 -0.8353 -0.5875  1.6387
    4CHTO  H144 1442   7.271   8.234   0.276  1.4005 -1.3042  0.4517
    4CHTO   C87 1443   7.151   8.120   0.459  0.0499  0.2968 -0.5197
    4CHTO  H159 1444   7.113   8.107   0.357 -1.9803  1.5334  0.0487
    4CHTO   O53 1445   7.040   8.084   0.558  0.2976 -0.1975 -0.4495
    4CHTO   C82 1446   6.931   8.178   0.567  0.0292 -0.7247  0.6427
    4CHTO  H154 1447   6.875   8.179   0.474  0.9563  2.2914  0.0751
    4CHTO   C89 1448   6.837   8.133   0.677  0.0991 -0.4431  0.0558
    4CHTO   O59 1449   6.783   8.003   0.639  0.3045  0.1042 -0.0511
    4CHTO  H137 1450   6.840   7.929   0.633 -1.0356 -0.9348 -0.2346
    4CHTO   O45 1451   7.266   8.014   0.484 -0.2928  0.0940 -0.5926
    4CHTO   C67 1452   7.255   7.892   0.403 -0.1773  0.3196  0.0323
    4CHTO  H124 1453   7.160   7.874   0.353 -0.2709 -0.1095  0.3618
    4CHTO   C65 1454   7.381   7.891   0.304 -0.1758  0.2925  0.5671
    4CHTO  H122 1455   7.402   7.996   0.285 -0.6610  0.1616 -0.7599
    4CHTO   O44 1456   7.329   7.840   0.173  0.3554  0.5359  0.3289
    4CHTO  H102 1457   7.241   7.807   0.170  0.4504  0.3817 -1.4508
    4CHTO   C63 1458   7.510   7.823   0.364 -0.3840 -0.1789 -0.3486
    4CHTO  H120 1459   7.525   7.860   0.466 -1.7942 -0.2023 -0.1247
    4CHTO   N11 1460   7.643   7.849   0.296 -0.2742 -0.6802 -0.3372
    4CHTO  H108 1461   7.673   7.952   0.294  0.2889 -0.8653 -2.5103
    4CHTO  H109 1462   7.720   7.801   0.351  0.4667 -1.7363 -2.2501
    4CHTO   C61 1463   7.470   7.670   0.386  0.0129  0.4777  1.2550
    4CHTO  H118 1464   7.538   7.632   0.464 -0.6068 -0.5315  1.3181
    4CHTO   O40 1465   7.332   7.657   0.436 -0.2029 -0.5297 -0.5116
    4CHTO   C68 1466   7.266   7.768   0.501  0.0932  0.3003  0.3718
    4CHTO  H125 1467   7.326   7.803   0.588 -1.5705  1.0430  1.2618
    4CHTO   C72 1468   7.133   7.719   0.555 -0.2600  0.0352  0.1820
    4CHTO   O48 1469   7.072   7.814   0.642 -0.1493 -0.2865 -0.3744
    4CHTO  H105 1470   6.993   7.777   0.678  0.6247  0.3014  2.0041
    4CHTO   O38 1471   7.478   7.596   0.262 -0.6771 -0.0540 -0.4622
    4CHTO   C55 1472   7.474   7.452   0.268  0.5373  0.0355  0.2811
    4CHTO  H112 1473   7.403   7.430   0.349  0.2853 -1.2326 -0.2607
    4CHTO   C56 1474   7.610   7.384   0.299  0.6749 -0.4150  0.7679
    4CHTO  H113 1475   7.676   7.395   0.212  0.0196 -0.1127  0.3031
    4CHTO   O42 1476   7.679   7.442   0.411  0.0547 -0.0942 -0.3954
    4CHTO  H100 1477   7.649   7.526   0.442  0.7294  1.2766 -3.2563
    4CHTO   C57 1478   7.579   7.237   0.323  0.2016  0.4820 -0.2171
    4CHTO  H114 1479   7.520   7.228   0.414 -1.2142  1.2020 -1.0324
    4CHTO   N10 1480   7.706   7.162   0.338  0.2415 -0.3850 -0.0754
    4CHTO  H106 1481   7.688   7.070   0.392 -1.0069  0.6381  1.3090
    4CHTO  H107 1482   7.749   7.138   0.243 -2.2021 -0.4899 -1.1852
    4CHTO   C58 1483   7.499   7.174   0.207 -0.1363  0.6393 -0.3542
    4CHTO  H115 1484   7.565   7.162   0.119 -0.1753  2.3318 -0.6352
    4CHTO   O37 1485   7.386   7.254   0.175 -0.2353  0.3057  0.3179
    4CHTO   C59 1486   7.412   7.389   0.140 -0.6352 -0.0886 -0.4522
    4CHTO  H116 1487   7.480   7.395   0.056  0.9715  0.1099  0.8374
    4CHTO   C70 1488   7.283   7.454   0.090  0.2353 -0.6035 -0.3370
    4CHTO   O46 1489   7.173   7.422   0.175  0.6553 -0.2768 -0.6647
    4CHTO  H103 1490   7.147   7.332   0.168  0.0541 -0.1378 -0.2941
    4CHTO   O39 1491   7.427   7.016   0.248  0.1864  0.0361 -0.4913
    4CHTO   C60 1492   7.484   6.902   0.177  0.0591  0.2545 -0.1048
    4CHTO  H117 1493   7.544   6.948   0.098 -0.7761 -0.0636 -0.9342
    4CHTO   C62 1494   7.577   6.819   0.279 -0.4044 -0.4888  0.5699
    4CHTO  H119 1495   7.655   6.888   0.318  0.2907  0.1406 -1.8577
    4CHTO   O43 1496   7.507   6.770   0.397 -0.0055  0.0063  0.3904
    4CHTO  H101 1497   7.451   6.703   0.363  0.2573  1.6222 -3.4207
    4CHTO   C66 1498   7.640   6.692   0.207 -0.0040  0.3409  0.2147
    4CHTO  H123 1499   7.695   6.723   0.117  2.2964 -3.5510  0.1702
    4CHTO   N12 1500   7.728   6.606   0.292  0.1425 -0.3645  0.3245
    4CHTO  H110 1501   7.671   6.575   0.379 -1.1782  0.8862 -0.0666
    4CHTO  H111 1502   7.776   6.527   0.237 -0.5298  0.5091 -1.5370
    4CHTO   C69 1503   7.515   6.613   0.148  0.0033 -0.1597 -0.2053
    4CHTO  H126 1504   7.452   6.583   0.234  0.3731 -1.9384 -0.5220
    4CHTO   O41 1505   7.441   6.696   0.059  0.3840 -0.6408 -0.0628
    4CHTO   C64 1506   7.385   6.814   0.110 -0.4369 -0.0362 -0.3400
    4CHTO  H121 1507   7.310   6.798   0.191 -0.4667 -0.9807 -0.5549
    4CHTO   C71 1508   7.321   6.890  -0.005  0.2566  0.0183 -0.3306
    4CHTO   O47 1509   7.187   6.933   0.023 -0.0491 -0.0457  0.2497
    4CHTO  H104 1510   7.137   6.854   0.013 -1.9929  0.9371  1.8593
    4CHTO   O34 1511   7.554   6.485   0.082  0.3359 -0.2645 -0.2684
    4CHTO   C49 1512   7.474   6.381   0.051 -0.0930  0.1346 -0.8450
    4CHTO   H91 1513   7.374   6.425   0.056 -0.9319 -1.8017 -0.0402
    4CHTO   C47 1514   7.488   6.273   0.156  0.8824  0.3870  0.1387
    4CHTO   H89 1515   7.414   6.192   0.140  0.5464  0.2912  2.0519
    4CHTO   O33 1516   7.458   6.338   0.285 -0.6883  0.5980  0.3238
    4CHTO   H70 1517   7.430   6.280   0.353 -1.8667  1.0339  0.2094
    4CHTO   C45 1518   7.636   6.220   0.157 -0.2404 -0.0512  0.1200
    4CHTO   H87 1519   7.703   6.307   0.162 -0.8094  0.3221  1.5450
    4CHTO    N8 1520   7.668   6.132   0.276  0.1602 -0.2076 -0.1600
    4CHTO   H75 1521   7.691   6.033   0.242  1.1230  1.1803 -3.7676
    4CHTO   H76 1522   7.579   6.135   0.337  1.0849  0.9458  1.1718
    4CHTO   C43 1523   7.674   6.165   0.013  0.1720 -0.9470 -0.3488
    4CHTO   H85 1524   7.782   6.156   0.006  0.3005 -0.4671  0.9050
    4CHTO   O29 1525   7.619   6.234  -0.100  0.0896  0.4484  0.1397
    4CHTO   C50 1526   7.496   6.306  -0.087  0.3117  0.3459 -0.2609
    4CHTO   H92 1527   7.492   6.385  -0.163 -0.5570  1.5392  1.0154
    4CHTO   C54 1528   7.365   6.223  -0.115  0.1704 -0.1737 -0.4496
    4CHTO   O36 1529   7.378   6.154  -0.238 -0.8490 -0.1047  0.5882
    4CHTO   H72 1530   7.333   6.203  -0.304 -1.7939 -1.5020  0.1550
    4CHTO   O27 1531   7.623   6.031  -0.002 -0.1291 -1.2209  0.0842
    4CHTO   C37 1532   7.664   5.920  -0.076  0.7475 -0.3298  0.3684
    4CHTO   H79 1533   7.597   5.916  -0.164 -0.1744  4.8776  0.6303
    4CHTO   C38 1534   7.814   5.924  -0.119  0.9922  0.4563  0.0317
    4CHTO   H80 1535   7.878   5.953  -0.035  1.8856  0.0931 -0.5232
    4CHTO   O31 1536   7.836   6.016  -0.228  0.5665 -0.3289  0.9049
    4CHTO   H68 1537   7.755   6.050  -0.261  1.0106 -2.1313 -2.1819
    4CHTO   C39 1538   7.855   5.777  -0.163  0.6689  0.4761 -0.1237
    4CHTO   H81 1539   7.786   5.753  -0.244  0.7036 -2.1895  0.5647
    4CHTO    N7 1540   7.999   5.770  -0.208  0.6103 -0.1718 -0.0615
    4CHTO   H73 1541   8.050   5.691  -0.154 -1.0749 -0.3863  1.2583
    4CHTO   H74 1542   8.003   5.759  -0.315  2.6134 -0.0540 -0.0228
    4CHTO   C40 1543   7.811   5.680  -0.048  0.2822  0.2368 -0.2243
    4CHTO   H82 1544   7.849   5.698   0.052 -1.3554 -0.8163  0.6083
    4CHTO   O26 1545   7.666   5.684  -0.049  0.4481 -0.1155 -0.0815
    4CHTO   C41 1546   7.627   5.797   0.023  0.0440  0.7761  0.1446
    4CHTO   H83 1547   7.670   5.808   0.123  0.4141  0.0294  0.0650
    4CHTO   C52 1548   7.478   5.800   0.044 -0.1449  0.2205 -0.6383
    4CHTO   O35 1549   7.427   5.670   0.138  0.0990 -0.0718  0.3832
    4CHTO   H71 1550   7.499   5.647   0.193  0.5109 -0.4886 -0.3191
    4CHTO   O28 1551   7.837   5.541  -0.077  0.6294  0.3636 -0.1324
    4CHTO   C42 1552   7.900   5.438   0.003 -0.4046  0.4103 -0.1702
    4CHTO   H84 1553   7.924   5.485   0.099 -0.3653  0.3598 -0.1559
    4CHTO   C44 1554   8.039   5.373  -0.043 -0.2916 -0.4231  0.2937
    4CHTO   H86 1555   8.035   5.338  -0.146  3.5756  1.8644 -0.7458
    4CHTO   O32 1556   8.131   5.481  -0.055 -0.5874  0.1404 -0.0122
    4CHTO   H69 1557   8.126   5.536   0.020  0.3962 -0.0483  0.1930
    4CHTO   C48 1558   8.093   5.267   0.056  0.3112 -0.7281 -0.0032
    4CHTO   H90 1559   8.117   5.320   0.148 -1.5944 -1.6551  1.0513
    4CHTO    N9 1560   8.217   5.202   0.001 -0.0609 -0.0824 -0.3741
    4CHTO   H77 1561   8.215   5.189  -0.106  0.7318 -1.2455 -0.2486
    4CHTO   H78 1562   8.304   5.264   0.015 -0.6341  0.6276  0.0610
    4CHTO   C51 1563   7.985   5.160   0.098 -0.7324  0.4207 -0.8662
    4CHTO   H93 1564   7.961   5.099   0.011 -0.3805  1.4888 -1.7185
    4CHTO   O30 1565   7.869   5.222   0.150  0.8114 -0.0351 -0.5198
    4CHTO   C46 1566   7.805   5.320   0.035 -0.2699 -0.7803 -0.2853
    4CHTO   H88 1567   7.791   5.260  -0.055 -2.1953 -1.1654  0.2459
    4CHTO   C53 1568   7.665   5.364   0.077 -0.2182 -0.0795  0.6309
    4CHTO   O72 1569   7.675   5.427   0.203 -0.4668 -0.0623  0.9276
    4CHTO  H199 1570   7.615   5.499   0.198 -1.9138 -1.3298 -1.1315
    4CHTO   O22 1571   8.039   5.076   0.205 -0.3428 -0.4527 -0.4400
    4CHTO   C31 1572   8.011   5.092   0.352 -0.4129 -0.7677  0.3012
    4CHTO   H59 1573   7.976   5.196   0.368 -0.6720 -0.8209  0.0857
    4CHTO   C29 1574   7.893   5.003   0.406  0.0679  1.0973  0.1738
    4CHTO   H57 1575   7.940   4.904   0.402 -1.0324  0.6011 -0.6307
    4CHTO   O21 1576   7.784   4.994   0.319 -0.2058  0.7558 -0.8631
    4CHTO   H37 1577   7.716   4.944   0.361  1.5111 -0.9809 -0.0628
    4CHTO   C27 1578   7.861   5.037   0.556 -0.3015 -0.1412  0.4049
    4CHTO   H55 1579   7.822   5.140   0.562  0.8749  0.4506 -1.3237
    4CHTO    N5 1580   7.756   4.947   0.613  0.3303 -0.5657  0.1993
    4CHTO   H43 1581   7.662   4.953   0.559 -0.5911 -0.8164  1.7298
    4CHTO   H44 1582   7.744   4.971   0.718  1.4702 -1.4272  0.5384
    4CHTO   C25 1583   7.991   5.032   0.640  0.4298 -0.0726 -0.0798
    4CHTO   H53 1584   8.040   4.934   0.646 -1.2764 -0.9404 -0.0618
    4CHTO   O17 1585   8.107   5.104   0.581  0.3240 -0.6581 -0.4286
    4CHTO   C32 1586   8.135   5.074   0.446  0.4478  0.7836 -0.2875
    4CHTO   H60 1587   8.171   4.971   0.448 -0.2941  0.5291  0.4630
    4CHTO   C36 1588   8.253   5.158   0.400 -0.6956  0.7063  0.4827
    4CHTO   O25 1589   8.258   5.301   0.408 -0.2136 -0.0377  0.0785
    4CHTO   H40 1590   8.314   5.347   0.348 -1.9853 -0.5092 -2.0288
    4CHTO   O15 1591   7.972   5.094   0.785 -0.0839  0.0675  0.0835
    4CHTO   C19 1592   7.948   5.209   0.875  0.7073  0.0522  0.5751
    4CHTO   H47 1593   7.839   5.217   0.884  0.7060  2.1786 -0.8096
    4CHTO   C20 1594   8.001   5.182   1.014  0.1966  0.0378  0.1026
    4CHTO   H48 1595   8.111   5.182   1.013  0.1980 -0.9671 -1.2967
    4CHTO   O19 1596   7.940   5.054   1.047  0.3332  0.0115  0.3922
    4CHTO   H35 1597   7.997   5.016   1.111  0.4655 -2.1300 -0.9746
    4CHTO   C21 1598   7.952   5.300   1.120 -0.1317 -0.0442 -0.7867
    4CHTO   H49 1599   7.844   5.293   1.127 -0.0751 -1.3243 -1.2036
    4CHTO    N4 1600   8.003   5.290   1.258 -0.3264 -0.2246 -0.8161
    4CHTO   H41 1601   7.949   5.367   1.312 -0.6691  0.7090 -2.4518
    4CHTO   H42 1602   8.110   5.305   1.265 -0.3754 -0.2282  0.0528
    4CHTO   C22 1603   7.983   5.437   1.059 -0.4447  0.0443  0.2126
    4CHTO   H50 1604   8.091   5.451   1.072 -0.7752  0.7595  2.3791
    4CHTO   O14 1605   7.947   5.452   0.920  0.0458 -0.0315 -0.3026
    4CHTO   C23 1606   7.994   5.355   0.827  0.4716  0.2721 -0.2419
    4CHTO   H51 1607   8.103   5.365   0.817  0.2261  1.6801 -1.8722
    4CHTO   C34 1608   7.926   5.395   0.692  0.1812 -0.5088  0.4620
    4CHTO   O23 1609   7.974   5.525   0.654 -0.4958  0.0191  0.2474
    4CHTO   H38 1610   8.063   5.518   0.627 -0.6172  2.5807 -0.9146
    4CHTO   O16 1611   7.913   5.546   1.120 -0.5135 -0.2451 -0.3122
    4CHTO   C24 1612   7.875   5.681   1.041 -0.2439 -0.3294  0.2949
    4CHTO   H52 1613   7.855   5.659   0.936  1.9863  0.7721 -0.3951
    4CHTO   C26 1614   7.998   5.773   1.035  0.1373 -0.1526  0.4529
    4CHTO   H54 1615   8.038   5.786   1.137 -0.4522  0.2407  0.6380
    4CHTO   O20 1616   8.088   5.714   0.939 -0.4435 -0.1236  0.2825
    4CHTO   H36 1617   8.172   5.704   0.981  0.5333 -0.7096 -1.7522
    4CHTO   C30 1618   7.953   5.912   0.992 -0.0565 -0.0576 -0.6036
    4CHTO   H58 1619   7.931   5.910   0.884 -0.1922  1.3158 -0.6117
    4CHTO    N6 1620   8.068   6.003   1.007 -0.7720  0.3417 -0.2544
    4CHTO   H45 1621   8.076   6.041   1.108  0.4867  1.9305 -0.9234
    4CHTO   H46 1622   8.161   5.952   0.991 -1.1527 -0.6186  0.5221
    4CHTO   C33 1623   7.826   5.961   1.070 -0.2233 -0.0308 -0.3881
    4CHTO   H61 1624   7.850   5.965   1.177 -0.5092  1.7216 -0.3778
    4CHTO   O18 1625   7.715   5.867   1.048 -0.0039  0.6222  0.3662
    4CHTO   C28 1626   7.749   5.743   1.100  0.0078  0.2359 -0.4959
    4CHTO   H56 1627   7.763   5.755   1.208  0.0194  1.4481 -0.6319
    4CHTO   C35 1628   7.631   5.642   1.092 -0.3763  0.4440  0.4930
    4CHTO   O24 1629   7.582   5.607   0.964  0.3745 -0.0431  0.2551
    4CHTO   H39 1630   7.491   5.631   0.958  0.5454  0.1063 -2.5643
    4CHTO    O9 1631   7.792   6.097   1.039 -0.5124  0.7461  0.5698
    4CHTO   C13 1632   7.659   6.134   1.134 -0.0466  0.1335 -0.2285
    4CHTO   H26 1633   7.587   6.050   1.122  1.3368 -1.0646 -0.2182
    4CHTO   C11 1634   7.603   6.274   1.082  0.3074  0.2504 -0.2447
    4CHTO   H24 1635   7.552   6.256   0.987 -0.6975  1.4592  0.0526
    4CHTO    O8 1636   7.710   6.374   1.059 -0.0240  0.0221 -0.1055
    4CHTO    H3 1637   7.774   6.362   1.127  0.2180  2.7124  0.1846
    4CHTO    C9 1638   7.487   6.316   1.175  0.1158 -0.0098 -0.0772
    4CHTO   H22 1639   7.415   6.233   1.163  0.3346 -0.4364  1.4239
    4CHTO    N2 1640   7.409   6.435   1.132 -0.3953  0.0128 -0.7535
    4CHTO   H10 1641   7.354   6.415   1.042  1.4832  0.8325 -2.1153
    4CHTO   H11 1642   7.469   6.525   1.129  0.0602 -0.2366  0.2714
    4CHTO    C7 1643   7.528   6.322   1.320  0.5431 -0.0150 -0.0204
    4CHTO   H20 1644   7.424   6.322   1.359 -0.1833 -0.6165 -1.8983
    4CHTO    O4 1645   7.581   6.196   1.358 -0.5524 -0.0162  0.2968
    4CHTO   C14 1646   7.687   6.135   1.287 -0.5238 -0.0649  0.5247
    4CHTO   H27 1647   7.693   6.031   1.327 -3.3997 -0.7216 -0.6174
    4CHTO   C18 1648   7.830   6.207   1.322 -0.1090  0.9985 -0.1091
    4CHTO   O13 1649   7.878   6.178   1.453  0.8644 -0.5587  0.2083
    4CHTO    H7 1650   7.971   6.191   1.451  0.7159  0.8103  1.4365
    4CHTO    O2 1651   7.635   6.444   1.362  0.1860  0.2824  0.9879
    4CHTO    C1 1652   7.571   6.564   1.404  0.1850  0.0615  0.2330
    4CHTO   H14 1653   7.466   6.569   1.367  0.2147  2.1625  0.3931
    4CHTO    C2 1654   7.641   6.701   1.353 -0.2187 -0.0524  0.4002
    4CHTO   H15 1655   7.740   6.695   1.400  0.5810  1.3933 -1.0513
    4CHTO    O6 1656   7.638   6.696   1.208 -0.3786  0.2759 -0.5850
    4CHTO    H1 1657   7.677   6.617   1.175  2.5102  2.2878 -2.1203
    4CHTO    C3 1658   7.565   6.830   1.410  0.4960  0.2060  0.8389
    4CHTO   H16 1659   7.463   6.825   1.369  0.8035  1.1567 -0.0592
    4CHTO    N1 1660   7.626   6.957   1.374  0.3723  0.2171  0.1873
    4CHTO    H8 1661   7.695   6.947   1.291 -0.6370  0.1435 -0.6477
    4CHTO    H9 1662   7.674   7.009   1.456 -1.4921  0.3565  1.2178
    4CHTO    C4 1663   7.544   6.811   1.566 -0.3838  0.6462 -0.2350
    4CHTO   H17 1664   7.641   6.828   1.612  0.3711  2.0909 -2.2441
    4CHTO    O1 1665   7.488   6.684   1.596 -0.1046  0.5913 -0.1898
    4CHTO    C5 1666   7.565   6.569   1.559  0.2851  0.0029 -0.4298
    4CHTO   H18 1667   7.666   6.574   1.599  0.1690 -2.3934  0.2407
    4CHTO   C16 1668   7.497   6.447   1.624 -0.1524  0.0272  0.5534
    4CHTO   O11 1669   7.358   6.417   1.591  0.0004 -0.4172 -0.4121
    4CHTO    H5 1670   7.343   6.403   1.499 -1.4487 -1.0428 -0.1017
    4CHTO    O3 1671   7.451   6.908   1.611  0.2780 -0.5331 -0.3335
    4CHTO    C6 1672   7.488   6.990   1.727 -0.0371  0.2429  0.0101
    4CHTO   H19 1673   7.575   6.954   1.781  0.4219  0.9584 -0.2521
    4CHTO    C8 1674   7.525   7.133   1.677 -0.3033 -0.1609 -0.3363
    4CHTO   H21 1675   7.451   7.160   1.602  0.2713  3.1261  0.1884
    4CHTO    O7 1676   7.655   7.127   1.616  0.4210  0.2566 -0.1354
    4CHTO    H2 1677   7.632   7.126   1.525 -0.9319  1.5353  0.1711
    4CHTO   C12 1678   7.520   7.243   1.790 -0.2639 -0.1360 -0.8437
    4CHTO   H25 1679   7.615   7.234   1.848  0.0788  0.1777 -1.3456
    4CHTO    N3 1680   7.523   7.379   1.735 -0.0539 -0.6302 -0.0842
    4CHTO   H12 1681   7.610   7.406   1.676  0.6695  1.8284  2.0015
    4CHTO   H13 1682   7.431   7.397   1.680  1.4633  0.4352 -2.3279
    4CHTO   C15 1683   7.398   7.221   1.882 -0.2094 -0.0369 -0.3039
    4CHTO   H28 1684   7.306   7.239   1.825  1.4051 -0.4902 -3.1568
    4CHTO   O10 1685   7.410   7.337   2.019  0.3554 -0.0876  0.0550
    4CHTO    H4 1686   7.483   7.319   2.075  1.5556  2.1381 -0.7293
    4CHTO    O5 1687   7.395   7.082   1.931  0.2702 -0.2232 -0.4080
    4CHTO   C10 1688   7.368   6.989   1.826 -0.1866 -0.9428 -0.1857
    4CHTO   H23 1689   7.273   7.014   1.780 -0.3026 -2.1171 -0.5930
    4CHTO   C17 1690   7.361   6.848   1.880 -0.1033 -0.4153 -0.1296
    4CHTO   O12 1691   7.302   6.754   1.795 -0.1155 -0.0086  0.0266
    4CHTO    H6 1692   7.277   6.786   1.710  0.3185  1.6455  0.4892
    5CHTO  H203 1693   8.105   3.578   0.779 -1.0252 -2.1378  2.8326
    5CHTO   O82 1694   8.122   3.500   0.730  0.7454  0.1237 -0.3166
    5CHTO  C123 1695   8.064   3.382   0.789 -0.0919  0.1425  0.2315
    5CHTO  H227 1696   8.028   3.318   0.707  0.1043  1.7936 -1.1959
    5CHTO   O77 1697   8.181   3.330   0.866 -0.7879  0.1678  0.0014
    5CHTO  C118 1698   8.147   3.198   0.920  0.5681 -0.3391  0.6236
    5CHTO  H222 1699   8.108   3.135   0.839  0.3305  1.4619 -0.6995
    5CHTO  C125 1700   8.277   3.126   0.974  1.0143  0.3074  0.5989
    5CHTO   O84 1701   8.351   3.088   0.860  0.7950 -0.0644  0.1722
    5CHTO  H205 1702   8.369   3.171   0.819 -3.7159  0.8706 -0.1900
    5CHTO  C114 1703   8.028   3.215   1.025 -0.3262 -0.1131  0.1254
    5CHTO  H218 1704   8.066   3.269   1.112  1.7587  0.1062 -0.8875
    5CHTO  C116 1705   7.901   3.277   0.959  0.2564 -0.3264 -0.6248
    5CHTO  H220 1706   7.849   3.204   0.895 -0.3240 -0.2324 -0.2652
    5CHTO   O79 1707   7.805   3.306   1.059  0.5126  0.0495  0.8508
    5CHTO  H201 1708   7.839   3.376   1.111 -0.2078 -0.1312  1.5817
    5CHTO  C120 1709   7.936   3.414   0.883 -0.5749  0.1705 -0.6517
    5CHTO  H224 1710   7.956   3.497   0.953 -1.6662  2.7098 -3.2341
    5CHTO   N21 1711   7.823   3.463   0.796  0.1100 -0.1499  0.0452
    5CHTO  H211 1712   7.752   3.382   0.786 -0.0625 -0.0690  0.6022
    5CHTO  H212 1713   7.781   3.559   0.824  0.8960  0.6202 -1.3144
    5CHTO   O75 1714   8.009   3.074   1.058 -0.3692 -0.6079  0.4150
    5CHTO  C112 1715   7.883   3.030   1.141  1.2875  0.2036 -0.2315
    5CHTO  H216 1716   7.794   3.047   1.078  1.5013  2.0612 -0.0511
    5CHTO   O73 1717   7.880   3.120   1.255  0.6435  0.1047 -1.0254
    5CHTO  C113 1718   7.763   3.102   1.340 -0.2097 -0.3244 -0.9657
    5CHTO  H217 1719   7.668   3.112   1.284 -0.5639  1.3768 -0.0728
    5CHTO  C124 1720   7.764   3.206   1.451 -0.7339 -0.1785 -0.1869
    5CHTO   O83 1721   7.841   3.203   1.574 -0.1380 -0.1511 -0.4010
    5CHTO  H204 1722   7.931   3.178   1.561 -0.1603  0.7321 -2.2793
    5CHTO  C109 1723   7.762   2.961   1.399 -0.7444 -0.3524 -0.4633
    5CHTO  H213 1724   7.853   2.955   1.461 -0.6474  0.7342 -0.5015
    5CHTO  C110 1725   7.774   2.846   1.288  0.2941  0.0090  0.2626
    5CHTO  H214 1726   7.679   2.844   1.234  0.5426 -0.7211 -0.1497
    5CHTO   O78 1727   7.790   2.709   1.337 -0.1122 -0.0309 -0.3825
    5CHTO  H200 1728   7.713   2.659   1.322 -1.5503  2.3325 -1.1021
    5CHTO  C111 1729   7.896   2.881   1.197 -0.2426 -0.1400  0.2351
    5CHTO  H215 1730   7.987   2.881   1.259 -1.1101  1.4280  1.5217
    5CHTO   N19 1731   7.915   2.782   1.092 -0.4144 -0.5131 -0.3113
    5CHTO  H207 1732   7.935   2.687   1.140 -1.6637  0.1542  1.6040
    5CHTO  H208 1733   7.999   2.813   1.033 -0.9485  0.0042 -0.8083
    5CHTO   O74 1734   7.641   2.945   1.483  0.1192  0.0444 -0.0220
    5CHTO  C115 1735   7.664   2.855   1.604  0.4619 -0.6073 -0.7917
    5CHTO  H219 1736   7.758   2.800   1.595  1.0101 -0.0616  1.3924
    5CHTO   O76 1737   7.680   2.939   1.738 -0.3263  0.3320  0.3083
    5CHTO  C122 1738   7.577   3.040   1.746 -0.1209  0.0151 -0.1460
    5CHTO  H226 1739   7.603   3.121   1.678  1.8621  0.1227  0.7224
    5CHTO  C126 1740   7.594   3.106   1.885 -0.6094 -0.5785  0.5338
    5CHTO   O85 1741   7.554   3.019   1.988 -0.0237  0.3488  0.2692
    5CHTO  H206 1742   7.599   2.937   1.993  0.1921  0.3984 -0.7106
    5CHTO  C121 1743   7.433   2.975   1.718 -0.1532  0.4256 -0.6071
    5CHTO  H225 1744   7.361   3.008   1.796 -0.3659 -1.6789  0.1178
    5CHTO   O81 1745   7.381   3.035   1.593 -0.2120 -0.1216 -0.0596
    5CHTO  H202 1746   7.296   2.996   1.582  0.3722 -1.6446  0.6021
    5CHTO  C119 1747   7.437   2.822   1.722 -0.7945 -0.4578  0.2720
    5CHTO  H223 1748   7.471   2.806   1.824  0.7112  0.3871 -0.0877
    5CHTO  C117 1749   7.542   2.757   1.612  0.4726 -0.0651 -0.5115
    5CHTO  H221 1750   7.501   2.754   1.511 -0.2426 -0.3571 -0.2228
    5CHTO   N20 1751   7.585   2.615   1.642 -0.5132  0.2153  0.3218
    5CHTO  H209 1752   7.593   2.561   1.549  2.7042  0.5654  0.3306
    5CHTO  H210 1753   7.530   2.558   1.714 -0.2385  0.8273  1.0288
    5CHTO   O80 1754   7.292   2.746   1.733  0.0085  0.4255  0.3832
    5CHTO  C103 1755   7.187   2.768   1.643 -0.6986  0.5175  0.6248
    5CHTO  H190 1756   7.205   2.849   1.572 -1.6002  0.0500 -0.1544
    5CHTO  C101 1757   7.148   2.642   1.550  0.2025  0.2020  0.0099
    5CHTO  H188 1758   7.117   2.554   1.607 -0.2224 -0.2491 -0.9198
    5CHTO   O68 1759   7.267   2.601   1.484 -0.4284  0.2506 -0.3880
    5CHTO  H168 1760   7.288   2.678   1.433 -0.1147  0.8804  0.6760
    5CHTO   C99 1761   7.031   2.682   1.448 -0.1759 -0.0817  0.2136
    5CHTO  H186 1762   7.056   2.779   1.400 -0.4686  0.8360  1.9108
    5CHTO   N17 1763   7.003   2.582   1.338 -0.0722 -0.4610 -0.0936
    5CHTO  H174 1764   7.081   2.508   1.326  1.1443  0.7905 -0.1022
    5CHTO  H175 1765   6.903   2.541   1.343 -0.3357 -0.1626 -2.3065
    5CHTO   C97 1766   6.913   2.714   1.541 -0.6433  0.3294 -0.4159
    5CHTO  H184 1767   6.894   2.622   1.598  1.2742  0.7674  0.9881
    5CHTO   O64 1768   6.946   2.832   1.626 -0.3324  0.3242 -0.1297
    5CHTO  C104 1769   7.059   2.809   1.719 -0.3019  0.4841 -0.4995
    5CHTO  H191 1770   7.035   2.731   1.791  0.6734  1.0169  0.4225
    5CHTO  C108 1771   7.081   2.940   1.794 -0.3749 -0.1861  0.3569
    5CHTO   O71 1772   6.955   3.000   1.833 -0.2050 -0.1029 -0.0092
    5CHTO  H171 1773   6.958   3.081   1.880 -2.0133 -0.3325  0.5424
    5CHTO   O62 1774   6.793   2.755   1.475  0.1734  0.1184  0.4236
    5CHTO   C91 1775   6.675   2.739   1.550  0.2672 -0.4145 -0.3178
    5CHTO  H178 1776   6.699   2.738   1.657  0.4668  0.8841 -0.3386
    5CHTO   C92 1777   6.602   2.598   1.528 -0.6397 -0.3490  0.1195
    5CHTO  H179 1778   6.610   2.562   1.425  0.7512 -0.4575  0.2467
    5CHTO   O66 1779   6.692   2.504   1.579 -0.4325 -0.5174 -0.4231
    5CHTO  H166 1780   6.777   2.504   1.539 -0.2335 -0.3215 -0.0097
    5CHTO   C93 1781   6.459   2.577   1.591 -0.5355 -0.0962 -0.8510
    5CHTO  H180 1782   6.467   2.582   1.700  0.6758  0.8426 -0.9701
    5CHTO   N16 1783   6.401   2.448   1.553  0.0766  0.1009 -0.2962
    5CHTO  H172 1784   6.478   2.380   1.519 -1.9906 -1.8784 -1.1290
    5CHTO  H173 1785   6.316   2.453   1.486 -2.5776 -0.2721  2.9180
    5CHTO   C94 1786   6.371   2.703   1.551 -0.3314  0.0734  0.0294
    5CHTO  H181 1787   6.359   2.715   1.444 -0.3360  1.5546  0.1942
    5CHTO   O61 1788   6.439   2.819   1.601 -0.0660  0.2007 -0.3143
    5CHTO   C95 1789   6.564   2.848   1.535 -0.1755  0.3562 -0.1335
    5CHTO  H182 1790   6.546   2.862   1.428  3.6928  2.3447 -0.6159
    5CHTO  C106 1791   6.617   2.986   1.586  0.5726  0.0082  0.2102
    5CHTO   O69 1792   6.533   3.090   1.527 -0.3148  0.5752  0.3978
    5CHTO  H169 1793   6.444   3.068   1.543 -0.3026 -2.1876 -2.7503
    5CHTO   O63 1794   6.219   2.693   1.638 -0.0727 -0.3096 -0.3207
    5CHTO   C96 1795   6.094   2.682   1.521 -0.7798 -0.8112  0.0018
    5CHTO  H183 1796   6.140   2.634   1.435 -1.4931 -1.2731 -0.1228
    5CHTO   C98 1797   6.037   2.814   1.480  1.1081  0.2490  0.3482
    5CHTO  H185 1798   5.988   2.861   1.567  0.4792 -1.9346  1.2206
    5CHTO   O67 1799   6.144   2.900   1.442 -0.3135  0.0627  0.4420
    5CHTO  H167 1800   6.125   2.991   1.457 -1.1013 -0.3186  1.7435
    5CHTO  C102 1801   5.931   2.796   1.352  0.5699 -0.1604  0.2433
    5CHTO  H189 1802   5.985   2.768   1.260  1.4507  2.1573  0.0272
    5CHTO   N18 1803   5.861   2.926   1.320  0.8711 -0.0792 -0.0011
    5CHTO  H176 1804   5.900   3.013   1.370 -2.4968  2.2461 -1.2785
    5CHTO  H177 1805   5.859   2.938   1.212  0.1822  0.2522  0.0469
    5CHTO  C105 1806   5.827   2.684   1.388 -0.6329  0.5769 -0.2128
    5CHTO  H192 1807   5.749   2.731   1.447 -3.0176 -1.6184 -1.5064
    5CHTO   O65 1808   5.879   2.577   1.471  0.0026  1.1599 -0.3794
    5CHTO  C100 1809   5.980   2.592   1.573 -0.0803 -0.1355  0.0067
    5CHTO  H187 1810   5.943   2.648   1.660 -1.3388  1.1058 -1.3019
    5CHTO  C107 1811   6.031   2.449   1.613 -0.2058 -0.2140 -0.5596
    5CHTO   O70 1812   5.919   2.363   1.653  0.0069 -0.1032 -0.6199
    5CHTO  H170 1813   5.841   2.410   1.677  0.7739  0.7048  0.3613
    5CHTO   O57 1814   5.759   2.628   1.242 -0.4425 -0.6019 -0.3783
    5CHTO   C85 1815   5.645   2.549   1.229 -0.2564  0.4192  0.4036
    5CHTO  H157 1816   5.561   2.600   1.281 -0.4530  0.9115 -0.3794
    5CHTO   C83 1817   5.661   2.416   1.305  0.0288  0.2749  0.5306
    5CHTO  H155 1818   5.648   2.443   1.410  2.6187 -1.2262  1.2780
    5CHTO   O56 1819   5.794   2.357   1.292 -0.0548 -0.3849  0.2750
    5CHTO  H135 1820   5.845   2.382   1.366 -0.3076  3.0283 -0.6319
    5CHTO   C81 1821   5.538   2.331   1.263 -0.1993 -0.1180 -0.2549
    5CHTO  H153 1822   5.450   2.388   1.291  1.1892  1.1495  1.6265
    5CHTO   N14 1823   5.537   2.211   1.343  0.0788 -0.1788 -0.0245
    5CHTO  H141 1824   5.570   2.239   1.441  0.4068  1.0959 -0.4903
    5CHTO  H142 1825   5.435   2.177   1.350 -0.0716  0.3133  0.2306
    5CHTO   C79 1826   5.543   2.305   1.108  0.2510 -0.5823 -0.0899
    5CHTO  H151 1827   5.458   2.242   1.084  0.1571 -1.0863  1.4661
    5CHTO   O52 1828   5.516   2.438   1.042  0.1072  0.0360 -0.6327
    5CHTO   C86 1829   5.619   2.535   1.074  0.4736 -0.0565  0.0079
    5CHTO  H158 1830   5.709   2.494   1.023 -0.2868  0.0388 -1.4085
    5CHTO   C90 1831   5.584   2.670   1.002  0.3213  0.2472  0.0779
    5CHTO   O60 1832   5.608   2.671   0.859  0.6095  0.1762 -0.2235
    5CHTO  H138 1833   5.637   2.758   0.837 -0.7704  0.4713 -0.8970
    5CHTO   O50 1834   5.660   2.234   1.061 -0.0181 -0.1085 -0.3497
    5CHTO   C73 1835   5.687   2.142   0.960 -0.3238  0.2871  0.1410
    5CHTO  H145 1836   5.629   2.166   0.869  0.5819 -1.5878 -0.9571
    5CHTO   C74 1837   5.649   1.999   1.006 -0.1348 -0.2917 -0.0095
    5CHTO  H146 1838   5.543   1.998   1.037 -0.6600 -2.3917 -1.8019
    5CHTO   O54 1839   5.661   1.908   0.894  0.1838  0.0505  0.1914
    5CHTO  H133 1840   5.601   1.835   0.897 -1.9157  1.7298  0.5805
    5CHTO   C75 1841   5.749   1.956   1.129 -0.0400  0.0213  0.8287
    5CHTO  H147 1842   5.731   2.029   1.209  2.7608  0.9902  0.6212
    5CHTO   N13 1843   5.743   1.825   1.180  0.0609 -0.0823  0.3532
    5CHTO  H139 1844   5.691   1.756   1.115  0.7100  0.3262 -0.6057
    5CHTO  H140 1845   5.699   1.815   1.279  2.5040 -0.3678  1.4557
    5CHTO   C76 1846   5.905   1.983   1.088  0.7333 -1.0131 -0.3806
    5CHTO  H148 1847   5.925   1.912   1.007  0.1109 -0.9620 -0.5842
    5CHTO   O49 1848   5.920   2.120   1.035  0.3870  0.1335  0.4577
    5CHTO   C77 1849   5.836   2.153   0.925 -0.1686 -0.2084  0.0865
    5CHTO  H149 1850   5.853   2.083   0.843  0.1000  0.5202 -0.4892
    5CHTO   C88 1851   5.885   2.292   0.880  0.8746  0.1833 -0.1549
    5CHTO   O58 1852   5.804   2.347   0.782 -0.4060 -0.2878 -0.2909
    5CHTO  H136 1853   5.716   2.364   0.809 -0.5068 -2.5877  0.9731
    5CHTO   O51 1854   6.014   1.963   1.199  0.5420  0.3890 -0.0947
    5CHTO   C78 1855   6.157   1.968   1.154  0.2190  0.2484 -0.3135
    5CHTO  H150 1856   6.165   2.008   1.050 -2.5445 -0.1424 -0.7138
    5CHTO   C80 1857   6.227   1.831   1.161 -0.1911 -0.0145  1.1201
    5CHTO  H152 1858   6.210   1.791   1.263  0.5332 -1.7071  0.5979
    5CHTO   O55 1859   6.151   1.753   1.062 -0.4262 -0.0087  0.2334
    5CHTO  H134 1860   6.150   1.664   1.092  1.1913 -0.2005 -0.2206
    5CHTO   C84 1861   6.379   1.846   1.123 -0.7081 -0.0793 -0.2831
    5CHTO  H156 1862   6.387   1.868   1.017 -2.0352 -1.8386 -0.7719
    5CHTO   N15 1863   6.455   1.718   1.127 -0.4957  0.0184 -0.2891
    5CHTO  H143 1864   6.542   1.743   1.071  0.5457 -0.9387  0.8841
    5CHTO  H144 1865   6.480   1.709   1.231 -1.8840  0.4956  0.1081
    5CHTO   C87 1866   6.443   1.964   1.209 -0.1128  0.0140  0.0210
    5CHTO  H159 1867   6.438   1.925   1.311 -1.5199  1.1669  0.4121
    5CHTO   O53 1868   6.364   2.084   1.201 -0.1791 -0.5632 -0.0995
    5CHTO   C82 1869   6.230   2.073   1.242 -1.1970  0.1981 -0.0920
    5CHTO  H154 1870   6.222   2.045   1.347 -1.1408 -1.3809 -0.4828
    5CHTO   C89 1871   6.165   2.214   1.234  0.3287 -0.6694 -0.0827
    5CHTO   O59 1872   6.044   2.230   1.315 -0.1905 -0.1571  0.5510
    5CHTO  H137 1873   6.021   2.318   1.293  3.0734  1.4708  3.1719
    5CHTO   O45 1874   6.584   2.001   1.160 -0.0534 -0.1541  0.2864
    5CHTO   C67 1875   6.664   2.034   1.281  0.2821  0.1395 -0.1544
    5CHTO  H124 1876   6.601   2.042   1.369 -1.1618 -2.3519 -0.9081
    5CHTO   C65 1877   6.779   1.925   1.305 -0.0983  0.6405  0.1859
    5CHTO  H122 1878   6.758   1.850   1.228 -1.7718 -0.9361  2.1068
    5CHTO   O44 1879   6.753   1.859   1.429  0.3959  0.1767  0.0396
    5CHTO  H102 1880   6.819   1.797   1.453  1.6277  1.5645  0.3651
    5CHTO   C63 1881   6.921   1.991   1.290  0.1072 -0.4261 -0.2956
    5CHTO  H120 1882   6.927   2.032   1.189 -1.4633 -1.5456 -0.8544
    5CHTO   N11 1883   7.039   1.904   1.302 -0.3655  0.6079 -0.2462
    5CHTO  H108 1884   7.084   1.894   1.205 -1.6252 -1.9098 -0.5992
    5CHTO  H109 1885   7.113   1.940   1.372 -1.0507  1.8008 -0.1223
    5CHTO   C61 1886   6.928   2.120   1.389 -0.1135 -0.3537 -0.2028
    5CHTO  H118 1887   7.029   2.162   1.377 -0.2296 -0.2067 -0.6845
    5CHTO   O40 1888   6.833   2.224   1.348 -0.0761  0.1117 -0.1585
    5CHTO   C68 1889   6.727   2.182   1.252  0.4748 -0.8518  0.2203
    5CHTO  H125 1890   6.771   2.197   1.152 -1.5624  4.1710 -0.0378
    5CHTO   C72 1891   6.618   2.287   1.266  0.1345 -0.1361 -0.0981
    5CHTO   O48 1892   6.676   2.408   1.222 -0.1480  0.2226 -0.0205
    5CHTO  H105 1893   6.756   2.432   1.265 -0.9788  2.4135  0.3819
    5CHTO   O38 1894   6.899   2.086   1.526  0.1297  0.1573  0.2266
    5CHTO   C55 1895   6.862   2.186   1.626 -0.1152  0.1119 -0.3090
    5CHTO  H112 1896   6.802   2.263   1.575  1.5922  1.2672 -0.6035
    5CHTO   C56 1897   6.985   2.250   1.692 -0.4424 -0.0248 -0.9551
    5CHTO  H113 1898   7.041   2.167   1.738  0.5588  0.4622 -1.2976
    5CHTO   O42 1899   7.070   2.309   1.597 -0.3897 -0.0168 -0.0516
    5CHTO  H100 1900   7.072   2.403   1.595 -1.6478  0.0037 -0.2999
    5CHTO   C57 1901   6.942   2.360   1.807  0.0080 -0.6100  0.2322
    5CHTO  H114 1902   6.892   2.443   1.758 -1.5235 -0.2152  2.4106
    5CHTO   N10 1903   7.051   2.429   1.878 -0.1277 -0.0907 -0.6084
    5CHTO  H106 1904   7.066   2.523   1.828 -1.9855  0.0237 -1.0026
    5CHTO  H107 1905   7.143   2.372   1.874 -0.0385  0.0985 -1.3352
    5CHTO   C58 1906   6.842   2.283   1.904 -1.2991  0.1944  0.2201
    5CHTO  H115 1907   6.901   2.211   1.965 -0.3091 -1.1137 -2.1836
    5CHTO   O37 1908   6.738   2.224   1.829 -0.4121 -0.0257 -0.4613
    5CHTO   C59 1909   6.774   2.124   1.735 -0.3984  0.2444 -0.0294
    5CHTO  H116 1910   6.841   2.056   1.786 -0.3920  0.5238  0.3417
    5CHTO   C70 1911   6.650   2.050   1.679  0.2277  0.0375 -0.2538
    5CHTO   O46 1912   6.542   2.140   1.657  0.2787 -0.3986  0.1328
    5CHTO  H103 1913   6.553   2.192   1.580  0.3001 -3.4429 -2.0103
    5CHTO   O39 1914   6.766   2.398   1.999 -0.5349 -0.4975 -0.3593
    5CHTO   C60 1915   6.642   2.460   1.956 -0.3598 -0.2041  0.4893
    5CHTO  H117 1916   6.625   2.449   1.849 -1.2880 -0.4691  0.6565
    5CHTO   C62 1917   6.510   2.400   2.022  0.3064  0.0182  0.5347
    5CHTO  H119 1918   6.507   2.292   1.996 -0.7059  0.1261  0.1726
    5CHTO   O43 1919   6.530   2.397   2.167  0.2711 -0.4749  0.0718
    5CHTO  H101 1920   6.574   2.475   2.195  3.4977 -1.8121 -1.0309
    5CHTO   C66 1921   6.381   2.479   1.969 -0.1436 -0.0914  0.1030
    5CHTO  H123 1922   6.374   2.471   1.861  0.5286 -0.1177  0.0580
    5CHTO   N12 1923   6.257   2.419   2.023  0.2945  0.4327 -0.7397
    5CHTO  H110 1924   6.240   2.476   2.114  0.8439 -3.1649  1.7057
    5CHTO  H111 1925   6.169   2.436   1.962 -0.8622  1.2909  1.0918
    5CHTO   C69 1926   6.397   2.636   1.991 -0.0959  0.2722  0.9578
    5CHTO  H126 1927   6.408   2.643   2.101  0.2589  0.5350  0.9087
    5CHTO   O41 1928   6.520   2.673   1.918  0.2916  0.3707 -0.2545
    5CHTO   C64 1929   6.641   2.611   1.984  0.4463 -0.2508 -0.1641
    5CHTO  H121 1930   6.645   2.626   2.094 -1.3565  1.2931 -0.2875
    5CHTO   C71 1931   6.762   2.682   1.929  0.2375  0.6764 -0.0023
    5CHTO   O47 1932   6.761   2.819   1.917 -0.2498  0.3673  0.1595
    5CHTO  H104 1933   6.677   2.853   1.890  0.1125  0.9766 -0.2159
    5CHTO   O34 1934   6.265   2.715   1.932 -0.7121 -0.2453  0.3100
    5CHTO   C49 1935   6.252   2.867   1.899  0.7997 -0.0099  0.4306
    5CHTO   H91 1936   6.315   2.880   1.811 -0.7675 -1.6165 -0.9502
    5CHTO   C47 1937   6.309   2.946   2.024  0.8029  0.2279 -0.1261
    5CHTO   H89 1938   6.306   3.054   2.002 -0.4980 -0.1739 -1.9942
    5CHTO   O33 1939   6.446   2.912   2.049 -0.1335 -0.0877 -0.7039
    5CHTO   H70 1940   6.449   2.907   2.143  0.1269  1.2719 -0.6335
    5CHTO   C45 1941   6.212   2.926   2.145  0.5191  0.4800  0.8012
    5CHTO   H87 1942   6.205   2.816   2.158 -0.7977  0.5671  0.9284
    5CHTO    N8 1943   6.258   2.983   2.273 -0.5197 -0.4571 -0.2089
    5CHTO   H75 1944   6.260   2.918   2.359 -0.2327 -0.5419 -0.2759
    5CHTO   H76 1945   6.219   3.081   2.295  1.7400  0.8465 -1.6732
    5CHTO   C43 1946   6.064   2.971   2.114  0.8296  0.2813  0.1547
    5CHTO   H85 1947   6.013   2.933   2.202  0.8041  2.3641  1.0422
    5CHTO   O29 1948   6.027   2.894   1.995 -0.1855 -0.5077 -0.4320
    5CHTO   C50 1949   6.106   2.907   1.874 -0.1253  0.1771 -0.1432
    5CHTO   H92 1950   6.077   2.836   1.796 -0.0577 -2.6907  2.3605
    5CHTO   C54 1951   6.092   3.051   1.818 -0.2364  0.1826 -0.1814
    5CHTO   O36 1952   5.958   3.093   1.812 -0.6873  0.1508 -0.0607
    5CHTO   H72 1953   5.957   3.187   1.811 -1.3068  0.2676  3.6100
    5CHTO   O27 1954   6.035   3.116   2.109  0.3755  0.1279  0.0091
    5CHTO   C37 1955   5.930   3.194   2.163 -0.8514 -0.3368 -0.0159
    5CHTO   H79 1956   5.903   3.278   2.098  2.5080  1.8494  1.2932
    5CHTO   C38 1957   5.796   3.111   2.170  0.7889 -0.3831  0.8555
    5CHTO   H80 1958   5.804   3.017   2.226  1.4324 -0.6394  0.3489
    5CHTO   O31 1959   5.759   3.059   2.038 -0.1870 -0.1583 -0.0149
    5CHTO   H68 1960   5.731   3.132   1.987 -0.3032  0.2360  0.6110
    5CHTO   C39 1961   5.683   3.199   2.223  0.4138  0.5250  0.6286
    5CHTO   H81 1962   5.665   3.277   2.150  0.7914 -0.9904 -1.1408
    5CHTO    N7 1963   5.545   3.129   2.233  0.2082  0.1173  0.5298
    5CHTO   H73 1964   5.477   3.161   2.155  2.8438  0.0942 -1.8829
    5CHTO   H74 1965   5.548   3.021   2.225 -1.7239  0.0027  1.0937
    5CHTO   C40 1966   5.719   3.260   2.361  0.1163  0.0904 -0.3828
    5CHTO   H82 1967   5.717   3.183   2.439  1.1848  0.8586  0.4167
    5CHTO   O26 1968   5.852   3.321   2.353  0.2203  0.0813 -0.4797
    5CHTO   C41 1969   5.966   3.248   2.299 -0.1224 -0.2055 -0.8634
    5CHTO   H83 1970   5.995   3.168   2.368  0.0994 -1.7953 -2.7554
    5CHTO   C52 1971   6.084   3.356   2.294 -0.4567  0.5858 -0.3986
    5CHTO   O35 1972   6.131   3.377   2.431  0.1985  0.4720  0.5473
    5CHTO   H71 1973   6.060   3.378   2.493 -1.2812 -1.2286 -1.0539
    5CHTO   O28 1974   5.632   3.373   2.381  0.1571 -0.4585 -0.5405
    5CHTO   C42 1975   5.623   3.444   2.509  0.2813 -0.0487 -0.4188
    5CHTO   H84 1976   5.559   3.521   2.465 -0.2815 -2.4883 -4.0546
    5CHTO   C44 1977   5.750   3.521   2.564  0.2751 -0.1676  0.0174
    5CHTO   H86 1978   5.825   3.518   2.486  0.4405  0.0562  0.1679
    5CHTO   O32 1979   5.714   3.655   2.595 -0.1969 -0.5209 -0.1631
    5CHTO   H69 1980   5.794   3.702   2.610 -0.6234  0.3743 -0.6403
    5CHTO   C48 1981   5.812   3.462   2.700  0.1513  0.9051  0.5623
    5CHTO   H90 1982   5.764   3.501   2.790  0.0865 -0.0218  0.9316
    5CHTO    N9 1983   5.958   3.496   2.716 -0.1919  0.3254 -0.9503
    5CHTO   H77 1984   5.971   3.601   2.738 -0.0575  0.1558 -0.2305
    5CHTO   H78 1985   5.998   3.434   2.794 -1.0585  1.5913  0.5239
    5CHTO   C51 1986   5.772   3.308   2.709  0.5195  0.4628  0.6791
    5CHTO   H93 1987   5.816   3.262   2.621 -0.1712  0.0774  0.5334
    5CHTO   O30 1988   5.630   3.292   2.709  0.0340  0.7883  0.2734
    5CHTO   C46 1989   5.548   3.375   2.618  0.4150  0.0608 -0.0600
    5CHTO   H88 1990   5.476   3.314   2.563  1.0382 -1.2629  0.5683
    5CHTO   C53 1991   5.465   3.481   2.709  0.0125 -0.0238  0.6339
    5CHTO   O72 1992   5.362   3.530   2.619  0.4915 -0.3545  0.3210
    5CHTO  H199 1993   5.309   3.587   2.672 -0.4320  0.2797 -1.2568
    5CHTO   O22 1994   5.826   3.242   2.828  0.3046 -0.4814  0.4257
    5CHTO   C31 1995   5.836   3.100   2.841 -0.2731 -0.4571  0.3923
    5CHTO   H59 1996   5.863   3.082   2.947  0.3423 -0.7496  0.1918
    5CHTO   C29 1997   5.708   3.027   2.804 -0.2246 -0.3022 -0.1656
    5CHTO   H57 1998   5.679   3.067   2.706  0.9296  2.4294  0.5723
    5CHTO   O21 1999   5.616   3.073   2.904 -0.3508  0.1217  0.1103
    5CHTO   H37 2000   5.533   3.032   2.891 -0.6644  0.9019 -0.3940
    5CHTO   C27 2001   5.734   2.874   2.782 -0.4354 -0.3816 -0.6123
    5CHTO   H55 2002   5.754   2.825   2.879 -2.4772  0.1359  0.0867
    5CHTO    N5 2003   5.609   2.811   2.730  0.3912  0.1813 -0.6469
    5CHTO   H43 2004   5.554   2.882   2.670  0.2226  1.0543  0.5339
    5CHTO   H44 2005   5.550   2.764   2.807 -1.2699  2.3940 -0.5218
    5CHTO   C25 2006   5.856   2.859   2.682 -0.1507  0.5972  0.1419
    5CHTO   H53 2007   5.835   2.916   2.590  0.5366 -0.9049 -0.9780
    5CHTO   O17 2008   5.979   2.917   2.746  0.0454 -0.5041 -0.3469
    5CHTO   C32 2009   5.968   3.059   2.761 -0.0859 -0.0502 -0.1956
    5CHTO   H60 2010   5.968   3.107   2.664 -1.5340  0.4199  0.0172
    5CHTO   C36 2011   6.097   3.117   2.836  0.1957 -0.2335 -0.9983
    5CHTO   O25 2012   6.216   3.106   2.754  0.0872  0.7081  0.3948
    5CHTO   H40 2013   6.250   3.020   2.770 -1.7848  0.0671  1.1495
    5CHTO   O15 2014   5.880   2.728   2.645  0.3342  0.0693  0.4387
    5CHTO   C19 2015   5.972   2.628   2.700  0.2812  0.0797 -0.3269
    5CHTO   H47 2016   6.017   2.677   2.787  2.6434 -1.2427 -0.7518
    5CHTO   C20 2017   5.908   2.493   2.760  0.3494 -1.1649  0.6579
    5CHTO   H48 2018   5.848   2.446   2.681 -0.9827  2.4567 -0.5975
    5CHTO   O19 2019   5.821   2.531   2.869  0.1126  0.1839  0.7348
    5CHTO   H35 2020   5.793   2.463   2.926 -2.4124 -0.1961 -0.9003
    5CHTO   C21 2021   6.018   2.388   2.806 -0.8691 -0.1572  0.5249
    5CHTO   H49 2022   6.071   2.429   2.892 -0.6299 -1.0000  0.7838
    5CHTO    N4 2023   5.962   2.259   2.845 -0.1654  0.2665  0.0680
    5CHTO   H41 2024   5.880   2.259   2.916 -0.0394 -2.1929  0.2854
    5CHTO   H42 2025   5.930   2.202   2.759  1.3087 -1.0302  0.3506
    5CHTO   C22 2026   6.128   2.376   2.698 -0.9051  0.1156 -0.8010
    5CHTO   H50 2027   6.092   2.325   2.608 -0.6433 -3.3496  0.9694
    5CHTO   O14 2028   6.183   2.501   2.659 -0.0104 -0.0046 -0.3791
    5CHTO   C23 2029   6.082   2.588   2.594 -0.4104 -0.4020  0.6238
    5CHTO   H51 2030   6.043   2.524   2.513 -2.2565  0.4537  0.8139
    5CHTO   C34 2031   6.145   2.719   2.548 -0.3390 -0.0650 -0.1602
    5CHTO   O23 2032   6.246   2.699   2.443 -0.1788 -0.2785  0.2896
    5CHTO   H38 2033   6.232   2.758   2.371  1.8063  0.8016  0.7587
    5CHTO   O16 2034   6.242   2.302   2.755 -0.6930 -0.1296  0.2083
    5CHTO   C24 2035   6.337   2.199   2.657 -0.0175  0.1546 -0.0493
    5CHTO   H52 2036   6.285   2.166   2.567  0.7778 -1.1423 -0.0417
    5CHTO   C26 2037   6.364   2.080   2.740 -0.4200  0.3145  0.2567
    5CHTO   H54 2038   6.414   2.120   2.831 -0.5877 -0.5747  0.7449
    5CHTO   O20 2039   6.236   2.017   2.759 -0.0646 -0.1527 -0.4721
    5CHTO   H36 2040   6.205   2.014   2.847  1.0668 -2.1999 -0.1104
    5CHTO   C30 2041   6.466   1.985   2.669  0.4285  0.4568  0.5176
    5CHTO   H58 2042   6.425   1.942   2.577 -0.1473  1.2520  0.4009
    5CHTO    N6 2043   6.493   1.861   2.753  0.5014 -0.3731  0.3222
    5CHTO   H45 2044   6.531   1.874   2.852 -0.7612 -1.3271  0.9525
    5CHTO   H46 2045   6.407   1.795   2.752 -0.6963  1.1311  1.8336
    5CHTO   C33 2046   6.595   2.062   2.624  0.8475  0.1883  0.2431
    5CHTO   H61 2047   6.652   2.097   2.711  0.4257 -1.7047  1.3227
    5CHTO   O18 2048   6.560   2.184   2.545  0.0958  0.3097  0.1987
    5CHTO   C28 2049   6.465   2.271   2.606  0.9236 -0.9245  0.1753
    5CHTO   H56 2050   6.505   2.326   2.691  0.2361 -0.2087  0.0456
    5CHTO   C35 2051   6.430   2.380   2.502  0.4423 -0.0820 -0.0503
    5CHTO   O24 2052   6.344   2.314   2.406 -0.3567 -0.0066  0.7969
    5CHTO   H39 2053   6.257   2.306   2.440 -0.1042  0.9150  1.6640
    5CHTO    O9 2054   6.685   1.977   2.554 -0.3164  0.2411 -0.4744
    5CHTO   C13 2055   6.650   1.931   2.414  0.5608  0.8134  0.0230
    5CHTO   H26 2056   6.541   1.911   2.409  0.7697 -0.2779 -0.3066
    5CHTO   C11 2057   6.729   1.799   2.387 -0.3907  0.3440 -0.1367
    5CHTO   H24 2058   6.689   1.724   2.456 -3.3978  2.7188  0.8101
    5CHTO    O8 2059   6.866   1.822   2.426 -0.0072 -0.2568  0.0639
    5CHTO    H3 2060   6.913   1.741   2.421 -1.0142 -0.7435 -2.2110
    5CHTO    C9 2061   6.710   1.758   2.245  0.9577  0.2745  1.2019
    5CHTO   H22 2062   6.601   1.750   2.232  1.3002 -1.2711 -1.1045
    5CHTO    N2 2063   6.743   1.614   2.215 -0.1741  0.3311  0.1477
    5CHTO   H10 2064   6.849   1.596   2.214  0.0881  1.7426  1.1901
    5CHTO   H11 2065   6.696   1.589   2.121 -1.2727 -3.1186  1.5270
    5CHTO    C7 2066   6.765   1.862   2.145 -0.2950 -0.3747 -0.2583
    5CHTO   H20 2067   6.728   1.819   2.049 -2.3723  1.0289 -0.0967
    5CHTO    O4 2068   6.699   1.989   2.164  0.1826 -0.5240 -0.0215
    5CHTO   C14 2069   6.691   2.040   2.303 -0.1897  0.0957  0.3233
    5CHTO   H27 2070   6.609   2.114   2.299 -0.1805  0.0784 -0.2488
    5CHTO   C18 2071   6.820   2.118   2.343  0.1023 -0.5512 -0.8498
    5CHTO   O13 2072   6.818   2.240   2.275 -0.4002 -0.2746  0.0032
    5CHTO    H7 2073   6.905   2.274   2.284 -0.1209 -0.0944 -2.8909
    5CHTO    O2 2074   6.942   1.873   2.154 -0.0450 -0.1951 -0.6020
    5CHTO    C1 2075   7.004   1.908   2.035 -0.4306 -0.5770 -0.0999
    5CHTO   H14 2076   6.947   1.987   1.982  0.8919  0.6694  0.2899
    5CHTO    C2 2077   7.025   1.796   1.928  0.2915  0.2904  0.2847
    5CHTO   H15 2078   7.059   1.703   1.975  0.4030  0.1586 -0.0503
    5CHTO    O6 2079   6.893   1.767   1.874 -0.5315 -0.0906 -0.2271
    5CHTO    H1 2080   6.870   1.833   1.812  0.3357 -0.5149 -1.0158
    5CHTO    C3 2081   7.133   1.831   1.812  0.5996 -0.2121  1.1248
    5CHTO   H16 2082   7.080   1.909   1.757  2.3897  1.7826  2.1692
    5CHTO    N1 2083   7.174   1.710   1.733 -0.5972  0.0017  0.3627
    5CHTO    H8 2084   7.146   1.623   1.789 -0.9443  0.6799  1.2476
    5CHTO    H9 2085   7.108   1.717   1.648  0.2614  1.4398 -0.2024
    5CHTO    C4 2086   7.260   1.907   1.873 -0.4835 -0.6170  0.7299
    5CHTO   H17 2087   7.323   1.839   1.929 -0.4570 -0.9652  0.2761
    5CHTO    O1 2088   7.209   2.019   1.944 -0.0219  0.0863  0.3782
    5CHTO    C5 2089   7.135   1.983   2.061  0.4057  0.0049 -0.8787
    5CHTO   H18 2090   7.207   1.914   2.107 -0.4664 -0.8431 -0.7592
    5CHTO   C16 2091   7.114   2.106   2.153  0.0136 -0.1128 -0.1249
    5CHTO   O11 2092   7.237   2.174   2.196 -0.1941 -0.2449 -0.1623
    5CHTO    H5 2093   7.285   2.118   2.254 -2.2319 -1.2101  0.6617
    5CHTO    O3 2094   7.330   1.967   1.767  0.0751 -0.0302 -0.7982
    5CHTO    C6 2095   7.463   2.006   1.812  0.4718 -0.0410  0.0592
    5CHTO   H19 2096   7.475   2.010   1.921  0.2979 -0.1283  0.0829
    5CHTO    C8 2097   7.570   1.909   1.754  0.0086 -0.0765  0.5306
    5CHTO   H21 2098   7.569   1.920   1.645 -2.3745 -1.0539  0.4222
    5CHTO    O7 2099   7.550   1.769   1.787 -0.2840  0.2930 -0.0398
    5CHTO    H2 2100   7.472   1.739   1.744  0.2608  0.6826 -1.3223
    5CHTO   C12 2101   7.717   1.951   1.788  0.5196 -0.3863  0.8268
    5CHTO   H25 2102   7.725   1.938   1.898  0.4769 -3.1119  0.5423
    5CHTO    N3 2103   7.829   1.864   1.730 -0.0945 -0.3834  0.0424
    5CHTO   H12 2104   7.796   1.765   1.761 -1.0022  0.0068  0.3611
    5CHTO   H13 2105   7.925   1.886   1.772  0.2944  0.9959 -1.5336
    5CHTO   C15 2106   7.737   2.098   1.753  0.3838  0.5011  0.6663
    5CHTO   H28 2107   7.769   2.115   1.651 -2.8228  0.6130 -0.3884
    5CHTO   O10 2108   7.836   2.176   1.838  0.0062  0.4290  0.5191
    5CHTO    H4 2109   7.917   2.129   1.824 -1.3651 -1.4648 -1.2917
    5CHTO    O5 2110   7.633   2.185   1.802 -0.5228  0.1151 -0.1211
    5CHTO   C10 2111   7.499   2.144   1.763  0.4675  0.6613 -0.4690
    5CHTO   H23 2112   7.500   2.145   1.654 -1.6659 -0.8966 -0.5331
    5CHTO   C17 2113   7.390   2.239   1.809 -0.2760  0.3894 -0.2902
    5CHTO   O12 2114   7.417   2.380   1.780 -0.3070 -0.0472  0.0391
    5CHTO    H6 2115   7.499   2.393   1.736  0.8789 -0.1985  2.1078
    6CHTO  H203 2116   6.986   4.193  -0.221 -2.3300 -0.9368 -1.1495
    6CHTO   O82 2117   6.996   4.256  -0.290 -0.7492 -0.0723 -0.1828
    6CHTO  C123 2118   6.950   4.382  -0.235  0.9330  0.3116  0.3767
    6CHTO  H227 2119   7.004   4.464  -0.285 -1.3105  3.0530  2.2756
    6CHTO   O77 2120   6.817   4.389  -0.290 -0.0134 -0.3154  0.2652
    6CHTO  C118 2121   6.752   4.515  -0.275 -0.5060 -0.6233 -0.0029
    6CHTO  H222 2122   6.810   4.600  -0.316  2.2984 -2.3807  0.2016
    6CHTO  C125 2123   6.617   4.503  -0.356  0.3609 -0.0378  0.1717
    6CHTO   O84 2124   6.635   4.512  -0.499 -0.2242  0.0833  0.0426
    6CHTO  H205 2125   6.553   4.517  -0.545 -0.7449 -0.9794  0.8396
    6CHTO  C114 2126   6.726   4.535  -0.125 -0.4173  0.1193  0.3081
    6CHTO  H218 2127   6.665   4.453  -0.089 -0.4875  0.3589  0.7320
    6CHTO  C116 2128   6.856   4.524  -0.046  0.1847  0.0245 -0.2733
    6CHTO  H220 2129   6.924   4.610  -0.058  1.8460 -1.1175  0.6823
    6CHTO   O79 2130   6.820   4.535   0.094 -0.3550  0.4158  0.1670
    6CHTO  H201 2131   6.771   4.609   0.125 -1.7146 -1.1778  2.0223
    6CHTO  C120 2132   6.939   4.396  -0.078  1.0913 -0.4299 -0.3976
    6CHTO  H224 2133   6.876   4.309  -0.048  0.5071  0.4420  0.9476
    6CHTO   N21 2134   7.069   4.395  -0.011  0.4991  0.4521 -0.2783
    6CHTO  H211 2135   7.106   4.293  -0.011  0.4587  0.4380  0.2740
    6CHTO  H212 2136   7.127   4.455  -0.080 -0.4586  0.9308 -0.6784
    6CHTO   O75 2137   6.657   4.658  -0.116 -0.0279 -0.4969 -0.0505
    6CHTO  C112 2138   6.535   4.648  -0.007 -0.3226 -0.0811  0.2383
    6CHTO  H216 2139   6.567   4.584   0.077 -0.8223 -1.0149 -0.2689
    6CHTO   O73 2140   6.429   4.590  -0.080  0.7489  0.2312 -0.6464
    6CHTO  C113 2141   6.314   4.564   0.003 -0.3680 -0.3812 -0.0735
    6CHTO  H217 2142   6.346   4.479   0.067 -0.1278 -0.7686 -0.7048
    6CHTO  C124 2143   6.205   4.506  -0.087 -0.1626  0.0216 -0.1795
    6CHTO   O83 2144   6.089   4.454  -0.020 -0.6281  0.2687  0.5355
    6CHTO  H204 2145   6.106   4.412   0.062 -0.8479 -4.0771 -1.5245
    6CHTO  C109 2146   6.260   4.691   0.082  0.8957  1.1117 -0.2749
    6CHTO  H213 2147   6.215   4.756   0.006  0.8788  0.8539 -0.4846
    6CHTO  C110 2148   6.378   4.777   0.150  0.3794 -0.4106  0.1112
    6CHTO  H214 2149   6.409   4.721   0.239 -0.0982  1.5744  1.5621
    6CHTO   O78 2150   6.329   4.904   0.195  0.4155  0.6675  0.2088
    6CHTO  H200 2151   6.401   4.952   0.233  0.7947 -0.2214  0.6217
    6CHTO  C111 2152   6.498   4.788   0.056  0.5742  0.0724 -0.1324
    6CHTO  H215 2153   6.474   4.853  -0.030 -0.3080 -0.0264  0.0339
    6CHTO   N19 2154   6.616   4.844   0.124 -0.4221 -0.2795  0.5801
    6CHTO  H207 2155   6.669   4.788   0.200 -0.0154 -1.3069 -0.4464
    6CHTO  H208 2156   6.586   4.945   0.150  1.1839  0.0079  1.3720
    6CHTO   O74 2157   6.163   4.648   0.182 -0.7220 -0.0238 -0.5657
    6CHTO  C115 2158   6.164   4.693   0.338  0.0335  0.5288  0.0685
    6CHTO  H219 2159   6.264   4.692   0.381 -0.3824 -0.3758  1.0380
    6CHTO   O76 2160   6.117   4.848   0.361 -0.0130  0.3943  0.6875
    6CHTO  C122 2161   5.989   4.874   0.301  0.1587  0.2632 -0.2074
    6CHTO  H226 2162   6.003   4.861   0.193  1.2094  1.4911 -0.2338
    6CHTO  C126 2163   5.927   5.024   0.326  0.5226 -0.1610 -0.4135
    6CHTO   O85 2164   5.992   5.127   0.256 -0.1605  0.3010  0.1644
    6CHTO  H206 2165   5.945   5.207   0.267  1.7934  2.3802 -4.7864
    6CHTO  C121 2166   5.881   4.765   0.347 -0.2114 -0.6756  0.1518
    6CHTO  H225 2167   5.783   4.804   0.382 -0.2123 -0.4516 -0.0950
    6CHTO   O81 2168   5.841   4.686   0.236  0.2360  0.0227  0.3483
    6CHTO  H202 2169   5.760   4.723   0.205 -1.1908 -2.0814  1.4560
    6CHTO  C119 2170   5.937   4.675   0.460 -0.1866  0.0470  0.1528
    6CHTO  H223 2171   5.956   4.733   0.551  0.5309  3.1237 -1.8834
    6CHTO  C117 2172   6.072   4.600   0.421  0.3357  0.1738 -0.1211
    6CHTO  H221 2173   6.056   4.517   0.353  2.3878  1.0420 -1.7248
    6CHTO   N20 2174   6.145   4.540   0.538  0.1938 -0.5849 -0.4858
    6CHTO  H209 2175   6.100   4.561   0.634  0.0498  0.3328 -0.7442
    6CHTO  H210 2176   6.161   4.434   0.523 -0.1252 -0.7696  0.4402
    6CHTO   O80 2177   5.825   4.556   0.514 -0.2671  0.5158  0.0222
    6CHTO  C103 2178   5.761   4.559   0.654  0.5095  0.7550 -0.4684
    6CHTO  H190 2179   5.832   4.519   0.727  1.6040  2.0286 -0.8164
    6CHTO  C101 2180   5.696   4.686   0.712  0.4515  0.1995  0.2949
    6CHTO  H188 2181   5.628   4.726   0.636 -0.3045  1.2163  1.4920
    6CHTO   O68 2182   5.810   4.782   0.737 -0.3809  0.8753 -0.1006
    6CHTO  H168 2183   5.844   4.769   0.824 -0.1512  1.2312 -0.1348
    6CHTO   C99 2184   5.608   4.665   0.840 -0.1883  0.7071 -0.2158
    6CHTO  H186 2185   5.678   4.634   0.921 -1.7697 -0.0687  0.8895
    6CHTO   N17 2186   5.534   4.783   0.879  0.6425  0.4671 -0.6853
    6CHTO  H174 2187   5.599   4.865   0.906  1.6965 -1.5873  3.4558
    6CHTO  H175 2188   5.463   4.814   0.805 -1.0889 -0.9333  0.3422
    6CHTO   C97 2189   5.516   4.542   0.816  0.0299  0.8433 -0.4121
    6CHTO  H184 2190   5.428   4.571   0.757 -1.0502 -1.2374  0.1249
    6CHTO   O64 2191   5.585   4.431   0.755  0.0188 -0.0000  0.4222
    6CHTO  C104 2192   5.650   4.452   0.634 -0.0532  0.5051  0.3787
    6CHTO  H191 2193   5.578   4.490   0.562  1.5986 -0.6513 -1.9736
    6CHTO  C108 2194   5.692   4.308   0.578  0.2282  0.2088 -0.6644
    6CHTO   O71 2195   5.808   4.266   0.660  0.0606  0.1771  0.1168
    6CHTO  H171 2196   5.780   4.254   0.749  0.0060 -0.1081  0.0631
    6CHTO   O62 2197   5.471   4.490   0.942  0.4485  0.8316  0.0939
    6CHTO   C91 2198   5.495   4.362   1.002 -0.7712 -0.0867 -0.7787
    6CHTO  H178 2199   5.444   4.368   1.098  1.0539  2.2702  0.0795
    6CHTO   C92 2200   5.646   4.354   1.034 -0.7946  0.1451 -0.4680
    6CHTO  H179 2201   5.712   4.369   0.947 -1.2328  0.3754 -0.7581
    6CHTO   O66 2202   5.675   4.464   1.122 -0.6859  0.1251 -0.0142
    6CHTO  H166 2203   5.692   4.540   1.070 -0.7808  1.1089  1.3658
    6CHTO   C93 2204   5.686   4.215   1.102  0.1749  0.3116 -0.5110
    6CHTO  H180 2205   5.627   4.216   1.194 -1.9465 -1.2923 -1.8178
    6CHTO   N16 2206   5.834   4.211   1.128 -0.2476 -0.1537  0.4490
    6CHTO  H172 2207   5.890   4.230   1.038 -1.1027 -3.0119 -0.7519
    6CHTO  H173 2208   5.886   4.146   1.196 -1.0990  1.2676  2.5109
    6CHTO   C94 2209   5.639   4.101   1.008  0.6146 -0.2787  0.6141
    6CHTO  H181 2210   5.685   4.112   0.910 -1.1154  0.2303 -0.1594
    6CHTO   O61 2211   5.496   4.108   0.993 -0.2656  0.0699  0.0045
    6CHTO   C95 2212   5.443   4.230   0.930 -0.2255  0.1070  0.3291
    6CHTO  H182 2213   5.476   4.234   0.826 -0.9673  0.4486  0.1064
    6CHTO  C106 2214   5.291   4.206   0.935 -0.5981 -0.9546 -0.4102
    6CHTO   O69 2215   5.213   4.308   0.869 -0.2348 -0.3777 -0.9316
    6CHTO  H169 2216   5.122   4.284   0.867 -0.1333 -1.0582  1.3819
    6CHTO   O63 2217   5.671   3.962   1.059 -0.0236  0.1582 -0.8438
    6CHTO   C96 2218   5.625   3.842   0.947  0.3072 -0.6962 -0.0402
    6CHTO  H183 2219   5.575   3.895   0.866  0.2707 -0.0711  0.3860
    6CHTO   C98 2220   5.529   3.737   1.001 -0.1917  0.1945 -0.0849
    6CHTO  H185 2221   5.575   3.698   1.094 -0.4654  1.2721  0.5072
    6CHTO   O67 2222   5.411   3.797   1.044 -0.1443 -0.4431 -0.0103
    6CHTO  H167 2223   5.356   3.815   0.970  0.2595 -0.8574 -0.4118
    6CHTO  C102 2224   5.505   3.621   0.895 -0.1246  0.1402  0.3790
    6CHTO  H189 2225   5.454   3.671   0.812  1.3750  0.9804 -0.0598
    6CHTO   N18 2226   5.423   3.510   0.935 -0.3175  0.4389  0.0817
    6CHTO  H176 2227   5.482   3.449   1.001 -0.8473 -0.3623 -0.1742
    6CHTO  H177 2228   5.329   3.533   0.983 -0.7549  2.3952 -1.6287
    6CHTO  C105 2229   5.639   3.568   0.834  0.1660 -0.4048 -0.2327
    6CHTO  H192 2230   5.702   3.528   0.913 -2.3629 -0.3685  1.8580
    6CHTO   O65 2231   5.712   3.675   0.780 -0.4344  0.5083  0.0770
    6CHTO  C100 2232   5.746   3.773   0.875  0.6304 -0.0039 -0.0720
    6CHTO  H187 2233   5.814   3.737   0.953  1.4488 -0.1199 -0.8286
    6CHTO  C107 2234   5.834   3.882   0.797  0.0666  0.3486  0.0470
    6CHTO   O70 2235   5.764   3.947   0.690  0.0639 -0.1810  0.2791
    6CHTO  H170 2236   5.673   3.933   0.705 -0.0258  0.2447  0.1347
    6CHTO   O57 2237   5.605   3.441   0.707  0.7306  0.3063  0.1813
    6CHTO   C85 2238   5.700   3.395   0.612 -1.2623 -0.1945 -0.2772
    6CHTO  H157 2239   5.640   3.308   0.579 -1.3082  0.5220 -2.1293
    6CHTO   C83 2240   5.835   3.342   0.678 -0.6432  0.1907  0.3814
    6CHTO  H155 2241   5.817   3.262   0.750 -2.7861  1.3508  1.1729
    6CHTO   O56 2242   5.892   3.446   0.752  0.1651 -0.8849  0.2357
    6CHTO  H135 2243   5.838   3.474   0.823 -0.2318 -0.8149 -0.0926
    6CHTO   C81 2244   5.921   3.284   0.558  0.4737 -0.2144 -0.1768
    6CHTO  H153 2245   5.870   3.203   0.506  0.4660 -1.0948  1.1690
    6CHTO   N14 2246   6.042   3.211   0.610 -0.8822  0.2933 -0.2303
    6CHTO  H141 2247   6.010   3.115   0.644 -2.5105 -0.1713 -2.9291
    6CHTO  H142 2248   6.114   3.200   0.533  0.8023 -1.2223  1.5283
    6CHTO   C79 2249   5.958   3.398   0.456  0.5304 -0.1001 -0.2775
    6CHTO  H151 2250   6.023   3.355   0.380  1.0487 -0.0612  0.1349
    6CHTO   O52 2251   5.832   3.448   0.397  0.2900 -0.5803  0.3932
    6CHTO   C86 2252   5.732   3.494   0.491 -0.9500  0.5520 -0.3032
    6CHTO  H158 2253   5.773   3.590   0.529  0.2959  0.5425 -1.5282
    6CHTO   C90 2254   5.598   3.531   0.407 -0.1207 -0.0894  0.4760
    6CHTO   O60 2255   5.544   3.421   0.334  0.6890 -0.5888 -0.1695
    6CHTO  H138 2256   5.529   3.344   0.384  2.3973 -0.6948  0.2059
    6CHTO   O50 2257   6.037   3.504   0.518 -0.1920  0.5012 -0.1223
    6CHTO   C73 2258   6.146   3.562   0.443 -0.6004 -0.4849  0.3089
    6CHTO  H145 2259   6.143   3.528   0.339  0.9438  1.2847 -0.3443
    6CHTO   C74 2260   6.279   3.522   0.512  0.5333  0.3335  0.3539
    6CHTO  H146 2261   6.266   3.412   0.509 -1.2881  0.5323  0.3813
    6CHTO   O54 2262   6.393   3.563   0.435 -0.1278  0.2741  0.0494
    6CHTO  H133 2263   6.404   3.507   0.360  1.6360  0.0471  0.4677
    6CHTO   C75 2264   6.276   3.574   0.652 -0.0136 -0.8498 -0.5941
    6CHTO  H147 2265   6.187   3.531   0.699  0.7901 -2.8009 -0.8013
    6CHTO   N13 2266   6.388   3.548   0.744  0.4997  0.0507 -0.1861
    6CHTO  H139 2267   6.405   3.448   0.781  1.9662 -0.0286 -1.0314
    6CHTO  H140 2268   6.480   3.577   0.695  0.9047 -1.3120 -0.2752
    6CHTO   C76 2269   6.252   3.736   0.651 -0.5578 -0.0081  0.8443
    6CHTO  H148 2270   6.340   3.764   0.593 -0.3671 -0.7166  0.7807
    6CHTO   O49 2271   6.134   3.784   0.576 -0.4209 -0.3892  0.8614
    6CHTO   C77 2272   6.129   3.721   0.443  0.1224 -0.0142  0.6174
    6CHTO  H149 2273   6.211   3.765   0.387 -0.5071  3.2557  2.1462
    6CHTO   C88 2274   6.005   3.766   0.372  1.1398 -0.3407  0.1401
    6CHTO   O58 2275   6.002   3.927   0.342 -0.5518  0.4056  0.3368
    6CHTO  H136 2276   5.973   3.972   0.419 -1.8881  0.2606 -0.0783
    6CHTO   O51 2277   6.239   3.807   0.810 -0.0957  0.4454 -0.6950
    6CHTO   C78 2278   6.312   3.964   0.856  0.1415 -0.6335 -0.3358
    6CHTO  H150 2279   6.349   3.954   0.961  0.4869  0.6951 -0.3216
    6CHTO   C80 2280   6.192   4.064   0.864  0.4919 -0.2419  0.4171
    6CHTO  H152 2281   6.125   4.052   0.776  1.4517 -0.1382 -0.3383
    6CHTO   O55 2282   6.102   4.018   0.958  0.3445  0.3374 -0.3565
    6CHTO  H134 2283   6.138   3.997   1.042  0.8909 -0.4118 -0.7729
    6CHTO   C84 2284   6.234   4.214   0.900  0.4060  0.6635  0.5293
    6CHTO  H156 2285   6.274   4.216   1.001 -0.4004 -3.0632  0.9662
    6CHTO   N15 2286   6.123   4.309   0.896  0.1169 -0.5267 -0.2993
    6CHTO  H143 2287   6.032   4.259   0.920 -0.6703  0.3702 -1.3600
    6CHTO  H144 2288   6.136   4.380   0.974 -1.6440  0.3146 -0.7653
    6CHTO   C87 2289   6.346   4.255   0.800  0.1119  0.1969 -0.7229
    6CHTO  H159 2290   6.303   4.274   0.702  1.4515 -0.8019 -1.5212
    6CHTO   O53 2291   6.471   4.131   0.795  0.4496  0.0565 -0.0739
    6CHTO   C82 2292   6.422   4.003   0.753  0.2232 -0.3096  0.6224
    6CHTO  H154 2293   6.385   4.004   0.650  0.5785 -0.4278  0.4925
    6CHTO   C89 2294   6.527   3.902   0.758 -0.1020  0.1119 -0.2657
    6CHTO   O59 2295   6.646   3.934   0.696  0.5011  0.4057 -0.0798
    6CHTO  H137 2296   6.696   3.857   0.677  1.2627  0.3518  2.0560
    6CHTO   O45 2297   6.424   4.408   0.840 -0.3933 -0.2667 -0.2632
    6CHTO   C67 2298   6.548   4.427   0.767 -0.3426  0.6675  0.2405
    6CHTO  H124 2299   6.630   4.357   0.788  0.2128  0.7595 -1.5043
    6CHTO   C65 2300   6.525   4.428   0.613  0.2523  0.6033 -0.6821
    6CHTO  H122 2301   6.419   4.427   0.588 -0.3425 -0.6514  1.7355
    6CHTO   O44 2302   6.584   4.300   0.568  0.2190 -0.5091 -0.3990
    6CHTO  H102 2303   6.535   4.246   0.509 -0.5373 -0.0762 -0.1746
    6CHTO   C63 2304   6.575   4.555   0.534 -0.5988  0.3614  0.0580
    6CHTO  H120 2305   6.500   4.633   0.538  0.0156  1.0563 -1.7243
    6CHTO   N11 2306   6.576   4.542   0.382  0.0557 -0.5063  0.0492
    6CHTO  H108 2307   6.484   4.576   0.339  0.2725 -1.6915 -1.3808
    6CHTO  H109 2308   6.591   4.437   0.372  1.6382 -0.3490  0.7145
    6CHTO   C61 2309   6.712   4.601   0.597  0.7691  0.3141  0.3881
    6CHTO  H118 2310   6.723   4.701   0.553 -0.5504 -0.1965 -1.1842
    6CHTO   O40 2311   6.712   4.614   0.734  0.4045  0.2618  0.7257
    6CHTO   C68 2312   6.602   4.567   0.814  0.4519 -0.2201  0.2075
    6CHTO  H125 2313   6.520   4.642   0.809  0.1123 -0.7700 -3.7105
    6CHTO   C72 2314   6.660   4.565   0.962  0.2188 -0.0011 -0.2027
    6CHTO   O48 2315   6.685   4.699   1.016 -0.2553 -0.3676 -0.5635
    6CHTO  H105 2316   6.694   4.706   1.109 -1.1189  1.4395 -0.5908
    6CHTO   O38 2317   6.829   4.517   0.578 -0.0705 -0.6269 -0.1698
    6CHTO   C55 2318   6.950   4.594   0.574 -0.0682 -0.2823  0.2728
    6CHTO  H112 2319   6.934   4.682   0.637  1.0792 -0.1550  0.4005
    6CHTO   C56 2320   6.995   4.636   0.431  0.1689  0.3238  0.9557
    6CHTO  H113 2321   7.002   4.553   0.359  0.0405  0.9583  0.2090
    6CHTO   O42 2322   6.888   4.720   0.382 -0.3141 -0.0661  0.0894
    6CHTO  H100 2323   6.907   4.741   0.292  3.6293 -0.1225  0.8098
    6CHTO   C57 2324   7.132   4.718   0.435  0.7048 -0.6619  0.6363
    6CHTO  H114 2325   7.108   4.803   0.499 -1.3178 -1.6415  1.2271
    6CHTO   N10 2326   7.181   4.765   0.303 -0.4687  0.8116 -0.1575
    6CHTO  H106 2327   7.097   4.801   0.244 -2.4009 -0.2462  1.8503
    6CHTO  H107 2328   7.234   4.689   0.247 -0.7137  0.5189  0.0086
    6CHTO   C58 2329   7.233   4.627   0.502  0.2175  0.0204 -0.1733
    6CHTO  H115 2330   7.255   4.540   0.436  1.6156 -0.9154  1.4849
    6CHTO   O37 2331   7.182   4.583   0.633 -0.3944 -0.3570  0.3877
    6CHTO   C59 2332   7.060   4.508   0.635 -0.2908  0.7524 -0.0718
    6CHTO  H116 2333   7.072   4.412   0.584  1.5667  1.5022 -1.0899
    6CHTO   C70 2334   7.023   4.467   0.777  0.0047 -0.0627  0.3193
    6CHTO   O46 2335   7.097   4.357   0.824 -0.4806 -0.0454 -0.0802
    6CHTO  H103 2336   7.151   4.387   0.895 -0.9290  0.1805  0.1642
    6CHTO   O39 2337   7.372   4.704   0.529  0.3777 -0.1716 -0.0744
    6CHTO   C60 2338   7.479   4.609   0.549 -0.6058  0.4560 -0.7209
    6CHTO  H117 2339   7.439   4.508   0.553  2.4639 -0.8065 -0.5157
    6CHTO   C62 2340   7.570   4.605   0.424  0.5159 -0.1485 -0.6762
    6CHTO  H119 2341   7.500   4.557   0.352  0.8579 -2.4907  0.5096
    6CHTO   O43 2342   7.592   4.744   0.380  0.0103 -0.0837 -0.3070
    6CHTO  H101 2343   7.616   4.766   0.292  0.8366  0.0362 -0.0577
    6CHTO   C66 2344   7.707   4.524   0.439 -0.0384  0.0736 -0.0547
    6CHTO  H123 2345   7.684   4.418   0.449 -0.7581  0.0511 -1.7020
    6CHTO   N12 2346   7.794   4.529   0.321 -0.4487  0.0114  0.1546
    6CHTO  H110 2347   7.760   4.569   0.227 -0.0082 -0.8166 -0.3527
    6CHTO  H111 2348   7.846   4.438   0.299  1.2621  0.5582  1.7876
    6CHTO   C69 2349   7.779   4.577   0.570  0.5779 -0.4266 -0.2085
    6CHTO  H126 2350   7.803   4.685   0.559 -0.9871 -0.3302 -3.1696
    6CHTO   O41 2351   7.674   4.566   0.702 -0.5859 -0.0495  0.1065
    6CHTO   C64 2352   7.548   4.640   0.685 -0.0417 -0.3038  0.3573
    6CHTO  H121 2353   7.572   4.749   0.686 -0.5045 -0.2017  0.3921
    6CHTO   C71 2354   7.473   4.609   0.807  0.1610  0.2196 -0.0314
    6CHTO   O47 2355   7.444   4.467   0.825 -0.1095 -0.0131  0.4980
    6CHTO  H104 2356   7.516   4.410   0.845  0.1921 -1.1548 -3.4702
    6CHTO   O34 2357   7.900   4.497   0.606 -0.5350 -0.1034 -0.7311
    6CHTO   C49 2358   8.039   4.494   0.544 -0.1879  0.1352  0.1534
    6CHTO   H91 2359   8.034   4.443   0.447 -0.7816 -2.0715  1.3155
    6CHTO   C47 2360   8.143   4.423   0.628  0.5108  0.1747  0.4941
    6CHTO   H89 2361   8.243   4.419   0.582  1.4198 -0.5730  2.4674
    6CHTO   O33 2362   8.101   4.282   0.649 -0.3033  0.6816  0.0308
    6CHTO   H70 2363   8.138   4.246   0.727 -0.1898 -0.9342 -0.7356
    6CHTO   C45 2364   8.147   4.506   0.767 -0.4275  0.0466  0.1156
    6CHTO   H87 2365   8.063   4.475   0.831 -0.8917  1.5943  0.2947
    6CHTO    N8 2366   8.274   4.470   0.839 -0.4980  0.1137  0.2555
    6CHTO   H75 2367   8.293   4.368   0.809 -0.3844 -0.4391  2.1106
    6CHTO   H76 2368   8.354   4.538   0.815 -0.9123  0.9942  1.3080
    6CHTO   C43 2369   8.125   4.666   0.742 -0.0205 -0.3818  0.7227
    6CHTO   H85 2370   8.019   4.689   0.754 -0.3833 -1.6002 -0.0826
    6CHTO   O29 2371   8.177   4.702   0.612  0.5137 -0.0855 -1.0082
    6CHTO   C50 2372   8.101   4.637   0.509 -0.6714 -0.3408 -0.3123
    6CHTO   H92 2373   8.018   4.701   0.475  1.5792  2.5967 -0.4905
    6CHTO   C54 2374   8.188   4.626   0.378 -0.4742  0.4588 -0.2744
    6CHTO   O36 2375   8.206   4.760   0.322 -0.5222  0.7089 -0.2732
    6CHTO   H72 2376   8.176   4.754   0.234 -1.4235 -2.1870  0.1740
    6CHTO   O27 2377   8.197   4.752   0.835  0.2614  0.2318  0.0062
    6CHTO   C37 2378   8.304   4.838   0.879  0.6312  0.0212  0.8038
    6CHTO   H79 2379   8.398   4.782   0.872 -1.4907 -3.4892 -1.3326
    6CHTO   C38 2380   8.306   4.976   0.803  0.4383 -0.3172 -0.3410
    6CHTO   H80 2381   8.202   5.012   0.800  0.8004  0.7222 -0.6523
    6CHTO   O31 2382   8.334   4.943   0.664  0.2089  0.1487 -0.5993
    6CHTO   H68 2383   8.411   4.889   0.666 -0.8631 -1.3795  0.2272
    6CHTO   C39 2384   8.408   5.073   0.873  0.2991 -0.4988 -0.5633
    6CHTO   H81 2385   8.509   5.034   0.858  0.1325 -0.1085 -2.9823
    6CHTO    N7 2386   8.400   5.214   0.815  0.6996 -0.8503  0.4511
    6CHTO   H73 2387   8.457   5.288   0.869 -0.1328  0.9874 -1.1297
    6CHTO   H74 2388   8.447   5.217   0.718 -0.1365  0.7051  0.0689
    6CHTO   C40 2389   8.387   5.082   1.035 -0.3903  0.5054  0.5412
    6CHTO   H82 2390   8.303   5.144   1.067 -0.7335 -0.3306  1.2640
    6CHTO   O26 2391   8.381   4.952   1.089 -0.1460 -0.4614 -0.3553
    6CHTO   C41 2392   8.280   4.868   1.029 -0.0723  0.4342  0.7917
    6CHTO   H83 2393   8.184   4.923   1.033 -0.9797 -0.8096 -2.4381
    6CHTO   C52 2394   8.280   4.730   1.113  0.1821 -0.2779  0.0675
    6CHTO   O35 2395   8.181   4.661   1.122  0.8176 -0.3233 -0.6332
    6CHTO   H71 2396   8.148   4.634   1.038 -0.4498 -2.1270  0.3923
    6CHTO   O28 2397   8.500   5.146   1.097  0.4586 -0.2555  1.0445
    6CHTO   C42 2398   8.483   5.216   1.225 -0.0640  0.6078  0.5073
    6CHTO   H84 2399   8.585   5.254   1.235  0.3780 -0.6196  0.7742
    6CHTO   C44 2400   8.457   5.121   1.346 -0.0383  0.0954 -0.0708
    6CHTO   H86 2401   8.365   5.067   1.327  0.4709 -0.5317 -0.7557
    6CHTO   O32 2402   8.559   5.025   1.329 -0.6305  0.0333 -0.6241
    6CHTO   H69 2403   8.592   4.996   1.413 -1.4190 -2.2464 -1.0724
    6CHTO   C48 2404   8.448   5.204   1.483 -0.3047  0.5201 -0.5640
    6CHTO   H90 2405   8.547   5.250   1.494  0.2734 -0.5660 -1.1492
    6CHTO    N9 2406   8.422   5.122   1.604 -0.3844  0.4774  0.6403
    6CHTO   H77 2407   8.404   5.183   1.692  1.8868  2.2957 -0.1158
    6CHTO   H78 2408   8.508   5.058   1.612 -0.3066  0.5936  0.7236
    6CHTO   C51 2409   8.355   5.331   1.466  0.1358 -0.9072  0.1228
    6CHTO   H93 2410   8.253   5.296   1.444 -0.9840  2.1870  0.2060
    6CHTO   O30 2411   8.404   5.411   1.359 -0.0583  0.0774 -0.0248
    6CHTO   C46 2412   8.394   5.339   1.219  0.5601 -0.6033  0.2059
    6CHTO   H88 2413   8.292   5.302   1.209  0.3929 -0.3731  1.0401
    6CHTO   C53 2414   8.428   5.433   1.102  0.0967 -0.2793 -1.2194
    6CHTO   O72 2415   8.569   5.477   1.114  0.1725 -0.4803  0.5906
    6CHTO  H199 2416   8.611   5.485   1.031  0.8757  2.2397  1.1839
    6CHTO   O22 2417   8.347   5.421   1.573 -0.2403  0.3844 -0.0176
    6CHTO   C31 2418   8.230   5.503   1.595 -0.0464 -0.2218 -0.2560
    6CHTO   H59 2419   8.263   5.562   1.682  1.2362  0.7207 -1.3532
    6CHTO   C29 2420   8.186   5.603   1.480  0.2307 -0.2106  0.0562
    6CHTO   H57 2421   8.162   5.540   1.393 -0.1383 -0.3003  0.2224
    6CHTO   O21 2422   8.298   5.690   1.447 -0.5005  0.9495 -0.2624
    6CHTO   H37 2423   8.356   5.677   1.375 -3.4042  0.0484 -2.5351
    6CHTO   C27 2424   8.057   5.679   1.524 -0.1550  0.2096 -0.0648
    6CHTO   H55 2425   8.077   5.737   1.615 -0.2717  0.9467 -0.5082
    6CHTO    N5 2426   8.014   5.779   1.424  0.3582  0.0401  0.4873
    6CHTO   H43 2427   7.919   5.826   1.446  1.1449  0.0511  4.2494
    6CHTO   H44 2428   8.020   5.752   1.320  3.3123  2.5464 -0.0456
    6CHTO   C25 2429   7.946   5.575   1.566 -0.4325  0.1263  0.1591
    6CHTO   H53 2430   7.909   5.503   1.492 -1.8475 -0.8563  1.8028
    6CHTO   O17 2431   8.000   5.507   1.683 -0.2018 -0.1829  0.0336
    6CHTO   C32 2432   8.108   5.421   1.655 -0.3673 -0.1899  0.0764
    6CHTO   H60 2433   8.062   5.357   1.580 -0.3584  0.4613 -0.4890
    6CHTO   C36 2434   8.145   5.328   1.774  0.8697 -0.3968  0.7520
    6CHTO   O25 2435   8.028   5.264   1.813  0.0269  0.0303 -0.0918
    6CHTO   H40 2436   7.997   5.200   1.753 -0.5241  0.1752  0.0406
    6CHTO   O15 2437   7.806   5.648   1.607  0.0911 -0.1100 -0.2318
    6CHTO   C19 2438   7.690   5.717   1.654 -0.7063 -0.9766 -1.2937
    6CHTO   H47 2439   7.672   5.694   1.760 -1.1764  1.5388 -0.7979
    6CHTO   C20 2440   7.698   5.869   1.646  0.6638  0.1532 -0.3594
    6CHTO   H48 2441   7.697   5.905   1.542 -0.2103 -1.6933 -1.0050
    6CHTO   O19 2442   7.816   5.910   1.713 -0.5071  0.4341 -0.4780
    6CHTO   H35 2443   7.891   5.878   1.667 -0.5988 -0.1180 -0.2420
    6CHTO   C21 2444   7.561   5.925   1.699  0.3340  0.5046  0.6950
    6CHTO   H49 2445   7.547   5.891   1.801  0.2258 -1.5131  0.0266
    6CHTO    N4 2446   7.559   6.075   1.703  0.2645 -0.0919  0.6156
    6CHTO   H41 2447   7.584   6.107   1.803  1.2073 -0.6961  0.5763
    6CHTO   H42 2448   7.459   6.107   1.678  0.2801 -1.9727 -2.1126
    6CHTO   C22 2449   7.444   5.865   1.611  0.4570 -0.2042 -0.3318
    6CHTO   H50 2450   7.459   5.889   1.506 -1.8580 -0.6067 -0.7762
    6CHTO   O14 2451   7.453   5.722   1.635  0.2987 -0.1180  0.5130
    6CHTO   C23 2452   7.569   5.660   1.578  0.3167  0.0271 -0.6281
    6CHTO   H51 2453   7.569   5.691   1.473 -0.2591  0.3608 -0.5356
    6CHTO   C34 2454   7.548   5.516   1.605  0.3470 -0.3539 -0.3730
    6CHTO   O23 2455   7.621   5.438   1.511 -0.0947 -0.8184 -0.0262
    6CHTO   H38 2456   7.569   5.394   1.446  0.3180 -0.3541 -0.6866
    6CHTO   O16 2457   7.314   5.910   1.652  0.6154  0.8046  0.5040
    6CHTO   C24 2458   7.206   5.922   1.542 -0.2060  0.6025 -0.0780
    6CHTO   H52 2459   7.227   5.855   1.459 -0.5303  0.7691 -0.2956
    6CHTO   C26 2460   7.205   6.068   1.484  0.5555 -0.6630  0.4173
    6CHTO   H54 2461   7.226   6.135   1.570 -0.6398 -1.4684  1.3531
    6CHTO   O20 2462   7.326   6.088   1.412 -0.1310  0.5797  0.3675
    6CHTO   H36 2463   7.329   6.179   1.391  0.8393  0.6548  0.7952
    6CHTO   C30 2464   7.073   6.110   1.405 -0.3734  0.3383  0.6355
    6CHTO   H58 2465   7.080   6.061   1.306  1.7693  1.3719  0.2318
    6CHTO    N6 2466   7.072   6.257   1.380  0.1876 -0.4508  0.7172
    6CHTO   H45 2467   7.150   6.282   1.309  1.9290 -0.7208  2.5151
    6CHTO   H46 2468   6.977   6.289   1.337 -0.3165  0.3162  2.3699
    6CHTO   C33 2469   6.948   6.059   1.488 -0.6804  0.9533  0.0282
    6CHTO   H61 2470   6.938   6.099   1.590 -2.7930 -0.4038  0.3770
    6CHTO   O18 2471   6.963   5.916   1.502 -0.9003  0.1756  0.0383
    6CHTO   C28 2472   7.068   5.877   1.595  0.2767  0.4452 -0.0779
    6CHTO   H56 2473   7.044   5.926   1.689  3.1308  0.5612  0.6444
    6CHTO   C35 2474   7.069   5.729   1.612 -0.4666  0.4807  0.6146
    6CHTO   O24 2475   6.958   5.677   1.683 -0.3060 -0.3515 -0.1577
    6CHTO   H39 2476   6.998   5.596   1.708 -0.5895  0.2927  2.4487
    6CHTO    O9 2477   6.822   6.091   1.418  0.0752  0.0216  0.3556
    6CHTO   C13 2478   6.698   6.149   1.507 -0.2604  0.0921 -0.0065
    6CHTO   H26 2479   6.742   6.238   1.556 -0.7440  0.7244 -0.7075
    6CHTO   C11 2480   6.665   6.036   1.614 -0.7235 -0.6378  0.0899
    6CHTO   H24 2481   6.756   6.034   1.676 -0.9810 -0.3929  0.4822
    6CHTO    O8 2482   6.657   5.906   1.556  0.1078 -0.0377 -0.1806
    6CHTO    H3 2483   6.588   5.903   1.493 -0.5066 -0.3692  0.4978
    6CHTO    C9 2484   6.536   6.079   1.692 -1.4670 -0.4739  0.0229
    6CHTO   H22 2485   6.553   6.184   1.718 -0.0608 -0.6532 -0.1754
    6CHTO    N2 2486   6.512   6.012   1.824 -0.5537 -0.1450 -0.3731
    6CHTO   H10 2487   6.506   5.905   1.816  1.9888 -0.2650 -0.9794
    6CHTO   H11 2488   6.414   6.039   1.861 -0.1985 -2.6236  2.5884
    6CHTO    C7 2489   6.419   6.068   1.586  0.6955 -0.7781 -0.4726
    6CHTO   H20 2490   6.323   6.086   1.639  0.5443 -3.1295  0.1198
    6CHTO    O4 2491   6.439   6.164   1.479 -0.4191  0.2829 -0.7390
    6CHTO   C14 2492   6.569   6.187   1.418  0.0938  0.0341 -0.2255
    6CHTO   H27 2493   6.577   6.295   1.396  0.6438  0.1268  0.4127
    6CHTO   C18 2494   6.578   6.114   1.281 -0.1336  0.7205 -0.2591
    6CHTO   O13 2495   6.457   6.149   1.204  0.3206 -0.0048  0.0359
    6CHTO    H7 2496   6.457   6.105   1.121  2.3827 -0.4362  0.2354
    6CHTO    O2 2497   6.393   5.905   1.510 -0.0346 -0.2954  0.1425
    6CHTO    C1 2498   6.259   5.869   1.480 -0.0099 -0.3744  0.3248
    6CHTO   H14 2499   6.259   5.769   1.431 -1.1220  0.0518 -0.5709
    6CHTO    C2 2500   6.176   5.965   1.381 -0.0779 -0.3846  0.0925
    6CHTO   H15 2501   6.172   6.057   1.441  0.2682 -1.3956  1.7156
    6CHTO    O6 2502   6.240   5.973   1.251  0.2171  0.0176  0.2330
    6CHTO    H1 2503   6.257   5.888   1.216 -2.7554 -0.9192  0.9104
    6CHTO    C3 2504   6.024   5.918   1.378  0.3094 -0.2025 -0.2220
    6CHTO   H16 2505   6.032   5.818   1.331 -0.1488  0.4340 -1.6822
    6CHTO    N1 2506   5.935   6.009   1.302  0.6896 -0.3114  0.3481
    6CHTO    H8 2507   5.942   6.111   1.337 -0.1665 -0.1251 -0.0135
    6CHTO    H9 2508   5.979   6.009   1.203  2.9683  1.0208  1.3155
    6CHTO    C4 2509   5.957   5.884   1.522 -0.5862 -0.0183  0.1936
    6CHTO   H17 2510   5.937   5.974   1.579  0.2602 -1.3242  2.6144
    6CHTO    O1 2511   6.044   5.791   1.591  0.3327  0.2321 -0.0866
    6CHTO    C5 2512   6.180   5.838   1.613 -0.3854 -0.2663 -0.0507
    6CHTO   H18 2513   6.159   5.924   1.677 -2.2369 -1.8538  1.5459
    6CHTO   C16 2514   6.251   5.736   1.699  0.1268  0.2661 -0.3354
    6CHTO   O11 2515   6.252   5.616   1.624  0.2523  0.6984  0.1886
    6CHTO    H5 2516   6.166   5.591   1.595  0.8208 -1.9857  0.6758
    6CHTO    O3 2517   5.838   5.804   1.509 -0.1804 -0.4875  0.0461
    6CHTO    C6 2518   5.742   5.815   1.616  0.0505  0.0515 -0.2500
    6CHTO   H19 2519   5.794   5.841   1.708 -0.5387 -0.9426  0.3643
    6CHTO    C8 2520   5.620   5.914   1.585 -0.7147  0.0242 -0.5050
    6CHTO   H21 2521   5.582   5.885   1.487 -1.8728 -0.9622  0.2249
    6CHTO    O7 2522   5.673   6.049   1.577  0.1905  0.2956 -0.1531
    6CHTO    H2 2523   5.614   6.107   1.621 -0.3203  0.1600 -0.6567
    6CHTO   C12 2524   5.511   5.906   1.698 -0.0488  0.4441  0.4516
    6CHTO   H25 2525   5.566   5.929   1.791  0.2176 -1.9975  0.9073
    6CHTO    N3 2526   5.400   6.005   1.662  0.6494 -1.2293  0.6440
    6CHTO   H12 2527   5.339   6.013   1.751  0.6399  2.1525  0.3892
    6CHTO   H13 2528   5.340   5.967   1.580  1.9781 -0.0685 -0.8762
    6CHTO   C15 2529   5.472   5.761   1.722  0.4712  0.2419  0.2245
    6CHTO   H28 2530   5.423   5.708   1.641  0.4901 -1.0072  1.0257
    6CHTO   O10 2531   5.378   5.739   1.848 -0.4658  0.5749  0.1476
    6CHTO    H4 2532   5.424   5.773   1.922  2.1101 -0.2605 -0.9736
    6CHTO    O5 2533   5.586   5.689   1.758  0.0474  0.3464 -0.0820
    6CHTO   C10 2534   5.683   5.674   1.646 -0.1514  0.5340 -0.4969
    6CHTO   H23 2535   5.628   5.631   1.562  0.3136 -3.9581  1.3600
    6CHTO   C17 2536   5.795   5.576   1.672  0.5041  0.4349 -0.5696
    6CHTO   O12 2537   5.749   5.446   1.704  0.0521  0.1774 -0.0733
    6CHTO    H6 2538   5.719   5.437   1.793 -0.6217 -0.1650 -0.3362
    7CHTO  H203 2539   4.875   2.207   2.092 -0.2086 -0.7764 -0.1800
    7CHTO   O82 2540   4.910   2.202   2.005  0.2140  0.5764 -0.0991
    7CHTO  C123 2541   5.049   2.247   2.009 -0.0075  0.2842 -0.2855
    7CHTO  H227 2542   5.045   2.355   2.032  0.0556  0.7107 -2.1901
    7CHTO   O77 2543   5.100   2.167   2.110 -0.1416  0.9477 -0.4498
    7CHTO  C118 2544   5.241   2.187   2.124 -0.8800 -0.5051 -0.2963
    7CHTO  H222 2545   5.258   2.295   2.141 -1.4629 -0.4303 -0.1883
    7CHTO  C125 2546   5.287   2.105   2.263  0.8785 -0.5659 -0.1747
    7CHTO   O84 2547   5.417   2.150   2.314  0.2615 -0.5221  0.2792
    7CHTO  H205 2548   5.472   2.126   2.242 -1.8031  0.8398 -1.8382
    7CHTO  C114 2549   5.321   2.146   1.998 -0.1998 -0.4415 -0.1141
    7CHTO  H218 2550   5.318   2.037   1.998  1.4761 -0.4955  0.1345
    7CHTO  C116 2551   5.274   2.228   1.867  0.1293 -0.6154  0.2998
    7CHTO  H220 2552   5.317   2.331   1.867  0.5501 -0.7710 -1.3240
    7CHTO   O79 2553   5.331   2.176   1.739 -0.4230  0.3418 -0.1189
    7CHTO  H201 2554   5.414   2.219   1.732 -1.0789  2.1473  2.3389
    7CHTO  C120 2555   5.118   2.226   1.862  0.4671 -0.1503 -0.0166
    7CHTO  H224 2556   5.085   2.126   1.825  0.6159 -0.2211  0.0450
    7CHTO   N21 2557   5.065   2.322   1.762  0.1482 -0.3784  0.1628
    7CHTO  H211 2558   5.076   2.284   1.661 -0.1821  0.4942 -0.2038
    7CHTO  H212 2559   4.959   2.326   1.783 -0.2367 -3.0464 -1.0253
    7CHTO   O75 2560   5.458   2.180   2.030  0.0364  0.2625  0.1753
    7CHTO  C112 2561   5.569   2.084   1.980  0.2439 -0.1349 -0.0652
    7CHTO  H216 2562   5.543   2.053   1.878  0.1973 -0.4633  0.0455
    7CHTO   O73 2563   5.580   1.978   2.066 -0.0683 -0.5465  0.3776
    7CHTO  C113 2564   5.681   1.879   2.041 -0.1218  0.6892 -0.2366
    7CHTO  H217 2565   5.669   1.823   1.946  3.1965 -0.1572 -0.2364
    7CHTO  C124 2566   5.671   1.777   2.148 -0.1479 -0.6210 -1.0716
    7CHTO   O83 2567   5.724   1.810   2.274 -0.1929 -0.1097  0.4080
    7CHTO  H204 2568   5.672   1.883   2.301 -2.7253 -0.9704 -1.9056
    7CHTO  C109 2569   5.818   1.949   2.046 -0.0210  0.2416 -0.6320
    7CHTO  H213 2570   5.832   1.987   2.148  1.5901  1.4388 -1.2635
    7CHTO  C110 2571   5.827   2.066   1.949 -0.0820  0.0663  0.2287
    7CHTO  H214 2572   5.827   2.031   1.846  2.4389 -0.6201  0.4232
    7CHTO   O78 2573   5.955   2.136   1.959 -0.3417 -0.1944  0.0350
    7CHTO  H200 2574   5.946   2.217   2.005 -1.0425  0.5347 -1.3821
    7CHTO  C111 2575   5.705   2.163   1.981 -0.4097  0.4261 -0.3658
    7CHTO  H215 2576   5.713   2.205   2.082  0.4964 -0.6348  0.0207
    7CHTO   N19 2577   5.699   2.280   1.887 -0.2065  0.6759 -0.4194
    7CHTO  H207 2578   5.615   2.345   1.907  0.0651 -0.4577  5.1616
    7CHTO  H208 2579   5.708   2.253   1.783  0.2057 -1.1753  0.0693
    7CHTO   O74 2580   5.926   1.858   2.010  0.0901  0.5601  0.2697
    7CHTO  C115 2581   6.046   1.869   2.114  0.0447  0.4033  0.6837
    7CHTO  H219 2582   6.064   1.971   2.148  3.8007 -0.1764  0.7186
    7CHTO   O76 2583   6.020   1.781   2.253  0.0895  0.6736  0.7296
    7CHTO  C122 2584   6.128   1.771   2.347 -0.4333  0.4498 -0.0894
    7CHTO  H226 2585   6.117   1.676   2.398 -0.0005  0.8797  0.8063
    7CHTO  C126 2586   6.122   1.885   2.457 -0.0064 -0.1755 -0.2193
    7CHTO   O85 2587   6.111   2.015   2.405  0.2367  0.2933  0.2289
    7CHTO  H206 2588   6.110   2.082   2.472  1.2493  1.9238 -1.3426
    7CHTO  C121 2589   6.266   1.745   2.272  0.0257  0.2273 -0.2577
    7CHTO  H225 2590   6.328   1.836   2.284 -0.4311  0.4804  0.2334
    7CHTO   O81 2591   6.335   1.639   2.336  0.1541 -0.2738  0.0322
    7CHTO  H202 2592   6.409   1.606   2.288  0.6254  1.9320 -0.8657
    7CHTO  C119 2593   6.247   1.715   2.124  0.3124  0.7786 -0.1505
    7CHTO  H223 2594   6.349   1.694   2.094 -0.2217 -2.5293  0.2199
    7CHTO  C117 2595   6.183   1.827   2.044 -0.5968  0.0915  0.1337
    7CHTO  H221 2596   6.157   1.788   1.946  2.4060 -1.7362 -0.0141
    7CHTO   N20 2597   6.285   1.939   2.017 -0.1983  1.2525  0.1612
    7CHTO  H209 2598   6.301   1.962   1.913 -2.1092  0.6453 -0.2786
    7CHTO  H210 2599   6.244   2.027   2.066 -1.4830  1.0233 -0.4659
    7CHTO   O80 2600   6.179   1.576   2.094  0.2407 -0.0304 -0.2688
    7CHTO  C103 2601   6.203   1.499   1.974  0.5657  0.3302  0.2206
    7CHTO  H190 2602   6.175   1.561   1.888  0.4047 -0.2063 -0.1160
    7CHTO  C101 2603   6.344   1.425   1.961  0.5509  0.6701 -0.2941
    7CHTO  H188 2604   6.363   1.367   2.051  0.2418  0.5174 -0.3278
    7CHTO   O68 2605   6.467   1.521   1.929 -0.3363  0.0544 -0.1009
    7CHTO  H168 2606   6.538   1.464   1.906 -0.2008 -1.0706  2.9088
    7CHTO   C99 2607   6.331   1.309   1.850  0.5559 -0.3395 -0.0648
    7CHTO  H186 2608   6.312   1.346   1.747 -0.4480  2.0915  0.9582
    7CHTO   N17 2609   6.458   1.222   1.840 -0.4962  0.2154 -0.0390
    7CHTO  H174 2610   6.460   1.134   1.777  1.5845  1.0759 -1.2356
    7CHTO  H175 2611   6.486   1.195   1.941 -0.1725  1.2917  0.1600
    7CHTO   C97 2612   6.211   1.219   1.881 -0.1183 -0.4215  0.1912
    7CHTO  H184 2613   6.234   1.149   1.963 -1.1146 -1.3868 -0.3433
    7CHTO   O64 2614   6.090   1.286   1.898  0.6355  0.3050  0.3264
    7CHTO  C104 2615   6.090   1.386   2.000  0.0783 -0.1802 -0.1266
    7CHTO  H191 2616   6.105   1.354   2.103  0.3829  1.5142  0.3775
    7CHTO  C108 2617   5.951   1.454   1.995  0.5603 -0.1635 -0.4539
    7CHTO   O71 2618   5.838   1.366   2.018 -0.1086  0.1776 -0.7835
    7CHTO  H171 2619   5.845   1.288   1.965 -1.6482  0.4988 -1.4794
    7CHTO   O62 2620   6.173   1.147   1.762 -0.0620 -0.5870 -0.8205
    7CHTO   C91 2621   6.115   1.013   1.762 -0.0488 -0.1066  0.0893
    7CHTO  H178 2622   6.198   0.946   1.741 -0.7713 -1.3405  1.0084
    7CHTO   C92 2623   6.023   0.987   1.631 -0.3849 -0.4376  0.1931
    7CHTO  H179 2624   6.081   1.028   1.547  0.1316 -1.0515  0.2500
    7CHTO   O66 2625   6.009   0.843   1.598 -0.3930 -0.4375 -0.1379
    7CHTO  H166 2626   5.941   0.802   1.647 -1.2078 -0.8850 -1.6238
    7CHTO   C93 2627   5.877   1.046   1.634  0.6030  0.0087 -0.4849
    7CHTO  H180 2628   5.807   0.995   1.567  0.5279 -1.4681  0.6923
    7CHTO   N16 2629   5.868   1.184   1.587  0.1479  0.0884  0.0690
    7CHTO  H172 2630   5.770   1.225   1.606  0.0271 -0.9441  1.7445
    7CHTO  H173 2631   5.945   1.243   1.634 -0.2714  0.2919  0.5057
    7CHTO   C94 2632   5.827   1.038   1.788  0.3492 -0.0915 -0.6627
    7CHTO  H181 2633   5.838   1.130   1.844 -0.9144 -1.4245  1.8574
    7CHTO   O61 2634   5.897   0.941   1.866 -0.1155 -0.1588 -0.7672
    7CHTO   C95 2635   6.039   0.960   1.891  0.3810  0.3660  0.2965
    7CHTO  H182 2636   6.054   1.024   1.978 -0.8764  1.2188 -0.1035
    7CHTO  C106 2637   6.089   0.812   1.930 -0.0537 -0.4561 -0.5468
    7CHTO   O69 2638   6.041   0.754   2.053  0.3092  0.1877 -0.2972
    7CHTO  H169 2639   5.965   0.704   2.034  1.5518 -2.3476  1.1404
    7CHTO   O63 2640   5.674   1.006   1.787 -0.4244 -0.1483  0.3776
    7CHTO   C96 2641   5.583   1.077   1.889 -0.8692  0.5917  0.8408
    7CHTO  H183 2642   5.585   1.183   1.862  2.2105  0.3152 -0.2115
    7CHTO   C98 2643   5.625   1.069   2.036  0.4493 -0.1509 -0.1392
    7CHTO  H185 2644   5.726   1.110   2.050  0.3282  0.5866 -1.3337
    7CHTO   O67 2645   5.541   1.167   2.101  0.4102  0.2176 -0.0158
    7CHTO  H167 2646   5.601   1.214   2.155  1.7406 -2.2997  0.7485
    7CHTO  C102 2647   5.612   0.924   2.109 -0.7843  0.0967  0.0004
    7CHTO  H189 2648   5.593   0.948   2.215 -0.5512 -1.1147  0.3243
    7CHTO   N18 2649   5.739   0.849   2.113  0.0158  0.0290  0.5319
    7CHTO  H176 2650   5.782   0.824   2.017  0.8464 -0.1171  0.9442
    7CHTO  H177 2651   5.809   0.903   2.175 -1.1764  1.1563  0.9170
    7CHTO  C105 2652   5.497   0.851   2.036  0.7621 -0.0130  0.7278
    7CHTO  H192 2653   5.537   0.798   1.950  1.0204 -1.0491  1.4693
    7CHTO   O65 2654   5.390   0.938   1.986 -0.1235 -0.1901 -0.1289
    7CHTO  C100 2655   5.440   1.024   1.880  0.2501  0.5603 -0.0565
    7CHTO  H187 2656   5.443   0.973   1.782 -3.9998  0.4233 -0.2217
    7CHTO  C107 2657   5.342   1.139   1.859 -0.2078  0.5351 -0.3190
    7CHTO   O70 2658   5.340   1.196   1.731  0.3061 -0.3278  0.3895
    7CHTO  H170 2659   5.426   1.208   1.694  0.3564 -0.4918  0.4530
    7CHTO   O57 2660   5.447   0.754   2.150 -0.2127 -0.5847  0.3301
    7CHTO   C85 2661   5.409   0.619   2.118  0.5604  1.0191  0.0692
    7CHTO  H157 2662   5.453   0.607   2.017 -2.0992  0.4463 -1.0536
    7CHTO   C83 2663   5.250   0.592   2.101 -0.3658 -0.4590  0.0175
    7CHTO  H155 2664   5.214   0.661   2.025 -0.3542  0.2302  0.6337
    7CHTO   O56 2665   5.179   0.640   2.220  0.0394  0.0058  0.4500
    7CHTO  H135 2666   5.189   0.733   2.228 -2.2896  0.3349 -0.0296
    7CHTO   C81 2667   5.223   0.447   2.053  0.5853  0.1219  0.4966
    7CHTO  H153 2668   5.279   0.430   1.960  2.2919  1.0910  1.3162
    7CHTO   N14 2669   5.085   0.412   2.020  0.3944  0.1272  0.2439
    7CHTO  H141 2670   5.070   0.311   1.987 -0.6282  0.7084 -1.1133
    7CHTO  H142 2671   5.029   0.427   2.109  0.1856  4.8363 -0.5612
    7CHTO   C79 2672   5.285   0.348   2.161  0.3698  0.9562 -0.5769
    7CHTO  H151 2673   5.286   0.247   2.119  1.3859  0.3973  0.7425
    7CHTO   O52 2674   5.422   0.372   2.195  0.3172  0.4126 -0.0359
    7CHTO   C86 2675   5.467   0.508   2.225 -0.1856  0.4095  0.0714
    7CHTO  H158 2676   5.421   0.512   2.326 -1.2189 -1.4928 -0.2872
    7CHTO   C90 2677   5.610   0.511   2.245  0.3180 -0.2757 -0.0621
    7CHTO   O60 2678   5.690   0.467   2.133 -0.4445  0.1362  0.1894
    7CHTO  H138 2679   5.671   0.378   2.112 -0.4217 -0.0053  0.7553
    7CHTO   O50 2680   5.213   0.348   2.288 -0.1131 -0.1453 -0.6135
    7CHTO   C73 2681   5.206   0.236   2.376  0.0247  0.3024 -0.7688
    7CHTO  H145 2682   5.301   0.181   2.374 -0.9184 -1.3388 -0.8369
    7CHTO   C74 2683   5.098   0.143   2.329  0.4802 -0.0038  0.2348
    7CHTO  H146 2684   5.117   0.105   2.227  1.0189 -0.8049  0.6239
    7CHTO   O54 2685   5.108   0.018   2.406  0.5927 -0.2289 -0.0340
    7CHTO  H133 2686   5.056  -0.049   2.366  0.3281 -1.5204  2.3654
    7CHTO   C75 2687   4.951   0.205   2.345  0.0602  0.4374 -0.2194
    7CHTO  H147 2688   4.948   0.295   2.282 -0.8625  0.5860  0.0256
    7CHTO   N13 2689   4.838   0.119   2.299  0.0613  0.5236  0.0587
    7CHTO  H139 2690   4.865   0.016   2.318 -1.4379 -0.1377 -1.3266
    7CHTO  H140 2691   4.830   0.123   2.192 -2.8954 -0.9035  0.1739
    7CHTO   C76 2692   4.935   0.246   2.499 -0.4020  0.2110 -0.6850
    7CHTO  H148 2693   4.934   0.159   2.565 -2.0601 -0.8538 -2.0718
    7CHTO   O49 2694   5.045   0.330   2.545  0.4514  0.0062  0.8261
    7CHTO   C77 2695   5.181   0.278   2.524 -0.2741 -0.5063 -0.0997
    7CHTO  H149 2696   5.194   0.192   2.589 -0.6026 -1.3071 -1.0670
    7CHTO   C88 2697   5.288   0.377   2.566  0.3258  0.3139  0.2318
    7CHTO   O58 2698   5.279   0.395   2.713  0.3818 -0.3257  0.0320
    7CHTO  H136 2699   5.240   0.477   2.734 -0.2793 -0.8426  0.8702
    7CHTO   O51 2700   4.801   0.341   2.534 -0.5564  0.1186 -0.1576
    7CHTO   C78 2701   4.790   0.368   2.695 -0.6538 -0.2592  0.1971
    7CHTO  H150 2702   4.875   0.331   2.756 -0.6582 -0.6126 -0.0116
    7CHTO   C80 2703   4.661   0.291   2.737 -0.5721  0.4459  0.5473
    7CHTO  H152 2704   4.580   0.331   2.672 -0.4935 -0.2747 -0.0051
    7CHTO   O55 2705   4.689   0.150   2.703  0.6152 -0.1961  0.5046
    7CHTO  H134 2706   4.599   0.123   2.704  0.8490 -1.0179  0.5329
    7CHTO   C84 2707   4.623   0.304   2.890 -0.5822  0.8128 -0.3630
    7CHTO  H156 2708   4.701   0.261   2.953 -1.5566 -0.9150 -0.3229
    7CHTO   N15 2709   4.503   0.225   2.936  0.2493 -0.0702  0.0336
    7CHTO  H143 2710   4.519   0.120   2.949 -0.7424 -0.0880  1.2360
    7CHTO  H144 2711   4.478   0.266   3.031  2.3724  1.5812 -0.0995
    7CHTO   C87 2712   4.611   0.455   2.925 -0.0442 -0.3459 -0.6117
    7CHTO  H159 2713   4.524   0.499   2.877 -0.6173 -1.4270 -0.5710
    7CHTO   O53 2714   4.746   0.525   2.871  0.3743 -0.2791  0.1546
    7CHTO   C82 2715   4.765   0.511   2.734  0.0630  0.1054  0.1603
    7CHTO  H154 2716   4.674   0.543   2.683  0.9354 -0.3486 -1.6923
    7CHTO   C89 2717   4.869   0.611   2.707  0.1064 -0.1703 -0.3607
    7CHTO   O59 2718   4.903   0.603   2.567 -0.5237  0.0459  0.4132
    7CHTO  H137 2719   4.940   0.519   2.548 -0.8606  0.2379 -1.1749
    7CHTO   O45 2720   4.601   0.480   3.095  0.9618 -0.1797  0.3645
    7CHTO   C67 2721   4.678   0.588   3.160 -0.5532  0.5630  0.1145
    7CHTO  H124 2722   4.768   0.607   3.102 -0.6252 -1.2164 -0.6198
    7CHTO   C65 2723   4.588   0.718   3.158  0.3983 -0.7722 -0.5591
    7CHTO  H122 2724   4.487   0.679   3.160  0.8365 -1.9017  2.3867
    7CHTO   O44 2725   4.615   0.793   3.040 -0.1659  0.4750  0.3089
    7CHTO  H102 2726   4.543   0.853   3.026  1.1949  1.4292 -3.2678
    7CHTO   C63 2727   4.607   0.799   3.293 -0.3419 -0.5594  0.0459
    7CHTO  H120 2728   4.549   0.749   3.370  1.0644 -0.2291  1.3541
    7CHTO   N11 2729   4.538   0.930   3.302 -0.3436 -0.0239  0.3470
    7CHTO  H108 2730   4.541   0.960   3.404  1.5089  0.1122  0.2849
    7CHTO  H109 2731   4.594   0.990   3.234  3.5912 -1.7887  1.8595
    7CHTO   C61 2732   4.750   0.793   3.349  0.3389  0.1189 -0.4166
    7CHTO  H118 2733   4.748   0.849   3.444 -0.6784  3.4533 -2.3358
    7CHTO   O40 2734   4.803   0.651   3.369  0.0356  0.2159  0.3360
    7CHTO   C68 2735   4.727   0.540   3.301  0.5487  0.1613 -0.1738
    7CHTO  H125 2736   4.641   0.510   3.365  0.0117  1.2717 -0.3599
    7CHTO   C72 2737   4.807   0.410   3.279 -0.9960 -0.0783  0.3594
    7CHTO   O48 2738   4.733   0.296   3.316 -0.9335  0.2810 -0.5341
    7CHTO  H105 2739   4.770   0.259   3.394 -1.5572 -0.4319 -0.5768
    7CHTO   O38 2740   4.836   0.862   3.259 -0.1951 -0.1464 -0.3972
    7CHTO   C55 2741   4.976   0.864   3.297  0.7243  0.1049 -0.3909
    7CHTO  H112 2742   4.994   0.794   3.380 -1.7336 -1.2283 -0.9292
    7CHTO   C56 2743   5.011   1.012   3.337 -0.4374 -0.5275  0.1103
    7CHTO  H113 2744   4.980   1.078   3.254 -0.6529  1.3261  1.6334
    7CHTO   O42 2745   4.930   1.065   3.442  0.0652 -0.1567 -0.3898
    7CHTO  H100 2746   4.889   0.993   3.485 -1.5563 -0.9469 -3.1368
    7CHTO   C57 2747   5.165   1.025   3.371 -0.5961  0.1831  0.0332
    7CHTO  H114 2748   5.193   0.972   3.463  1.4083  2.1396  0.6063
    7CHTO   N10 2749   5.213   1.161   3.409 -0.6581  0.2205  0.9154
    7CHTO  H106 2750   5.320   1.175   3.407 -0.5328 -0.6154  1.3662
    7CHTO  H107 2751   5.177   1.177   3.509 -1.3697  0.1014  0.6807
    7CHTO   C58 2752   5.250   0.964   3.255 -0.5011  0.3178 -0.2363
    7CHTO  H115 2753   5.234   1.023   3.162  0.1153 -1.1999 -1.3261
    7CHTO   O37 2754   5.206   0.828   3.251  0.3802 -0.7305  0.4883
    7CHTO   C59 2755   5.075   0.821   3.186  0.9337 -0.0410  0.1403
    7CHTO  H116 2756   5.059   0.883   3.098  0.1345 -0.3050  0.0960
    7CHTO   C70 2757   5.051   0.678   3.130  0.5917 -0.1931 -0.5290
    7CHTO   O46 2758   5.130   0.645   3.018 -0.4253 -0.1850  0.5542
    7CHTO  H103 2759   5.199   0.587   3.044  0.2676 -0.6395 -2.1396
    7CHTO   O39 2760   5.429   0.970   3.286  0.2189  0.3173  0.4283
    7CHTO   C60 2761   5.499   0.871   3.215 -0.3341 -1.0735 -0.2751
    7CHTO  H117 2762   5.464   0.772   3.243 -1.9062 -0.6378 -0.6451
    7CHTO   C62 2763   5.486   0.893   3.063  0.6021  0.0231  0.4641
    7CHTO  H119 2764   5.377   0.911   3.052  0.7497  1.5438  1.3680
    7CHTO   O43 2765   5.545   1.014   3.017  0.2380 -0.4694 -0.2025
    7CHTO  H101 2766   5.567   1.028   2.927  1.1702 -1.8447 -0.2157
    7CHTO   C66 2767   5.550   0.767   2.991 -0.3263 -0.2513 -0.5086
    7CHTO  H123 2768   5.505   0.676   3.032 -1.4703  0.1619 -0.8201
    7CHTO   N12 2769   5.501   0.754   2.852  0.1534  0.3908  0.1353
    7CHTO  H110 2770   5.548   0.816   2.777  1.3014  0.3155  0.7996
    7CHTO  H111 2771   5.469   0.656   2.821 -0.4141 -0.2120  2.5395
    7CHTO   C69 2772   5.699   0.776   3.017 -0.6499  0.1675 -0.4711
    7CHTO  H126 2773   5.738   0.871   2.976  0.1989 -0.4992 -1.2467
    7CHTO   O41 2774   5.722   0.775   3.172 -0.3010  0.4999  0.5962
    7CHTO   C64 2775   5.650   0.878   3.249 -0.0583 -0.0066 -0.2624
    7CHTO  H121 2776   5.689   0.978   3.219 -2.3002  0.7474 -0.7974
    7CHTO   C71 2777   5.660   0.861   3.405 -0.1933  0.4595 -0.3507
    7CHTO   O47 2778   5.655   0.726   3.443  0.4441 -0.2189  0.0655
    7CHTO  H104 2779   5.708   0.670   3.390  2.3152  0.6357  0.9923
    7CHTO   O34 2780   5.784   0.665   2.937  0.6443 -0.0734  0.2279
    7CHTO   C49 2781   5.845   0.572   2.837  0.0884  0.0296  0.5100
    7CHTO   H91 2782   5.900   0.492   2.886  0.1717 -0.5943 -0.5830
    7CHTO   C47 2783   5.950   0.655   2.754  0.0064  0.2563  0.5881
    7CHTO   H89 2784   6.036   0.641   2.823 -0.8499  1.0308  1.8351
    7CHTO   O33 2785   5.911   0.794   2.748 -0.2638  0.6531 -0.1899
    7CHTO   H70 2786   5.828   0.795   2.703  0.4037  0.3734 -1.4727
    7CHTO   C45 2787   5.967   0.599   2.600 -0.2270  0.0542  0.1670
    7CHTO   H87 2788   5.889   0.651   2.542 -2.5006 -3.1747  0.1865
    7CHTO    N8 2789   6.098   0.636   2.536  0.6096  0.1138 -0.6056
    7CHTO   H75 2790   6.148   0.722   2.579  0.4197  0.3180 -0.7912
    7CHTO   H76 2791   6.087   0.647   2.429 -0.7595 -0.6356 -0.5502
    7CHTO   C43 2792   5.930   0.448   2.592  0.0421 -0.2997  0.2434
    7CHTO   H85 2793   5.950   0.416   2.490 -0.4388 -1.9038  0.6357
    7CHTO   O29 2794   5.794   0.423   2.631  0.1381  0.4928 -0.2559
    7CHTO   C50 2795   5.742   0.495   2.749  0.4866 -0.2214  0.4006
    7CHTO   H92 2796   5.667   0.564   2.709  1.2915  1.8545  2.3470
    7CHTO   C54 2797   5.660   0.390   2.831  0.3204  0.0030  0.0492
    7CHTO   O36 2798   5.589   0.448   2.935 -0.1351  0.2929 -0.1182
    7CHTO   H72 2799   5.523   0.503   2.897  0.0277  3.9424  4.4807
    7CHTO   O27 2800   6.026   0.368   2.668  0.0646 -0.1338  0.0131
    7CHTO   C37 2801   6.066   0.260   2.750 -0.4480 -0.0342 -0.5895
    7CHTO   H79 2802   6.034   0.276   2.854  0.7651  0.2851 -0.2574
    7CHTO   C38 2803   5.995   0.127   2.715  0.3520  0.2536 -0.5141
    7CHTO   H80 2804   5.990   0.114   2.606 -0.0647 -0.8410 -0.3745
    7CHTO   O31 2805   5.864   0.146   2.765  0.4355  0.7764 -0.2033
    7CHTO   H68 2806   5.806   0.124   2.694  1.4960 -3.3507  0.0334
    7CHTO   C39 2807   6.048  -0.006   2.783  0.1494 -0.2967 -0.0059
    7CHTO   H81 2808   6.027  -0.007   2.890 -1.4562 -0.5116 -0.3159
    7CHTO    N7 2809   6.000  -0.126   2.709 -0.0223  0.1167 -0.4072
    7CHTO   H73 2810   6.042  -0.121   2.610  0.1148 -0.9602 -0.4053
    7CHTO   H74 2811   6.014  -0.223   2.754 -1.2174  0.5801  1.0089
    7CHTO   C40 2812   6.207  -0.001   2.794  0.0901 -0.2238  0.9509
    7CHTO   H82 2813   6.253  -0.015   2.697 -0.2897 -0.7649  0.8487
    7CHTO   O26 2814   6.245   0.125   2.850  0.2411  0.0904  0.0872
    7CHTO   C41 2815   6.213   0.228   2.751 -0.3200 -0.5297  0.1169
    7CHTO   H83 2816   6.230   0.183   2.652  1.3750 -0.2458  0.2717
    7CHTO   C52 2817   6.293   0.350   2.776 -0.3910  0.0150 -0.6481
    7CHTO   O35 2818   6.446   0.308   2.755  0.0631 -0.2003  0.2409
    7CHTO   H71 2819   6.504   0.366   2.711  0.2646  0.4399  1.3354
    7CHTO   O28 2820   6.264  -0.099   2.874  0.1011  0.3389 -0.3350
    7CHTO   C42 2821   6.399  -0.147   2.850  0.2477  0.3796  0.0148
    7CHTO   H84 2822   6.420  -0.206   2.939  1.5518  1.9612  0.8020
    7CHTO   C44 2823   6.509  -0.040   2.846  0.8224 -0.1563  0.5812
    7CHTO   H86 2824   6.487   0.034   2.769  3.0363  0.0349  0.0890
    7CHTO   O32 2825   6.514   0.026   2.980 -0.2191 -0.1691  0.2557
    7CHTO   H69 2826   6.442   0.085   2.996 -0.0204  0.2184 -0.2513
    7CHTO   C48 2827   6.648  -0.091   2.792 -0.2277  0.1192  0.0732
    7CHTO   H90 2828   6.696  -0.143   2.875  2.5626 -0.3681 -1.7959
    7CHTO    N9 2829   6.741   0.023   2.761 -0.4038  0.3322 -0.8553
    7CHTO   H77 2830   6.845  -0.006   2.761 -0.7777 -1.0318  0.0763
    7CHTO   H78 2831   6.712   0.116   2.807 -1.0171  0.0431 -0.6462
    7CHTO   C51 2832   6.635  -0.169   2.655  0.1671  0.5489  0.4847
    7CHTO   H93 2833   6.602  -0.107   2.572 -3.7680 -2.4797 -0.3010
    7CHTO   O30 2834   6.549  -0.277   2.674 -0.3407 -0.7005 -0.4741
    7CHTO   C46 2835   6.401  -0.244   2.723  0.3189 -0.2407 -0.3334
    7CHTO   H88 2836   6.353  -0.194   2.639 -1.0596  0.6331  0.9574
    7CHTO   C53 2837   6.317  -0.364   2.758 -0.5799  0.5106 -0.1313
    7CHTO   O72 2838   6.298  -0.452   2.647  0.6943  0.1774  0.3770
    7CHTO  H199 2839   6.361  -0.452   2.577 -0.8022 -2.4214 -1.0427
    7CHTO   O22 2840   6.762  -0.229   2.607 -0.5639 -0.5853 -0.6697
    7CHTO   C31 2841   6.780  -0.274   2.466  0.3457 -0.5788 -0.7225
    7CHTO   H59 2842   6.861  -0.349   2.475  0.1756 -0.5635  1.1012
    7CHTO   C29 2843   6.653  -0.335   2.397 -0.3519 -0.0930 -0.1810
    7CHTO   H57 2844   6.562  -0.286   2.434 -0.4901 -0.9397  0.6137
    7CHTO   O21 2845   6.636  -0.474   2.444  0.1158  0.8411 -0.2683
    7CHTO   H37 2846   6.575  -0.527   2.397 -1.5624  0.7765  1.9063
    7CHTO   C27 2847   6.649  -0.336   2.245 -0.4752  0.8068  0.1389
    7CHTO   H55 2848   6.721  -0.407   2.202  0.8128  2.4655 -0.5219
    7CHTO    N5 2849   6.514  -0.366   2.186  0.2173  0.2610 -0.4565
    7CHTO   H43 2850   6.450  -0.279   2.191 -0.0860  0.0837 -1.2571
    7CHTO   H44 2851   6.519  -0.405   2.085 -0.3239 -1.8986  0.3306
    7CHTO   C25 2852   6.695  -0.192   2.195  0.4463 -0.1408 -0.0973
    7CHTO   H53 2853   6.633  -0.112   2.238  1.1503  0.4602 -0.1910
    7CHTO   O17 2854   6.833  -0.171   2.235  0.2983 -0.0132 -0.6749
    7CHTO   C32 2855   6.839  -0.161   2.379  0.6766 -0.1344  0.6121
    7CHTO   H60 2856   6.788  -0.066   2.400 -0.1686 -0.3851 -0.2806
    7CHTO   C36 2857   6.991  -0.138   2.412 -0.2924 -0.3367 -0.2464
    7CHTO   O25 2858   7.045  -0.012   2.373  0.1127 -0.3267 -0.3476
    7CHTO   H40 2859   7.027   0.043   2.447  0.6043 -0.2195 -0.3114
    7CHTO   O15 2860   6.684  -0.163   2.020  0.2626  0.1162  0.3637
    7CHTO   C19 2861   6.649  -0.059   1.928  0.1416  0.0560  0.1881
    7CHTO   H47 2862   6.652  -0.116   1.834 -0.6010 -0.9583  0.7691
    7CHTO   C20 2863   6.510   0.015   1.945 -0.1115 -0.3327  0.1219
    7CHTO   H48 2864   6.496   0.056   2.046 -0.5518  1.5211 -0.6800
    7CHTO   O19 2865   6.409  -0.095   1.931  0.2251  0.3797 -0.3919
    7CHTO   H35 2866   6.419  -0.134   1.846  0.8215 -0.2577 -0.0352
    7CHTO   C21 2867   6.497   0.126   1.833  0.1858 -0.7990  0.2786
    7CHTO   H49 2868   6.502   0.073   1.737  0.3953  0.1697 -0.2467
    7CHTO    N4 2869   6.370   0.193   1.838 -0.1317  0.7219 -0.1734
    7CHTO   H41 2870   6.361   0.272   1.911  0.7669  1.4221 -0.7979
    7CHTO   H42 2871   6.286   0.126   1.845  1.5960 -1.5866 -1.0465
    7CHTO   C22 2872   6.616   0.221   1.849  0.1827  0.2931 -0.5366
    7CHTO   H50 2873   6.604   0.264   1.948  2.0616  0.3648 -0.3203
    7CHTO   O14 2874   6.740   0.151   1.829  0.4284  0.3345 -0.3330
    7CHTO   C23 2875   6.766   0.047   1.920 -0.3996  0.0766 -0.2618
    7CHTO   H51 2876   6.790   0.085   2.020  1.6787 -0.4443 -0.5470
    7CHTO   C34 2877   6.904  -0.020   1.894 -0.2183 -1.2233 -0.1595
    7CHTO   O23 2878   7.007   0.077   1.889  0.5079  0.1274 -0.3923
    7CHTO   H38 2879   7.007   0.114   1.975  1.5896  1.7967 -1.0833
    7CHTO   O16 2880   6.623   0.325   1.752  0.3005 -0.6025  0.1159
    7CHTO   C24 2881   6.645   0.472   1.802  0.7962 -0.0591  0.0618
    7CHTO   H52 2882   6.657   0.477   1.910 -0.2355  0.0376  0.1699
    7CHTO   C26 2883   6.535   0.557   1.748 -0.8184  0.2837 -0.0473
    7CHTO   H54 2884   6.521   0.529   1.642  0.3332  1.1487 -0.4320
    7CHTO   O20 2885   6.415   0.524   1.820 -0.7399 -0.0058  0.3834
    7CHTO   H36 2886   6.345   0.571   1.779  0.1478  0.1075 -1.0460
    7CHTO   C30 2887   6.564   0.712   1.763 -0.7849 -0.0365  0.2439
    7CHTO   H58 2888   6.550   0.742   1.869 -0.2035 -0.6868  0.5020
    7CHTO    N6 2889   6.463   0.793   1.683 -0.4492  0.2821  0.1084
    7CHTO   H45 2890   6.442   0.887   1.732  2.2540  0.8334  0.2878
    7CHTO   H46 2891   6.510   0.812   1.588 -0.0076 -1.3372 -0.0014
    7CHTO   C33 2892   6.717   0.739   1.725  0.6817 -1.0143  0.0945
    7CHTO   H61 2893   6.728   0.730   1.616 -0.4619  0.4306 -0.1669
    7CHTO   O18 2894   6.814   0.653   1.785  0.0103  0.2996  0.2600
    7CHTO   C28 2895   6.787   0.516   1.745 -0.4833 -0.2158  0.1256
    7CHTO   H56 2896   6.784   0.516   1.636  1.6828  1.1557  0.0493
    7CHTO   C35 2897   6.908   0.431   1.807 -0.0496  0.4009  0.1958
    7CHTO   O24 2898   6.936   0.336   1.703 -0.0755  0.2241 -0.4943
    7CHTO   H39 2899   7.006   0.276   1.722  0.9848  2.1065  1.6844
    7CHTO    O9 2900   6.747   0.878   1.754  0.7610  0.4448 -0.5995
    7CHTO   C13 2901   6.877   0.948   1.660  0.8964  0.7392  0.5402
    7CHTO   H26 2902   6.840   0.924   1.558 -1.1206  2.2185  0.8866
    7CHTO   C11 2903   7.015   0.882   1.690 -0.0769 -0.3036  0.2581
    7CHTO   H24 2904   7.011   0.783   1.640  0.6182 -0.3846  0.3519
    7CHTO    O8 2905   7.033   0.854   1.828 -0.8829  0.2761 -0.2209
    7CHTO    H3 2906   7.088   0.780   1.844  0.8208  1.3960 -0.7696
    7CHTO    C9 2907   7.122   0.964   1.618 -0.1194 -0.6381 -0.7954
    7CHTO   H22 2908   7.087   0.973   1.515 -0.4401 -1.1415 -0.7365
    7CHTO    N2 2909   7.252   0.893   1.610  0.2263 -0.6370 -0.2357
    7CHTO   H10 2910   7.279   0.891   1.506  0.6730  0.7623 -0.1591
    7CHTO   H11 2911   7.330   0.950   1.658  0.6565 -1.1696 -0.3006
    7CHTO    C7 2912   7.122   1.113   1.681 -0.5290  0.0081  0.4503
    7CHTO   H20 2913   7.208   1.157   1.628 -0.1659 -1.8207 -0.4925
    7CHTO    O4 2914   6.995   1.180   1.658 -0.1827 -0.1801 -0.3301
    7CHTO   C14 2915   6.877   1.103   1.694 -0.3896 -0.1818 -0.1951
    7CHTO   H27 2916   6.806   1.159   1.630  2.2219  0.0874 -2.9983
    7CHTO   C18 2917   6.844   1.128   1.843  0.0365  0.3364  0.2295
    7CHTO   O13 2918   6.802   1.265   1.869 -0.3573  0.6369 -0.6571
    7CHTO    H7 2919   6.709   1.272   1.861 -0.2914  0.2231 -1.9498
    7CHTO    O2 2920   7.185   1.120   1.841  0.2711 -0.1051  0.4519
    7CHTO    C1 2921   7.230   1.251   1.862 -0.1223  0.0357 -0.1224
    7CHTO   H14 2922   7.163   1.317   1.803 -0.2753  0.7236  0.8050
    7CHTO    C2 2923   7.381   1.273   1.819  0.4633 -0.1486 -0.7946
    7CHTO   H15 2924   7.440   1.202   1.880  1.5614 -0.9600 -2.7583
    7CHTO    O6 2925   7.407   1.243   1.682 -0.1036  0.6614 -0.0493
    7CHTO    H1 2926   7.492   1.203   1.677 -0.8057 -1.1217  1.6558
    7CHTO    C3 2927   7.422   1.420   1.858 -0.6257  0.0764 -0.5451
    7CHTO   H16 2928   7.354   1.483   1.798 -1.3707  1.6107  1.8302
    7CHTO    N1 2929   7.566   1.455   1.829 -0.1538  0.1665  0.2515
    7CHTO    H8 2930   7.635   1.419   1.903 -0.4125  0.0710  0.4471
    7CHTO    H9 2931   7.598   1.423   1.731 -0.9143 -1.4106  0.5072
    7CHTO    C4 2932   7.380   1.456   2.012 -0.0371  0.1190  0.6717
    7CHTO   H17 2933   7.436   1.391   2.080 -1.5352 -3.9646 -1.7638
    7CHTO    O1 2934   7.241   1.434   2.032 -0.3686 -0.1047  0.2003
    7CHTO    C5 2935   7.207   1.290   2.012  0.0565 -0.2099  0.0520
    7CHTO   H18 2936   7.279   1.230   2.069 -0.6414  0.9722  2.2552
    7CHTO   C16 2937   7.073   1.271   2.082  0.1548 -0.0788  0.4501
    7CHTO   O11 2938   7.047   1.130   2.114  0.1281 -0.3116  0.4894
    7CHTO    H5 2939   6.960   1.133   2.148  0.2351  2.2131  0.7004
    7CHTO    O3 2940   7.404   1.587   2.056  0.7241 -0.4067  0.4102
    7CHTO    C6 2941   7.453   1.610   2.192 -0.0228  0.0585 -0.5056
    7CHTO   H19 2942   7.492   1.521   2.242  1.2113  0.0286 -1.4919
    7CHTO    C8 2943   7.560   1.726   2.193 -0.1977  0.3661  0.0620
    7CHTO   H21 2944   7.513   1.817   2.155 -1.4120 -0.8832 -1.5174
    7CHTO    O7 2945   7.659   1.694   2.094  0.5729  0.0596  0.5531
    7CHTO    H2 2946   7.700   1.772   2.062 -2.6090  0.9684 -1.6216
    7CHTO   C12 2947   7.619   1.745   2.332 -0.2469  0.5280  0.3929
    7CHTO   H25 2948   7.660   1.644   2.354  0.5667  0.3356 -1.8746
    7CHTO    N3 2949   7.726   1.844   2.344 -0.0964  0.6333  0.3911
    7CHTO   H12 2950   7.732   1.893   2.248  1.7262 -0.1191  0.1007
    7CHTO   H13 2951   7.820   1.801   2.374  0.9847  2.7419  0.0576
    7CHTO   C15 2952   7.497   1.765   2.435  0.0271 -0.5205 -0.0317
    7CHTO   H28 2953   7.475   1.872   2.441  3.4349  0.2369 -0.4087
    7CHTO   O10 2954   7.536   1.720   2.583 -0.3054 -0.4786 -0.1065
    7CHTO    H4 2955   7.596   1.648   2.576  0.2994  0.0362 -0.2028
    7CHTO    O5 2956   7.386   1.677   2.420  0.7447 -0.4406 -0.2182
    7CHTO   C10 2957   7.334   1.669   2.284  0.0743  0.2142  0.0294
    7CHTO   H23 2958   7.303   1.770   2.258 -0.1190  0.3194  0.6635
    7CHTO   C17 2959   7.207   1.581   2.298  0.5732 -0.0386 -0.3758
    7CHTO   O12 2960   7.103   1.673   2.349 -0.2972  0.4115 -0.1911
    7CHTO    H6 2961   7.032   1.674   2.287  1.1622 -1.9333 -1.9584
    8CHTO  H203 2962   7.209   8.122   0.758  1.2675  4.3729  1.4513
    8CHTO   O82 2963   7.273   8.085   0.815  0.3654 -0.5207 -0.4471
    8CHTO  C123 2964   7.217   8.087   0.949  0.6648  0.5002  0.0479
    8CHTO  H227 2965   7.300   8.079   1.020 -0.9550 -0.8619  1.8310
    8CHTO   O77 2966   7.150   8.215   0.969  0.5881  0.0864  0.3403
    8CHTO  C118 2967   7.085   8.227   1.098 -0.4099 -0.6939 -0.2487
    8CHTO  H222 2968   7.152   8.203   1.182  0.6926  0.8873 -0.6465
    8CHTO  C125 2969   7.047   8.377   1.119  0.0832  0.8311 -0.1087
    8CHTO   O84 2970   7.075   8.421   1.256 -0.6990 -0.4616  0.4010
    8CHTO  H205 2971   7.015   8.490   1.274  1.5712  1.6996 -0.0732
    8CHTO  C114 2972   6.964   8.134   1.099  0.2029 -0.7328  0.7498
    8CHTO  H218 2973   6.906   8.155   1.009  0.0519 -0.9281  0.8014
    8CHTO  C116 2974   7.017   7.992   1.099 -0.6434 -0.0103 -0.3908
    8CHTO  H220 2975   7.077   7.978   1.191  0.1112 -0.8695 -0.9965
    8CHTO   O79 2976   6.903   7.902   1.106 -0.2319 -0.3742  0.1076
    8CHTO  H201 2977   6.879   7.880   1.194 -2.1604  3.0728  0.5382
    8CHTO  C120 2978   7.102   7.978   0.973 -0.1932  0.3288  0.1195
    8CHTO  H224 2979   7.035   7.980   0.885 -1.8093  0.2112  1.3248
    8CHTO   N21 2980   7.162   7.841   0.957  0.4688 -0.3298  0.0341
    8CHTO  H211 2981   7.248   7.833   1.021  0.4788  1.8113  0.3234
    8CHTO  H212 2982   7.191   7.825   0.854  1.8758 -0.2728  0.4213
    8CHTO   O75 2983   6.898   8.169   1.220 -0.2679 -0.2450 -0.2814
    8CHTO  C112 2984   6.742   8.191   1.211 -0.0865  0.0102 -0.8364
    8CHTO  H216 2985   6.700   8.092   1.185 -2.4327 -0.0027  2.6940
    8CHTO   O73 2986   6.718   8.287   1.109  0.1512  0.4334  0.6207
    8CHTO  C113 2987   6.584   8.340   1.082  0.1088 -0.5184 -0.1755
    8CHTO  H217 2988   6.530   8.268   1.017 -0.5097 -0.1272 -0.0926
    8CHTO  C124 2989   6.613   8.460   0.992 -0.0706 -0.5472  0.2612
    8CHTO   O83 2990   6.696   8.434   0.878  0.5612  0.1616  0.0039
    8CHTO  H204 2991   6.651   8.460   0.800  0.3800  0.9135  0.3507
    8CHTO  C109 2992   6.499   8.367   1.209 -0.9154  0.4456 -0.3654
    8CHTO  H213 2993   6.538   8.459   1.256  1.3195  0.0626 -1.3848
    8CHTO  C110 2994   6.518   8.262   1.322  0.2231  0.5289  0.4065
    8CHTO  H214 2995   6.473   8.169   1.285  0.7652  0.2255  0.5205
    8CHTO   O78 2996   6.453   8.313   1.439 -0.1655 -0.8881  0.1969
    8CHTO  H200 2997   6.473   8.250   1.505 -0.4020  0.7166  1.8395
    8CHTO  C111 2998   6.673   8.238   1.345  0.6478  0.2640  0.5869
    8CHTO  H215 2999   6.725   8.331   1.372 -0.8927  1.5489 -0.7712
    8CHTO   N19 3000   6.706   8.135   1.450  0.4366 -0.1487  0.4474
    8CHTO  H207 3001   6.622   8.078   1.488  1.0547 -0.4695  1.3547
    8CHTO  H208 3002   6.778   8.061   1.418  0.0894  0.2717 -1.3575
    8CHTO   O74 3003   6.368   8.391   1.157  0.4649 -0.2449  0.2936
    8CHTO  C115 3004   6.282   8.256   1.113 -0.3852 -0.1452  0.2231
    8CHTO  H219 3005   6.345   8.190   1.054 -1.8593 -0.2954 -1.1856
    8CHTO   O76 3006   6.234   8.173   1.241 -0.0520  0.5628 -0.0611
    8CHTO  C122 3007   6.117   8.224   1.308 -0.8058  0.0459  0.6861
    8CHTO  H226 3008   6.149   8.313   1.361 -0.4293 -0.6949  1.7296
    8CHTO  C126 3009   6.089   8.111   1.421  0.3488 -0.1572  0.3604
    8CHTO   O85 3010   6.021   8.171   1.534 -0.6170 -0.3987  0.4300
    8CHTO  H206 3011   6.056   8.258   1.537 -0.0132 -0.6141 -0.1438
    8CHTO  C121 3012   5.993   8.267   1.223 -0.1024  0.1084 -0.5515
    8CHTO  H225 3013   5.956   8.175   1.173 -0.1228  0.7508 -1.7187
    8CHTO   O81 3014   5.885   8.325   1.301  0.0473  0.2790 -0.5783
    8CHTO  H202 3015   5.840   8.254   1.344  2.3465 -0.1587  1.1995
    8CHTO  C119 3016   6.044   8.363   1.113  0.7956  0.5997  0.5980
    8CHTO  H223 3017   5.955   8.379   1.052  0.8581 -2.8676 -0.5204
    8CHTO  C117 3018   6.160   8.305   1.017  0.7373 -0.9034 -0.2596
    8CHTO  H221 3019   6.207   8.384   0.958 -2.4630  0.7462 -0.7337
    8CHTO   N20 3020   6.127   8.200   0.917  0.1205 -0.5181 -0.3572
    8CHTO  H209 3021   6.215   8.155   0.874  2.4841  3.9161 -0.5124
    8CHTO  H210 3022   6.081   8.119   0.972  1.8426 -0.8396  0.6247
    8CHTO   O80 3023   6.090   8.504   1.151  0.1650 -0.4966  0.2791
    8CHTO  C103 3024   5.981   8.631   1.144 -0.5831  0.8973 -0.3087
    8CHTO  H190 3025   5.879   8.595   1.130  0.8556 -2.8191 -2.0483
    8CHTO  C101 3026   5.978   8.738   1.264 -0.8235  0.2952 -0.4762
    8CHTO  H188 3027   6.083   8.761   1.284 -0.1046 -2.3206 -1.0090
    8CHTO   O68 3028   5.922   8.666   1.389 -0.1403  0.3738  0.5571
    8CHTO  H168 3029   5.962   8.697   1.468  0.7156  1.2777 -0.2109
    8CHTO   C99 3030   5.905   8.875   1.226 -0.5858 -0.0758  0.0872
    8CHTO  H186 3031   5.798   8.850   1.213 -0.6751  0.3045  0.0761
    8CHTO   N17 3032   5.918   8.988   1.330 -0.1013  0.2699  0.0297
    8CHTO  H174 3033   6.019   9.025   1.341  0.4295 -0.4462 -2.1749
    8CHTO  H175 3034   5.884   8.957   1.428 -2.1737  0.0373 -0.7364
    8CHTO   C97 3035   5.953   8.936   1.090  0.1354 -0.7666  0.0902
    8CHTO  H184 3036   6.056   8.973   1.104 -0.4564  1.1873 -0.5331
    8CHTO   O64 3037   5.947   8.833   0.991 -0.1631  0.0444  0.7455
    8CHTO  C104 3038   6.022   8.711   1.016  0.4906 -0.0818  0.3658
    8CHTO  H191 3039   6.130   8.731   1.023  0.8142 -1.4698 -0.5558
    8CHTO  C108 3040   6.002   8.628   0.891  0.7952 -0.1794 -0.5797
    8CHTO   O71 3041   5.867   8.634   0.840  0.2285 -0.1561 -0.4156
    8CHTO  H171 3042   5.802   8.636   0.908 -0.6249 -1.7479 -1.1613
    8CHTO   O62 3043   5.863   9.040   1.047 -0.0043 -0.2679  0.0534
    8CHTO   C91 3044   5.921   9.156   0.983 -0.5933  0.0401 -0.3170
    8CHTO  H178 3045   6.025   9.136   0.958 -0.3604  0.7465  0.0765
    8CHTO   C92 3046   5.925   9.286   1.075  0.5144  0.2705 -0.0771
    8CHTO  H179 3047   5.826   9.302   1.120 -0.0990 -0.5443 -1.1028
    8CHTO   O66 3048   6.006   9.258   1.189 -0.4255 -0.2496 -0.0623
    8CHTO  H166 3049   6.095   9.232   1.174  0.1837  0.7755  1.6453
    8CHTO   C93 3050   5.969   9.421   1.001  0.2959  0.2171 -0.1806
    8CHTO  H180 3051   6.075   9.405   0.977  0.5455 -1.5567  1.9136
    8CHTO   N16 3052   5.970   9.547   1.078  0.2247  0.3398 -0.0901
    8CHTO  H172 3053   5.867   9.580   1.081 -0.5684 -2.1957  1.6914
    8CHTO  H173 3054   6.039   9.613   1.026  0.1687 -1.6868 -2.8241
    8CHTO   C94 3055   5.897   9.436   0.860  0.0399  0.6577 -0.6958
    8CHTO  H181 3056   5.789   9.446   0.871  0.0296 -0.9184  0.9843
    8CHTO   O61 3057   5.915   9.307   0.792  0.6326  0.1036  0.0130
    8CHTO   C95 3058   5.848   9.195   0.849 -0.3295 -0.8715  0.3299
    8CHTO  H182 3059   5.744   9.222   0.870 -0.5606  2.1513 -4.0371
    8CHTO  C106 3060   5.856   9.078   0.743 -0.7560 -0.0589 -0.0648
    8CHTO   O69 3061   5.790   9.100   0.623 -0.0220 -0.4417  0.1851
    8CHTO  H169 3062   5.700   9.124   0.634  0.7324  2.4374  0.5664
    8CHTO   O63 3063   5.953   9.546   0.763  0.2673 -0.1502 -0.5425
    8CHTO   C96 3064   5.884   9.544   0.625 -0.8269 -0.2026  0.3564
    8CHTO  H183 3065   5.824   9.453   0.618 -0.0811 -0.6107 -0.9296
    8CHTO   C98 3066   5.985   9.534   0.504  0.9708  0.0391  0.7925
    8CHTO  H185 3067   6.047   9.624   0.494 -0.6641  1.4087  2.7008
    8CHTO   O67 3068   6.078   9.426   0.528 -0.5626 -0.0196 -0.2802
    8CHTO  H167 3069   6.107   9.395   0.444  0.8495 -0.0420  0.1986
    8CHTO  C102 3070   5.898   9.508   0.367  0.4575  0.1213  0.3277
    8CHTO  H189 3071   5.841   9.415   0.386  1.6841 -0.1807  2.7389
    8CHTO   N18 3072   5.986   9.479   0.251  0.0837 -0.0506  0.4853
    8CHTO  H176 3073   5.968   9.555   0.177 -0.7382  0.2798  1.0203
    8CHTO  H177 3074   5.969   9.381   0.211 -0.6046  0.4504 -0.4590
    8CHTO  C105 3075   5.801   9.629   0.353  0.3748 -0.0763 -0.1524
    8CHTO  H192 3076   5.860   9.720   0.348  2.0141 -0.9378  2.5282
    8CHTO   O65 3077   5.728   9.656   0.475 -0.0440  0.3555 -0.2421
    8CHTO  C100 3078   5.796   9.666   0.599 -0.9816  0.4817 -0.6941
    8CHTO  H187 3079   5.857   9.756   0.588  3.2143 -2.4029 -2.3663
    8CHTO  C107 3080   5.683   9.681   0.698  0.5046  0.2922  0.2488
    8CHTO   O70 3081   5.715   9.780   0.803  0.6027  0.1773 -0.5185
    8CHTO  H170 3082   5.695   9.865   0.769  1.8697  1.9291  2.8431
    8CHTO   O57 3083   5.697   9.602   0.233  0.1655  0.6063 -0.0928
    8CHTO   C85 3084   5.676   9.715   0.149 -0.1338 -0.1804  0.3261
    8CHTO  H157 3085   5.772   9.766   0.131  0.0942  0.1592  2.3849
    8CHTO   C83 3086   5.590   9.816   0.231  0.0971 -0.1301 -0.3873
    8CHTO  H155 3087   5.652   9.851   0.314 -0.4435 -2.2672  0.9366
    8CHTO   O56 3088   5.487   9.741   0.292  0.2835 -0.3404  0.4481
    8CHTO  H135 3089   5.416   9.801   0.306 -1.2903 -1.9778 -0.3745
    8CHTO   C81 3090   5.558   9.935   0.138  0.1691 -0.5391  0.2701
    8CHTO  H153 3091   5.648   9.977   0.093 -0.3536  1.7362  1.3052
    8CHTO   N14 3092   5.484  10.040   0.206  0.2255 -0.7474 -0.2786
    8CHTO  H141 3093   5.407  10.000   0.269 -0.5422  0.0153 -0.7110
    8CHTO  H142 3094   5.557  10.086   0.268 -0.9138 -0.8109  1.1276
    8CHTO   C79 3095   5.463   9.893   0.023 -0.4324 -0.4355 -0.7219
    8CHTO  H151 3096   5.452   9.979  -0.044  1.9059  0.4193 -0.0554
    8CHTO   O52 3097   5.530   9.800  -0.063 -0.2971  0.0234 -0.3835
    8CHTO   C86 3098   5.603   9.685   0.011  0.2727 -0.4907 -0.6586
    8CHTO  H158 3099   5.526   9.605   0.021  0.0570 -0.4449 -1.9228
    8CHTO   C90 3100   5.710   9.629  -0.085  0.6776  0.6001 -0.0535
    8CHTO   O60 3101   5.763   9.502  -0.043 -0.6017 -0.2196 -0.2418
    8CHTO  H138 3102   5.692   9.441  -0.036 -1.2604  0.4559 -0.8280
    8CHTO   O50 3103   5.340   9.827   0.066  0.1088 -0.3290  0.2792
    8CHTO   C73 3104   5.199   9.803   0.033 -0.2078 -0.1189 -0.3684
    8CHTO  H145 3105   5.197   9.758  -0.068  1.8438  1.4135 -1.1406
    8CHTO   C74 3106   5.104   9.931   0.042 -0.4198 -0.5726 -0.2231
    8CHTO  H146 3107   5.155  10.002  -0.025  0.1510 -0.1599  0.6354
    8CHTO   O54 3108   4.974   9.884  -0.010 -0.2290 -0.5246  0.1113
    8CHTO  H133 3109   4.977   9.866  -0.102  0.8550  1.4673 -0.2760
    8CHTO   C75 3110   5.099   9.984   0.189  0.3432  0.0629  0.0870
    8CHTO  H147 3111   5.202  10.009   0.219  0.4181 -1.1217  0.8430
    8CHTO   N13 3112   5.016  10.102   0.199  0.0498  0.6637 -0.7836
    8CHTO  H139 3113   4.920  10.097   0.149 -1.7754  2.2542  2.4301
    8CHTO  H140 3114   4.993  10.107   0.304  0.6143  1.0431 -0.6778
    8CHTO   C76 3115   5.063   9.868   0.288  0.8821 -0.1580 -0.2152
    8CHTO  H148 3116   4.958   9.842   0.277  0.6461  0.8806 -0.3884
    8CHTO   O49 3117   5.146   9.751   0.266  0.4960 -0.1986  0.4207
    8CHTO   C77 3118   5.150   9.697   0.133  0.1273  0.6332  0.1921
    8CHTO  H149 3119   5.047   9.670   0.108  0.2094 -0.4573  1.0318
    8CHTO   C88 3120   5.237   9.572   0.133  0.0656 -0.4542  0.0785
    8CHTO   O58 3121   5.217   9.485   0.013 -0.5580 -0.5790  0.1531
    8CHTO  H136 3122   5.175   9.538  -0.052  1.3412 -0.9882 -1.4435
    8CHTO   O51 3123   5.090   9.922   0.437  0.3018  0.0612  0.0616
    8CHTO   C78 3124   5.099   9.814   0.546 -0.6468 -0.1061 -0.2586
    8CHTO  H150 3125   5.134   9.719   0.498 -0.7409 -0.2177 -0.1028
    8CHTO   C80 3126   4.957   9.786   0.614 -0.3289  0.5743 -0.0025
    8CHTO  H152 3127   4.910   9.883   0.639  0.9443  1.0855  0.4903
    8CHTO   O55 3128   4.883   9.711   0.519  0.6741  0.6432  0.1369
    8CHTO  H134 3129   4.930   9.637   0.487 -1.0042 -1.8028  3.1472
    8CHTO   C84 3130   4.957   9.707   0.753 -0.2538  0.5755  0.1131
    8CHTO  H156 3131   4.984   9.603   0.733  0.1529  0.5630  0.7267
    8CHTO   N15 3132   4.827   9.699   0.827 -0.2583  0.0406  0.6244
    8CHTO  H143 3133   4.732   9.702   0.779 -0.4126 -2.2851  0.7424
    8CHTO  H144 3134   4.822   9.742   0.924 -1.1603  0.9526  0.1806
    8CHTO   C87 3135   5.067   9.768   0.840  0.5656 -0.4709  0.8346
    8CHTO  H159 3136   5.053   9.873   0.864 -0.5526  0.2143 -2.5081
    8CHTO   O53 3137   5.199   9.748   0.765  0.3177 -0.0200  0.3616
    8CHTO   C82 3138   5.201   9.849   0.655  0.4591  0.7722  0.1369
    8CHTO  H154 3139   5.187   9.951   0.692 -0.0575 -0.2051  2.7734
    8CHTO   C89 3140   5.342   9.840   0.585  0.0642  0.0308  0.0862
    8CHTO   O59 3141   5.443   9.884   0.668  0.6587  0.2806  0.8147
    8CHTO  H137 3142   5.520   9.866   0.617 -1.1871  0.1477 -1.9802
    8CHTO   O45 3143   5.067   9.682   0.996 -0.0315  0.0838 -0.5265
    8CHTO   C67 3144   5.128   9.549   0.989 -0.0695 -0.3256  0.1880
    8CHTO  H124 3145   5.106   9.500   0.894  0.4210  2.0926 -1.1896
    8CHTO   C65 3146   5.284   9.559   0.996  0.4890 -0.1535  0.1575
    8CHTO  H122 3147   5.302   9.662   1.026 -1.4750 -0.1350  1.3319
    8CHTO   O44 3148   5.345   9.530   0.867 -0.2179  0.1860  0.0798
    8CHTO  H102 3149   5.436   9.551   0.874 -0.3953  0.4809  1.8635
    8CHTO   C63 3150   5.336   9.473   1.120 -0.5250 -0.1582  0.0493
    8CHTO  H120 3151   5.310   9.523   1.213 -1.0821 -1.2884  0.5259
    8CHTO   N11 3152   5.487   9.455   1.141  0.7972 -0.1564 -0.0340
    8CHTO  H108 3153   5.504   9.402   1.233  2.6257 -0.8476 -0.7346
    8CHTO  H109 3154   5.537   9.421   1.053  1.2926 -1.3014  0.6693
    8CHTO   C61 3155   5.265   9.336   1.104  0.2510  0.2646 -0.1980
    8CHTO  H118 3156   5.293   9.272   1.189 -0.6483  0.4991  0.2735
    8CHTO   O40 3157   5.127   9.323   1.098 -0.3486  0.2627  0.6500
    8CHTO   C68 3158   5.064   9.461   1.097 -0.0679 -0.3822  0.0656
    8CHTO  H125 3159   5.082   9.508   1.196  2.2180  0.6383 -0.7863
    8CHTO   C72 3160   4.914   9.446   1.080 -0.4267 -0.1607 -0.6526
    8CHTO   O48 3161   4.878   9.396   0.950  0.3237  0.3132 -0.3386
    8CHTO  H105 3162   4.906   9.462   0.890  2.9912  0.1758  0.6794
    8CHTO   O38 3163   5.306   9.265   0.985 -0.5308  0.9233 -0.0201
    8CHTO   C55 3164   5.303   9.122   0.981 -0.4160 -0.0786  0.0789
    8CHTO  H112 3165   5.238   9.091   1.064  1.3028 -0.2193  1.4108
    8CHTO   C56 3166   5.454   9.051   1.000 -0.0254  0.0368  0.1175
    8CHTO  H113 3167   5.514   9.082   0.913  1.7926  0.4586  1.4887
    8CHTO   O42 3168   5.521   9.120   1.109  0.6642  0.0306  0.3297
    8CHTO  H100 3169   5.472   9.138   1.187 -3.1532 -3.8398 -1.0261
    8CHTO   C57 3170   5.448   8.890   1.008  0.6305  0.4056 -0.0532
    8CHTO  H114 3171   5.403   8.862   1.103  0.4448 -1.9481 -0.7991
    8CHTO   N10 3172   5.579   8.820   1.006 -0.3344  0.4336  0.0836
    8CHTO  H106 3173   5.576   8.723   0.960 -3.7863  0.2631  0.5495
    8CHTO  H107 3174   5.647   8.883   0.949 -2.1513  1.4635 -1.0161
    8CHTO   C58 3175   5.363   8.840   0.895  0.2201  1.0036 -0.3473
    8CHTO  H115 3176   5.426   8.819   0.806 -0.9082  1.5152 -1.2792
    8CHTO   O37 3177   5.253   8.922   0.865 -0.2720  0.4962 -0.2760
    8CHTO   C59 3178   5.255   9.054   0.851 -0.1150 -0.7702  0.1941
    8CHTO  H116 3179   5.315   9.081   0.764 -0.4304 -0.5619  0.0402
    8CHTO   C70 3180   5.110   9.088   0.818  0.3718  0.0248  0.6751
    8CHTO   O46 3181   5.022   9.048   0.923  0.2357  0.0259 -0.7418
    8CHTO  H103 3182   4.933   9.052   0.892  0.2646  0.4927 -0.7653
    8CHTO   O39 3183   5.281   8.702   0.938  0.2877 -0.3329 -0.1196
    8CHTO   C60 3184   5.145   8.693   0.964  0.2540 -0.1019  0.1456
    8CHTO  H117 3185   5.103   8.787   0.999 -1.6046  0.4083 -3.1631
    8CHTO   C62 3186   5.056   8.681   0.838  0.4220 -0.2391 -0.1253
    8CHTO  H119 3187   5.082   8.767   0.773 -0.3745 -0.9833 -1.4261
    8CHTO   O43 3188   5.081   8.560   0.771  0.1035  0.3640 -0.1226
    8CHTO  H101 3189   5.086   8.487   0.830 -0.7248  0.0159 -0.4748
    8CHTO   C66 3190   4.900   8.685   0.885  0.2400 -0.0686  0.0683
    8CHTO  H123 3191   4.884   8.772   0.948  0.7314  0.3032 -0.3223
    8CHTO   N12 3192   4.805   8.694   0.769  0.1547  0.7153  0.2366
    8CHTO  H110 3193   4.774   8.599   0.728 -0.4568  1.6215 -1.4613
    8CHTO  H111 3194   4.860   8.764   0.709  0.6947  0.0108 -0.0901
    8CHTO   C69 3195   4.865   8.574   0.988 -0.4443  0.2131 -0.5306
    8CHTO  H126 3196   4.880   8.474   0.942 -2.4037 -0.6934  0.7571
    8CHTO   O41 3197   4.960   8.579   1.111  0.1868  0.0256  0.0236
    8CHTO   C64 3198   5.120   8.585   1.070  0.4513  0.5847 -0.6429
    8CHTO  H121 3199   5.152   8.495   1.013  0.2816  0.0630  0.0803
    8CHTO   C71 3200   5.200   8.610   1.199  0.5407 -0.4844 -0.0955
    8CHTO   O47 3201   5.147   8.725   1.265  0.1457  0.0777  0.1939
    8CHTO  H104 3202   5.192   8.741   1.346  2.4045 -0.5230 -0.8958
    8CHTO   O34 3203   4.712   8.582   1.046 -0.1697 -1.0760 -0.3866
    8CHTO   C49 3204   4.628   8.651   1.166  0.3472  0.3859  0.4508
    8CHTO   H91 3205   4.652   8.588   1.252  2.1204  0.0248 -0.3009
    8CHTO   C47 3206   4.475   8.647   1.132  0.1990  0.3894  0.4704
    8CHTO   H89 3207   4.422   8.705   1.211 -0.1983 -0.4940  0.8531
    8CHTO   O33 3208   4.422   8.516   1.130 -1.3070 -0.5106  0.5834
    8CHTO   H70 3209   4.411   8.490   1.219  3.4007 -0.8382  1.1948
    8CHTO   C45 3210   4.443   8.733   0.995  0.0295 -0.4360 -0.3771
    8CHTO   H87 3211   4.508   8.695   0.915  0.8073 -0.8692  0.4636
    8CHTO    N8 3212   4.297   8.719   0.952 -1.4084 -0.2007  0.0845
    8CHTO   H75 3213   4.224   8.771   1.012 -2.2079  1.3193 -2.1399
    8CHTO   H76 3214   4.273   8.617   0.926  2.9267 -1.3307  0.1400
    8CHTO   C43 3215   4.498   8.885   1.013 -0.2543 -0.6911 -0.1021
    8CHTO   H85 3216   4.500   8.932   0.915  3.0436  0.8436  0.6184
    8CHTO   O29 3217   4.636   8.881   1.071  0.2883  0.0652  0.1988
    8CHTO   C50 3218   4.665   8.802   1.186  0.5177  0.3018 -0.6222
    8CHTO   H92 3219   4.774   8.800   1.198  0.5519  0.3166 -0.9201
    8CHTO   C54 3220   4.616   8.859   1.317  0.6959 -0.0475 -0.0110
    8CHTO   O36 3221   4.676   8.991   1.346  0.6244  0.1403  0.3925
    8CHTO   H72 3222   4.611   9.047   1.383 -0.3945 -1.6146  1.3476
    8CHTO   O27 3223   4.412   8.971   1.094 -0.1175 -0.4814  0.2596
    8CHTO   C37 3224   4.349   9.102   1.124  0.0986 -0.6243 -0.7457
    8CHTO   H79 3225   4.293   9.091   1.218 -1.8518 -0.8043 -1.8987
    8CHTO   C38 3226   4.454   9.216   1.141 -0.1850  0.4690  0.1978
    8CHTO   H80 3227   4.525   9.220   1.058  0.8724  1.1991  1.1052
    8CHTO   O31 3228   4.529   9.173   1.257 -0.1439 -0.3186  0.1677
    8CHTO   H68 3229   4.583   9.097   1.248 -0.8587 -0.8310  0.2074
    8CHTO   C39 3230   4.391   9.366   1.165  0.6410  0.3887 -0.1407
    8CHTO   H81 3231   4.333   9.368   1.257 -0.2871  4.9700 -0.7098
    8CHTO    N7 3232   4.494   9.480   1.179  0.8504 -0.3808  0.0117
    8CHTO   H73 3233   4.459   9.581   1.160  0.5420 -0.6865 -1.0411
    8CHTO   H74 3234   4.581   9.467   1.116 -0.1552  1.7968 -1.9094
    8CHTO   C40 3235   4.285   9.390   1.059  0.4944 -0.4065 -0.2683
    8CHTO   H82 3236   4.341   9.402   0.966  0.6664 -2.2444 -0.4228
    8CHTO   O26 3237   4.187   9.287   1.058  0.6505  0.2955  0.4275
    8CHTO   C41 3238   4.249   9.155   1.014 -0.3882 -0.5624 -0.6470
    8CHTO   H83 3239   4.293   9.156   0.913 -0.0143 -0.5773 -0.4848
    8CHTO   C52 3240   4.130   9.051   1.008  0.0704 -0.5710  0.4208
    8CHTO   O35 3241   4.027   9.097   0.945  0.1304 -0.3362  0.0210
    8CHTO   H71 3242   3.995   9.166   1.000 -0.6556 -0.9208  0.3061
    8CHTO   O28 3243   4.209   9.512   1.087  0.2666  0.3690  0.1976
    8CHTO   C42 3244   4.135   9.591   0.993  0.3558 -0.4002  0.9077
    8CHTO   H84 3245   4.060   9.639   1.056 -0.2881 -0.1859 -0.0148
    8CHTO   C44 3246   4.058   9.519   0.875  0.5445  0.0313  0.5969
    8CHTO   H86 3247   4.128   9.449   0.827  1.6678  0.2262  1.9374
    8CHTO   O32 3248   3.963   9.432   0.948  0.3843  0.0981 -0.2911
    8CHTO   H69 3249   3.907   9.378   0.895  1.2824 -0.4199 -0.7164
    8CHTO   C48 3250   3.999   9.615   0.766  0.4478  0.3021 -0.5746
    8CHTO   H90 3251   3.936   9.687   0.818  0.1267  1.0664 -1.9831
    8CHTO    N9 3252   3.916   9.544   0.659 -0.6345  0.1808 -0.3447
    8CHTO   H77 3253   3.876   9.609   0.583 -0.3309  2.2314  1.2274
    8CHTO   H78 3254   3.837   9.478   0.693 -0.4743 -2.0859 -4.0309
    8CHTO   C51 3255   4.119   9.704   0.723 -0.3586 -0.8330  0.7297
    8CHTO   H93 3256   4.205   9.652   0.682 -0.5412 -1.3964  1.0554
    8CHTO   O30 3257   4.147   9.785   0.835  0.2631 -0.3512 -0.0728
    8CHTO   C46 3258   4.223   9.705   0.933 -0.0023  0.3288 -0.7487
    8CHTO   H88 3259   4.301   9.657   0.874  0.6983 -1.0224  1.2045
    8CHTO   C53 3260   4.285   9.786   1.042 -0.1401  0.5983 -0.7616
    8CHTO   O72 3261   4.191   9.875   1.105 -0.6259 -0.2737  0.0330
    8CHTO  H199 3262   4.156   9.933   1.041 -0.4515  1.8796  1.8481
    8CHTO   O22 3263   4.071   9.791   0.616 -0.3523 -0.3014  0.0531
    8CHTO   C31 3264   4.166   9.834   0.508  0.4577  0.0195 -0.5531
    8CHTO   H59 3265   4.117   9.915   0.449  1.5828  0.9170 -0.2577
    8CHTO   C29 3266   4.298   9.892   0.561  0.2997 -0.1381  0.4764
    8CHTO   H57 3267   4.349   9.826   0.633  1.3675 -0.1026 -0.2285
    8CHTO   O21 3268   4.258  10.013   0.631 -0.6585 -0.3513 -0.4708
    8CHTO   H37 3269   4.314  10.082   0.601 -0.7339 -0.1877 -0.2274
    8CHTO   C27 3270   4.404   9.924   0.442  0.0754 -0.3934  0.3405
    8CHTO   H55 3271   4.370  10.006   0.377 -1.2808 -0.0850  1.4117
    8CHTO    N5 3272   4.545   9.948   0.487  0.4715 -0.5357  0.8045
    8CHTO   H43 3273   4.594   9.857   0.519  2.9756  1.2730  2.2432
    8CHTO   H44 3274   4.552  10.031   0.556  1.8760 -1.5548  1.9139
    8CHTO   C25 3275   4.404   9.796   0.355 -0.3301 -0.1070  0.1627
    8CHTO   H53 3276   4.445   9.718   0.421  1.6236  0.2173 -0.6576
    8CHTO   O17 3277   4.278   9.747   0.303 -0.0593 -0.0889 -0.5987
    8CHTO   C32 3278   4.180   9.721   0.404  0.3375  0.3584  0.2250
    8CHTO   H60 3279   4.204   9.628   0.455 -2.2408 -1.1654 -1.2677
    8CHTO   C36 3280   4.051   9.679   0.333  0.4180 -0.2287 -0.7459
    8CHTO   O25 3281   4.005   9.767   0.231  0.6679  0.3810 -0.1484
    8CHTO   H40 3282   3.926   9.802   0.267 -0.9551 -0.5593 -2.6672
    8CHTO   O15 3283   4.518   9.816   0.232  0.3485  0.1704  0.1966
    8CHTO   C19 3284   4.551   9.740   0.115 -0.2159 -0.3172  0.3119
    8CHTO   H47 3285   4.481   9.656   0.111 -1.5242  0.8318 -2.6887
    8CHTO   C20 3286   4.539   9.817  -0.022  0.3051 -0.6263  0.0317
    8CHTO   H48 3287   4.597   9.910  -0.019 -1.3919  0.4733 -0.1920
    8CHTO   O19 3288   4.403   9.853  -0.036 -0.3082 -0.0027 -0.1145
    8CHTO   H35 3289   4.401   9.947  -0.043  4.6368  0.4202  1.7564
    8CHTO   C21 3290   4.589   9.737  -0.145  1.0709 -0.5156 -0.0102
    8CHTO   H49 3291   4.517   9.658  -0.169 -0.2498  1.1274 -1.6346
    8CHTO    N4 3292   4.587   9.807  -0.273 -0.3797 -0.2028 -0.4742
    8CHTO   H41 3293   4.619   9.742  -0.354  1.7823  1.5639 -1.0670
    8CHTO   H42 3294   4.645   9.898  -0.270 -0.7794 -0.0046  1.9899
    8CHTO   C22 3295   4.718   9.659  -0.115 -0.1261  0.0340  0.7051
    8CHTO   H50 3296   4.796   9.734  -0.126  0.1531 -0.3178  0.2083
    8CHTO   O14 3297   4.719   9.586   0.008 -0.2110  0.3637  0.0456
    8CHTO   C23 3298   4.690   9.672   0.117 -0.8518 -0.5220  0.7906
    8CHTO   H51 3299   4.771   9.744   0.135 -0.2319 -0.7346 -1.0249
    8CHTO   C34 3300   4.710   9.587   0.240 -0.4693  0.3624 -0.1113
    8CHTO   O23 3301   4.843   9.539   0.259  0.1727  0.0939 -0.0748
    8CHTO   H38 3302   4.852   9.511   0.348  2.4920 -0.7156 -0.5305
    8CHTO   O16 3303   4.723   9.557  -0.224 -0.1257 -0.2612 -0.0944
    8CHTO   C24 3304   4.870   9.462  -0.233 -0.0348  0.9762 -0.0257
    8CHTO   H52 3305   4.906   9.431  -0.135 -1.4725  0.7262  0.4326
    8CHTO   C26 3306   4.986   9.537  -0.304 -0.0944  0.1859 -0.5149
    8CHTO   H54 3307   4.947   9.592  -0.392  0.9271  1.6442 -0.0951
    8CHTO   O20 3308   5.031   9.626  -0.203  0.3213  0.4232  0.1502
    8CHTO   H36 3309   5.064   9.580  -0.129  0.7137 -1.7801 -1.3491
    8CHTO   C30 3310   5.104   9.448  -0.345  0.0525  0.0873  0.0623
    8CHTO   H58 3311   5.146   9.397  -0.257  1.0266 -0.7569 -0.8737
    8CHTO    N6 3312   5.218   9.514  -0.418 -0.1780  0.2695  0.7103
    8CHTO   H45 3313   5.172   9.589  -0.480  0.0507 -1.0826 -1.1518
    8CHTO   H46 3314   5.283   9.567  -0.350 -1.4468  0.8703  1.4731
    8CHTO   C33 3315   5.045   9.333  -0.427 -0.4127  0.6882  0.7139
    8CHTO   H61 3316   4.992   9.373  -0.515 -0.4361  0.6319  0.7019
    8CHTO   O18 3317   4.951   9.257  -0.355 -0.1180 -0.6638 -0.5746
    8CHTO   C28 3318   4.832   9.328  -0.313 -0.8324 -0.2997 -0.1566
    8CHTO   H56 3319   4.771   9.349  -0.401 -0.6761 -1.6203 -0.5873
    8CHTO   C35 3320   4.764   9.229  -0.223  0.7508 -0.0288 -0.4052
    8CHTO   O24 3321   4.644   9.262  -0.148 -0.2123  0.4177 -0.6551
    8CHTO   H39 3322   4.592   9.318  -0.202 -0.2408  2.4456  1.3798
    8CHTO    O9 3323   5.153   9.242  -0.478  0.2275 -0.2275 -0.0368
    8CHTO   C13 3324   5.087   9.109  -0.571 -0.3005 -0.1523 -0.8210
    8CHTO   H26 3325   4.982   9.130  -0.599 -0.4437  1.1560  0.6302
    8CHTO   C11 3326   5.097   8.980  -0.477 -0.0203 -0.2138  0.0607
    8CHTO   H24 3327   5.002   8.978  -0.423 -1.2641 -2.5740 -2.1437
    8CHTO    O8 3328   5.210   8.981  -0.383  0.3568  0.1142 -0.7012
    8CHTO    H3 3329   5.254   9.064  -0.381  1.3392 -0.3877 -1.1093
    8CHTO    C9 3330   5.090   8.857  -0.568  0.4099  0.0036  0.1908
    8CHTO   H22 3331   4.999   8.874  -0.628  0.0729 -0.3575  0.6048
    8CHTO    N2 3332   5.067   8.728  -0.502 -0.3548  0.2655  0.3971
    8CHTO   H10 3333   4.973   8.732  -0.449  0.3054  1.1434  1.5283
    8CHTO   H11 3334   5.143   8.708  -0.428 -0.9881 -0.2850  0.9020
    8CHTO    C7 3335   5.221   8.853  -0.655  0.4744  0.6853  0.0457
    8CHTO   H20 3336   5.190   8.815  -0.755  1.4981  0.3273 -0.1379
    8CHTO    O4 3337   5.271   8.985  -0.681 -0.1684  0.6406  0.5415
    8CHTO   C14 3338   5.173   9.090  -0.701  0.0177  0.2645 -0.3458
    8CHTO   H27 3339   5.109   9.044  -0.778  1.2946 -0.9144 -0.7253
    8CHTO   C18 3340   5.236   9.217  -0.761  0.6061  0.2612  0.4000
    8CHTO   O13 3341   5.279   9.194  -0.891 -0.2736 -0.2782  0.5744
    8CHTO    H7 3342   5.214   9.148  -0.940  2.1292 -0.6615 -2.3924
    8CHTO    O2 3343   5.346   8.746  -0.599 -0.0344 -0.7606  0.1123
    8CHTO    C1 3344   5.484   8.783  -0.595 -0.4997 -0.3934 -0.3054
    8CHTO   H14 3345   5.502   8.889  -0.567 -1.2263 -0.6394  1.0867
    8CHTO    C2 3346   5.548   8.758  -0.741  0.2903 -0.2477  0.5438
    8CHTO   H15 3347   5.507   8.660  -0.772  0.3061 -0.4315  1.0830
    8CHTO    O6 3348   5.509   8.860  -0.829 -0.1469  0.0516  0.1298
    8CHTO    H1 3349   5.420   8.857  -0.858 -0.0962 -0.0498 -0.0180
    8CHTO    C3 3350   5.709   8.758  -0.731  0.0234 -0.8160 -0.6753
    8CHTO   H16 3351   5.734   8.859  -0.694 -1.8708 -0.8545  0.7879
    8CHTO    N1 3352   5.779   8.741  -0.862  0.4348 -0.4524  0.2160
    8CHTO    H8 3353   5.715   8.705  -0.942  0.2117 -0.5390  0.4335
    8CHTO    H9 3354   5.872   8.686  -0.859 -0.0621 -1.3334 -0.1693
    8CHTO    C4 3355   5.754   8.664  -0.618  0.3920  0.2587  0.3958
    8CHTO   H17 3356   5.725   8.563  -0.647  4.5019 -0.3783 -1.9172
    8CHTO    O1 3357   5.689   8.712  -0.500  0.2145  0.0349 -0.0314
    8CHTO    C5 3358   5.550   8.685  -0.501  0.1972 -0.0827  0.6999
    8CHTO   H18 3359   5.530   8.587  -0.545  0.2280  0.1543  0.1450
    8CHTO   C16 3360   5.491   8.685  -0.355 -0.5867  0.1069 -0.5555
    8CHTO   O11 3361   5.508   8.808  -0.286  0.2417  0.4271 -0.2869
    8CHTO    H5 3362   5.584   8.807  -0.231  0.7307  0.3788 -0.9599
    8CHTO    O3 3363   5.897   8.671  -0.586 -0.7518  0.1233  0.2642
    8CHTO    C6 3364   5.952   8.591  -0.479  0.2506  0.7908 -0.5923
    8CHTO   H19 3365   5.875   8.550  -0.414  0.8362  1.4472  0.5112
    8CHTO    C8 3366   6.022   8.465  -0.532 -0.0177 -0.2636  0.3583
    8CHTO   H21 3367   6.080   8.494  -0.619 -0.3690  0.5422  0.3906
    8CHTO    O7 3368   5.924   8.367  -0.576 -0.1046 -0.4779  0.2537
    8CHTO    H2 3369   5.850   8.386  -0.520  0.2241  1.1564  0.1755
    8CHTO   C12 3370   6.121   8.405  -0.420  0.1026 -0.3482  0.2159
    8CHTO   H25 3371   6.059   8.356  -0.343 -0.9111  1.1579  0.3843
    8CHTO    N3 3372   6.209   8.303  -0.488 -0.5769 -0.2093 -0.5273
    8CHTO   H12 3373   6.208   8.318  -0.594 -2.6263  2.3228 -0.1952
    8CHTO   H13 3374   6.309   8.295  -0.448 -0.3811  0.6909 -0.8171
    8CHTO   C15 3375   6.205   8.514  -0.347  0.6327 -0.4624 -0.4604
    8CHTO   H28 3376   6.270   8.564  -0.419 -0.0075 -1.4808 -1.7630
    8CHTO   O10 3377   6.298   8.464  -0.216 -0.0254 -0.3758 -0.7441
    8CHTO    H4 3378   6.328   8.541  -0.171  0.1638 -0.9130  0.0402
    8CHTO    O5 3379   6.115   8.606  -0.291  0.2687  0.2611 -0.1339
    8CHTO   C10 3380   6.042   8.683  -0.391  0.0303  0.6533 -0.3612
    8CHTO   H23 3381   6.112   8.741  -0.452  1.4584  1.1474  1.7124
    8CHTO   C17 3382   5.959   8.794  -0.321 -0.5876 -0.8432  0.3446
    8CHTO   O12 3383   6.047   8.888  -0.258  0.6500  0.0007  0.1074
    8CHTO    H6 3384   6.001   8.955  -0.211  2.9292  2.6765 -1.3145
    9CHTO  H203 3385   7.941   3.999   3.145  0.7510 -0.0797  1.3912
    9CHTO   O82 3386   8.009   4.056   3.117 -0.1014  0.3858  0.2010
    9CHTO  C123 3387   8.124   3.977   3.089 -0.4469  0.2717  0.1147
    9CHTO  H227 3388   8.116   3.928   2.991  1.5973 -1.8956  0.9945
    9CHTO   O77 3389   8.231   4.078   3.089  0.0976 -0.0484 -0.2723
    9CHTO  C118 3390   8.360   4.026   3.061 -0.3150  0.5420 -0.5557
    9CHTO  H222 3391   8.374   3.992   2.958  1.5976 -1.6314  0.3583
    9CHTO  C125 3392   8.459   4.145   3.078 -0.1652  0.0585 -0.4900
    9CHTO   O84 3393   8.426   4.247   2.984  0.5428  0.2246 -0.2954
    9CHTO  H205 3394   8.415   4.208   2.899  0.0770 -0.0430 -0.1130
    9CHTO  C114 3395   8.402   3.907   3.154 -0.4007 -0.1245  0.3144
    9CHTO  H218 3396   8.424   3.946   3.253 -0.1316 -2.6368  1.2841
    9CHTO  C116 3397   8.295   3.795   3.175 -0.1402 -0.2254  0.2168
    9CHTO  H220 3398   8.277   3.742   3.079 -0.0682 -2.5699  1.4765
    9CHTO   O79 3399   8.338   3.704   3.277  0.5165 -0.4969 -0.0705
    9CHTO  H201 3400   8.428   3.683   3.260  0.8874 -0.4021  1.6034
    9CHTO  C120 3401   8.160   3.868   3.205 -0.2662 -0.2999  0.0018
    9CHTO  H224 3402   8.167   3.923   3.301  1.2738  0.5318 -0.5708
    9CHTO   N21 3403   8.045   3.772   3.215  0.7943  0.1879  0.7541
    9CHTO  H211 3404   8.034   3.714   3.305 -0.3124 -1.6174 -0.5102
    9CHTO  H212 3405   8.039   3.716   3.123 -1.5134  1.9039 -0.1932
    9CHTO   O75 3406   8.532   3.858   3.104 -0.6645 -0.1153  0.0324
    9CHTO  C112 3407   8.541   3.752   2.989 -0.1919  0.5969 -0.4863
    9CHTO  H216 3408   8.473   3.785   2.909 -0.0772 -0.0472 -0.8493
    9CHTO   O73 3409   8.501   3.629   3.044 -0.1460  0.5575 -0.3274
    9CHTO  C113 3410   8.475   3.518   2.954 -0.0630 -0.2768  0.2871
    9CHTO  H217 3411   8.393   3.540   2.882  0.9128 -1.9821 -1.4019
    9CHTO  C124 3412   8.412   3.408   3.042 -0.4033 -0.0984  0.2556
    9CHTO   O83 3413   8.508   3.302   3.060 -0.2250  0.2645 -0.2620
    9CHTO  H204 3414   8.516   3.295   3.153  0.7024 -1.8702 -0.4872
    9CHTO  C109 3415   8.606   3.491   2.867  0.0990  0.3085 -0.4679
    9CHTO  H213 3416   8.679   3.451   2.940  3.3676  1.8954 -2.7600
    9CHTO  C110 3417   8.668   3.624   2.804 -0.3289 -0.3283 -0.6280
    9CHTO  H214 3418   8.610   3.665   2.721  1.6010  2.6186 -0.5977
    9CHTO   O78 3419   8.802   3.595   2.748  0.2057  0.3009 -0.0350
    9CHTO  H200 3420   8.842   3.669   2.707  1.5326  0.1071  0.8872
    9CHTO  C111 3421   8.679   3.730   2.915 -0.1812 -0.3048 -0.6014
    9CHTO  H215 3422   8.750   3.696   2.992 -1.3260 -1.2349  0.0618
    9CHTO   N19 3423   8.726   3.859   2.862  0.1053 -0.2722  0.1173
    9CHTO  H207 3424   8.698   3.937   2.932  1.4705 -0.1213  0.5055
    9CHTO  H208 3425   8.689   3.867   2.761 -0.4381 -2.4655  0.1203
    9CHTO   O74 3426   8.584   3.389   2.774  0.6593 -0.0956 -0.1829
    9CHTO  C115 3427   8.708   3.298   2.745  0.4629  0.1771  0.0642
    9CHTO  H219 3428   8.797   3.336   2.795  0.0921 -0.7668  1.4662
    9CHTO   O76 3429   8.690   3.140   2.811  0.1041  0.3653  0.0135
    9CHTO  C122 3430   8.584   3.078   2.737  0.0207  0.2083 -0.8740
    9CHTO  H226 3431   8.498   3.144   2.743 -0.3073 -0.1425 -1.6292
    9CHTO  C126 3432   8.538   2.946   2.816  0.1940 -0.1850  0.0870
    9CHTO   O85 3433   8.646   2.865   2.856  0.0627 -0.0810  0.0707
    9CHTO  H206 3434   8.605   2.818   2.927  0.9068 -3.9402 -1.9185
    9CHTO  C121 3435   8.614   3.053   2.578 -0.2385 -0.2368 -1.4514
    9CHTO  H225 3436   8.710   3.001   2.563 -0.4172 -0.9323 -0.2286
    9CHTO   O81 3437   8.521   2.972   2.513 -0.2741  0.2033 -0.1126
    9CHTO  H202 3438   8.521   2.986   2.421 -1.3007 -2.9028 -0.6329
    9CHTO  C119 3439   8.621   3.195   2.523  0.2736 -0.6780  0.4736
    9CHTO  H223 3440   8.644   3.187   2.417  2.1920  0.7862  0.7667
    9CHTO  C117 3441   8.722   3.294   2.587 -0.2515 -0.0032  0.2860
    9CHTO  H221 3442   8.714   3.400   2.561  0.8494  0.1072  0.3744
    9CHTO   N20 3443   8.869   3.260   2.552  0.1483 -0.0713 -0.4609
    9CHTO  H209 3444   8.874   3.174   2.487 -1.7862  0.7448 -1.7388
    9CHTO  H210 3445   8.927   3.340   2.510  1.3696 -0.5297  0.3461
    9CHTO   O80 3446   8.452   3.264   2.521  0.1064  0.5844  0.1921
    9CHTO  C103 3447   8.419   3.359   2.382 -0.0800  0.2561 -0.3689
    9CHTO  H190 3448   8.322   3.408   2.393  0.5716  1.3854  0.3655
    9CHTO  C101 3449   8.524   3.469   2.348 -0.0116 -0.2516  0.3740
    9CHTO  H188 3450   8.624   3.426   2.341  0.2813  0.4136  0.4240
    9CHTO   O68 3451   8.532   3.568   2.471  0.2013 -0.0069  0.0647
    9CHTO  H168 3452   8.458   3.627   2.478 -1.1302 -1.5880 -0.3643
    9CHTO   C99 3453   8.481   3.543   2.218  0.1824  0.1406  0.8790
    9CHTO  H186 3454   8.382   3.589   2.236  0.2710 -0.0812  1.9589
    9CHTO   N17 3455   8.574   3.660   2.171  0.2565 -0.3784  0.7462
    9CHTO  H174 3456   8.674   3.661   2.213  0.6146 -1.1890 -0.0436
    9CHTO  H175 3457   8.519   3.752   2.172  0.1877 -0.4317  1.7651
    9CHTO   C97 3458   8.465   3.444   2.098 -0.3117  0.7877 -0.6249
    9CHTO  H184 3459   8.567   3.406   2.078  0.0015  1.3668 -0.1473
    9CHTO   O64 3460   8.378   3.334   2.134  0.2388 -0.6457 -0.2189
    9CHTO  C104 3461   8.410   3.261   2.255  0.5067  0.3745  0.1316
    9CHTO  H191 3462   8.503   3.207   2.237  0.0224 -0.1938 -0.7087
    9CHTO  C108 3463   8.299   3.154   2.268 -0.2094  0.2083  0.0131
    9CHTO   O71 3464   8.167   3.201   2.287  0.0029 -0.1325  0.3753
    9CHTO  H171 3465   8.146   3.194   2.378  0.7174 -3.1227  0.3683
    9CHTO   O62 3466   8.395   3.511   1.985 -0.2598 -0.1103 -0.5807
    9CHTO   C91 3467   8.380   3.434   1.866  0.1399  0.2105  0.4225
    9CHTO  H178 3468   8.442   3.345   1.870 -1.9484 -1.1944  3.1947
    9CHTO   C92 3469   8.437   3.518   1.745 -0.3346 -0.4260  0.2117
    9CHTO  H179 3470   8.543   3.535   1.766 -0.5854  1.6789 -0.1849
    9CHTO   O66 3471   8.434   3.425   1.634 -0.7114  0.7644  0.1801
    9CHTO  H166 3472   8.506   3.366   1.629  0.0914  1.7744 -0.3366
    9CHTO   C93 3473   8.337   3.638   1.719 -0.6224 -0.2012 -0.0705
    9CHTO  H180 3474   8.340   3.661   1.611  1.9457  1.4129  0.2983
    9CHTO   N16 3475   8.393   3.758   1.788 -0.4095 -0.0940 -0.3499
    9CHTO  H172 3476   8.498   3.775   1.769 -0.9792  2.3170 -1.5429
    9CHTO  H173 3477   8.378   3.750   1.895 -1.8095  1.3461 -0.4297
    9CHTO   C94 3478   8.187   3.612   1.756 -0.6881  0.0443  0.7657
    9CHTO  H181 3479   8.170   3.632   1.862 -2.3619  0.7780  0.3870
    9CHTO   O61 3480   8.164   3.468   1.751 -0.1164 -0.1488  0.5355
    9CHTO   C95 3481   8.236   3.393   1.848  0.5810  0.7754  0.4973
    9CHTO  H182 3482   8.178   3.394   1.940 -1.7747  3.2182 -0.9322
    9CHTO  C106 3483   8.225   3.250   1.794  0.1852  0.7915  0.2787
    9CHTO   O69 3484   8.097   3.185   1.809 -0.2941 -0.6248  0.2719
    9CHTO  H169 3485   8.028   3.238   1.777 -1.4076 -2.3269 -0.2135
    9CHTO   O63 3486   8.105   3.688   1.674  0.0711  0.3468 -0.1195
    9CHTO   C96 3487   7.966   3.732   1.742  0.8352  0.2479  0.2189
    9CHTO  H183 3488   7.970   3.694   1.844  1.1830 -0.2505  0.0156
    9CHTO   C98 3489   7.845   3.662   1.671  0.4113  0.1414 -0.5848
    9CHTO  H185 3490   7.853   3.679   1.563 -1.8129 -2.7330 -1.2922
    9CHTO   O67 3491   7.858   3.520   1.695 -0.2552 -0.1731 -0.4894
    9CHTO  H167 3492   7.810   3.491   1.771 -0.7310 -2.0071 -1.4552
    9CHTO  C102 3493   7.696   3.704   1.721  0.1980  0.6240 -0.2559
    9CHTO  H189 3494   7.689   3.676   1.827 -2.7308  0.5881 -0.4238
    9CHTO   N18 3495   7.572   3.651   1.655  0.4370 -0.0901  0.0792
    9CHTO  H176 3496   7.482   3.680   1.706  2.2083  1.4860  2.4659
    9CHTO  H177 3497   7.577   3.552   1.613 -0.7205 -0.0112 -0.2607
    9CHTO  C105 3498   7.692   3.854   1.733 -0.5647 -0.1229  0.3892
    9CHTO  H192 3499   7.694   3.895   1.632 -0.2991 -0.6033  0.1956
    9CHTO   O65 3500   7.809   3.899   1.809  0.1144 -0.8822 -0.0177
    9CHTO  C100 3501   7.936   3.884   1.745  0.3545  0.2837  0.2266
    9CHTO  H187 3502   7.944   3.928   1.644 -0.0768 -0.4606 -0.1396
    9CHTO  C107 3503   8.049   3.963   1.828  0.8363 -0.5429 -0.3475
    9CHTO   O70 3504   8.033   4.101   1.818 -0.3998  0.2247 -0.5691
    9CHTO  H170 3505   8.050   4.139   1.902 -1.1443  0.7016 -0.6295
    9CHTO   O57 3506   7.544   3.891   1.820 -0.5489 -0.4219 -0.3593
    9CHTO   C85 3507   7.486   4.013   1.779 -0.3023  0.5905 -0.4758
    9CHTO  H157 3508   7.499   4.023   1.669 -0.0182 -0.4660 -0.5398
    9CHTO   C83 3509   7.573   4.123   1.854  0.6179 -0.5404  0.0629
    9CHTO  H155 3510   7.676   4.113   1.819  1.0456 -1.5388  1.5613
    9CHTO   O56 3511   7.562   4.101   1.996 -0.2935 -0.2749  0.0157
    9CHTO  H135 3512   7.618   4.026   2.008  1.0446  0.0868 -3.4997
    9CHTO   C81 3513   7.512   4.260   1.809  0.5106  0.1280 -0.3624
    9CHTO  H153 3514   7.508   4.260   1.701  0.8061 -0.8120 -0.3792
    9CHTO   N14 3515   7.605   4.370   1.845  0.3128  0.0745 -0.1032
    9CHTO  H141 3516   7.583   4.473   1.828 -1.0035 -0.2899 -0.6790
    9CHTO  H142 3517   7.703   4.355   1.804  0.9887 -0.0324  1.5408
    9CHTO   C79 3518   7.368   4.274   1.860 -0.5064  0.6164 -0.4082
    9CHTO  H151 3519   7.327   4.367   1.820 -1.4968  0.4157  0.1227
    9CHTO   O52 3520   7.281   4.168   1.806  0.6083 -0.0310  0.0089
    9CHTO   C86 3521   7.327   4.031   1.819 -0.5919  0.0892  0.0309
    9CHTO  H158 3522   7.310   4.011   1.927 -2.1118  0.5394 -0.1103
    9CHTO   C90 3523   7.236   3.930   1.741 -0.2025  0.2408 -0.0105
    9CHTO   O60 3524   7.104   3.944   1.778 -0.0238 -0.1276 -0.3412
    9CHTO  H138 3525   7.056   3.871   1.746 -0.0516  0.3225 -1.3355
    9CHTO   O50 3526   7.358   4.288   2.000 -0.2079  0.1129 -0.6158
    9CHTO   C73 3527   7.282   4.339   2.113  0.1051 -0.0236 -1.2494
    9CHTO  H145 3528   7.177   4.307   2.107 -0.3582  0.0519  4.2076
    9CHTO   C74 3529   7.287   4.497   2.127 -0.6840 -0.0271  0.1451
    9CHTO  H146 3530   7.239   4.533   2.035  0.0702 -2.9354 -1.4477
    9CHTO   O54 3531   7.206   4.541   2.237  0.0732  0.1885  0.4305
    9CHTO  H133 3532   7.252   4.515   2.314  0.5391  3.7580  1.4819
    9CHTO   C75 3533   7.438   4.538   2.135  0.3695  0.9835  0.7544
    9CHTO  H147 3534   7.475   4.534   2.031  0.7233 -3.2143  0.9189
    9CHTO   N13 3535   7.465   4.679   2.165 -0.2669  0.3887 -0.3047
    9CHTO  H139 3536   7.544   4.726   2.108  2.3363 -0.9140  2.0722
    9CHTO  H140 3537   7.386   4.748   2.188 -0.3580  0.4523 -0.8100
    9CHTO   C76 3538   7.522   4.446   2.243 -0.2995 -0.1299  0.1130
    9CHTO  H148 3539   7.500   4.484   2.343  1.0838 -0.2350  0.4625
    9CHTO   O49 3540   7.486   4.304   2.247 -0.1257  0.5217 -0.2873
    9CHTO   C77 3541   7.344   4.278   2.239 -1.3889 -0.1309  0.2963
    9CHTO  H149 3542   7.297   4.318   2.329 -1.1975  0.3220  0.1971
    9CHTO   C88 3543   7.334   4.127   2.253 -0.8561 -0.0149 -0.5698
    9CHTO   O58 3544   7.208   4.091   2.313 -0.0486  0.7112  0.7486
    9CHTO  H136 3545   7.227   4.025   2.378 -0.5201  1.2085  1.4018
    9CHTO   O51 3546   7.678   4.454   2.217 -0.0480  0.2781 -0.3457
    9CHTO   C78 3547   7.766   4.398   2.347 -0.8167 -0.3197  0.0479
    9CHTO  H150 3548   7.701   4.363   2.430 -3.6544  0.8705 -1.6029
    9CHTO   C80 3549   7.843   4.523   2.397  0.8318 -0.5702  0.0604
    9CHTO  H152 3550   7.880   4.579   2.309  4.7867 -0.7517  1.5188
    9CHTO   O55 3551   7.742   4.608   2.451 -0.3202  0.0150 -0.0448
    9CHTO  H134 3552   7.778   4.658   2.521 -0.6406 -0.8801  0.7627
    9CHTO   C84 3553   7.951   4.482   2.505 -0.3739 -0.2617 -0.0847
    9CHTO  H156 3554   7.898   4.452   2.595 -0.5711 -3.2928 -1.1580
    9CHTO   N15 3555   8.036   4.597   2.536 -0.0346 -0.2383  0.1786
    9CHTO  H143 3556   8.126   4.556   2.577  0.3312 -1.7102 -2.0260
    9CHTO  H144 3557   8.062   4.643   2.443  0.6752 -0.0491  0.4677
    9CHTO   C87 3558   8.039   4.365   2.452  0.7438  0.4329  0.6989
    9CHTO  H159 3559   8.091   4.409   2.366  2.2939 -2.1395  0.2561
    9CHTO   O53 3560   7.944   4.250   2.414  0.5596 -0.0474  0.0848
    9CHTO   C82 3561   7.859   4.286   2.308 -0.2321  0.4430 -0.3875
    9CHTO  H154 3562   7.905   4.313   2.214  0.5112  0.1174 -0.1207
    9CHTO   C89 3563   7.773   4.154   2.278  0.5184 -0.0174 -0.2333
    9CHTO   O59 3564   7.844   4.078   2.181 -0.2014 -0.0157 -0.0515
    9CHTO  H137 3565   7.783   4.032   2.127  0.4137 -0.2883 -0.5153
    9CHTO   O45 3566   8.170   4.329   2.543  0.0873  0.2934  0.5009
    9CHTO   C67 3567   8.207   4.195   2.570 -0.0799 -0.0632 -0.0947
    9CHTO  H124 3568   8.136   4.128   2.521  0.4589  0.5861 -1.7862
    9CHTO   C65 3569   8.352   4.161   2.519 -0.0769 -0.4218 -0.2606
    9CHTO  H122 3570   8.403   4.257   2.528 -1.3774  0.1346  1.2643
    9CHTO   O44 3571   8.338   4.128   2.379 -0.3516 -0.2064 -0.0144
    9CHTO  H102 3572   8.369   4.201   2.330 -1.2732 -0.2748 -0.7073
    9CHTO   C63 3573   8.435   4.059   2.613 -0.1082 -0.3791  0.3531
    9CHTO  H120 3574   8.465   4.112   2.703 -1.9781 -1.4250  1.6114
    9CHTO   N11 3575   8.569   4.018   2.560  0.0214  0.7725  0.0973
    9CHTO  H108 3576   8.557   3.993   2.456 -0.3670  0.8540  0.1210
    9CHTO  H109 3577   8.636   4.102   2.560 -0.0528  0.8427 -0.7443
    9CHTO   C61 3578   8.327   3.951   2.652  0.1610  0.6091  0.6194
    9CHTO  H118 3579   8.381   3.890   2.726  0.9226  1.8994  1.1577
    9CHTO   O40 3580   8.208   4.010   2.721 -0.1817 -0.1893  0.3320
    9CHTO   C68 3581   8.191   4.156   2.727 -0.1160  0.4902 -0.1209
    9CHTO  H125 3582   8.269   4.201   2.792  1.2636 -1.2057 -0.5568
    9CHTO   C72 3583   8.054   4.200   2.778 -0.6785 -1.2282 -0.1350
    9CHTO   O48 3584   7.947   4.173   2.691 -0.0332  0.1369  0.1237
    9CHTO  H105 3585   7.868   4.183   2.740 -0.3874  0.2037 -0.4631
    9CHTO   O38 3586   8.286   3.883   2.530  0.4847  0.3630 -0.0677
    9CHTO   C55 3587   8.159   3.812   2.518 -0.5865  0.0603 -0.2794
    9CHTO  H112 3588   8.080   3.886   2.538 -0.9774 -0.1986 -0.8488
    9CHTO   C56 3589   8.146   3.686   2.616  0.0742  0.0233  0.0568
    9CHTO  H113 3590   8.232   3.618   2.605  0.9308  0.6630  2.4226
    9CHTO   O42 3591   8.155   3.733   2.754 -0.0868  0.0360  0.1889
    9CHTO  H100 3592   8.099   3.680   2.808  0.7730 -0.6160  0.4670
    9CHTO   C57 3593   8.014   3.607   2.593 -0.4608 -0.0060 -0.0968
    9CHTO  H114 3594   7.944   3.686   2.619  0.2312 -0.2854  2.7390
    9CHTO   N10 3595   8.003   3.487   2.679  0.0138 -0.0025  0.2039
    9CHTO  H106 3596   8.068   3.404   2.659  0.8163  0.6484  0.0724
    9CHTO  H107 3597   7.903   3.448   2.690 -0.2270  0.8933  1.3650
    9CHTO   C58 3598   8.003   3.570   2.444  0.2506 -0.4797 -0.7336
    9CHTO  H115 3599   8.085   3.499   2.422  1.0614 -0.5067  2.0824
    9CHTO   O37 3600   8.010   3.689   2.365 -0.0642  0.0873 -0.4814
    9CHTO   C59 3601   8.140   3.753   2.377  0.0876 -0.4084  0.4123
    9CHTO  H116 3602   8.216   3.684   2.338  0.3088  0.1565 -0.1764
    9CHTO   C70 3603   8.149   3.866   2.273  0.2087  0.0975 -0.5709
    9CHTO   O46 3604   8.120   3.823   2.140  0.0995 -0.5708 -0.2069
    9CHTO  H103 3605   8.040   3.865   2.115 -0.9450 -0.1219  3.6517
    9CHTO   O39 3606   7.857   3.514   2.400 -0.1308  0.3576  0.7494
    9CHTO   C60 3607   7.848   3.374   2.377 -0.2515 -0.2070  0.5843
    9CHTO  H117 3608   7.941   3.329   2.410 -0.5743 -0.5010  1.1049
    9CHTO   C62 3609   7.727   3.315   2.468 -0.4495 -0.3603  0.0975
    9CHTO  H119 3610   7.749   3.337   2.575  2.2249  0.2196 -0.5294
    9CHTO   O43 3611   7.601   3.377   2.435  0.3318 -0.2842 -0.0539
    9CHTO  H101 3612   7.588   3.382   2.342 -1.4731 -1.7679  0.1081
    9CHTO   C66 3613   7.733   3.154   2.446 -0.0119 -0.3989 -0.4010
    9CHTO  H123 3614   7.825   3.117   2.490  0.5156  0.2639 -0.9357
    9CHTO   N12 3615   7.628   3.087   2.531 -0.2846  0.5676  0.4153
    9CHTO  H110 3616   7.661   3.059   2.630  2.5949  0.7842 -0.4661
    9CHTO  H111 3617   7.536   3.144   2.529 -0.4185  0.4159  1.7198
    9CHTO   C69 3618   7.709   3.122   2.297  0.1906  0.3381 -0.4530
    9CHTO  H126 3619   7.606   3.150   2.269  0.1203  1.3358  0.7282
    9CHTO   O41 3620   7.820   3.201   2.208 -0.3261 -0.4274  0.9293
    9CHTO   C64 3621   7.826   3.338   2.226 -0.0607 -0.5863  0.0406
    9CHTO  H121 3622   7.730   3.386   2.200 -1.0605 -2.9458 -0.7576
    9CHTO   C71 3623   7.936   3.400   2.139 -0.5199  0.5298 -0.4476
    9CHTO   O47 3624   7.916   3.366   2.005 -0.8926 -0.3521  0.2510
    9CHTO  H104 3625   7.836   3.400   1.969 -0.5198 -2.6143 -2.9610
    9CHTO   O34 3626   7.717   2.974   2.260 -0.1617  0.0685  0.2986
    9CHTO   C49 3627   7.808   2.891   2.170 -0.4189 -0.0828  0.2031
    9CHTO   H91 3628   7.784   2.911   2.066  0.7223  0.0456 -0.0459
    9CHTO   C47 3629   7.775   2.744   2.197 -0.0626 -0.2720 -0.5594
    9CHTO   H89 3630   7.827   2.686   2.118 -0.9515  1.4697 -2.4574
    9CHTO   O33 3631   7.636   2.726   2.190 -0.5216 -0.2812 -0.4460
    9CHTO   H70 3632   7.615   2.720   2.099 -1.0234 -0.8579 -0.2945
    9CHTO   C45 3633   7.832   2.701   2.340 -0.4950 -0.6936  0.0064
    9CHTO   H87 3634   7.748   2.710   2.410 -2.3107  2.0575 -2.3966
    9CHTO    N8 3635   7.880   2.561   2.337  0.3762  0.0608  0.9225
    9CHTO   H75 3636   7.804   2.498   2.294  1.9729 -0.6498 -0.9113
    9CHTO   H76 3637   7.974   2.549   2.285 -1.3283  1.3670 -2.6683
    9CHTO   C43 3638   7.931   2.797   2.398  0.1616 -0.3157 -0.7724
    9CHTO   H85 3639   7.871   2.879   2.439  2.0372  1.1179 -0.8212
    9CHTO   O29 3640   8.024   2.844   2.301 -0.0356  0.2646  0.3549
    9CHTO   C50 3641   7.962   2.913   2.195  0.2203 -0.3357 -0.0290
    9CHTO   H92 3642   7.982   3.017   2.225 -0.3657 -0.3541  0.4165
    9CHTO   C54 3643   8.042   2.879   2.061 -0.7616  0.0392  0.2093
    9CHTO   O36 3644   8.180   2.925   2.062  0.7461  0.0458 -0.3130
    9CHTO   H72 3645   8.177   3.018   2.077 -0.4320 -0.1316  0.6092
    9CHTO   O27 3646   8.002   2.747   2.515 -0.1476  0.1294 -0.5002
    9CHTO   C37 3647   8.060   2.786   2.635  0.5089 -0.6482  0.2334
    9CHTO   H79 3648   8.149   2.727   2.662  1.9839  1.4826  0.1398
    9CHTO   C38 3649   8.110   2.937   2.617 -0.1770 -0.3241  0.0082
    9CHTO   H80 3650   8.029   2.996   2.572 -0.0434  0.5794  0.9366
    9CHTO   O31 3651   8.223   2.925   2.530  0.2598  0.3227 -0.7360
    9CHTO   H68 3652   8.252   2.837   2.515 -1.7177 -0.5318  0.3403
    9CHTO   C39 3653   8.143   3.007   2.759  0.0195 -0.0547  0.7758
    9CHTO   H81 3654   8.217   2.944   2.808 -1.8610 -1.9305  1.3279
    9CHTO    N7 3655   8.205   3.146   2.750  0.0212  0.5003  0.2402
    9CHTO   H73 3656   8.305   3.126   2.716 -0.2882  1.6415 -1.3911
    9CHTO   H74 3657   8.162   3.195   2.664  2.2924 -0.0655 -1.2701
    9CHTO   C40 3658   8.013   3.007   2.839 -0.7538 -0.2014  0.3485
    9CHTO   H82 3659   7.940   3.051   2.771 -0.2727 -1.4124 -0.9796
    9CHTO   O26 3660   7.980   2.866   2.864  0.0543 -0.1626  0.2944
    9CHTO   C41 3661   7.944   2.786   2.745 -0.1526  0.2507 -0.5884
    9CHTO   H83 3662   7.848   2.823   2.708 -1.0033  0.3964  1.6649
    9CHTO   C52 3663   7.913   2.643   2.798 -0.3162 -0.1579 -0.5013
    9CHTO   O35 3664   7.994   2.584   2.921 -0.1611  0.4021 -0.2229
    9CHTO   H71 3665   8.054   2.518   2.893 -1.7307 -0.6498 -1.1650
    9CHTO   O28 3666   8.013   3.061   2.968 -0.2088  0.0258  0.1502
    9CHTO   C42 3667   7.897   3.135   3.020  0.8189  0.0837 -0.1043
    9CHTO   H84 3668   7.915   3.121   3.127  0.8045  0.4617 -0.0490
    9CHTO   C44 3669   7.751   3.074   2.987  0.0356  0.4217 -0.0730
    9CHTO   H86 3670   7.732   3.089   2.880 -0.4443 -2.7760 -0.4955
    9CHTO   O32 3671   7.761   2.938   3.037  0.1094  0.4239 -0.1263
    9CHTO   H69 3672   7.731   2.880   2.970  0.3444  1.5081 -1.1706
    9CHTO   C48 3673   7.639   3.154   3.056 -0.3987 -0.1122  0.2773
    9CHTO   H90 3674   7.659   3.165   3.163  1.4896  1.0786 -0.1761
    9CHTO    N9 3675   7.501   3.101   3.027  0.1920 -0.1284 -0.0667
    9CHTO   H77 3676   7.442   3.167   2.965  1.2781  0.9910  0.0645
    9CHTO   H78 3677   7.450   3.084   3.121  0.1524 -0.1790 -0.0974
    9CHTO   C51 3678   7.661   3.299   3.001  0.6705  0.2018 -0.2813
    9CHTO   H93 3679   7.676   3.296   2.893 -2.2583 -0.8513 -0.6973
    9CHTO   O30 3680   7.775   3.358   3.072 -0.3763  0.4708  0.1094
    9CHTO   C46 3681   7.894   3.294   2.998  0.7979  0.7269  0.8083
    9CHTO   H88 3682   7.885   3.307   2.890 -2.1713 -0.4432  0.8585
    9CHTO   C53 3683   8.026   3.355   3.050 -0.8011  0.5558 -0.6306
    9CHTO   O72 3684   8.025   3.496   3.027  0.1816  0.3989  0.2948
    9CHTO  H199 3685   8.111   3.531   3.037 -0.6303  2.2618  0.9083
    9CHTO   O22 3686   7.552   3.393   3.033 -0.4865 -0.1016 -0.1642
    9CHTO   C31 3687   7.544   3.519   2.956 -0.1066  0.2381 -0.2524
    9CHTO   H59 3688   7.452   3.573   2.989  0.3488  0.0932  1.2941
    9CHTO   C29 3689   7.662   3.619   2.976 -0.1975 -0.5392  0.1353
    9CHTO   H57 3690   7.755   3.563   2.959  0.8723  1.8044 -2.0973
    9CHTO   O21 3691   7.673   3.670   3.112  0.8052 -0.4421  0.1882
    9CHTO   H37 3692   7.676   3.596   3.170  0.5110  2.0245  3.4957
    9CHTO   C27 3693   7.659   3.742   2.868 -0.1865 -0.5226 -0.0313
    9CHTO   H55 3694   7.578   3.808   2.901 -1.2554 -1.6781 -0.3018
    9CHTO    N5 3695   7.782   3.821   2.870  0.9426  0.5157  0.4495
    9CHTO   H43 3696   7.869   3.776   2.824  1.7555  1.4506  1.0239
    9CHTO   H44 3697   7.768   3.922   2.834  1.3018  0.6986  0.8165
    9CHTO   C25 3698   7.630   3.684   2.726 -0.2309 -0.5943 -0.1263
    9CHTO   H53 3699   7.718   3.632   2.688 -0.6130  0.2029 -2.1318
    9CHTO   O17 3700   7.511   3.602   2.732  0.0711  0.3029  0.3397
    9CHTO   C32 3701   7.515   3.487   2.811  0.3662  0.0104  0.3181
    9CHTO   H60 3702   7.599   3.435   2.764  0.1585 -0.6033  0.6266
    9CHTO   C36 3703   7.388   3.401   2.786  0.0467 -0.3247 -0.3902
    9CHTO   O25 3704   7.389   3.326   2.665 -0.1681  0.1535  0.7191
    9CHTO   H40 3705   7.442   3.250   2.679  0.5064  0.8279  1.8986
    9CHTO   O15 3706   7.590   3.814   2.616 -0.0945  0.2693 -0.3910
    9CHTO   C19 3707   7.541   3.812   2.480 -0.3554  0.2201  0.2803
    9CHTO   H47 3708   7.512   3.916   2.464 -1.5574 -0.2770 -0.8316
    9CHTO   C20 3709   7.640   3.764   2.366 -0.3241 -0.3705  0.4741
    9CHTO   H48 3710   7.663   3.657   2.374 -0.1201 -0.4731 -1.2806
    9CHTO   O19 3711   7.762   3.836   2.379  0.4633 -0.0091  0.3868
    9CHTO   H35 3712   7.823   3.818   2.311 -0.0972 -1.5651  0.2794
    9CHTO   C21 3713   7.578   3.776   2.218  0.6918  0.2508  0.5541
    9CHTO   H49 3714   7.549   3.879   2.194  0.8788  0.4900  1.3489
    9CHTO    N4 3715   7.669   3.724   2.114  0.7219  0.0087  0.1193
    9CHTO   H41 3716   7.696   3.620   2.121  0.2641  0.0122  2.1550
    9CHTO   H42 3717   7.648   3.748   2.011  0.3941 -0.2013  0.1364
    9CHTO   C22 3718   7.446   3.701   2.220  0.7623 -0.5719 -0.6484
    9CHTO   H50 3719   7.459   3.594   2.234  3.6141 -0.3967 -1.7455
    9CHTO   O14 3720   7.363   3.755   2.326  0.1587  0.2114 -0.0238
    9CHTO   C23 3721   7.408   3.738   2.457  0.2491  0.8820 -0.1351
    9CHTO   H51 3722   7.415   3.629   2.470  0.5340  0.9467  0.2653
    9CHTO   C34 3723   7.304   3.774   2.564 -0.2661 -0.7650  0.3310
    9CHTO   O23 3724   7.289   3.917   2.577  0.3703 -0.2340 -0.4503
    9CHTO   H38 3725   7.205   3.935   2.540 -0.6368 -1.5244  1.1521
    9CHTO   O16 3726   7.365   3.726   2.100  0.5910 -0.1585  0.2711
    9CHTO   C24 3727   7.247   3.614   2.090 -0.2342  0.1827  0.5145
    9CHTO   H52 3728   7.233   3.560   2.184  1.3746 -1.6320 -0.2546
    9CHTO   C26 3729   7.297   3.521   1.975 -0.5018  0.5072  0.4937
    9CHTO   H54 3730   7.336   3.589   1.897  0.8616  0.0284  0.7518
    9CHTO   O20 3731   7.398   3.443   2.034  0.6236 -0.3437 -0.6331
    9CHTO   H36 3732   7.480   3.454   1.989  0.3415  0.3023 -0.9929
    9CHTO   C30 3733   7.181   3.430   1.919  0.3474 -0.3527  0.7224
    9CHTO   H58 3734   7.162   3.352   1.994  0.7048 -0.3199  0.8467
    9CHTO    N6 3735   7.217   3.356   1.794 -0.0785  0.4286 -0.2092
    9CHTO   H45 3736   7.318   3.318   1.804 -1.2421 -2.5546  0.9634
    9CHTO   H46 3737   7.159   3.265   1.789 -0.9167  0.8571  1.3700
    9CHTO   C33 3738   7.046   3.506   1.906  0.2190  0.4229 -0.0077
    9CHTO   H61 3739   7.046   3.575   1.820 -0.2700  1.0718  0.5068
    9CHTO   O18 3740   7.019   3.574   2.026 -0.7921 -0.1014  0.2955
    9CHTO   C28 3741   7.112   3.677   2.055  0.0330  0.7617 -0.0921
    9CHTO   H56 3742   7.131   3.740   1.967  2.3575 -1.5083 -1.2506
    9CHTO   C35 3743   7.057   3.771   2.157 -0.1979 -0.2392  0.2940
    9CHTO   O24 3744   6.952   3.857   2.124 -0.1148 -0.5631 -0.2687
    9CHTO   H39 3745   6.960   3.937   2.173 -0.4580  0.3403 -1.6688
    9CHTO    O9 3746   6.942   3.409   1.874 -0.0359 -0.7404 -0.1949
    9CHTO   C13 3747   6.806   3.490   1.790 -1.0723  0.2955 -0.0628
    9CHTO   H26 3748   6.846   3.517   1.690  0.8222 -1.9552  0.0502
    9CHTO   C11 3749   6.754   3.622   1.868 -0.8277 -0.2191 -0.6512
    9CHTO   H24 3750   6.836   3.696   1.867 -0.5656 -0.4651  1.4667
    9CHTO    O8 3751   6.726   3.579   2.001 -0.3761  0.2997 -0.2576
    9CHTO    H3 3752   6.644   3.535   2.011  0.5571 -1.2055  0.9946
    9CHTO    C9 3753   6.635   3.695   1.805 -0.3266  0.4896 -0.5462
    9CHTO   H22 3754   6.655   3.717   1.699  1.5131 -0.3243 -0.3716
    9CHTO    N2 3755   6.605   3.830   1.867  0.3847  0.0492 -0.1464
    9CHTO   H10 3756   6.511   3.866   1.827  0.6226 -1.1954 -1.8730
    9CHTO   H11 3757   6.680   3.906   1.884  1.4910 -0.7031 -1.5711
    9CHTO    C7 3758   6.513   3.591   1.797 -0.6787  0.2618  0.7687
    9CHTO   H20 3759   6.430   3.642   1.745 -0.8782 -0.2573  0.5693
    9CHTO    O4 3760   6.550   3.460   1.744 -0.0073  0.4811  0.2120
    9CHTO   C14 3761   6.675   3.396   1.768 -0.7145  0.4776  0.7132
    9CHTO   H27 3762   6.687   3.332   1.678  0.8162  2.0285 -0.2330
    9CHTO   C18 3763   6.661   3.300   1.897  0.0192  0.5098 -0.4817
    9CHTO   O13 3764   6.562   3.197   1.867 -0.1610 -0.2008  0.2493
    9CHTO    H7 3765   6.592   3.131   1.808  0.5148 -1.3724  1.8851
    9CHTO    O2 3766   6.458   3.569   1.956 -0.1197 -0.4175 -0.1578
    9CHTO    C1 3767   6.324   3.544   1.989  0.3194  0.6087  0.5950
    9CHTO   H14 3768   6.318   3.471   2.073 -0.3687  0.8035  0.7205
    9CHTO    C2 3769   6.238   3.487   1.870 -0.2052 -0.1307 -0.7875
    9CHTO   H15 3770   6.231   3.564   1.791 -3.2427 -1.3698 -1.8117
    9CHTO    O6 3771   6.305   3.369   1.823  0.3316 -0.1070  0.3016
    9CHTO    H1 3772   6.292   3.305   1.890 -2.3274  0.4201  0.3364
    9CHTO    C3 3773   6.088   3.458   1.920  0.3778  0.5646  0.2246
    9CHTO   H16 3774   6.100   3.380   1.997  0.2894 -0.2027 -0.5209
    9CHTO    N1 3775   5.998   3.401   1.805  0.6784  0.0298  0.2951
    9CHTO    H8 3776   5.909   3.462   1.803  0.3827 -0.4082  0.0889
    9CHTO    H9 3777   5.966   3.303   1.835  1.5123  0.8969  4.3040
    9CHTO    C4 3778   6.026   3.590   1.991 -0.1169  0.0299 -0.5715
    9CHTO   H17 3779   5.982   3.657   1.917 -2.4493  1.5660  2.1503
    9CHTO    O1 3780   6.122   3.649   2.076  0.2378 -0.2153  0.1030
    9CHTO    C5 3781   6.259   3.677   2.039  0.1114 -1.1071 -0.1568
    9CHTO   H18 3782   6.257   3.750   1.958  0.2681  2.2126  2.7383
    9CHTO   C16 3783   6.341   3.739   2.147 -0.3309  0.4746  0.4162
    9CHTO   O11 3784   6.319   3.675   2.278  0.0090  0.7343  0.1616
    9CHTO    H5 3785   6.281   3.591   2.261 -0.2886  0.9491 -0.2267
    9CHTO    O3 3786   5.928   3.547   2.089  0.6745  0.0880  0.1523
    9CHTO    C6 3787   5.821   3.643   2.099 -0.3231  0.2330  0.1452
    9CHTO   H19 3788   5.851   3.741   2.065 -0.3448  0.6162  1.2069
    9CHTO    C8 3789   5.696   3.595   2.011 -0.7283  0.1853  0.5966
    9CHTO   H21 3790   5.677   3.489   2.031 -1.7271  0.0826 -0.8142
    9CHTO    O7 3791   5.730   3.605   1.874 -0.2567  0.2190  0.3683
    9CHTO    H2 3792   5.798   3.543   1.858  0.1955  0.6074  0.7860
    9CHTO   C12 3793   5.566   3.669   2.055 -0.0815  0.1276  0.4338
    9CHTO   H25 3794   5.586   3.771   2.017  0.7595  0.2104  1.0809
    9CHTO    N3 3795   5.446   3.611   1.985  0.4243  0.5073 -0.1578
    9CHTO   H12 3796   5.481   3.546   1.906 -1.4854 -2.7980  1.6062
    9CHTO   H13 3797   5.394   3.696   1.943 -2.6369 -0.1368  2.1450
    9CHTO   C15 3798   5.554   3.677   2.215  0.4395 -0.3169  0.4410
    9CHTO   H28 3799   5.545   3.575   2.251 -2.1290  0.2227  1.3954
    9CHTO   O10 3800   5.430   3.769   2.259  0.2897 -0.2680  0.2237
    9CHTO    H4 3801   5.417   3.841   2.200 -0.8433 -1.4858 -1.0393
    9CHTO    O5 3802   5.668   3.738   2.272  0.2579 -0.0171  0.1796
    9CHTO   C10 3803   5.786   3.666   2.253 -0.0865  0.0585 -0.2958
    9CHTO   H23 3804   5.780   3.562   2.286 -1.5605 -0.5445 -2.3714
    9CHTO   C17 3805   5.904   3.734   2.325  0.2460  0.1145 -0.0717
    9CHTO   O12 3806   5.917   3.876   2.294 -0.3797 -0.2009  0.1330
    9CHTO    H6 3807   5.838   3.919   2.269 -1.8581 -2.4780  0.7379
   10CHTO  H203 3808   5.064   5.758  -0.918  1.8560  2.3279 -0.7951
   10CHTO   O82 3809   5.035   5.824  -0.857 -0.8804  0.1679  0.3365
   10CHTO  C123 3810   4.894   5.858  -0.853  0.2697 -0.3298  0.3794
   10CHTO  H227 3811   4.858   5.857  -0.956  1.3387 -1.7392 -0.0020
   10CHTO   O77 3812   4.828   5.758  -0.767  0.3913  0.3779 -0.3885
   10CHTO  C118 3813   4.691   5.780  -0.752  0.0715  0.4043 -0.4223
   10CHTO  H222 3814   4.643   5.787  -0.850 -0.3124  2.0183 -0.1358
   10CHTO  C125 3815   4.634   5.646  -0.668 -0.9000 -1.0125 -0.8230
   10CHTO   O84 3816   4.667   5.643  -0.528  0.3477  0.2769 -0.2384
   10CHTO  H205 3817   4.625   5.573  -0.482 -0.3428  1.2110  0.5938
   10CHTO  C114 3818   4.662   5.916  -0.675  0.3108  0.0124  0.2636
   10CHTO  H218 3819   4.710   5.910  -0.577  0.2488  0.2082  0.3067
   10CHTO  C116 3820   4.728   6.032  -0.757 -0.3317 -0.2618 -0.0287
   10CHTO  H220 3821   4.670   6.039  -0.852 -1.0393  1.8852  0.5404
   10CHTO   O79 3822   4.709   6.149  -0.679  0.6866 -0.6415  0.5334
   10CHTO  H201 3823   4.766   6.151  -0.604 -0.2983 -1.8360  1.3326
   10CHTO  C120 3824   4.882   5.999  -0.783 -0.0118 -0.4006  0.1019
   10CHTO  H224 3825   4.932   5.993  -0.684 -1.5249 -2.8046  0.7765
   10CHTO   N21 3826   4.951   6.108  -0.855 -0.0322  0.9204 -0.2879
   10CHTO  H211 3827   5.044   6.070  -0.892 -1.1903 -1.8135 -0.4655
   10CHTO  H212 3828   4.957   6.199  -0.797 -0.6581 -0.3757  1.8644
   10CHTO   O75 3829   4.518   5.911  -0.647 -0.9814 -0.1764 -0.3093
   10CHTO  C112 3830   4.465   5.936  -0.487  0.2332  0.0988 -0.7271
   10CHTO  H216 3831   4.558   5.964  -0.435  0.9039  0.1122 -1.8854
   10CHTO   O73 3832   4.415   5.811  -0.443  0.0795 -0.0934  0.1597
   10CHTO  C113 3833   4.378   5.819  -0.304  0.0453 -0.5429  0.4478
   10CHTO  H217 3834   4.472   5.852  -0.255  2.1134 -2.6893 -1.9573
   10CHTO  C124 3835   4.335   5.683  -0.248  0.1516  0.0306 -0.8213
   10CHTO   O83 3836   4.329   5.666  -0.107  0.1780  0.3613 -0.2292
   10CHTO  H204 3837   4.249   5.633  -0.070 -0.6097 -0.0609 -2.2539
   10CHTO  C109 3838   4.268   5.926  -0.281  0.1003 -0.4811 -0.2295
   10CHTO  H213 3839   4.175   5.882  -0.321 -0.1586 -0.1643  0.0107
   10CHTO  C110 3840   4.307   6.068  -0.339 -0.8712  0.8175 -0.7948
   10CHTO  H214 3841   4.395   6.100  -0.283  1.6933 -2.8724 -2.5361
   10CHTO   O78 3842   4.195   6.159  -0.326  0.2544 -0.3624 -0.2455
   10CHTO  H200 3843   4.160   6.160  -0.239  0.9503 -1.5992  0.0630
   10CHTO  C111 3844   4.357   6.046  -0.493 -0.7427  0.0985 -0.1576
   10CHTO  H215 3845   4.265   6.018  -0.546  0.4310  1.0409 -2.7413
   10CHTO   N19 3846   4.401   6.171  -0.553  0.3760 -0.3643 -0.3706
   10CHTO  H207 3847   4.315   6.231  -0.577  1.6643  1.2979 -0.8813
   10CHTO  H208 3848   4.455   6.157  -0.645  1.8964  1.4744  0.2250
   10CHTO   O74 3849   4.247   5.950  -0.138  0.8169  0.4433 -0.2782
   10CHTO  C115 3850   4.083   5.971  -0.113  0.0455  0.4805  0.2766
   10CHTO  H219 3851   4.038   6.025  -0.196  0.6382 -0.6529 -0.7954
   10CHTO   O76 3852   4.003   5.839  -0.110 -0.5170 -0.3458 -0.0469
   10CHTO  C122 3853   3.998   5.771   0.013  0.1220 -0.1229  0.1127
   10CHTO  H226 3854   4.105   5.757   0.029  0.0047 -1.3520 -0.1048
   10CHTO  C126 3855   3.944   5.629   0.002 -0.2020  0.1510  0.4431
   10CHTO   O85 3856   3.985   5.544   0.104 -0.6753  0.1036  0.2521
   10CHTO  H206 3857   4.003   5.459   0.070 -0.4082  1.2699 -2.5959
   10CHTO  C121 3858   3.938   5.854   0.127  0.3006  0.3446  0.1037
   10CHTO  H225 3859   3.835   5.814   0.135 -0.0218  1.4854  1.7726
   10CHTO   O81 3860   4.020   5.813   0.234 -0.5429 -0.7384 -0.7712
   10CHTO  H202 3861   3.969   5.791   0.309  2.0258  0.5832  1.4630
   10CHTO  C119 3862   3.937   6.005   0.105 -0.1448 -0.1548 -1.0475
   10CHTO  H223 3863   3.844   6.022   0.050 -1.2233 -2.4415 -0.0053
   10CHTO  C117 3864   4.066   6.054   0.023 -0.0785 -0.0258 -0.7218
   10CHTO  H221 3865   4.159   6.045   0.080 -0.1057  0.6035 -0.5716
   10CHTO   N20 3866   4.043   6.197  -0.005  0.3241  0.2426  0.7685
   10CHTO  H209 3867   4.058   6.272   0.071  4.0315  0.4095 -0.0015
   10CHTO  H210 3868   4.120   6.223  -0.076 -1.2645  0.4503 -0.8941
   10CHTO   O80 3869   3.908   6.086   0.246 -0.2729 -0.4402 -0.1950
   10CHTO  C103 3870   3.760   6.082   0.312  0.1611 -0.4950  0.4071
   10CHTO  H190 3871   3.754   6.172   0.373 -1.7949 -1.0557  1.0734
   10CHTO  C101 3872   3.645   6.093   0.207  0.9031  0.1410  0.3698
   10CHTO  H188 3873   3.648   6.015   0.131  1.7837 -0.9096  1.4686
   10CHTO   O68 3874   3.687   6.220   0.122  0.1400  0.5546 -0.5375
   10CHTO  H168 3875   3.624   6.240   0.056 -1.5147 -0.8156  0.5901
   10CHTO   C99 3876   3.510   6.115   0.293 -0.6586  0.4081  0.0508
   10CHTO  H186 3877   3.520   6.206   0.356 -0.2391 -1.2806  2.4842
   10CHTO   N17 3878   3.384   6.122   0.210  1.1547  0.5157 -0.0200
   10CHTO  H174 3879   3.411   6.173   0.119 -0.8333  0.9196 -0.4073
   10CHTO  H175 3880   3.316   6.179   0.272 -1.3603 -1.7815 -0.5798
   10CHTO   C97 3881   3.501   5.996   0.391  0.2170 -0.4903  1.0794
   10CHTO  H184 3882   3.473   5.910   0.328 -1.2696 -0.3422  1.5118
   10CHTO   O64 3883   3.618   5.966   0.466 -0.3093  0.7664 -0.1962
   10CHTO  C104 3884   3.745   5.957   0.404 -0.0547  0.5658  0.1894
   10CHTO  H191 3885   3.753   5.868   0.342 -1.0428  0.1635  0.6232
   10CHTO  C108 3886   3.859   5.958   0.508  0.3587 -0.0592 -0.1287
   10CHTO   O71 3887   3.857   5.832   0.577 -0.1051 -0.0227 -0.5710
   10CHTO  H171 3888   3.858   5.837   0.670 -1.6453  0.0016 -0.5478
   10CHTO   O62 3889   3.393   6.025   0.485 -0.3788 -0.6759 -0.0338
   10CHTO   C91 3890   3.346   5.915   0.570 -0.3479 -0.4939  0.0375
   10CHTO  H178 3891   3.331   5.829   0.504 -1.8838  1.2889 -2.0452
   10CHTO   C92 3892   3.200   5.953   0.622  0.4833  0.0056  0.3801
   10CHTO  H179 3893   3.146   5.992   0.534  0.8265  2.5651  1.2486
   10CHTO   O66 3894   3.124   5.835   0.664 -0.2954 -0.6324 -0.1683
   10CHTO  H166 3895   3.117   5.781   0.588 -0.8109 -1.9853  0.8109
   10CHTO   C93 3896   3.212   6.058   0.741  0.1997 -0.3573  0.7379
   10CHTO  H180 3897   3.109   6.058   0.780  0.5612  0.1030  1.6975
   10CHTO   N16 3898   3.239   6.200   0.711  0.0942 -0.1315 -0.0587
   10CHTO  H172 3899   3.330   6.212   0.654  0.4637  0.5641  0.6752
   10CHTO  H173 3900   3.153   6.237   0.656 -0.7639 -1.9364  0.0182
   10CHTO   C94 3901   3.309   5.999   0.856 -0.7221  0.1547  0.7560
   10CHTO  H181 3902   3.390   6.068   0.879  0.9681 -1.4659 -0.2196
   10CHTO   O61 3903   3.373   5.871   0.817 -0.1701  0.5798  0.5765
   10CHTO   C95 3904   3.435   5.870   0.688  0.3851 -0.2029 -0.1408
   10CHTO  H182 3905   3.513   5.946   0.690  0.6439 -0.2519 -4.1973
   10CHTO  C106 3906   3.491   5.730   0.669  0.4856 -0.3108 -0.0339
   10CHTO   O69 3907   3.572   5.691   0.786  0.7820 -0.4582  0.1264
   10CHTO  H169 3908   3.623   5.614   0.769  1.7843  0.0650  0.6895
   10CHTO   O63 3909   3.235   5.967   0.976 -0.4284 -0.4478  0.3137
   10CHTO   C96 3910   3.325   5.930   1.117 -0.1137  0.2039  0.5161
   10CHTO  H183 3911   3.426   5.947   1.082 -0.3924 -2.4644 -1.7562
   10CHTO   C98 3912   3.335   5.785   1.157 -0.0900  0.6605 -0.0179
   10CHTO  H185 3913   3.231   5.750   1.167 -0.0203  0.6847  0.8399
   10CHTO   O67 3914   3.386   5.707   1.048  0.0651 -0.6074  0.3728
   10CHTO  H167 3915   3.469   5.734   1.014 -1.4414  1.6359 -1.6244
   10CHTO  C102 3916   3.422   5.753   1.290 -0.2686 -0.3129 -0.1514
   10CHTO  H189 3917   3.527   5.765   1.257 -0.3977 -0.4066 -0.5872
   10CHTO   N18 3918   3.423   5.619   1.346 -0.2962 -0.3401  0.3335
   10CHTO  H176 3919   3.326   5.598   1.388 -0.3031  0.4460  0.7130
   10CHTO  H177 3920   3.496   5.601   1.424  0.8715 -0.1428 -0.6977
   10CHTO  C105 3921   3.392   5.861   1.407 -0.6719  0.0892 -0.4340
   10CHTO  H192 3922   3.304   5.831   1.464  1.5784 -0.0200  3.0830
   10CHTO   O65 3923   3.374   5.992   1.348  0.4067  0.0375 -0.4075
   10CHTO  C100 3924   3.284   6.019   1.234  0.3984  0.9468 -0.5868
   10CHTO  H187 3925   3.188   5.978   1.269  1.1932 -0.4657 -0.0202
   10CHTO  C107 3926   3.271   6.170   1.193 -0.6088  0.3039 -0.6304
   10CHTO   O70 3927   3.217   6.240   1.303  0.0350 -0.7493 -0.3844
   10CHTO  H170 3928   3.181   6.321   1.273  1.3491  0.7809  2.0240
   10CHTO   O57 3929   3.521   5.872   1.507  0.4517  1.0830  0.6268
   10CHTO   C85 3930   3.512   5.901   1.647  0.1365 -0.1705  0.1724
   10CHTO  H157 3931   3.410   5.870   1.677 -0.6529 -0.4498 -2.6696
   10CHTO   C83 3932   3.516   6.055   1.684 -0.3784 -0.2030 -0.0998
   10CHTO  H155 3933   3.427   6.095   1.634  0.1053  1.1606  0.0969
   10CHTO   O56 3934   3.637   6.117   1.626  0.6074  0.4698  0.7045
   10CHTO  H135 3935   3.645   6.202   1.666  1.2268  0.4337  0.6553
   10CHTO   C81 3936   3.506   6.081   1.838  0.2165 -0.3269 -0.1249
   10CHTO  H153 3937   3.416   6.029   1.871  0.8709 -0.2120  1.9136
   10CHTO   N14 3938   3.483   6.228   1.862 -0.1417 -1.3397  0.6054
   10CHTO  H141 3939   3.464   6.283   1.772 -1.5525 -1.5825  0.7380
   10CHTO  H142 3940   3.569   6.270   1.908  1.2712 -1.6856 -1.6509
   10CHTO   C79 3941   3.628   6.005   1.905 -0.0288  0.3578  0.0938
   10CHTO  H151 3942   3.614   6.010   2.013 -1.2801  0.5329 -0.0725
   10CHTO   O52 3943   3.622   5.860   1.876 -0.0640  0.4978 -0.8248
   10CHTO   C86 3944   3.619   5.826   1.733 -0.6166 -0.3162 -0.4292
   10CHTO  H158 3945   3.718   5.853   1.691 -1.7462 -0.0013 -3.0463
   10CHTO   C90 3946   3.600   5.670   1.705  0.2010  0.5227 -0.1021
   10CHTO   O60 3947   3.708   5.606   1.765 -0.3334  0.1605 -0.0182
   10CHTO  H138 3948   3.734   5.534   1.711  0.1223  0.3628 -0.0617
   10CHTO   O50 3949   3.760   6.065   1.881  0.0038  0.1832  0.2556
   10CHTO   C73 3950   3.880   6.013   1.936 -0.0321  0.1307  0.2372
   10CHTO  H145 3951   3.876   5.904   1.923 -1.9030  0.4463 -2.2248
   10CHTO   C74 3952   3.900   6.048   2.086  1.1767  0.8131  0.0603
   10CHTO  H146 3953   3.807   6.000   2.122 -0.2276  3.2101 -0.2794
   10CHTO   O54 3954   4.012   5.983   2.141  0.0587 -0.3230  0.4104
   10CHTO  H133 3955   3.989   5.906   2.188  1.6882 -0.3264  1.2395
   10CHTO   C75 3956   3.901   6.202   2.103 -0.2899 -0.5115 -0.7784
   10CHTO  H147 3957   3.807   6.238   2.058 -0.0729  0.2712 -0.6012
   10CHTO   N13 3958   3.910   6.253   2.240 -0.3429 -0.4451  0.0236
   10CHTO  H139 3959   4.003   6.228   2.289  0.0928  1.6647  0.3455
   10CHTO  H140 3960   3.908   6.361   2.231  1.0443 -0.3413  0.7786
   10CHTO   C76 3961   4.023   6.257   2.014  0.9005 -0.4870 -0.0483
   10CHTO  H148 3962   4.117   6.225   2.058  1.9977  2.4414 -0.1340
   10CHTO   O49 3963   4.011   6.208   1.874 -0.2288  0.4597  0.2553
   10CHTO   C77 3964   4.002   6.065   1.856 -0.2106  0.4798 -0.4649
   10CHTO  H149 3965   4.094   6.016   1.886  0.4513  0.9175 -1.7256
   10CHTO   C88 3966   3.995   6.045   1.703  0.3675 -0.4392  1.1010
   10CHTO   O58 3967   4.128   6.100   1.641 -0.6273  0.2724  0.2669
   10CHTO  H136 3968   4.196   6.037   1.657  0.4918  0.3357 -3.7726
   10CHTO   O51 3969   4.007   6.408   1.988 -0.1474  0.2796  0.3357
   10CHTO   C78 3970   4.139   6.485   2.017  0.1465 -0.1634  0.4010
   10CHTO  H150 3971   4.215   6.411   2.049 -0.2187 -1.3061 -1.2325
   10CHTO   C80 3972   4.127   6.588   2.134 -0.1135 -0.1443 -0.3638
   10CHTO  H152 3973   4.031   6.642   2.123 -0.1539  0.1022  1.1304
   10CHTO   O55 3974   4.122   6.519   2.261  0.3297  0.5819 -0.7771
   10CHTO  H134 3975   4.163   6.436   2.270 -2.7062 -0.8005  1.4082
   10CHTO   C84 3976   4.238   6.700   2.137 -0.1986  0.2025  0.1748
   10CHTO  H156 3977   4.329   6.656   2.177  1.0802  1.3901 -1.3340
   10CHTO   N15 3978   4.202   6.818   2.229  0.4690  0.1051 -0.4602
   10CHTO  H143 3979   4.244   6.800   2.326  0.3060  1.1995 -0.1804
   10CHTO  H144 3980   4.259   6.899   2.188 -0.1491  0.9073  0.2549
   10CHTO   C87 3981   4.266   6.760   1.999  0.3433  0.0712 -0.0378
   10CHTO  H159 3982   4.173   6.803   1.961 -0.0568  0.1146  0.9461
   10CHTO   O53 3983   4.299   6.637   1.912 -0.1548  0.8004  0.8265
   10CHTO   C82 3984   4.186   6.552   1.886  0.4549  0.4555  0.0439
   10CHTO  H154 3985   4.102   6.619   1.869 -0.6919 -0.1693  3.0561
   10CHTO   C89 3986   4.203   6.461   1.762  0.5198 -0.6300 -0.7148
   10CHTO   O59 3987   4.307   6.368   1.782  0.5872 -0.2639  0.1576
   10CHTO  H137 3988   4.364   6.359   1.708 -1.6923  0.7170 -1.7667
   10CHTO   O45 3989   4.379   6.879   1.994  0.5311 -0.3309  0.3883
   10CHTO   C67 3990   4.412   6.921   1.864 -0.5685 -0.1081  0.1195
   10CHTO  H124 3991   4.331   6.886   1.801  1.4303 -0.0267 -2.5713
   10CHTO   C65 3992   4.419   7.076   1.861 -0.1993 -0.3253 -0.3124
   10CHTO  H122 3993   4.330   7.109   1.915 -0.1070  2.3829 -1.6896
   10CHTO   O44 3994   4.408   7.121   1.726  0.1375 -0.2007  0.1546
   10CHTO  H102 3995   4.318   7.123   1.698 -0.0503 -0.7621  0.6910
   10CHTO   C63 3996   4.537   7.127   1.947  0.1019  0.2148 -0.3142
   10CHTO  H120 3997   4.520   7.085   2.046 -0.4803 -2.2551 -1.4241
   10CHTO   N11 3998   4.534   7.277   1.988 -0.0669  0.5915  0.4810
   10CHTO  H108 3999   4.620   7.293   2.049  0.8446 -2.1546 -0.0242
   10CHTO  H109 4000   4.444   7.311   2.036  1.4720  2.6616  1.9844
   10CHTO   C61 4001   4.673   7.081   1.888 -0.2375  0.5782 -0.0640
   10CHTO  H118 4002   4.750   7.094   1.966 -0.5964 -0.8653  0.5453
   10CHTO   O40 4003   4.671   6.937   1.865  0.2375 -0.1066 -0.0323
   10CHTO   C68 4004   4.556   6.858   1.815 -0.4892 -0.5128 -0.3040
   10CHTO  H125 4005   4.565   6.758   1.861  4.3025 -0.2687 -0.4180
   10CHTO   C72 4006   4.569   6.842   1.661  0.8217 -0.6168  0.5002
   10CHTO   O48 4007   4.492   6.737   1.608  0.2697  0.4043  0.2172
   10CHTO  H105 4008   4.550   6.684   1.557 -0.2221  1.1024 -1.0805
   10CHTO   O38 4009   4.699   7.132   1.753  0.2593  0.9822  0.3425
   10CHTO   C55 4010   4.783   7.245   1.711  0.4205 -1.1460  0.2121
   10CHTO  H112 4011   4.854   7.206   1.636  0.5667 -1.1312  0.3420
   10CHTO   C56 4012   4.865   7.314   1.828 -0.0620  0.4433  0.0448
   10CHTO  H113 4013   4.813   7.324   1.924 -0.2614  3.0378 -0.2741
   10CHTO   O42 4014   4.977   7.228   1.865 -0.2426  0.0642  0.1424
   10CHTO  H100 4015   5.045   7.274   1.911  0.5620  1.2223 -2.1123
   10CHTO   C57 4016   4.913   7.456   1.788  0.0162  1.1471 -0.6117
   10CHTO  H114 4017   5.000   7.447   1.723  1.5895  2.0272  1.2897
   10CHTO   N10 4018   4.961   7.539   1.900 -0.3854 -0.6383  0.4575
   10CHTO  H106 4019   4.889   7.608   1.941  0.5544  1.1472 -0.8304
   10CHTO  H107 4020   4.988   7.470   1.979  2.0467 -1.0623 -0.6918
   10CHTO   C58 4021   4.800   7.531   1.713  0.7552  0.2495 -0.6217
   10CHTO  H115 4022   4.713   7.545   1.781 -0.6923 -0.1292 -2.3378
   10CHTO   O37 4023   4.766   7.463   1.594  0.3507 -0.2330 -0.1449
   10CHTO   C59 4024   4.695   7.346   1.635  0.0940  0.7019 -0.4348
   10CHTO  H116 4025   4.604   7.366   1.692 -0.0778 -2.2235  0.4159
   10CHTO   C70 4026   4.635   7.274   1.509 -0.1760  0.1986  0.3684
   10CHTO   O46 4027   4.718   7.245   1.397 -0.3960  0.0907  0.5530
   10CHTO  H103 4028   4.765   7.324   1.376  1.0239 -1.0142 -0.5062
   10CHTO   O39 4029   4.846   7.677   1.666  0.2448  0.4797 -0.0537
   10CHTO   C60 4030   4.753   7.785   1.680 -0.3608 -0.1890 -0.0909
   10CHTO  H117 4031   4.653   7.749   1.703 -0.7758  0.6219 -0.5917
   10CHTO   C62 4032   4.793   7.878   1.800 -0.5074 -0.0360 -0.0968
   10CHTO  H119 4033   4.776   7.802   1.879  0.1356 -1.1328 -0.9893
   10CHTO   O43 4034   4.925   7.917   1.783  0.1416  0.2316 -0.1606
   10CHTO  H101 4035   4.935   7.945   1.694  1.2557  0.2248 -0.0544
   10CHTO   C66 4036   4.693   8.001   1.800 -0.3823  0.0577 -0.0176
   10CHTO  H123 4037   4.593   7.962   1.819  0.0463 -0.4600  1.2479
   10CHTO   N12 4038   4.714   8.092   1.916 -0.2961 -0.0234  0.4826
   10CHTO  H110 4039   4.670   8.190   1.907  0.6381  0.3600  0.0057
   10CHTO  H111 4040   4.812   8.084   1.960  1.1267  1.0100 -2.3836
   10CHTO   C69 4041   4.697   8.075   1.666 -0.1241  0.4200  0.5281
   10CHTO  H126 4042   4.800   8.116   1.660 -0.1327  0.3381 -0.1559
   10CHTO   O41 4043   4.665   7.983   1.547  0.6794  0.3303 -0.2115
   10CHTO   C64 4044   4.746   7.858   1.538 -0.2336 -0.0315 -0.4483
   10CHTO  H121 4045   4.848   7.882   1.503 -0.1894 -1.3738 -1.2806
   10CHTO   C71 4046   4.670   7.770   1.439 -0.1381 -0.5138 -0.4773
   10CHTO   O47 4047   4.668   7.824   1.308 -0.2893  0.2762 -0.1178
   10CHTO  H104 4048   4.657   7.753   1.248 -0.9542 -1.0507  1.5098
   10CHTO   O34 4049   4.595   8.191   1.652  0.5126  0.6275  0.2326
   10CHTO   C49 4050   4.467   8.225   1.585 -0.2997 -0.5820  0.5771
   10CHTO   H91 4051   4.460   8.332   1.607  1.1299 -0.8286  2.3610
   10CHTO   C47 4052   4.343   8.152   1.642 -0.4895 -0.2465 -0.6159
   10CHTO   H89 4053   4.316   8.213   1.731  1.4078  0.8406 -0.7570
   10CHTO   O33 4054   4.371   8.019   1.682  0.2446  1.0681  0.4009
   10CHTO   H70 4055   4.423   8.012   1.760 -0.8609  0.3041  1.0862
   10CHTO   C45 4056   4.216   8.158   1.543  1.0596 -0.3718  0.1998
   10CHTO   H87 4057   4.217   8.072   1.474  1.3852 -0.7186  0.6379
   10CHTO    N8 4058   4.090   8.167   1.614  0.9022 -0.0565 -0.1916
   10CHTO   H75 4059   4.071   8.271   1.637  0.0477  0.2128 -2.0287
   10CHTO   H76 4060   4.017   8.139   1.540  2.0703 -1.4469 -0.8439
   10CHTO   C43 4061   4.239   8.272   1.435  0.4709  0.0556  0.0760
   10CHTO   H85 4062   4.150   8.265   1.373  0.9178  1.2331 -0.7182
   10CHTO   O29 4063   4.355   8.249   1.353  0.1537 -0.2496 -0.0987
   10CHTO   C50 4064   4.472   8.209   1.427  0.0065  0.2668 -0.3970
   10CHTO   H92 4065   4.499   8.104   1.410 -1.4907  0.0359 -1.4270
   10CHTO   C54 4066   4.599   8.285   1.372 -0.1773  0.6623 -0.8687
   10CHTO   O36 4067   4.628   8.409   1.446  0.3121  0.8668  0.4940
   10CHTO   H72 4068   4.548   8.455   1.430  0.1913 -0.2263 -2.2835
   10CHTO   O27 4069   4.232   8.411   1.492  0.2266 -0.2225 -0.2335
   10CHTO   C37 4070   4.242   8.547   1.445 -0.2784  0.0946 -0.0974
   10CHTO   H79 4071   4.331   8.554   1.379  0.2341 -0.9945  0.4682
   10CHTO   C38 4072   4.105   8.574   1.359 -0.1536 -0.3385  0.3038
   10CHTO   H80 4073   4.020   8.570   1.430  0.4245 -1.4950  0.9439
   10CHTO   O31 4074   4.105   8.474   1.252 -0.2066 -0.5160 -0.6271
   10CHTO   H68 4075   4.134   8.390   1.283 -0.2712  0.5269  2.4726
   10CHTO   C39 4076   4.105   8.720   1.300  1.1655 -0.6595 -0.8787
   10CHTO   H81 4077   4.188   8.729   1.230  1.7235  0.6830 -0.0645
   10CHTO    N7 4078   3.982   8.749   1.221  0.2859  0.5290  0.0277
   10CHTO   H73 4079   3.902   8.773   1.290 -0.9425 -0.6049 -0.9729
   10CHTO   H74 4080   3.947   8.664   1.164 -1.2868  1.3504 -0.2691
   10CHTO   C40 4081   4.132   8.826   1.419  0.3358  0.3863 -0.3874
   10CHTO   H82 4082   4.036   8.827   1.471 -0.3630 -0.4952 -1.6278
   10CHTO   O26 4083   4.239   8.778   1.503  0.0158  0.0735  0.0089
   10CHTO   C41 4084   4.255   8.651   1.559 -0.0971  0.3254 -0.2292
   10CHTO   H83 4085   4.173   8.637   1.631 -0.0011  0.2266 -0.1393
   10CHTO   C52 4086   4.393   8.647   1.624 -0.0985 -0.1320  0.1180
   10CHTO   O35 4087   4.418   8.546   1.690 -0.1722  0.1339  0.3269
   10CHTO   H71 4088   4.372   8.550   1.772 -0.6567 -0.4043  0.0889
   10CHTO   O28 4089   4.168   8.959   1.379 -0.1631  0.5091  0.6513
   10CHTO   C42 4090   4.105   9.078   1.437 -1.3799  0.1527 -0.3952
   10CHTO   H84 4091   4.056   9.035   1.525 -1.0730 -2.3412 -1.3873
   10CHTO   C44 4092   3.986   9.134   1.347  0.1324  1.0627  0.8667
   10CHTO   H86 4093   4.025   9.144   1.245  1.4224 -0.1412  1.2263
   10CHTO   O32 4094   3.877   9.033   1.346 -0.1835  0.3140 -0.0835
   10CHTO   H69 4095   3.902   8.946   1.320 -0.1274  0.0380  0.8760
   10CHTO   C48 4096   3.932   9.277   1.389  0.2714  0.0359  0.5503
   10CHTO   H90 4097   3.864   9.261   1.473 -0.9481  1.0358 -0.2146
   10CHTO    N9 4098   3.833   9.320   1.279 -0.8856 -0.5431 -0.0804
   10CHTO   H77 4099   3.800   9.423   1.284  0.7876  0.1470 -2.2256
   10CHTO   H78 4100   3.752   9.250   1.293 -1.8882  0.3488 -1.3177
   10CHTO   C51 4101   4.049   9.380   1.428 -0.1117 -0.5095 -0.5321
   10CHTO   H93 4102   4.109   9.400   1.339 -0.3467  1.2060 -0.3227
   10CHTO   O30 4103   4.121   9.312   1.537 -0.1507  0.0077 -0.0373
   10CHTO   C46 4104   4.202   9.196   1.482 -0.0088  0.6764  0.1331
   10CHTO   H88 4105   4.256   9.235   1.396  1.3527 -0.1189  0.6145
   10CHTO   C53 4106   4.287   9.144   1.594 -0.1279 -0.3234  0.0929
   10CHTO   O72 4107   4.377   9.038   1.575  0.2982  0.3872  0.2284
   10CHTO  H199 4108   4.338   8.972   1.522  1.4334 -1.2642  1.3992
   10CHTO   O22 4109   3.997   9.502   1.488  0.1819 -0.3747 -0.4913
   10CHTO   C31 4110   4.091   9.617   1.515 -0.0864 -0.0102  0.5582
   10CHTO   H59 4111   4.036   9.681   1.587 -1.3125  1.4091 -1.6054
   10CHTO   C29 4112   4.231   9.579   1.580 -0.3947  0.3365  0.4396
   10CHTO   H57 4113   4.280   9.509   1.511  0.8511  1.7049 -0.0917
   10CHTO   O21 4114   4.197   9.522   1.710  0.2586  0.3522  0.1238
   10CHTO   H37 4115   4.228   9.433   1.709  0.7099  0.4917 -3.0284
   10CHTO   C27 4116   4.317   9.708   1.602 -0.1742 -0.1345  0.3505
   10CHTO   H55 4117   4.264   9.779   1.668 -1.2345  0.7081 -1.3788
   10CHTO    N5 4118   4.451   9.668   1.655  0.1814 -0.2199  0.0345
   10CHTO   H43 4119   4.498   9.598   1.588 -1.0597 -1.9869  0.9575
   10CHTO   H44 4120   4.435   9.631   1.755 -0.3845 -1.4217 -0.4950
   10CHTO   C25 4121   4.327   9.783   1.468 -0.4470  0.3464 -0.0320
   10CHTO   H53 4122   4.370   9.712   1.397  1.5525  0.1183  1.3683
   10CHTO   O17 4123   4.199   9.814   1.413 -0.1904 -0.0092 -0.3156
   10CHTO   C32 4124   4.113   9.700   1.383 -0.1484 -0.3092 -0.1457
   10CHTO   H60 4125   4.149   9.632   1.307  0.7955  1.6940 -1.5247
   10CHTO   C36 4126   3.982   9.754   1.334 -0.9194 -0.0353 -0.1132
   10CHTO   O25 4127   3.899   9.649   1.278  0.1593 -0.7120  0.6068
   10CHTO   H40 4128   3.824   9.628   1.330  0.3448  0.2270  1.2642
   10CHTO   O15 4129   4.416   9.923   1.484  0.7369  0.0146 -0.6204
   10CHTO   C19 4130   4.443  10.010   1.369 -0.1497 -0.2974  0.2880
   10CHTO   H47 4131   4.373   9.982   1.289  1.2001  2.2436 -1.8765
   10CHTO   C20 4132   4.432  10.162   1.423 -0.6585  0.1109  0.2138
   10CHTO   H48 4133   4.494  10.176   1.513 -0.4975 -0.4008  0.1874
   10CHTO   O19 4134   4.292  10.174   1.461  0.3162 -0.1093 -0.0612
   10CHTO   H35 4135   4.232  10.178   1.389 -2.0594  1.1089  1.8791
   10CHTO   C21 4136   4.467  10.263   1.307  0.6307  0.2261 -0.5774
   10CHTO   H49 4137   4.385  10.255   1.236  0.8339  0.6979 -0.8668
   10CHTO    N4 4138   4.458  10.410   1.344  0.3963  0.8981  0.3123
   10CHTO   H41 4139   4.358  10.440   1.371  0.6977  0.0315  2.5715
   10CHTO   H42 4140   4.491  10.474   1.264 -0.3844  2.3674  1.1387
   10CHTO   C22 4141   4.598  10.222   1.240 -0.3299 -0.5692 -0.0334
   10CHTO   H50 4142   4.679  10.236   1.311 -0.1700 -0.6769 -0.1927
   10CHTO   O14 4143   4.594  10.090   1.196  0.0413  0.3790 -0.0484
   10CHTO   C23 4144   4.588   9.995   1.301 -0.7717 -0.3030  0.0380
   10CHTO   H51 4145   4.669  10.017   1.372 -0.7721 -1.8334  0.5265
   10CHTO   C34 4146   4.617   9.869   1.227  0.3395  0.3302 -0.4182
   10CHTO   O23 4147   4.695   9.798   1.320 -0.7790 -0.1057 -0.7129
   10CHTO   H38 4148   4.742   9.725   1.284 -0.5899 -0.2283 -0.2199
   10CHTO   O16 4149   4.627  10.295   1.116 -0.3437 -0.3161  0.5219
   10CHTO   C24 4150   4.787  10.325   1.093 -0.3788 -0.3162  0.1224
   10CHTO   H52 4151   4.850  10.277   1.169 -1.0957 -1.8548 -0.2406
   10CHTO   C26 4152   4.795  10.480   1.098 -0.2603 -0.7265 -0.0218
   10CHTO   H54 4153   4.717  10.521   1.030 -1.7037 -0.0988  1.9606
   10CHTO   O20 4154   4.757  10.520   1.232 -0.3139 -0.0988  0.3326
   10CHTO   H36 4155   4.744  10.612   1.241 -0.6503 -0.1261  0.1494
   10CHTO   C30 4156   4.937  10.531   1.064 -0.1242 -0.3282  0.3993
   10CHTO   H58 4157   5.008  10.503   1.143 -0.6758 -0.9906  0.6742
   10CHTO    N6 4158   4.945  10.676   1.041  0.3715  0.3997 -0.5084
   10CHTO   H45 4159   5.003  10.722   1.119  0.8484  0.6580 -1.0152
   10CHTO   H46 4160   4.846  10.718   1.045 -0.0715 -0.6505 -0.1020
   10CHTO   C33 4161   4.993  10.451   0.940 -0.3488  0.5415 -0.0718
   10CHTO   H61 4162   4.944  10.492   0.851  0.9432  2.8536  0.2499
   10CHTO   O18 4163   4.979  10.312   0.947  0.2700  0.2402  0.2555
   10CHTO   C28 4164   4.841  10.274   0.959  0.7003  0.5633  0.1848
   10CHTO   H56 4165   4.782  10.320   0.880 -0.5715  1.1949  1.4541
   10CHTO   C35 4166   4.816  10.123   0.949 -0.0381 -0.3753 -0.0536
   10CHTO   O24 4167   4.888  10.047   1.049  0.3308 -0.5196 -0.0639
   10CHTO   H39 4168   4.981  10.036   1.040  0.2558  0.6077 -2.7606
   10CHTO    O9 4169   5.130  10.485   0.927  0.2021 -0.4240 -0.4852
   10CHTO   C13 4170   5.183  10.499   0.766  0.7725 -0.2790 -0.7458
   10CHTO   H26 4171   5.107  10.560   0.714  1.0215  0.1342 -0.6261
   10CHTO   C11 4172   5.194  10.352   0.707 -0.4970  0.3215 -0.1999
   10CHTO   H24 4173   5.092  10.327   0.675 -0.3552 -0.0750 -0.3526
   10CHTO    O8 4174   5.249  10.264   0.808  0.1280  0.0156 -0.0661
   10CHTO    H3 4175   5.182  10.238   0.868  1.6049 -0.0424  1.6202
   10CHTO    C9 4176   5.291  10.354   0.582  0.0655 -0.0298  0.0504
   10CHTO   H22 4177   5.252  10.431   0.514 -0.1669 -1.1341 -1.0823
   10CHTO    N2 4178   5.286  10.229   0.496 -0.7570 -0.0450 -0.3669
   10CHTO   H10 4179   5.319  10.146   0.556 -0.2648  1.2100  1.1347
   10CHTO   H11 4180   5.353  10.246   0.413 -0.8136  2.4218  0.0394
   10CHTO    C7 4181   5.440  10.391   0.637  0.6804  0.1351 -0.1044
   10CHTO   H20 4182   5.493  10.424   0.546  0.2347  0.6134 -0.1973
   10CHTO    O4 4183   5.440  10.498   0.733 -0.2310 -0.2668 -0.2571
   10CHTO   C14 4184   5.325  10.573   0.762  0.1509 -0.0571  0.0028
   10CHTO   H27 4185   5.326  10.646   0.679 -0.3628  0.7358  0.6864
   10CHTO   C18 4186   5.358  10.648   0.894  0.2980  0.4978  0.3618
   10CHTO   O13 4187   5.260  10.739   0.947  0.1365 -0.8795 -0.2693
   10CHTO    H7 4188   5.223  10.704   1.026  1.1484 -0.6432  0.3089
   10CHTO    O2 4189   5.510  10.258   0.710  0.4779  0.8178 -0.3355
   10CHTO    C1 4190   5.652  10.261   0.691  0.0204 -0.4520 -0.3639
   10CHTO   H14 4191   5.663  10.371   0.681 -1.4351 -0.2463  0.0914
   10CHTO    C2 4192   5.696  10.180   0.560  0.2624 -0.0451  0.0670
   10CHTO   H15 4193   5.637  10.088   0.557 -0.4483  0.3975  0.4462
   10CHTO    O6 4194   5.653  10.260   0.447  0.0653 -0.3112 -0.0737
   10CHTO    H1 4195   5.559  10.261   0.441  0.1328 -0.2808 -1.3348
   10CHTO    C3 4196   5.855  10.146   0.556  0.4926  0.0798 -0.4715
   10CHTO   H16 4197   5.910  10.240   0.538  2.7198 -0.7475  1.6860
   10CHTO    N1 4198   5.890  10.050   0.449  0.3801 -0.4647 -0.0425
   10CHTO    H8 4199   5.966  10.090   0.384 -1.1869  0.9147 -1.0694
   10CHTO    H9 4200   5.919   9.954   0.489 -1.6228 -0.6671  0.9785
   10CHTO    C4 4201   5.902  10.094   0.700  0.1987  0.0528 -0.7023
   10CHTO   H17 4202   5.855   9.997   0.718 -0.6169  0.4553 -0.6143
   10CHTO    O1 4203   5.864  10.188   0.799  0.6471  0.4903  0.2041
   10CHTO    C5 4204   5.721  10.204   0.821  0.4795  0.1978  0.0903
   10CHTO   H18 4205   5.670  10.115   0.858 -0.8829  0.5106 -0.9949
   10CHTO   C16 4206   5.725  10.309   0.926  0.4835  0.5335  0.3742
   10CHTO   O11 4207   5.596  10.362   0.950  0.1209  0.6770 -0.4521
   10CHTO    H5 4208   5.554  10.387   0.871  0.2955  1.0722 -0.4215
   10CHTO    O3 4209   6.046  10.080   0.703  0.1667  0.8304  0.2651
   10CHTO    C6 4210   6.085   9.945   0.730 -0.0574 -0.3597  0.6768
   10CHTO   H19 4211   6.009   9.872   0.702  0.4847 -1.2605  1.5216
   10CHTO    C8 4212   6.214   9.916   0.654  0.3927 -0.5441 -0.1023
   10CHTO   H21 4213   6.288   9.993   0.679 -1.8129  0.8624  2.4155
   10CHTO    O7 4214   6.192   9.927   0.515  0.4228 -0.1537 -0.2874
   10CHTO    H2 4215   6.143   9.853   0.486 -0.5128 -0.2854  1.5388
   10CHTO   C12 4216   6.268   9.769   0.686  0.2791  0.2439 -0.0925
   10CHTO   H25 4217   6.188   9.706   0.642  0.0545  0.5502 -0.1272
   10CHTO    N3 4218   6.398   9.743   0.606 -0.2583 -0.4279  0.0250
   10CHTO   H12 4219   6.391   9.766   0.500 -1.1571 -0.0407  0.1602
   10CHTO   H13 4220   6.493   9.780   0.642  0.4959 -1.4978 -0.8441
   10CHTO   C15 4221   6.281   9.742   0.841 -0.0693  0.3637  0.7054
   10CHTO   H28 4222   6.358   9.804   0.887 -0.2271  0.4680  0.8302
   10CHTO   O10 4223   6.301   9.591   0.894  0.1613  0.4054 -0.0341
   10CHTO    H4 4224   6.352   9.581   0.971 -0.0270  2.7258  0.4340
   10CHTO    O5 4225   6.153   9.784   0.898  0.1929 -0.2577 -0.0196
   10CHTO   C10 4226   6.112   9.922   0.883  0.1348 -0.2700 -0.1120
   10CHTO   H23 4227   6.186   9.996   0.915  0.7586  0.1720 -2.5101
   10CHTO   C17 4228   5.991   9.929   0.970 -0.6581 -0.0530 -0.2472
   10CHTO   O12 4229   6.014   9.899   1.105  0.4120  0.0599  0.0380
   10CHTO    H6 4230   6.054   9.973   1.145 -1.7466  0.8498  0.8126
   11CHTO  H203 4231   7.566   4.626  -0.175 -0.3603  0.1505 -0.8797
   11CHTO   O82 4232   7.483   4.663  -0.155 -0.1415  0.0898  0.2158
   11CHTO  C123 4233   7.500   4.798  -0.142  0.4759  0.3900 -0.3170
   11CHTO  H227 4234   7.571   4.834  -0.218  0.7065  2.0831  0.6483
   11CHTO   O77 4235   7.363   4.841  -0.168  0.7794 -0.6590 -0.0798
   11CHTO  C118 4236   7.346   4.985  -0.173  0.1442 -0.6133 -0.7854
   11CHTO  H222 4237   7.424   5.019  -0.242  0.0403 -1.3728 -1.2822
   11CHTO  C125 4238   7.208   5.001  -0.241  0.1627  0.8128 -0.3734
   11CHTO   O84 4239   7.209   4.934  -0.370  0.7057  0.6673 -0.0210
   11CHTO  H205 4240   7.128   4.888  -0.358 -0.6150  2.6678 -0.9627
   11CHTO  C114 4241   7.358   5.036  -0.029 -0.2731  0.5488  0.9182
   11CHTO  H218 4242   7.293   4.978   0.037 -0.6185  2.2220  2.0899
   11CHTO  C116 4243   7.507   5.011   0.006 -0.4853  0.0222 -0.4897
   11CHTO  H220 4244   7.567   5.075  -0.063 -0.8656 -0.4097 -1.2299
   11CHTO   O79 4245   7.512   5.057   0.145  0.3365  0.1098  0.0323
   11CHTO  H201 4246   7.576   5.025   0.206  1.1465 -0.2481 -0.9927
   11CHTO  C120 4247   7.541   4.852   0.002  0.8256  0.2135  0.2335
   11CHTO  H224 4248   7.477   4.800   0.076 -1.9949  1.7687 -1.0482
   11CHTO   N21 4249   7.687   4.826   0.035  0.9169 -0.0268 -0.0478
   11CHTO  H211 4250   7.755   4.820  -0.048 -0.4062 -1.0823 -1.0757
   11CHTO  H212 4251   7.678   4.733   0.089 -0.0364  0.3435  0.4435
   11CHTO   O75 4252   7.323   5.178  -0.017 -0.0691  0.3145  0.1832
   11CHTO  C112 4253   7.208   5.191   0.083  0.1547  0.6057  0.5774
   11CHTO  H216 4254   7.235   5.130   0.171  0.7227 -2.3977 -1.5913
   11CHTO   O73 4255   7.096   5.139   0.012  0.4987 -0.2547 -0.1317
   11CHTO  C113 4256   6.972   5.142   0.086  0.7690 -1.3733 -0.2359
   11CHTO  H217 4257   6.973   5.098   0.188  0.5696 -0.1781  0.2912
   11CHTO  C124 4258   6.867   5.074   0.001  0.5694  0.2865  1.1423
   11CHTO   O83 4259   6.910   4.953  -0.063  0.1060 -0.3741  0.2290
   11CHTO  H204 4260   6.997   4.965  -0.096  0.5098 -0.6185  1.1986
   11CHTO  C109 4261   6.928   5.294   0.098  0.2907 -0.4834  0.1517
   11CHTO  H213 4262   6.923   5.337  -0.003 -2.8101  0.5432  0.6871
   11CHTO  C110 4263   7.039   5.351   0.184 -0.0353 -0.3285 -0.1761
   11CHTO  H214 4264   7.035   5.304   0.282  2.6027 -0.1331  0.0611
   11CHTO   O78 4265   7.016   5.497   0.190  0.3979  0.0487  0.3279
   11CHTO  H200 4266   6.924   5.519   0.185  0.4916  0.2214 -0.6999
   11CHTO  C111 4267   7.185   5.337   0.125  0.6569  0.5530 -0.2054
   11CHTO  H215 4268   7.193   5.388   0.028  2.0573  0.8284  0.0340
   11CHTO   N19 4269   7.292   5.392   0.213 -0.0276 -0.1108  0.2450
   11CHTO  H207 4270   7.285   5.499   0.199  1.6956  0.1435  1.2271
   11CHTO  H208 4271   7.386   5.348   0.184 -0.3587  0.1106 -1.2066
   11CHTO   O74 4272   6.796   5.321   0.157  0.4970  0.3151  0.0703
   11CHTO  C115 4273   6.676   5.381   0.055 -0.7650 -0.6571 -0.1691
   11CHTO  H219 4274   6.708   5.393  -0.049  0.0502  1.6995  0.3296
   11CHTO   O76 4275   6.544   5.285   0.048  0.5298  1.2500  0.3087
   11CHTO  C122 4276   6.461   5.281   0.163 -0.3274  0.6342  0.3684
   11CHTO  H226 4277   6.504   5.202   0.223  2.4285  1.2566 -0.7212
   11CHTO  C126 4278   6.318   5.230   0.129 -0.7873 -0.0039 -0.3405
   11CHTO   O85 4279   6.237   5.320   0.056 -0.0933  0.1607  0.4146
   11CHTO  H206 4280   6.270   5.333  -0.031  1.4613  1.1501  1.1082
   11CHTO  C121 4281   6.452   5.414   0.243 -0.1309 -0.3034  0.0996
   11CHTO  H225 4282   6.345   5.422   0.272  0.0571  0.4416  0.5951
   11CHTO   O81 4283   6.524   5.399   0.368 -0.2215  0.0647 -0.2194
   11CHTO  H202 4284   6.611   5.366   0.357  0.7872  1.2993  3.1872
   11CHTO  C119 4285   6.499   5.542   0.163 -0.4199  0.3827  0.0388
   11CHTO  H223 4286   6.435   5.542   0.075 -0.9667  0.6017  0.4309
   11CHTO  C117 4287   6.648   5.527   0.107  0.2593 -1.0748 -0.3852
   11CHTO  H221 4288   6.727   5.546   0.180 -1.2748  1.7553  0.6000
   11CHTO   N20 4289   6.679   5.634   0.001 -0.1423 -0.4463  0.1634
   11CHTO  H209 4290   6.779   5.636  -0.041 -0.6385  0.2737 -1.0235
   11CHTO  H210 4291   6.597   5.638  -0.069  1.2974 -0.0082 -1.5472
   11CHTO   O80 4292   6.465   5.681   0.223 -0.4548  0.3959  0.2120
   11CHTO  C103 4293   6.538   5.729   0.355  0.2135 -0.7672 -0.9768
   11CHTO  H190 4294   6.570   5.636   0.401  1.3178 -0.1000 -0.3852
   11CHTO  C101 4295   6.662   5.840   0.350  0.1123 -0.4083 -0.0866
   11CHTO  H188 4296   6.637   5.908   0.269 -1.5326 -2.0680 -0.9910
   11CHTO   O68 4297   6.789   5.773   0.289 -0.0347 -0.3307 -0.9249
   11CHTO  H168 4298   6.818   5.704   0.344  1.6585 -0.4165 -1.9093
   11CHTO   C99 4299   6.683   5.917   0.490  0.2019  0.6498  0.1701
   11CHTO  H186 4300   6.713   5.836   0.559  0.6063  1.3832  0.8723
   11CHTO   N17 4301   6.793   6.019   0.490  0.1005  0.0196 -0.5570
   11CHTO  H174 4302   6.854   6.025   0.579  0.6943 -3.6626 -0.6605
   11CHTO  H175 4303   6.738   6.110   0.468 -1.8163 -1.0058 -0.1407
   11CHTO   C97 4304   6.542   5.970   0.543  0.1259 -0.6148 -0.5804
   11CHTO  H184 4305   6.486   6.039   0.478 -0.8725 -0.1488  0.7462
   11CHTO   O64 4306   6.459   5.848   0.569 -0.4992 -0.7113 -0.2348
   11CHTO  C104 4307   6.410   5.788   0.446  0.3431  0.1240 -0.1814
   11CHTO  H191 4308   6.354   5.865   0.393  1.5451  1.8457  0.9737
   11CHTO  C108 4309   6.313   5.674   0.472  0.3600  0.0772  0.2917
   11CHTO   O71 4310   6.234   5.695   0.588  0.5188 -0.0276  0.3901
   11CHTO  H171 4311   6.151   5.736   0.573  0.4187 -0.8507 -1.3785
   11CHTO   O62 4312   6.545   6.038   0.676  0.5792 -0.4693 -0.6567
   11CHTO   C91 4313   6.427   6.117   0.703 -0.3365  0.4552 -0.6555
   11CHTO  H178 4314   6.342   6.097   0.637 -1.3412 -1.9082  1.2421
   11CHTO   C92 4315   6.473   6.264   0.685 -0.0022 -0.0331 -0.3896
   11CHTO  H179 4316   6.572   6.272   0.733 -0.1001 -0.2241 -0.1519
   11CHTO   O66 4317   6.500   6.292   0.542  0.4816 -0.5003  0.2265
   11CHTO  H166 4318   6.568   6.231   0.521  0.1361 -0.9377  0.3448
   11CHTO   C93 4319   6.363   6.370   0.736  0.1500  0.3779 -0.0631
   11CHTO  H180 4320   6.271   6.349   0.680  0.1313  2.0537 -0.6871
   11CHTO   N16 4321   6.391   6.515   0.715 -0.0739  0.4111  0.1660
   11CHTO  H172 4322   6.463   6.532   0.795 -1.4174 -0.0161  1.4865
   11CHTO  H173 4323   6.299   6.568   0.734 -1.1609 -1.9648  1.8514
   11CHTO   C94 4324   6.344   6.338   0.886 -0.1154 -0.1262  0.1744
   11CHTO  H181 4325   6.439   6.329   0.938 -0.4967  2.3042  1.3654
   11CHTO   O61 4326   6.286   6.207   0.890 -0.4416 -0.2610  0.3067
   11CHTO   C95 4327   6.357   6.091   0.841  0.3577 -0.3486 -0.5081
   11CHTO  H182 4328   6.433   6.062   0.914  1.2941  3.6424  0.2121
   11CHTO  C106 4329   6.251   5.965   0.828 -0.3288  0.1892  0.3660
   11CHTO   O69 4330   6.213   5.928   0.956  0.1159 -0.0191 -0.1704
   11CHTO  H169 4331   6.171   5.844   0.949  0.2090 -0.0089 -0.8923
   11CHTO   O63 4332   6.252   6.422   0.959 -0.0515 -0.3603 -0.4374
   11CHTO   C96 4333   6.274   6.428   1.125 -0.0008  0.2356 -0.1439
   11CHTO  H183 4334   6.363   6.368   1.143 -1.0828 -1.2876  0.2421
   11CHTO   C98 4335   6.162   6.366   1.215  0.1536  0.3413 -0.1531
   11CHTO  H185 4336   6.074   6.432   1.204 -0.6003 -0.4714  0.9261
   11CHTO   O67 4337   6.122   6.232   1.176 -0.0979  0.0060  0.3304
   11CHTO  H167 4338   6.075   6.187   1.243  0.1588 -0.1793  0.3857
   11CHTO  C102 4339   6.201   6.370   1.372 -0.0679 -0.8770  0.1388
   11CHTO  H189 4340   6.274   6.289   1.387  0.9522  0.0153  0.0153
   11CHTO   N18 4341   6.083   6.349   1.464 -0.1931 -0.1341  0.2567
   11CHTO  H176 4342   6.088   6.255   1.518  2.3514 -1.0975 -1.5995
   11CHTO  H177 4343   5.983   6.337   1.426 -0.2908  2.8441 -0.5310
   11CHTO  C105 4344   6.269   6.506   1.406 -0.3063  0.2515  0.1005
   11CHTO  H192 4345   6.190   6.577   1.433  0.1526  1.0382 -0.5943
   11CHTO   O65 4346   6.358   6.561   1.305 -0.4396  0.5968  0.5151
   11CHTO  C100 4347   6.303   6.570   1.175  0.1839 -0.4961  0.2886
   11CHTO  H187 4348   6.216   6.637   1.184  1.5261  1.2406  0.7033
   11CHTO  C107 4349   6.407   6.655   1.098  0.0896 -0.3295  0.1088
   11CHTO   O70 4350   6.451   6.776   1.165 -0.3821  0.4044 -0.2907
   11CHTO  H170 4351   6.394   6.847   1.143 -2.6554 -0.4502  2.5665
   11CHTO   O57 4352   6.368   6.472   1.540  0.0150 -0.8065  0.1467
   11CHTO   C85 4353   6.360   6.569   1.644  0.3883  0.3542  0.3390
   11CHTO  H157 4354   6.252   6.573   1.669 -0.2512  1.6263 -2.3913
   11CHTO   C83 4355   6.421   6.707   1.604 -0.7665 -0.8280  0.6714
   11CHTO  H155 4356   6.359   6.752   1.527  2.2186 -0.1639 -1.4333
   11CHTO   O56 4357   6.554   6.684   1.545  0.2238 -0.2248  0.3092
   11CHTO  H135 4358   6.558   6.660   1.455  1.0059  1.9767 -0.2675
   11CHTO   C81 4359   6.413   6.801   1.727 -0.0874 -0.2162  0.2104
   11CHTO  H153 4360   6.313   6.796   1.769 -0.2793  0.4162 -0.1602
   11CHTO   N14 4361   6.419   6.952   1.698 -0.2487  0.5503  0.2134
   11CHTO  H141 4362   6.379   6.976   1.602 -2.6833  1.9438  1.5159
   11CHTO  H142 4363   6.522   6.980   1.707 -0.1820  0.5837 -0.6098
   11CHTO   C79 4364   6.519   6.740   1.835 -0.2750  0.4261  0.6141
   11CHTO  H151 4365   6.530   6.812   1.915 -1.4091  0.1659  1.0148
   11CHTO   O52 4366   6.470   6.607   1.877  0.1592 -0.1571  0.1727
   11CHTO   C86 4367   6.445   6.514   1.769 -0.9667  0.5030 -0.1610
   11CHTO  H158 4368   6.549   6.486   1.744  0.1463  2.0083  2.6187
   11CHTO   C90 4369   6.383   6.386   1.834 -0.0655 -0.5664 -0.0148
   11CHTO   O60 4370   6.471   6.328   1.926  0.0734  0.1740 -0.0665
   11CHTO  H138 4371   6.515   6.398   1.970 -0.3129  1.4424 -1.6790
   11CHTO   O50 4372   6.655   6.726   1.797 -0.3263  0.1615  0.1333
   11CHTO   C73 4373   6.782   6.716   1.864 -0.0847  0.3978 -0.1979
   11CHTO  H145 4374   6.783   6.652   1.953  0.3975 -1.5143 -1.5608
   11CHTO   C74 4375   6.843   6.849   1.905 -0.0242  0.0745  0.0660
   11CHTO  H146 4376   6.767   6.888   1.974 -1.6611 -0.7789 -1.2249
   11CHTO   O54 4377   6.966   6.835   1.975  0.5167 -0.4663  0.3918
   11CHTO  H133 4378   6.947   6.805   2.061 -0.8081 -0.8524 -0.0291
   11CHTO   C75 4379   6.856   6.937   1.770 -0.5844  0.8687  0.2269
   11CHTO  H147 4380   6.760   6.942   1.717 -1.4426 -2.3949  1.3318
   11CHTO   N13 4381   6.901   7.081   1.790  0.6815 -0.2227  0.5034
   11CHTO  H139 4382   6.897   7.106   1.895 -0.1900 -1.5942  0.8095
   11CHTO  H140 4383   6.829   7.143   1.738 -0.3265  0.2483  2.4296
   11CHTO   C76 4384   6.949   6.861   1.668 -0.5813  0.1432 -0.1731
   11CHTO  H148 4385   7.048   6.855   1.713 -0.9325 -2.2103  0.3621
   11CHTO   O49 4386   6.909   6.721   1.652  0.4150 -0.1307  0.3551
   11CHTO   C77 4387   6.883   6.650   1.769 -0.4090 -0.2644 -0.4764
   11CHTO  H149 4388   6.980   6.643   1.819  0.0193 -0.8266 -1.3780
   11CHTO   C88 4389   6.850   6.500   1.737 -0.3462 -0.3340 -0.0699
   11CHTO   O58 4390   6.790   6.419   1.853  0.6463  0.3739  0.1609
   11CHTO  H136 4391   6.834   6.443   1.932 -2.4585  0.5118  1.9442
   11CHTO   O51 4392   6.958   6.933   1.532  0.3227  0.1614  0.3011
   11CHTO   C78 4393   7.110   6.962   1.474 -0.9232 -0.6657  0.3772
   11CHTO  H150 4394   7.189   6.922   1.540 -0.0538  1.9283  0.9880
   11CHTO   C80 4395   7.123   7.115   1.460  0.1613  0.4083 -0.2599
   11CHTO  H152 4396   7.027   7.150   1.417 -0.6646  0.8879  1.8785
   11CHTO   O55 4397   7.123   7.169   1.589 -0.1369  0.4314  0.1397
   11CHTO  H134 4398   7.086   7.255   1.587 -1.0348  0.0335 -0.4752
   11CHTO   C84 4399   7.252   7.152   1.380  0.5583 -0.1582  0.2024
   11CHTO  H156 4400   7.337   7.119   1.440  0.4839  1.5386  1.2558
   11CHTO   N15 4401   7.276   7.301   1.361 -0.4738  0.0400 -0.7263
   11CHTO  H143 4402   7.262   7.353   1.454 -1.3531  0.7808 -1.2619
   11CHTO  H144 4403   7.204   7.344   1.295 -0.8205 -0.5286 -0.7232
   11CHTO   C87 4404   7.247   7.072   1.242  1.0335  0.7764 -0.3614
   11CHTO  H159 4405   7.158   7.098   1.185 -1.6185  1.1680  3.7149
   11CHTO   O53 4406   7.234   6.936   1.275 -0.9098  0.3256 -0.4276
   11CHTO   C82 4407   7.120   6.895   1.340 -0.0664  0.2368 -0.0132
   11CHTO  H154 4408   7.031   6.916   1.281  1.2835  0.2851 -2.1003
   11CHTO   C89 4409   7.130   6.737   1.354 -0.6139  0.0351  0.5270
   11CHTO   O59 4410   7.002   6.685   1.388 -0.2734  0.3292  0.2840
   11CHTO  H137 4411   6.946   6.690   1.313 -0.0303 -2.0956 -0.0985
   11CHTO   O45 4412   7.377   7.086   1.141  0.0584  0.0124  0.8100
   11CHTO   C67 4413   7.333   7.084   1.000 -0.1294 -0.1308  1.2763
   11CHTO  H124 4414   7.239   7.029   0.995 -0.3292  0.3710 -1.2064
   11CHTO   C65 4415   7.302   7.229   0.953 -0.0650 -0.3175 -0.5093
   11CHTO  H122 4416   7.362   7.294   1.017 -0.9254  0.2761 -0.3025
   11CHTO   O44 4417   7.162   7.251   0.982 -0.0395  0.4435 -0.1829
   11CHTO  H102 4418   7.139   7.341   0.967 -4.6424 -0.6382 -0.1610
   11CHTO   C63 4419   7.358   7.252   0.811  1.1687  0.2734 -0.3025
   11CHTO  H120 4420   7.466   7.260   0.814  1.2094 -0.6771  1.1291
   11CHTO   N11 4421   7.323   7.380   0.750  0.1934  0.5551 -0.3391
   11CHTO  H108 4422   7.252   7.360   0.673  1.0326 -1.0169 -0.7339
   11CHTO  H109 4423   7.296   7.462   0.812  0.8232 -0.5643  1.4575
   11CHTO   C61 4424   7.338   7.122   0.720 -0.1236 -0.2800  0.0735
   11CHTO  H118 4425   7.387   7.139   0.624 -1.6122 -1.3691 -0.9006
   11CHTO   O40 4426   7.397   7.000   0.775 -0.2499 -0.2522 -0.4787
   11CHTO   C68 4427   7.434   7.006   0.910 -0.2875 -0.5329  0.2096
   11CHTO  H125 4428   7.529   7.063   0.915  0.1975 -1.1966 -1.1994
   11CHTO   C72 4429   7.459   6.860   0.957 -0.2704  0.1767  0.2627
   11CHTO   O48 4430   7.557   6.781   0.886  0.2572 -0.5244  0.4282
   11CHTO  H105 4431   7.522   6.765   0.800 -2.4552  0.5784  1.2739
   11CHTO   O38 4432   7.203   7.084   0.689  0.1815  0.1260  0.1388
   11CHTO   C55 4433   7.189   7.002   0.564  0.5135  0.2612  0.1354
   11CHTO  H112 4434   7.288   6.965   0.534  2.2328  2.2924  3.1323
   11CHTO   C56 4435   7.128   7.098   0.453 -0.4350 -0.3136  0.3766
   11CHTO  H113 4436   7.032   7.135   0.492 -1.4573  1.6253 -3.7016
   11CHTO   O42 4437   7.222   7.210   0.435 -0.0994  0.3664 -0.4792
   11CHTO  H100 4438   7.195   7.282   0.381  1.9219 -0.1711 -2.2958
   11CHTO   C57 4439   7.093   7.017   0.322 -0.0495  0.5089 -0.4641
   11CHTO  H114 4440   7.189   6.998   0.273  0.1343 -0.1287  0.1243
   11CHTO   N10 4441   7.001   7.096   0.238  0.2917 -0.3967 -0.0102
   11CHTO  H106 4442   7.006   7.204   0.239 -2.4089 -0.2292 -0.5312
   11CHTO  H107 4443   6.898   7.066   0.252  1.0956 -4.1186 -1.3474
   11CHTO   C58 4444   7.024   6.881   0.351  0.8257  0.2693  0.6890
   11CHTO  H115 4445   6.918   6.899   0.378  0.4867 -2.1769  1.1155
   11CHTO   O37 4446   7.085   6.809   0.460  0.0310 -0.4389 -0.3120
   11CHTO   C59 4447   7.087   6.881   0.587 -0.3061  0.2782 -0.0457
   11CHTO  H116 4448   6.987   6.904   0.624 -0.0013  0.7354  0.5009
   11CHTO   C70 4449   7.132   6.777   0.687  0.4243 -0.1103  0.1098
   11CHTO   O46 4450   7.159   6.839   0.813 -0.6583 -0.1274 -0.2344
   11CHTO  H103 4451   7.102   6.909   0.839  0.6929  1.1111 -0.5647
   11CHTO   O39 4452   7.031   6.778   0.243 -0.6915 -0.0200 -0.6513
   11CHTO   C60 4453   6.909   6.707   0.213 -0.3644  0.3119 -0.3293
   11CHTO  H117 4454   6.851   6.691   0.304 -0.6106 -1.0407 -0.7170
   11CHTO   C62 4455   6.830   6.777   0.097  0.0031 -0.3403 -0.8284
   11CHTO  H119 4456   6.804   6.876   0.141  0.3293 -1.4588  2.0170
   11CHTO   O43 4457   6.911   6.813  -0.016 -0.3793  0.0173  0.0996
   11CHTO  H101 4458   6.936   6.734  -0.060 -0.3719 -0.5114  1.0364
   11CHTO   C66 4459   6.698   6.697   0.062  0.3306  0.4429  0.1956
   11CHTO  H123 4460   6.650   6.674   0.157  2.3090  1.6230  1.5162
   11CHTO   N12 4461   6.608   6.770  -0.031 -0.0815  0.2605  0.0660
   11CHTO  H110 4462   6.500   6.770  -0.020 -0.0631 -0.3608  0.2630
   11CHTO  H111 4463   6.638   6.872  -0.046 -1.9885  0.8007 -0.1712
   11CHTO   C69 4464   6.733   6.554   0.005  0.1001 -0.0278  0.2868
   11CHTO  H126 4465   6.777   6.570  -0.095 -2.9604 -0.3117 -1.1786
   11CHTO   O41 4466   6.835   6.483   0.110  0.2159 -0.2009  0.1255
   11CHTO   C64 4467   6.956   6.568   0.153 -0.2959 -0.3832 -0.4652
   11CHTO  H121 4468   7.020   6.587   0.064 -0.7570 -2.8370 -1.3626
   11CHTO   C71 4469   7.026   6.483   0.260  0.3849 -0.0178 -0.0645
   11CHTO   O47 4470   7.161   6.524   0.287 -0.1083  0.0394 -0.4090
   11CHTO  H104 4471   7.212   6.534   0.209 -1.4312  0.9068 -1.1910
   11CHTO   O34 4472   6.609   6.455  -0.003 -0.4909 -0.2960  0.6147
   11CHTO   C49 4473   6.525   6.409   0.116 -0.2144 -0.3526  0.5621
   11CHTO   H91 4474   6.560   6.460   0.206 -1.1151  1.3270 -0.0169
   11CHTO   C47 4475   6.539   6.259   0.139  0.2592  0.5617  0.5534
   11CHTO   H89 4476   6.503   6.226   0.239  2.7122 -1.8961  0.6824
   11CHTO   O33 4477   6.684   6.242   0.128  0.1297 -0.6850  0.2290
   11CHTO   H70 4478   6.713   6.228   0.040 -0.0314 -2.5404  0.4495
   11CHTO   C45 4479   6.466   6.186   0.024  0.1780  0.1584  0.2038
   11CHTO   H87 4480   6.496   6.231  -0.072  1.5970  1.1751  1.1119
   11CHTO    N8 4481   6.483   6.040   0.012 -0.5346 -0.4196  0.1559
   11CHTO   H75 4482   6.588   6.019   0.029  0.1724  1.4285 -1.6334
   11CHTO   H76 4483   6.415   5.988   0.078 -0.4869  1.4255  1.7060
   11CHTO   C43 4484   6.309   6.224   0.043 -0.1526  0.5194 -0.7119
   11CHTO   H85 4485   6.257   6.171  -0.036 -1.3560 -0.1981  0.5343
   11CHTO   O29 4486   6.297   6.368   0.026  0.3561  0.4541  0.3451
   11CHTO   C50 4487   6.385   6.456   0.098 -0.3311 -0.1576 -0.7715
   11CHTO   H92 4488   6.396   6.550   0.041 -2.1706  0.3482 -0.3466
   11CHTO   C54 4489   6.340   6.510   0.236  0.3642 -0.2451 -0.1923
   11CHTO   O36 4490   6.315   6.417   0.339  0.2279  0.8240 -0.4463
   11CHTO   H72 4491   6.288   6.467   0.413 -0.8242 -0.6937  0.2327
   11CHTO   O27 4492   6.259   6.171   0.171  0.0487 -0.3768 -0.1073
   11CHTO   C37 4493   6.135   6.119   0.232 -0.5079 -0.3070 -0.5334
   11CHTO   H79 4494   6.145   6.099   0.340 -1.4548 -2.0126 -0.7483
   11CHTO   C38 4495   6.016   6.227   0.225  0.6215 -0.0345  0.2358
   11CHTO   H80 4496   5.986   6.241   0.120 -1.6651  0.1664  0.8931
   11CHTO   O31 4497   6.047   6.346   0.302 -0.2780 -0.5776  0.1132
   11CHTO   H68 4498   6.045   6.420   0.244 -0.9425  0.2646  1.1942
   11CHTO   C39 4499   5.889   6.164   0.289 -0.7456  0.3543  0.1571
   11CHTO   H81 4500   5.922   6.142   0.391  2.5000 -3.2440 -1.5148
   11CHTO    N7 4501   5.771   6.254   0.280  0.7664 -0.2150 -0.4290
   11CHTO   H73 4502   5.748   6.295   0.377 -2.2982  1.8769 -1.9457
   11CHTO   H74 4503   5.786   6.330   0.205  0.1407  1.8932  1.5042
   11CHTO   C40 4504   5.852   6.026   0.225 -0.3889  0.5031 -0.9009
   11CHTO   H82 4505   5.806   6.024   0.126 -3.1147 -0.8621  0.3545
   11CHTO   O26 4506   5.966   5.938   0.232  0.4006 -0.6217  0.1131
   11CHTO   C41 4507   6.090   5.992   0.163 -0.3428  0.3069  0.0901
   11CHTO   H83 4508   6.063   6.019   0.060 -3.8360  0.6613  1.0372
   11CHTO   C52 4509   6.193   5.872   0.162  0.1945  0.3761  0.6382
   11CHTO   O35 4510   6.156   5.784   0.105 -0.5112 -0.2118  0.5722
   11CHTO   H71 4511   6.182   5.702   0.142  0.1669  0.6155  1.9625
   11CHTO   O28 4512   5.763   5.957   0.319  0.6675 -0.5207 -0.2141
   11CHTO   C42 4513   5.658   5.856   0.294  0.3331 -0.0892  0.7441
   11CHTO   H84 4514   5.684   5.820   0.194 -1.7738 -0.2835  0.2428
   11CHTO   C44 4515   5.509   5.897   0.280  0.3060 -0.7081  0.5685
   11CHTO   H86 4516   5.480   5.932   0.379  2.5651  1.7098  0.4279
   11CHTO   O32 4517   5.494   6.014   0.189  0.0470 -0.1300  0.4825
   11CHTO   H69 4518   5.431   6.071   0.228 -0.6999  0.7275 -1.9004
   11CHTO   C48 4519   5.420   5.771   0.229  0.0013 -0.4892  0.2627
   11CHTO   H90 4520   5.469   5.755   0.133 -1.5796  0.5078 -0.7462
   11CHTO    N9 4521   5.274   5.810   0.202  0.1056  0.6671  0.1524
   11CHTO   H77 4522   5.224   5.724   0.161  0.9319 -0.8968  2.3023
   11CHTO   H78 4523   5.269   5.886   0.125  4.9348  2.0630  0.9904
   11CHTO   C51 4524   5.434   5.657   0.332  0.6003 -0.0303  0.3040
   11CHTO   H93 4525   5.387   5.694   0.423 -1.6359 -1.9507 -0.0393
   11CHTO   O30 4526   5.572   5.630   0.352 -0.7212 -1.1130  0.1642
   11CHTO   C46 4527   5.664   5.734   0.401 -0.2057 -0.1707  0.1509
   11CHTO   H88 4528   5.640   5.766   0.503 -3.3647  0.4078 -0.7330
   11CHTO   C53 4529   5.809   5.684   0.407  0.7303  0.2424  0.3373
   11CHTO   O72 4530   5.908   5.775   0.458 -0.1002  0.4280  0.1848
   11CHTO  H199 4531   5.869   5.817   0.533 -1.5729 -0.8654  0.1777
   11CHTO   O22 4532   5.373   5.534   0.299  0.2909 -0.0361 -0.0383
   11CHTO   C31 4533   5.342   5.439   0.413  0.1039 -0.0927  0.3040
   11CHTO   H59 4534   5.400   5.474   0.501  1.5615 -0.3471 -0.5458
   11CHTO   C29 4535   5.190   5.438   0.444 -0.2180  0.0705  0.5566
   11CHTO   H57 4536   5.149   5.399   0.349 -1.5737  0.0251  1.1538
   11CHTO   O21 4537   5.140   5.573   0.466  0.1834  0.2754  0.0848
   11CHTO   H37 4538   5.192   5.642   0.430  1.6232 -0.2553  1.0848
   11CHTO   C27 4539   5.155   5.342   0.565  0.0786  0.7937 -0.5556
   11CHTO   H55 4540   5.200   5.385   0.655  1.8521 -0.5939 -0.7563
   11CHTO    N5 4541   5.008   5.321   0.586 -0.7993  0.0872  0.1668
   11CHTO   H43 4542   4.959   5.413   0.613  0.5501  0.6248  0.8312
   11CHTO   H44 4543   5.004   5.257   0.673  0.3088 -1.2726 -0.7632
   11CHTO   C25 4544   5.226   5.203   0.542 -0.3320 -0.0643  0.4608
   11CHTO   H53 4545   5.166   5.164   0.459 -0.5726  1.1088  0.0612
   11CHTO   O17 4546   5.357   5.222   0.502 -0.4573  0.4125  0.5386
   11CHTO   C32 4547   5.384   5.292   0.385  0.3627 -0.3799  0.0596
   11CHTO   H60 4548   5.318   5.247   0.310  1.4364 -0.7267 -0.6953
   11CHTO   C36 4549   5.531   5.288   0.344  0.2223 -0.1013  0.5513
   11CHTO   O25 4550   5.554   5.176   0.257  0.6764  0.0234 -0.3719
   11CHTO   H40 4551   5.596   5.205   0.179  2.2552 -0.9392  0.0838
   11CHTO   O15 4552   5.214   5.098   0.672  0.2163 -0.2171 -0.0480
   11CHTO   C19 4553   5.205   4.955   0.714  0.8934 -0.2862  0.7738
   11CHTO   H47 4554   5.285   4.939   0.788 -0.6974  2.7013  3.2763
   11CHTO   C20 4555   5.074   4.924   0.789  0.5341  0.0277 -0.1327
   11CHTO   H48 4556   4.986   4.956   0.731 -0.0275  0.6836  1.0756
   11CHTO   O19 4557   5.081   5.009   0.904  0.3958  0.0753  0.0134
   11CHTO   H35 4558   5.081   5.100   0.880  1.2986  0.0872  0.0327
   11CHTO   C21 4559   5.077   4.777   0.829  0.4418  0.0813  0.5316
   11CHTO   H49 4560   5.162   4.762   0.896  0.1309  1.9629  1.3879
   11CHTO    N4 4561   4.955   4.736   0.898  0.8185 -0.1229  0.1764
   11CHTO   H41 4562   4.960   4.633   0.930  1.4579 -0.5967 -1.4387
   11CHTO   H42 4563   4.920   4.799   0.979 -0.6385  1.3651 -1.5633
   11CHTO   C22 4564   5.104   4.691   0.700  0.4858  0.6555  0.0733
   11CHTO   H50 4565   5.022   4.718   0.633 -0.6022 -2.9204 -0.1153
   11CHTO   O14 4566   5.227   4.726   0.638  0.0481  0.0782  0.8202
   11CHTO   C23 4567   5.231   4.862   0.591 -0.6619  0.6215 -0.3727
   11CHTO   H51 4568   5.147   4.860   0.520 -0.4058 -1.9722 -0.6451
   11CHTO   C34 4569   5.374   4.894   0.546 -0.5326  0.3713  0.1462
   11CHTO   O23 4570   5.410   4.815   0.435 -1.1033  0.3181  0.0344
   11CHTO   H38 4571   5.457   4.864   0.370  0.7902  0.8220  1.7567
   11CHTO   O16 4572   5.098   4.546   0.716 -0.3513  0.1215 -0.4374
   11CHTO   C24 4573   5.044   4.480   0.592 -0.3771 -0.3428 -0.1756
   11CHTO   H52 4574   5.057   4.544   0.505  3.0677  0.3994  0.8162
   11CHTO   C26 4575   4.893   4.443   0.616 -0.4164 -0.7774  0.5025
   11CHTO   H54 4576   4.883   4.368   0.696 -2.9915 -0.4341  0.5519
   11CHTO   O20 4577   4.816   4.556   0.662  0.4062  0.1551  0.3019
   11CHTO   H36 4578   4.853   4.586   0.743  2.5287 -0.8599 -0.2529
   11CHTO   C30 4579   4.839   4.382   0.484  0.8149 -0.4609  0.5319
   11CHTO   H58 4580   4.837   4.463   0.410 -0.4505  0.9243  2.0674
   11CHTO    N6 4581   4.694   4.343   0.492  0.4636 -0.4117 -0.0696
   11CHTO   H45 4582   4.670   4.298   0.397 -0.4331 -1.9418  0.8620
   11CHTO   H46 4583   4.638   4.434   0.505  1.6933  0.2214  0.9433
   11CHTO   C33 4584   4.935   4.268   0.421 -0.5696 -0.1798  0.1830
   11CHTO   H61 4585   4.927   4.168   0.467 -1.2898 -0.7272 -1.0909
   11CHTO   O18 4586   5.077   4.306   0.428 -0.2400 -0.0915  0.1853
   11CHTO   C28 4587   5.126   4.357   0.554 -0.0057  0.6070  0.0028
   11CHTO   H56 4588   5.103   4.282   0.630 -0.6630  0.1449 -0.6420
   11CHTO   C35 4589   5.279   4.382   0.542 -0.1623  0.4996 -0.0051
   11CHTO   O24 4590   5.330   4.427   0.422  0.1535  0.3893  0.1502
   11CHTO   H39 4591   5.307   4.518   0.417 -1.8945  0.0685  2.4095
   11CHTO    O9 4592   4.892   4.247   0.287 -0.1108  0.6344 -0.0621
   11CHTO   C13 4593   4.945   4.360   0.181  0.0409  0.4703 -0.0519
   11CHTO   H26 4594   4.971   4.452   0.238 -2.6150  0.6129  1.0279
   11CHTO   C11 4595   4.838   4.386   0.075  0.1342  1.0014  0.5286
   11CHTO   H24 4596   4.747   4.415   0.130 -2.4874 -1.9269 -2.0602
   11CHTO    O8 4597   4.805   4.262   0.012  0.1004  0.3883 -0.4679
   11CHTO    H3 4598   4.771   4.276  -0.074 -1.7539  0.2190  0.2258
   11CHTO    C9 4599   4.887   4.504  -0.013 -0.4262 -0.5556 -0.4597
   11CHTO   H22 4600   4.879   4.588   0.056 -1.0730 -0.5382 -0.5565
   11CHTO    N2 4601   4.791   4.532  -0.126 -0.5273  0.3551  0.4113
   11CHTO   H10 4602   4.810   4.477  -0.217 -1.0355 -2.2989  1.8698
   11CHTO   H11 4603   4.689   4.532  -0.091 -0.8800 -0.0254 -0.5901
   11CHTO    C7 4604   5.038   4.482  -0.045 -0.6300  0.3639  0.0997
   11CHTO   H20 4605   5.084   4.548   0.032  1.2209  0.2724 -0.8825
   11CHTO    O4 4606   5.079   4.352  -0.034  0.2497 -0.1524 -0.2777
   11CHTO   C14 4607   5.076   4.305   0.097 -0.1709 -0.6281  0.0905
   11CHTO   H27 4608   5.165   4.352   0.144  0.6637 -0.8279 -1.2895
   11CHTO   C18 4609   5.093   4.159   0.092  0.5113 -0.0708 -0.7760
   11CHTO   O13 4610   5.158   4.097   0.203  1.1368  0.1112 -0.0811
   11CHTO    H7 4611   5.121   4.125   0.284 -0.7891 -0.1130 -0.8522
   11CHTO    O2 4612   5.085   4.545  -0.189  0.1278  0.0519 -0.5950
   11CHTO    C1 4613   5.162   4.664  -0.180  0.8657 -0.3446  0.2768
   11CHTO   H14 4614   5.252   4.644  -0.119  1.2317 -2.0077 -0.7604
   11CHTO    C2 4615   5.085   4.797  -0.142  0.1489  0.1912  0.0292
   11CHTO   H15 4616   4.998   4.810  -0.208 -1.6374  2.5065  2.6956
   11CHTO    O6 4617   5.027   4.784  -0.014 -0.0024  0.2792  0.6087
   11CHTO    H1 4618   4.955   4.844  -0.010 -0.6135 -0.5521  2.3706
   11CHTO    C3 4619   5.176   4.931  -0.162  0.4374  0.0919  0.0069
   11CHTO   H16 4620   5.263   4.941  -0.095  0.1428 -1.4691  0.6550
   11CHTO    N1 4621   5.109   5.065  -0.141  0.3278  0.2523 -0.0744
   11CHTO    H8 4622   5.097   5.077  -0.035 -0.8675  1.0522 -0.2978
   11CHTO    H9 4623   5.017   5.047  -0.196  0.6598 -0.6066 -0.3598
   11CHTO    C4 4624   5.243   4.934  -0.305 -0.2695  0.0776 -1.0497
   11CHTO   H17 4625   5.170   4.964  -0.381 -1.4919 -1.2472 -0.4210
   11CHTO    O1 4626   5.297   4.811  -0.342 -0.5287  0.1166 -0.3377
   11CHTO    C5 4627   5.219   4.691  -0.324 -0.4769  0.6297 -0.2032
   11CHTO   H18 4628   5.145   4.707  -0.402 -1.4804 -1.1225  0.3741
   11CHTO   C16 4629   5.314   4.572  -0.366  0.2717 -0.1734  0.2383
   11CHTO   O11 4630   5.423   4.540  -0.275  0.1430 -0.5475 -0.4788
   11CHTO    H5 4631   5.434   4.447  -0.271 -1.1500 -0.9248 -3.6860
   11CHTO    O3 4632   5.354   5.025  -0.305 -0.1772 -0.3701  0.0038
   11CHTO    C6 4633   5.385   5.087  -0.431 -0.3944  1.0576  0.1587
   11CHTO   H19 4634   5.321   5.046  -0.510  0.9356  1.1982 -1.0177
   11CHTO    C8 4635   5.353   5.246  -0.426 -0.5590  0.3272 -0.0289
   11CHTO   H21 4636   5.426   5.289  -0.357  0.7560  1.3650 -1.9981
   11CHTO    O7 4637   5.220   5.264  -0.379 -0.7372  0.5734 -0.6964
   11CHTO    H2 4638   5.157   5.213  -0.427  0.5357 -0.3095 -1.4622
   11CHTO   C12 4639   5.374   5.323  -0.565 -0.5420  0.5693  0.4682
   11CHTO   H25 4640   5.300   5.289  -0.640 -0.6582 -0.3462  0.9898
   11CHTO    N3 4641   5.345   5.468  -0.560  0.4289 -0.0306 -0.0540
   11CHTO   H12 4642   5.297   5.491  -0.655 -0.7356  1.1674  0.8068
   11CHTO   H13 4643   5.437   5.522  -0.549  1.2780 -1.3171 -0.7899
   11CHTO   C15 4644   5.518   5.282  -0.614 -0.6284 -0.1805  0.0810
   11CHTO   H28 4645   5.597   5.335  -0.560  0.4195  0.1902 -1.7558
   11CHTO   O10 4646   5.527   5.314  -0.769 -0.5174 -0.1937  0.7743
   11CHTO    H4 4647   5.561   5.399  -0.791 -0.7667 -0.1893  0.4076
   11CHTO    O5 4648   5.532   5.141  -0.616 -0.2915  0.8873 -0.8929
   11CHTO   C10 4649   5.531   5.078  -0.481 -0.6328  0.0310  0.1955
   11CHTO   H23 4650   5.608   5.135  -0.430  1.2207 -2.2653  0.0254
   11CHTO   C17 4651   5.573   4.931  -0.474 -0.2691 -0.2282  0.6994
   11CHTO   O12 4652   5.709   4.927  -0.505  0.4798  0.2703 -0.1165
   11CHTO    H6 4653   5.760   4.955  -0.432  0.4673 -1.6661  0.6801
   12CHTO  H203 4654   5.093  11.932   1.899 -1.0944 -1.1256  3.3715
   12CHTO   O82 4655   5.044  11.858   1.868 -0.4149 -0.1958 -0.1037
   12CHTO  C123 4656   5.033  11.775   1.982 -0.8438  0.9394  0.0183
   12CHTO  H227 4657   5.034  11.833   2.076  0.6257  2.4504 -0.8966
   12CHTO   O77 4658   4.905  11.700   1.964  0.1624 -0.0456 -0.3668
   12CHTO  C118 4659   4.876  11.597   2.059 -0.5768  0.0524  0.5208
   12CHTO  H222 4660   4.885  11.654   2.153  0.5339  3.5510 -1.6291
   12CHTO  C125 4661   4.722  11.557   2.030  0.0283 -0.3435 -0.0450
   12CHTO   O84 4662   4.713  11.497   1.897  0.9216  0.0334 -0.1839
   12CHTO  H205 4663   4.621  11.491   1.876  1.2065  0.0242 -1.4965
   12CHTO  C114 4664   4.990  11.487   2.054  0.4765  0.8480  0.0970
   12CHTO  H218 4665   4.979  11.438   1.958  0.9979 -0.2842  0.6159
   12CHTO  C116 4666   5.130  11.546   2.065 -0.4235 -0.8080  0.7793
   12CHTO  H220 4667   5.160  11.572   2.168  3.0870  1.2288 -0.6496
   12CHTO   O79 4668   5.210  11.439   2.025 -0.1169 -0.3329  1.0719
   12CHTO  H201 4669   5.298  11.461   2.049 -0.3970  0.0826  1.7295
   12CHTO  C120 4670   5.155  11.672   1.966  0.3852  1.6197 -0.9068
   12CHTO  H224 4671   5.163  11.638   1.860 -1.1252  1.0382 -0.8458
   12CHTO   N21 4672   5.291  11.730   2.000 -0.0081  0.5949 -0.2896
   12CHTO  H211 4673   5.306  11.751   2.105  0.4113 -0.5525 -0.1043
   12CHTO  H212 4674   5.367  11.658   1.974  1.8850  1.9519  1.3488
   12CHTO   O75 4675   4.942  11.409   2.166 -0.3824  0.3085 -0.1928
   12CHTO  C112 4676   4.918  11.244   2.139  0.2448 -0.7563  0.1840
   12CHTO  H216 4677   4.984  11.216   2.055 -1.7506 -1.2548 -1.2666
   12CHTO   O73 4678   4.776  11.227   2.108  0.5256  0.2353  0.2648
   12CHTO  C113 4679   4.743  11.089   2.083  0.1627  0.0213  0.4439
   12CHTO  H217 4680   4.799  11.048   1.996 -0.6504  2.4065 -1.2692
   12CHTO  C124 4681   4.596  11.076   2.040 -0.0946 -0.0093  0.3187
   12CHTO   O83 4682   4.503  11.103   2.150  0.5239 -0.1969  0.1747
   12CHTO  H204 4683   4.463  11.188   2.148 -1.6593 -1.1803  1.2053
   12CHTO  C109 4684   4.773  11.001   2.210  0.7763  0.1803 -0.5262
   12CHTO  H213 4685   4.710  11.038   2.293 -0.2735 -4.7123  1.0376
   12CHTO  C110 4686   4.926  11.013   2.238  0.2092 -0.2353  0.1011
   12CHTO  H214 4687   4.977  10.985   2.146  0.7163 -0.1627  0.3546
   12CHTO   O78 4688   4.967  10.917   2.344  0.2027  0.0903 -0.5794
   12CHTO  H200 4689   5.003  10.841   2.303 -1.7138 -1.3796  0.3991
   12CHTO  C111 4690   4.960  11.160   2.269  0.0328  0.7012 -0.0144
   12CHTO  H215 4691   4.901  11.195   2.355 -0.7423  0.5189 -0.4642
   12CHTO   N19 4692   5.105  11.188   2.301  0.3217 -0.1488  0.5026
   12CHTO  H207 4693   5.161  11.163   2.211  0.9538 -1.2881  1.1938
   12CHTO  H208 4694   5.149  11.122   2.374  1.5063 -0.9618 -0.9097
   12CHTO   O74 4695   4.737  10.867   2.193 -0.4826  0.0299 -0.0660
   12CHTO  C115 4696   4.658  10.795   2.313 -0.0713 -0.0151  0.3436
   12CHTO  H219 4697   4.720  10.791   2.403  0.7351 -0.9803 -0.2439
   12CHTO   O76 4698   4.538  10.872   2.349  0.0999  0.2281  0.0452
   12CHTO  C122 4699   4.479  10.821   2.471  0.0782 -0.1423  0.5364
   12CHTO  H226 4700   4.389  10.880   2.488 -0.0932  0.2607 -1.7078
   12CHTO  C126 4701   4.571  10.849   2.594 -0.5836  0.0440  0.7017
   12CHTO   O85 4702   4.513  10.804   2.711 -0.6871 -0.1641 -0.6636
   12CHTO  H206 4703   4.443  10.856   2.746  0.8348  1.5122 -0.0523
   12CHTO  C121 4704   4.442  10.672   2.465 -0.1352 -0.3446  0.3155
   12CHTO  H225 4705   4.416  10.637   2.567  0.6710  0.7186  0.8934
   12CHTO   O81 4706   4.312  10.659   2.407  0.1314 -0.1170 -0.2903
   12CHTO  H202 4707   4.244  10.692   2.463 -0.6757 -1.3661 -0.5190
   12CHTO  C119 4708   4.552  10.583   2.409 -0.2414 -0.1859  0.5849
   12CHTO  H223 4709   4.633  10.585   2.482  1.9446 -0.6427 -1.7196
   12CHTO  C117 4710   4.616  10.652   2.278 -0.2809 -0.7771 -0.0868
   12CHTO  H221 4711   4.546  10.672   2.197  1.3054  0.9068 -1.1107
   12CHTO   N20 4712   4.731  10.562   2.234  0.2642 -0.4787  1.1601
   12CHTO  H209 4713   4.807  10.561   2.312  2.2658 -0.6889 -0.7362
   12CHTO  H210 4714   4.688  10.469   2.201  0.7376  0.0692 -1.1096
   12CHTO   O80 4715   4.518  10.426   2.412  0.4005 -0.5542 -0.1532
   12CHTO  C103 4716   4.417  10.367   2.334  0.5883  0.7064 -0.7680
   12CHTO  H190 4717   4.319  10.414   2.340 -0.1407 -0.7013 -1.3031
   12CHTO  C101 4718   4.450  10.328   2.179 -0.8886 -0.0973  0.1642
   12CHTO  H188 4719   4.555  10.301   2.184 -0.9661 -0.0031  3.1633
   12CHTO   O68 4720   4.439  10.462   2.078 -0.1743  0.8027  0.2840
   12CHTO  H168 4721   4.475  10.432   1.996 -0.5934  0.3540  0.2607
   12CHTO   C99 4722   4.367  10.208   2.120  0.3783  0.3937 -0.4764
   12CHTO  H186 4723   4.267  10.254   2.103 -0.3920 -0.2183  2.1465
   12CHTO   N17 4724   4.409  10.170   1.979  0.1449  0.2155 -0.4575
   12CHTO  H174 4725   4.390  10.237   1.896 -0.4527  2.6273  1.5700
   12CHTO  H175 4726   4.517  10.162   1.979  0.1396 -0.3577  2.1187
   12CHTO   C97 4727   4.350  10.091   2.217  0.1400  0.3149 -0.0276
   12CHTO  H184 4728   4.443  10.034   2.226  0.0263 -0.4091 -2.8557
   12CHTO   O64 4729   4.307  10.141   2.339  0.4366 -0.4799  0.7250
   12CHTO  C104 4730   4.403  10.224   2.402 -0.0444 -0.0668  0.3788
   12CHTO  H191 4731   4.501  10.178   2.414  0.0773  0.6513  2.2842
   12CHTO  C108 4732   4.349  10.248   2.542 -0.4949 -0.0208 -0.0528
   12CHTO   O71 4733   4.391  10.141   2.625 -0.1337  0.6415  0.1586
   12CHTO  H171 4734   4.479  10.145   2.656  0.2915 -1.6398 -0.6359
   12CHTO   O62 4735   4.237  10.008   2.176 -0.4019  0.5592  0.0776
   12CHTO   C91 4736   4.214   9.880   2.241  0.3414  0.2020 -0.2682
   12CHTO  H178 4737   4.290   9.871   2.319  1.0880  1.2172 -0.8685
   12CHTO   C92 4738   4.242   9.772   2.127 -0.5258  0.9787 -0.1330
   12CHTO  H179 4739   4.176   9.787   2.040 -0.4445 -2.3167 -0.8165
   12CHTO   O66 4740   4.377   9.802   2.074 -0.6966 -0.6194  0.0327
   12CHTO  H166 4741   4.442   9.753   2.120 -0.5212  0.0219  0.4709
   12CHTO   C93 4742   4.218   9.624   2.184  0.5291 -0.2902  0.4870
   12CHTO  H180 4743   4.307   9.606   2.245  2.5127 -1.2724 -2.5694
   12CHTO   N16 4744   4.226   9.523   2.077 -0.1483  0.1385 -0.3260
   12CHTO  H172 4745   4.301   9.456   2.115 -1.3160  0.9494  3.5517
   12CHTO  H173 4746   4.135   9.466   2.065  0.2569 -0.4090 -0.8473
   12CHTO   C94 4747   4.079   9.621   2.266  0.4114  0.2129  0.1272
   12CHTO  H181 4748   3.992   9.639   2.204  1.1390 -1.5262 -1.4330
   12CHTO   O61 4749   4.090   9.722   2.371  0.5008  0.1023  0.0443
   12CHTO   C95 4750   4.082   9.855   2.322 -0.2459  0.6300 -0.3931
   12CHTO  H182 4751   4.000   9.869   2.252  0.2557 -3.7946 -2.0599
   12CHTO  C106 4752   4.062   9.948   2.447 -0.0966 -0.3862 -0.3439
   12CHTO   O69 4753   3.952   9.900   2.527 -0.1484 -0.3787  0.3178
   12CHTO  H169 4754   3.938   9.808   2.511  1.5016 -0.6212  0.2101
   12CHTO   O63 4755   4.053   9.475   2.344  0.1189 -0.1315  0.8307
   12CHTO   C96 4756   4.153   9.418   2.447  0.4864 -0.1903  0.0261
   12CHTO  H183 4757   4.240   9.482   2.448  0.8985 -0.7421 -0.6220
   12CHTO   C98 4758   4.200   9.274   2.405  0.1631 -0.0142 -0.1407
   12CHTO  H185 4759   4.116   9.213   2.369 -0.0764  1.5080 -2.3290
   12CHTO   O67 4760   4.291   9.292   2.295 -0.0289  0.1973 -0.4970
   12CHTO  H167 4761   4.247   9.332   2.222 -0.4779 -2.3997 -1.7136
   12CHTO  C102 4762   4.287   9.192   2.518  0.1606 -0.2290  0.6111
   12CHTO  H189 4763   4.381   9.247   2.536 -0.4698  0.5962  1.4237
   12CHTO   N18 4764   4.334   9.056   2.471 -0.4304 -0.1478  0.0735
   12CHTO  H176 4765   4.256   8.982   2.470 -1.6190  1.0818 -2.1015
   12CHTO  H177 4766   4.417   9.022   2.531  0.0620  0.3111 -0.3438
   12CHTO  C105 4767   4.203   9.201   2.650 -0.1387 -0.8777  0.5719
   12CHTO  H192 4768   4.105   9.157   2.634 -0.4182  0.3561 -1.2664
   12CHTO   O65 4769   4.188   9.341   2.677  0.6240  0.6354  0.0057
   12CHTO  C100 4770   4.099   9.413   2.586  0.7967  0.1420  0.2796
   12CHTO  H187 4771   4.005   9.356   2.588  1.3227 -0.9935 -3.2028
   12CHTO  C107 4772   4.064   9.557   2.636  0.7442  0.2244  0.2584
   12CHTO   O70 4773   4.184   9.632   2.651  0.2370 -0.6647  0.5524
   12CHTO  H170 4774   4.207   9.671   2.569 -2.2280 -0.7370 -0.2151
   12CHTO   O57 4775   4.278   9.125   2.753  0.9394 -0.1552 -0.0792
   12CHTO   C85 4776   4.208   9.066   2.865  0.9052  0.4556  0.6655
   12CHTO  H157 4777   4.116   9.023   2.823  0.6485  1.1972  0.4621
   12CHTO   C83 4778   4.158   9.170   2.968  0.3402 -0.2991  0.0240
   12CHTO  H155 4779   4.075   9.225   2.924  1.7767  2.7751  1.0085
   12CHTO   O56 4780   4.259   9.277   2.971  0.4675  0.5258 -0.5081
   12CHTO  H135 4781   4.345   9.250   2.996  1.4600  4.0029  0.1651
   12CHTO   C81 4782   4.118   9.108   3.100  0.2947  0.1377  0.0570
   12CHTO  H153 4783   4.039   9.035   3.083  1.0930 -0.8495  0.5219
   12CHTO   N14 4784   4.063   9.205   3.201  0.5443 -0.0403  0.3899
   12CHTO  H141 4785   4.049   9.156   3.295 -0.0520 -0.6542 -0.0201
   12CHTO  H142 4786   4.131   9.287   3.216  1.6373 -0.2006 -3.1972
   12CHTO   C79 4787   4.242   9.031   3.157  0.2022  0.4449  0.4750
   12CHTO  H151 4788   4.208   8.991   3.253  1.7972 -1.7779  0.1460
   12CHTO   O52 4789   4.274   8.922   3.064  0.0254 -0.5587 -0.1821
   12CHTO   C86 4790   4.303   8.963   2.923 -0.1434  0.2941  0.8320
   12CHTO  H158 4791   4.405   9.005   2.928  0.2726 -0.8157  1.7389
   12CHTO   C90 4792   4.304   8.841   2.832 -0.3943  0.2123 -0.1310
   12CHTO   O60 4793   4.195   8.748   2.847  0.3379  0.4917 -0.1624
   12CHTO  H138 4794   4.112   8.787   2.826 -0.1318 -0.3844  0.0498
   12CHTO   O50 4795   4.359   9.113   3.195  0.1276 -0.2171 -0.0549
   12CHTO   C73 4796   4.423   9.105   3.316  0.4931 -0.0453  0.1372
   12CHTO  H145 4797   4.368   9.035   3.380 -0.2139  0.4709  0.0999
   12CHTO   C74 4798   4.441   9.245   3.383  0.1710  0.3867  0.8957
   12CHTO  H146 4799   4.342   9.288   3.405 -0.6533 -1.1396  0.2119
   12CHTO   O54 4800   4.511   9.234   3.509  0.2638  0.0776 -0.0983
   12CHTO  H133 4801   4.470   9.297   3.566  1.6106 -1.5201  2.7443
   12CHTO   C75 4802   4.529   9.338   3.291  0.5126  0.1124  0.1700
   12CHTO  H147 4803   4.473   9.339   3.196  0.9774  0.2870 -0.0981
   12CHTO   N13 4804   4.560   9.476   3.318 -0.0804  0.4252  0.3639
   12CHTO  H139 4805   4.502   9.542   3.255 -0.1815 -1.6253 -1.7571
   12CHTO  H140 4806   4.557   9.513   3.419 -1.2375  2.2280 -0.3076
   12CHTO   C76 4807   4.670   9.264   3.271  0.5391  0.0463  0.3386
   12CHTO  H148 4808   4.711   9.255   3.372  0.0354 -1.2911  0.4334
   12CHTO   O49 4809   4.654   9.126   3.213 -0.4356 -0.8553 -0.5495
   12CHTO   C77 4810   4.563   9.045   3.292 -0.6153  0.3451  0.3616
   12CHTO  H149 4811   4.618   9.028   3.385  2.5670  3.6154 -0.8125
   12CHTO   C88 4812   4.555   8.910   3.227 -0.4327  0.4925 -0.0142
   12CHTO   O58 4813   4.469   8.803   3.309 -0.1229  0.0470 -0.4565
   12CHTO  H136 4814   4.481   8.719   3.268 -1.8428  0.8227 -2.6684
   12CHTO   O51 4815   4.763   9.326   3.149 -0.1441 -0.3479  0.2056
   12CHTO   C78 4816   4.908   9.251   3.134  0.2447  0.0178  0.3866
   12CHTO  H150 4817   4.906   9.154   3.188 -3.8474  0.0836  0.4820
   12CHTO   C80 4818   5.021   9.341   3.196  0.2824  0.0195 -0.6769
   12CHTO  H152 4819   5.030   9.432   3.133 -2.4412  1.0606  0.3613
   12CHTO   O55 4820   4.998   9.366   3.337  0.0923 -0.5994  0.1291
   12CHTO  H134 4821   4.907   9.383   3.352  0.0027 -2.1729  1.5295
   12CHTO   C84 4822   5.161   9.269   3.174  0.3296  0.6743 -0.3256
   12CHTO  H156 4823   5.160   9.182   3.239 -0.3906  1.0311  0.1464
   12CHTO   N15 4824   5.279   9.338   3.226 -0.4632 -0.3591 -0.3268
   12CHTO  H143 4825   5.349   9.273   3.274 -0.8214  0.6511  1.6047
   12CHTO  H144 4826   5.251   9.407   3.303  3.2567 -0.1697  0.9854
   12CHTO   C87 4827   5.181   9.225   3.026  0.0118 -0.4087  0.7653
   12CHTO  H159 4828   5.199   9.318   2.973  0.0787 -1.4393 -1.0533
   12CHTO   O53 4829   5.058   9.155   2.975  0.1362  0.0467  0.5368
   12CHTO   C82 4830   4.946   9.242   2.980  0.2166 -0.4806 -0.1533
   12CHTO  H154 4831   4.975   9.339   2.940  2.7725 -1.9985 -2.1688
   12CHTO   C89 4832   4.836   9.191   2.893 -0.8968  0.2072 -0.7102
   12CHTO   O59 4833   4.782   9.070   2.952  0.1593 -0.1844 -0.2426
   12CHTO  H137 4834   4.701   9.053   2.907  0.3487  1.1748 -1.1562
   12CHTO   O45 4835   5.314   9.123   3.006  0.1877  0.3289 -0.7017
   12CHTO   C67 4836   5.386   9.125   2.877  0.0757  0.1218 -0.2325
   12CHTO  H124 4837   5.473   9.061   2.895 -0.7232 -1.0375 -0.4159
   12CHTO   C65 4838   5.302   9.059   2.769  0.1126  0.6893  0.1530
   12CHTO  H122 4839   5.211   9.022   2.816  0.8348 -0.7678  0.4478
   12CHTO   O44 4840   5.382   8.952   2.714  0.3703 -0.0473  0.1756
   12CHTO  H102 4841   5.406   8.896   2.785 -2.2081  0.6408  1.6580
   12CHTO   C63 4842   5.253   9.164   2.665 -0.1357 -0.2558  0.6510
   12CHTO  H120 4843   5.201   9.244   2.717  0.2563  0.5744 -0.2024
   12CHTO   N11 4844   5.142   9.115   2.569  0.0116 -0.3656 -0.4938
   12CHTO  H108 4845   5.144   9.188   2.491  2.1318  1.3848  1.1204
   12CHTO  H109 4846   5.047   9.108   2.617  0.1097  0.9437 -0.0910
   12CHTO   C61 4847   5.391   9.233   2.600 -0.8873  0.1918 -0.0329
   12CHTO  H118 4848   5.362   9.319   2.538  0.3279  0.6364  0.0017
   12CHTO   O40 4849   5.483   9.282   2.701 -0.4539 -0.0241  0.3890
   12CHTO   C68 4850   5.445   9.269   2.841 -0.4748 -0.0991  0.0623
   12CHTO  H125 4851   5.379   9.354   2.868 -1.2555  0.0956 -2.3314
   12CHTO   C72 4852   5.574   9.295   2.917  0.0348  0.1185 -0.0237
   12CHTO   O48 4853   5.580   9.301   3.062 -0.1100  0.0617  0.2540
   12CHTO  H105 4854   5.500   9.284   3.107 -0.2567 -0.7141 -0.2891
   12CHTO   O38 4855   5.464   9.141   2.519  0.2177  0.0434  0.8958
   12CHTO   C55 4856   5.584   9.184   2.449  0.1567 -0.4253  0.5777
   12CHTO  H112 4857   5.607   9.286   2.484  2.1923 -0.4639 -0.5675
   12CHTO   C56 4858   5.556   9.180   2.294  0.6115 -0.2188  0.1317
   12CHTO  H113 4859   5.519   9.079   2.270  1.8742 -0.3382 -1.3978
   12CHTO   O42 4860   5.445   9.265   2.258 -0.5398  0.9075 -0.1605
   12CHTO  H100 4861   5.363   9.224   2.279  1.2682 -2.4416  0.8235
   12CHTO   C57 4862   5.686   9.211   2.212  0.3201 -0.4994  0.2495
   12CHTO  H114 4863   5.707   9.318   2.215  0.5513 -0.5387  0.0494
   12CHTO   N10 4864   5.670   9.178   2.070  0.3169 -0.2573  0.2823
   12CHTO  H106 4865   5.602   9.095   2.067 -0.8691  0.7330 -0.9204
   12CHTO  H107 4866   5.763   9.163   2.019  0.4196  0.1084  0.3608
   12CHTO   C58 4867   5.814   9.135   2.260 -0.3879 -0.8463 -0.1666
   12CHTO  H115 4868   5.807   9.031   2.222 -3.2248 -0.0255 -2.1264
   12CHTO   O37 4869   5.818   9.134   2.403 -0.5332 -0.3834 -0.1959
   12CHTO   C59 4870   5.708   9.085   2.476 -0.1003 -0.6764  0.0007
   12CHTO  H116 4871   5.695   8.981   2.447  1.4496 -0.7523 -0.4690
   12CHTO   C70 4872   5.751   9.071   2.618 -0.1013  0.0293 -0.4024
   12CHTO   O46 4873   5.816   9.183   2.681 -0.1222 -0.0175  0.0546
   12CHTO  H103 4874   5.744   9.229   2.721  0.1762  1.1413 -0.7239
   12CHTO   O39 4875   5.950   9.241   2.201  0.5064  0.9255  0.3987
   12CHTO   C60 4876   6.073   9.204   2.256 -0.0739 -0.4193 -0.5087
   12CHTO  H117 4877   6.048   9.155   2.350 -1.2726  1.0026 -0.0660
   12CHTO   C62 4878   6.151   9.115   2.169  0.0183  0.7115  0.2074
   12CHTO  H119 4879   6.091   9.023   2.152 -0.6102  1.3444 -1.0414
   12CHTO   O43 4880   6.186   9.179   2.046  0.0883  0.0359 -0.2501
   12CHTO  H101 4881   6.210   9.270   2.055 -0.4379  0.0845  0.7901
   12CHTO   C66 4882   6.286   9.072   2.250 -0.0112 -0.5605 -0.2555
   12CHTO  H123 4883   6.258   9.058   2.355 -1.3231 -0.9751 -0.6601
   12CHTO   N12 4884   6.361   8.961   2.189  0.0539  0.6962  0.0688
   12CHTO  H110 4885   6.431   9.009   2.122  1.7606  0.2122  1.4647
   12CHTO  H111 4886   6.289   8.899   2.138 -2.9396  4.7440 -0.7720
   12CHTO   C69 4887   6.377   9.200   2.262  0.0666 -0.2736 -0.0014
   12CHTO  H126 4888   6.418   9.246   2.170  1.2856 -0.3633  0.4820
   12CHTO   O41 4889   6.298   9.304   2.334  0.3597 -0.6701  0.2586
   12CHTO   C64 4890   6.149   9.334   2.290 -0.8426 -0.5805  0.3877
   12CHTO  H121 4891   6.147   9.391   2.195 -3.1177  0.2863  0.9219
   12CHTO   C71 4892   6.080   9.408   2.396 -0.2860  0.4610 -0.2790
   12CHTO   O47 4893   6.088   9.346   2.525 -0.1140 -0.6421  0.3893
   12CHTO  H104 4894   6.058   9.257   2.522  0.7053 -0.8855 -0.8281
   12CHTO   O34 4895   6.497   9.168   2.360 -0.2337  0.2283  0.6306
   12CHTO   C49 4896   6.542   9.168   2.521 -0.0341 -0.5631 -0.2704
   12CHTO   H91 4897   6.607   9.253   2.538 -0.4560 -0.1349 -0.7525
   12CHTO   C47 4898   6.612   9.037   2.554 -0.7357  0.6708 -0.9494
   12CHTO   H89 4899   6.645   9.047   2.660  2.1269 -4.1010 -1.2345
   12CHTO   O33 4900   6.725   9.024   2.466  0.0100 -0.5966 -0.0867
   12CHTO   H70 4901   6.759   8.936   2.467  0.3776 -0.4479  0.5752
   12CHTO   C45 4902   6.513   8.917   2.543 -0.6637  0.0978  0.8494
   12CHTO   H87 4903   6.482   8.913   2.438  0.5141  1.1022  0.4541
   12CHTO    N8 4904   6.571   8.786   2.577  1.2547  0.1268 -0.0695
   12CHTO   H75 4905   6.582   8.734   2.483  1.5285 -0.8499  0.5079
   12CHTO   H76 4906   6.517   8.725   2.647  1.0663  0.3306 -0.0358
   12CHTO   C43 4907   6.367   8.943   2.626  0.0739  0.7886 -0.6502
   12CHTO   H85 4908   6.298   8.874   2.578 -0.2815  0.3599  0.4645
   12CHTO   O29 4909   6.326   9.075   2.611  0.2034  0.1279  0.0300
   12CHTO   C50 4910   6.421   9.187   2.616  0.1919 -0.2231 -0.6811
   12CHTO   H92 4911   6.362   9.274   2.583  0.6136  0.6218  0.7338
   12CHTO   C54 4912   6.460   9.230   2.764 -0.8123 -0.2514  0.0478
   12CHTO   O36 4913   6.537   9.355   2.758  0.3286 -0.1102  0.2556
   12CHTO   H72 4914   6.628   9.334   2.758  0.5696  0.8771  1.8757
   12CHTO   O27 4915   6.371   8.910   2.768  0.3066 -0.4207  0.4764
   12CHTO   C37 4916   6.266   8.882   2.866 -0.1513 -0.6208  0.2409
   12CHTO   H79 4917   6.325   8.848   2.953 -2.2221  0.1302  1.9851
   12CHTO   C38 4918   6.170   8.996   2.904  0.3667 -0.2459  0.3747
   12CHTO   H80 4919   6.123   9.022   2.808 -1.0996 -1.9537  0.6052
   12CHTO   O31 4920   6.254   9.105   2.950  0.3352  0.0845  0.8784
   12CHTO   H68 4921   6.267   9.094   3.042  2.1105  2.2256  0.9488
   12CHTO   C39 4922   6.059   8.955   3.008 -0.6771 -0.1525 -0.2774
   12CHTO   H81 4923   6.103   8.930   3.104  2.0562 -0.2571 -1.4965
   12CHTO    N7 4924   5.961   9.060   3.025 -0.0518 -0.4101  0.2855
   12CHTO   H73 4925   5.898   9.081   2.940  0.2575 -1.7027 -0.2739
   12CHTO   H74 4926   5.912   9.029   3.116 -1.7241 -0.8465 -0.7421
   12CHTO   C40 4927   5.992   8.825   2.955 -0.2465 -0.0490 -0.0967
   12CHTO   H82 4928   5.938   8.850   2.863  0.5303  0.4443 -0.4208
   12CHTO   O26 4929   6.095   8.730   2.928  0.3164  0.2917  0.4565
   12CHTO   C41 4930   6.185   8.757   2.814  0.2201 -0.3994 -0.0023
   12CHTO   H83 4931   6.130   8.783   2.723 -0.6211 -0.4757  0.4809
   12CHTO   C52 4932   6.272   8.630   2.788  0.1707 -0.3093 -0.1116
   12CHTO   O35 4933   6.208   8.533   2.751  0.0937  0.3570  0.3311
   12CHTO   H71 4934   6.148   8.500   2.814 -0.6750  0.4913 -0.3204
   12CHTO   O28 4935   5.902   8.751   3.045  0.2372 -0.5082  0.5632
   12CHTO   C42 4936   5.779   8.695   2.997  0.6775 -0.4744 -0.7434
   12CHTO   H84 4937   5.760   8.614   3.068 -2.0652  1.0802  0.3861
   12CHTO   C44 4938   5.784   8.625   2.864  0.1286  0.2637 -0.1927
   12CHTO   H86 4939   5.799   8.707   2.793 -1.1603  0.7169  0.0360
   12CHTO   O32 4940   5.891   8.527   2.862 -0.0222  0.2218 -0.2634
   12CHTO   H69 4941   5.860   8.445   2.896 -1.3969  1.1423  0.7869
   12CHTO   C48 4942   5.643   8.557   2.831 -0.9832 -0.3978 -0.2985
   12CHTO   H90 4943   5.638   8.474   2.901 -0.1708  0.3197  0.6295
   12CHTO    N9 4944   5.653   8.500   2.693  0.3082  0.1127  0.6436
   12CHTO   H77 4945   5.740   8.531   2.637 -0.1927 -0.7999 -0.6642
   12CHTO   H78 4946   5.659   8.392   2.697  1.1703  0.1503  0.3875
   12CHTO   C51 4947   5.521   8.655   2.834  0.6374  0.6799 -1.2344
   12CHTO   H93 4948   5.533   8.736   2.762 -0.1718  2.6703  0.8019
   12CHTO   O30 4949   5.518   8.705   2.970  0.6676 -0.2429 -0.1079
   12CHTO   C46 4950   5.654   8.788   3.004  0.2429 -0.3091 -0.1918
   12CHTO   H88 4951   5.666   8.868   2.931 -1.4844 -1.4569 -1.7596
   12CHTO   C53 4952   5.643   8.847   3.145 -0.4004 -0.0795  0.0460
   12CHTO   O72 4953   5.532   8.929   3.165 -0.5540  0.2846 -0.3474
   12CHTO  H199 4954   5.510   8.992   3.099  0.0871 -0.4476 -1.2734
   12CHTO   O22 4955   5.391   8.586   2.823 -0.5981 -0.2473  0.3666
   12CHTO   C31 4956   5.251   8.607   2.861  0.5177 -0.0598 -0.6128
   12CHTO   H59 4957   5.211   8.506   2.884  0.2646  0.0576 -0.5475
   12CHTO   C29 4958   5.220   8.701   2.982 -0.4217 -0.0586  0.0958
   12CHTO   H57 4959   5.275   8.796   2.976  0.1349 -0.3448  0.6704
   12CHTO   O21 4960   5.287   8.646   3.104  0.8568 -0.6140 -0.4488
   12CHTO   H37 4961   5.237   8.570   3.127 -0.0055  0.1323  0.1196
   12CHTO   C27 4962   5.064   8.727   3.009  0.3158  0.4808  0.3245
   12CHTO   H55 4963   5.017   8.629   3.027  2.1731 -0.5259 -0.1501
   12CHTO    N5 4964   5.039   8.827   3.122  0.1877  0.8198  0.5207
   12CHTO   H43 4965   4.943   8.872   3.107  0.5055  1.7019  1.1384
   12CHTO   H44 4966   5.049   8.777   3.218  0.3408 -1.3711 -0.5909
   12CHTO   C25 4967   5.010   8.775   2.874  0.4791  0.2750  0.3870
   12CHTO   H53 4968   5.059   8.871   2.852  3.5281 -1.4585 -0.6682
   12CHTO   O17 4969   5.034   8.670   2.780 -0.6561 -0.1576 -0.4189
   12CHTO   C32 4970   5.173   8.654   2.738 -0.0500  0.5829 -0.9000
   12CHTO   H60 4971   5.218   8.747   2.704  0.5464  0.7223  0.2388
   12CHTO   C36 4972   5.182   8.544   2.621  1.0597 -0.4834  0.4014
   12CHTO   O25 4973   5.082   8.563   2.518  0.6606 -0.2426  0.3467
   12CHTO   H40 4974   5.065   8.653   2.498  1.9091  0.1863  1.1918
   12CHTO   O15 4975   4.845   8.799   2.879 -0.0935 -0.2952 -0.2157
   12CHTO   C19 4976   4.750   8.764   2.777 -0.4008 -0.8080 -0.8429
   12CHTO   H47 4977   4.662   8.821   2.810 -0.4310  0.2341 -2.6810
   12CHTO   C20 4978   4.791   8.803   2.625 -0.5694 -0.7979  0.7022
   12CHTO   H48 4979   4.881   8.751   2.590 -0.7299 -0.1020 -0.7679
   12CHTO   O19 4980   4.822   8.945   2.630  0.6033 -0.0600  0.2037
   12CHTO   H35 4981   4.757   9.000   2.667 -1.4078 -0.8482 -2.0019
   12CHTO   C21 4982   4.674   8.782   2.514 -0.4121 -0.4727 -0.2695
   12CHTO   H49 4983   4.600   8.860   2.535 -0.2321 -0.4443  0.2599
   12CHTO    N4 4984   4.717   8.798   2.377 -0.5617 -0.1188 -0.2505
   12CHTO   H41 4985   4.749   8.701   2.340 -0.7408 -0.6974  1.0661
   12CHTO   H42 4986   4.628   8.832   2.325 -0.7029  0.7769  0.5606
   12CHTO   C22 4987   4.617   8.643   2.543  0.3418  0.5797 -0.1000
   12CHTO   H50 4988   4.694   8.573   2.512 -0.0036  1.1007 -2.1816
   12CHTO   O14 4989   4.589   8.618   2.682 -0.0072  0.6572 -0.9408
   12CHTO   C23 4990   4.700   8.621   2.771  0.0350 -0.4279 -0.6737
   12CHTO   H51 4991   4.776   8.547   2.740  0.7609 -0.5809  1.3889
   12CHTO   C34 4992   4.645   8.577   2.909 -0.1962  0.2171 -0.0691
   12CHTO   O23 4993   4.637   8.433   2.907  0.2128  0.6838  0.0094
   12CHTO   H38 4994   4.674   8.395   2.984 -0.3953  1.1478  0.5333
   12CHTO   O16 4995   4.497   8.618   2.468  0.2764  0.5289  0.0900
   12CHTO   C24 4996   4.489   8.471   2.379  0.7838 -0.3842  0.1340
   12CHTO   H52 4997   4.561   8.397   2.412 -1.6232 -2.9300 -0.0947
   12CHTO   C26 4998   4.491   8.497   2.226 -0.3195 -0.7031  0.2591
   12CHTO   H54 4999   4.412   8.569   2.196  2.4318  1.1524 -2.8624
   12CHTO   O20 5000   4.623   8.543   2.193  0.1342 -0.1270  0.1627
   12CHTO   H36 5001   4.688   8.478   2.208  2.0851  1.1339 -2.4035
   12CHTO   C30 5002   4.453   8.376   2.139 -0.1089 -0.6167 -0.1956
   12CHTO   H58 5003   4.531   8.298   2.137  0.8679  0.3481 -0.1734
   12CHTO    N6 5004   4.428   8.412   1.995  0.2525 -0.5813  0.1184
   12CHTO   H45 5005   4.328   8.443   1.968 -0.7232 -1.8788  2.1128
   12CHTO   H46 5006   4.499   8.481   1.953 -0.9429 -0.9106 -2.5481
   12CHTO   C33 5007   4.331   8.303   2.201 -0.2022  0.3922 -0.5706
   12CHTO   H61 5008   4.244   8.367   2.182 -1.1924 -0.9265 -0.5415
   12CHTO   O18 5009   4.350   8.287   2.341  0.6529  0.9026  0.4054
   12CHTO   C28 5010   4.357   8.408   2.420 -0.1804 -0.6168  0.3671
   12CHTO   H56 5011   4.274   8.470   2.387  1.5062  0.6834 -1.5548
   12CHTO   C35 5012   4.339   8.362   2.565 -0.1773 -0.3077  0.5129
   12CHTO   O24 5013   4.295   8.460   2.656  0.2419 -0.3114 -0.0242
   12CHTO   H39 5014   4.206   8.477   2.629 -0.2686  0.1495  1.9217
   12CHTO    O9 5015   4.300   8.181   2.140 -0.6335 -0.2391  0.7173
   12CHTO   C13 5016   4.411   8.058   2.148 -0.5419 -0.0689 -0.5701
   12CHTO   H26 5017   4.511   8.106   2.140 -1.6040  2.1109 -1.1076
   12CHTO   C11 5018   4.385   7.957   2.026  0.2707  0.5377  0.3182
   12CHTO   H24 5019   4.395   8.015   1.933  0.5795 -0.9715 -0.5948
   12CHTO    O8 5020   4.246   7.909   2.031  0.0729 -0.2209  0.2318
   12CHTO    H3 5021   4.191   7.981   2.057  0.6868  0.4033 -0.1951
   12CHTO    C9 5022   4.480   7.834   2.040 -0.6961  0.3866  0.3383
   12CHTO   H22 5023   4.583   7.871   2.037 -0.2154 -0.7860  1.7300
   12CHTO    N2 5024   4.465   7.746   1.917 -0.5175  0.0003 -0.6183
   12CHTO   H10 5025   4.488   7.644   1.944 -0.4489 -0.2240 -1.4999
   12CHTO   H11 5026   4.365   7.744   1.876 -1.3164 -0.8442  1.3512
   12CHTO    C7 5027   4.456   7.765   2.175 -0.4101 -0.1837 -0.3322
   12CHTO   H20 5028   4.531   7.684   2.183  0.0285  0.4887  2.4955
   12CHTO    O4 5029   4.470   7.855   2.282 -0.4405  0.3064 -0.6745
   12CHTO   C14 5030   4.404   7.978   2.286 -0.1977  0.2687 -0.1588
   12CHTO   H27 5031   4.465   8.036   2.358  1.9232 -2.0848  0.0044
   12CHTO   C18 5032   4.263   7.955   2.350 -0.1047 -0.3189 -0.1990
   12CHTO   O13 5033   4.256   7.942   2.493 -0.4315  0.9745  0.5533
   12CHTO    H7 5034   4.321   7.994   2.535  0.6547 -0.4736  0.6942
   12CHTO    O2 5035   4.317   7.685   2.193 -0.0958 -0.2826  0.1587
   12CHTO    C1 5036   4.329   7.553   2.253  0.7630  0.8225  0.5596
   12CHTO   H14 5037   4.430   7.510   2.239  1.0417  1.2762  1.1781
   12CHTO    C2 5038   4.216   7.457   2.182 -0.1227  0.2002 -0.7098
   12CHTO   H15 5039   4.121   7.506   2.206 -0.3359  0.3951 -1.9135
   12CHTO    O6 5040   4.235   7.451   2.040 -0.3424 -0.3585  0.1847
   12CHTO    H1 5041   4.303   7.394   2.009 -1.0027 -0.4618 -1.1008
   12CHTO    C3 5042   4.226   7.312   2.246  0.3687  0.1949  0.3022
   12CHTO   H16 5043   4.326   7.271   2.228 -0.1035 -0.1960 -1.4660
   12CHTO    N1 5044   4.140   7.208   2.189 -0.3756 -0.2039  0.1555
   12CHTO    H8 5045   4.036   7.228   2.211 -0.1271 -0.1834  1.3200
   12CHTO    H9 5046   4.154   7.210   2.082 -0.3057 -0.8704  0.1502
   12CHTO    C4 5047   4.199   7.327   2.403 -0.8250  0.0022 -0.1873
   12CHTO   H17 5048   4.094   7.353   2.419 -0.5862  0.5672  0.5163
   12CHTO    O1 5049   4.278   7.430   2.468  0.2143  0.1134 -0.0808
   12CHTO    C5 5050   4.290   7.559   2.402 -0.3266 -0.6684  0.0930
   12CHTO   H18 5051   4.195   7.611   2.411 -0.0510  0.6446 -3.9682
   12CHTO   C16 5052   4.395   7.644   2.482  0.8929 -0.4877 -0.0914
   12CHTO   O11 5053   4.520   7.578   2.485 -0.2540 -0.0909 -0.0106
   12CHTO    H5 5054   4.583   7.646   2.485  0.3008 -0.5833 -1.1438
   12CHTO    O3 5055   4.228   7.205   2.472 -0.3913  0.0283  0.2839
   12CHTO    C6 5056   4.159   7.157   2.591  0.4582  0.0867 -0.1897
   12CHTO   H19 5057   4.171   7.231   2.671 -0.6697 -0.6527  0.6945
   12CHTO    C8 5058   4.017   7.110   2.574  0.1791 -0.0001 -0.1734
   12CHTO   H21 5059   4.013   7.032   2.498 -0.2947  1.4535 -1.6571
   12CHTO    O7 5060   3.933   7.214   2.526 -0.2350 -0.1724 -0.3255
   12CHTO    H2 5061   3.951   7.295   2.568 -1.3913  0.2171 -0.5498
   12CHTO   C12 5062   3.967   7.040   2.708 -0.5918 -0.6301  0.4175
   12CHTO   H25 5063   3.949   7.120   2.783 -1.1838  0.5858 -0.9874
   12CHTO    N3 5064   3.830   6.981   2.679  0.2722 -0.0239 -0.5449
   12CHTO   H12 5065   3.754   7.013   2.748 -0.0375 -0.8894 -0.4726
   12CHTO   H13 5066   3.839   6.873   2.673 -1.5272 -0.0945 -2.3013
   12CHTO   C15 5067   4.066   6.933   2.770 -0.7222  0.2757 -0.7538
   12CHTO   H28 5068   4.048   6.837   2.721  1.6121 -1.2035  1.1481
   12CHTO   O10 5069   4.062   6.915   2.931 -0.9787  0.7235  0.0905
   12CHTO    H4 5070   4.132   6.858   2.956 -0.8840  0.5912 -0.4767
   12CHTO    O5 5071   4.204   6.971   2.752  0.4409 -0.0067 -0.1777
   12CHTO   C10 5072   4.249   7.036   2.631 -0.2011 -0.1717 -0.4404
   12CHTO   H23 5073   4.242   6.966   2.548  1.1148 -1.5168  0.5365
   12CHTO   C17 5074   4.392   7.069   2.659 -0.6871 -0.1812 -0.0112
   12CHTO   O12 5075   4.482   6.957   2.663  0.0072 -0.4103 -0.4711
   12CHTO    H6 5076   4.552   6.990   2.715 -1.2772  1.7872 -0.0723
   13CHTO  H203 5077   8.232   4.065   1.566 -0.7992 -0.9808  0.1891
   13CHTO   O82 5078   8.210   4.004   1.498  0.0544 -0.3520 -0.6707
   13CHTO  C123 5079   8.127   4.062   1.398 -0.3231  0.0690 -0.3209
   13CHTO  H227 5080   8.107   3.989   1.318 -0.0889 -0.1142 -0.2106
   13CHTO   O77 5081   8.000   4.079   1.473 -0.1346 -0.0485 -0.7879
   13CHTO  C118 5082   7.896   4.124   1.386  0.6927 -0.3150  0.1902
   13CHTO  H222 5083   7.883   4.051   1.304  0.5974  0.1457 -0.2078
   13CHTO  C125 5084   7.769   4.115   1.472 -0.0894  0.6394  0.3234
   13CHTO   O84 5085   7.784   4.157   1.607 -0.0927 -0.3075 -0.4604
   13CHTO  H205 5086   7.750   4.087   1.659 -0.3348 -0.9268 -1.4487
   13CHTO  C114 5087   7.926   4.265   1.334 -0.0339  0.0574  0.7536
   13CHTO  H218 5088   7.934   4.327   1.424  0.2217 -1.4393  1.7698
   13CHTO  C116 5089   8.065   4.270   1.267 -0.5610 -0.3818 -0.1076
   13CHTO  H220 5090   8.047   4.214   1.173  2.9053  3.3617 -3.1592
   13CHTO   O79 5091   8.116   4.401   1.223 -0.0160  0.0918 -0.3930
   13CHTO  H201 5092   8.194   4.399   1.172 -0.2226  3.5304 -0.9845
   13CHTO  C120 5093   8.177   4.200   1.348 -0.5998 -0.3781 -0.7586
   13CHTO  H224 5094   8.192   4.264   1.437 -1.1293  0.2784 -1.1385
   13CHTO   N21 5095   8.307   4.186   1.280 -0.6706 -0.1539  0.1853
   13CHTO  H211 5096   8.305   4.245   1.189 -0.7694 -0.4915 -0.0327
   13CHTO  H212 5097   8.322   4.083   1.251 -0.7874  0.1427 -0.9762
   13CHTO   O75 5098   7.821   4.313   1.251  0.7879 -0.2419  0.4523
   13CHTO  C112 5099   7.806   4.474   1.260 -0.2996  1.0499 -0.4966
   13CHTO  H216 5100   7.902   4.518   1.290  0.3151 -0.5995  0.0369
   13CHTO   O73 5101   7.707   4.485   1.358  0.6937  0.6962  0.6522
   13CHTO  C113 5102   7.671   4.620   1.380 -0.2314 -0.3969 -0.0671
   13CHTO  H217 5103   7.753   4.676   1.428  0.8610 -1.7117 -0.3788
   13CHTO  C124 5104   7.567   4.619   1.494  0.7699  0.4241  0.8910
   13CHTO   O83 5105   7.563   4.745   1.559 -0.0094 -0.5608 -0.1047
   13CHTO  H204 5106   7.550   4.734   1.651  2.3865 -0.2691  0.3008
   13CHTO  C109 5107   7.623   4.698   1.251 -0.3121 -0.3153  0.1810
   13CHTO  H213 5108   7.539   4.641   1.208  0.6406 -1.3294 -0.3602
   13CHTO  C110 5109   7.741   4.686   1.150  0.4627  0.5965 -0.3408
   13CHTO  H214 5110   7.828   4.726   1.202 -0.6774 -0.5539  2.5362
   13CHTO   O78 5111   7.705   4.765   1.026  0.2564  0.1425 -0.1450
   13CHTO  H200 5112   7.730   4.855   1.036 -1.2314  0.2970  2.5381
   13CHTO  C111 5113   7.766   4.533   1.124  0.4479 -0.2795 -0.5321
   13CHTO  H215 5114   7.667   4.491   1.100 -0.0987  1.6648 -1.8349
   13CHTO   N19 5115   7.859   4.487   1.017 -0.7167  0.3464 -0.4542
   13CHTO  H207 5116   7.795   4.469   0.932  1.7953 -0.1988 -2.2840
   13CHTO  H208 5117   7.933   4.563   1.000 -0.5047 -0.1604 -1.8936
   13CHTO   O74 5118   7.579   4.828   1.282 -0.0083 -0.3919  0.1547
   13CHTO  C115 5119   7.423   4.906   1.212 -0.0358  0.1098  0.0610
   13CHTO  H219 5120   7.446   4.991   1.147  0.1812 -1.2418 -1.6707
   13CHTO   O76 5121   7.349   4.816   1.124 -0.0721 -0.1839  0.3116
   13CHTO  C122 5122   7.267   4.708   1.181 -0.1688  0.4737 -0.3651
   13CHTO  H226 5123   7.335   4.636   1.227 -1.7471 -0.9907 -0.2907
   13CHTO  C126 5124   7.202   4.633   1.067 -0.3266 -0.1257  0.0383
   13CHTO   O85 5125   7.270   4.520   1.017 -0.5833  1.0074  0.1407
   13CHTO  H206 5126   7.362   4.529   1.029 -0.2226 -1.2873 -0.6344
   13CHTO  C121 5127   7.159   4.759   1.286 -0.5910 -0.3208  0.1558
   13CHTO  H225 5128   7.065   4.743   1.231 -0.2883  0.1371 -0.4999
   13CHTO   O81 5129   7.161   4.691   1.415  0.5100 -0.0938  0.1333
   13CHTO  H202 5130   7.082   4.716   1.460  1.0851  1.0777  0.5142
   13CHTO  C119 5131   7.181   4.914   1.313  0.2410  0.4136  0.3961
   13CHTO  H223 5132   7.152   4.960   1.218 -0.3888  0.3906  0.5699
   13CHTO  C117 5133   7.333   4.960   1.331  0.1086 -0.7571 -0.8004
   13CHTO  H221 5134   7.378   4.915   1.420 -1.7880  0.6827  0.9425
   13CHTO   N20 5135   7.347   5.107   1.355 -0.3660 -0.4801 -0.1988
   13CHTO  H209 5136   7.447   5.144   1.372 -0.0646 -1.1976 -0.3785
   13CHTO  H210 5137   7.301   5.165   1.276 -1.0331 -0.7053  0.0274
   13CHTO   O80 5138   7.083   4.976   1.409  0.6937  0.2096  0.3262
   13CHTO  C103 5139   6.933   5.019   1.359  0.0139  0.0185  0.1359
   13CHTO  H190 5140   6.884   5.084   1.431  0.7741 -1.8370  2.3507
   13CHTO  C101 5141   6.930   5.110   1.230 -0.8747 -1.0996  0.1086
   13CHTO  H188 5142   6.991   5.069   1.150 -1.1423 -0.4865 -0.4140
   13CHTO   O68 5143   6.987   5.238   1.256 -0.3793  0.1414 -0.2416
   13CHTO  H168 5144   7.064   5.266   1.211  0.4157  1.9474  2.1267
   13CHTO   C99 5145   6.781   5.129   1.171  0.0823  0.3448 -0.2355
   13CHTO  H186 5146   6.726   5.196   1.240  0.6906  0.0077  0.5771
   13CHTO   N17 5147   6.773   5.187   1.028 -0.5038  0.0753  0.2532
   13CHTO  H174 5148   6.784   5.295   1.028 -0.4468  0.0912 -1.9964
   13CHTO  H175 5149   6.818   5.120   0.957  0.2658  1.3681 -0.5095
   13CHTO   C97 5150   6.703   4.997   1.174 -0.3863 -0.5310 -0.1243
   13CHTO  H184 5151   6.718   4.931   1.087 -0.1125 -1.2302  0.4497
   13CHTO   O64 5152   6.717   4.929   1.297 -0.1086 -0.5382  0.3291
   13CHTO  C104 5153   6.850   4.892   1.347  0.4871 -0.0020  0.0316
   13CHTO  H191 5154   6.898   4.830   1.271 -1.4736 -0.6390 -0.7280
   13CHTO  C108 5155   6.840   4.806   1.471 -0.3886  0.0126 -0.0374
   13CHTO   O71 5156   6.787   4.670   1.454 -0.0086  0.0757 -0.0900
   13CHTO  H171 5157   6.863   4.619   1.434 -0.0123  0.1860 -0.3766
   13CHTO   O62 5158   6.559   5.012   1.188 -0.9948 -0.1543 -0.1937
   13CHTO   C91 5159   6.471   4.902   1.153 -0.4306  0.1142 -0.4226
   13CHTO  H178 5160   6.534   4.813   1.156  1.4387  1.3916  4.6031
   13CHTO   C92 5161   6.411   4.916   1.011 -0.1295  0.2681 -0.1137
   13CHTO  H179 5162   6.375   5.017   0.988 -1.4511  0.1422  1.2744
   13CHTO   O66 5163   6.520   4.905   0.917  0.0711  0.0113  0.1006
   13CHTO  H166 5164   6.496   4.952   0.840 -0.6197  0.4586  0.5836
   13CHTO   C93 5165   6.307   4.804   0.984 -0.2957  0.1871 -0.3594
   13CHTO  H180 5166   6.355   4.705   0.984  0.6918  0.6537  0.1484
   13CHTO   N16 5167   6.242   4.820   0.847  0.1254  0.2591 -0.5070
   13CHTO  H172 5168   6.307   4.786   0.768  0.5426 -0.3569  0.0911
   13CHTO  H173 5169   6.197   4.917   0.833  1.0140  0.6616 -0.5547
   13CHTO   C94 5170   6.199   4.804   1.102 -0.4417 -0.3005  0.6499
   13CHTO  H181 5171   6.153   4.902   1.115 -0.8174 -0.5054  0.8689
   13CHTO   O61 5172   6.268   4.777   1.225 -0.3036 -0.1605 -0.8652
   13CHTO   C95 5173   6.358   4.887   1.259  0.6352 -0.2159  0.1905
   13CHTO  H182 5174   6.305   4.982   1.263 -1.5028 -1.3930  0.3675
   13CHTO  C106 5175   6.404   4.859   1.399  0.2811  0.2384  0.6702
   13CHTO   O69 5176   6.472   4.948   1.480 -0.0134 -0.2712  0.1378
   13CHTO  H169 5177   6.469   4.921   1.570  2.1456  0.7691  0.5484
   13CHTO   O63 5178   6.085   4.682   1.069 -0.0693 -0.5442  0.6607
   13CHTO   C96 5179   5.954   4.703   1.151 -0.1269 -0.0795  0.1332
   13CHTO  H183 5180   5.881   4.647   1.092 -0.1414  2.9199 -2.8132
   13CHTO   C98 5181   5.893   4.842   1.156 -0.2502  0.1826 -0.1924
   13CHTO  H185 5182   5.970   4.907   1.199  0.1566 -0.5150  0.1549
   13CHTO   O67 5183   5.869   4.895   1.025 -0.0558 -0.4950  0.1443
   13CHTO  H167 5184   5.790   4.858   0.991 -0.6300  0.3650  0.5549
   13CHTO  C102 5185   5.758   4.848   1.244  0.3009 -0.6830  0.6183
   13CHTO  H189 5186   5.683   4.796   1.182  1.5412 -0.8530 -0.7839
   13CHTO   N18 5187   5.707   4.984   1.262 -0.3703  0.3508  0.0817
   13CHTO  H176 5188   5.792   5.043   1.293 -2.0956  1.8934  2.0013
   13CHTO  H177 5189   5.680   5.014   1.162 -2.7639 -2.1818 -0.0913
   13CHTO  C105 5190   5.769   4.770   1.380 -0.2989  0.0458 -0.3736
   13CHTO  H192 5191   5.826   4.831   1.450  0.5190 -1.7961  0.5991
   13CHTO   O65 5192   5.841   4.642   1.367  0.1826  0.4195  0.3385
   13CHTO  C100 5193   5.965   4.645   1.295  0.3907  0.0178 -0.1214
   13CHTO  H187 5194   6.037   4.703   1.354 -2.8543  2.6287  1.4487
   13CHTO  C107 5195   6.016   4.500   1.282 -0.1346  0.0731  0.2861
   13CHTO   O70 5196   6.016   4.445   1.410  0.1304 -0.9329 -0.5247
   13CHTO  H170 5197   6.105   4.437   1.437  0.3578 -0.5386 -1.1326
   13CHTO   O57 5198   5.631   4.727   1.440 -0.2210  0.0922 -0.0690
   13CHTO   C85 5199   5.531   4.657   1.371  0.1903 -0.3763  0.2687
   13CHTO  H157 5200   5.581   4.631   1.275 -1.8272 -0.8562 -0.6775
   13CHTO   C83 5201   5.418   4.751   1.333 -0.6154 -0.0031 -0.2836
   13CHTO  H155 5202   5.458   4.831   1.271 -0.6424 -0.3392 -0.7342
   13CHTO   O56 5203   5.370   4.818   1.452  0.7627  0.8030  0.2242
   13CHTO  H135 5204   5.327   4.898   1.428 -0.5704 -0.3897 -1.4983
   13CHTO   C81 5205   5.305   4.675   1.254 -0.0715 -0.7602  0.3644
   13CHTO  H153 5206   5.348   4.639   1.160  0.1860  0.1709  0.1184
   13CHTO   N14 5207   5.194   4.767   1.214  0.1483  0.1166 -0.5798
   13CHTO  H141 5208   5.141   4.704   1.146  0.2850  2.0007 -2.4828
   13CHTO  H142 5209   5.233   4.847   1.154 -1.3180 -0.9166 -2.9906
   13CHTO   C79 5210   5.247   4.557   1.333 -0.3987 -0.2563  0.2128
   13CHTO  H151 5211   5.186   4.502   1.261 -2.2230  0.5547  1.1040
   13CHTO   O52 5212   5.356   4.461   1.371  0.0556 -0.1169 -0.0002
   13CHTO   C86 5213   5.470   4.529   1.447  0.1631  0.6434  0.4580
   13CHTO  H158 5214   5.427   4.543   1.549 -1.4681 -1.8314  0.1503
   13CHTO   C90 5215   5.572   4.415   1.461  0.0970 -0.4040  0.1680
   13CHTO   O60 5216   5.536   4.309   1.551  0.0794  0.0765 -0.2693
   13CHTO  H138 5217   5.612   4.259   1.575  0.3323  0.4586 -0.2769
   13CHTO   O50 5218   5.179   4.590   1.449 -0.7678  0.4509  0.1828
   13CHTO   C73 5219   5.038   4.572   1.470 -0.7637 -0.3505  0.2990
   13CHTO  H145 5220   5.003   4.522   1.378 -1.4667  0.7842 -0.0634
   13CHTO   C74 5221   4.952   4.705   1.493 -0.1525 -0.0904  0.2971
   13CHTO  H146 5222   4.977   4.769   1.408  0.4114 -0.7166 -0.0112
   13CHTO   O54 5223   4.812   4.673   1.482 -0.3785  0.2675 -0.1675
   13CHTO  H133 5224   4.799   4.590   1.439  0.6309  0.9624 -1.8501
   13CHTO   C75 5225   4.988   4.768   1.628  0.1203 -0.4834 -0.4819
   13CHTO  H147 5226   5.090   4.806   1.613  0.5430 -1.3849  0.1306
   13CHTO   N13 5227   4.900   4.878   1.681 -0.4095 -0.1014 -0.4035
   13CHTO  H139 5228   4.940   4.922   1.772  0.7484 -0.1046 -0.9029
   13CHTO  H140 5229   4.800   4.839   1.688  0.0084 -0.9647  1.0831
   13CHTO   C76 5230   5.010   4.660   1.746  0.9260 -0.4411  0.3674
   13CHTO  H148 5231   4.910   4.632   1.777  0.4521  0.2456 -0.5140
   13CHTO   O49 5232   5.075   4.534   1.701 -0.5722 -0.2525  0.9643
   13CHTO   C77 5233   5.017   4.476   1.588  0.1003 -0.4825 -0.0264
   13CHTO  H149 5234   4.912   4.456   1.607 -0.1561  0.3494 -0.5317
   13CHTO   C88 5235   5.083   4.339   1.561 -0.0458  0.0912 -0.0899
   13CHTO   O58 5236   4.974   4.237   1.477 -0.1339 -0.5533  0.4198
   13CHTO  H136 5237   4.922   4.290   1.419 -0.5732 -0.7195  0.6590
   13CHTO   O51 5238   5.089   4.713   1.873 -0.6820 -0.1576 -0.2327
   13CHTO   C78 5239   5.260   4.756   1.877  0.3908  0.9012  0.1291
   13CHTO  H150 5240   5.286   4.794   1.978 -0.0037 -0.4435  0.7401
   13CHTO   C80 5241   5.297   4.867   1.777  0.1473 -0.1878 -0.2990
   13CHTO  H152 5242   5.282   4.842   1.670 -0.9052  0.2242 -0.2509
   13CHTO   O55 5243   5.216   4.977   1.807 -0.4027  0.4006 -0.0706
   13CHTO  H134 5244   5.133   4.971   1.763 -0.2687 -0.5754 -0.2184
   13CHTO   C84 5245   5.456   4.893   1.786  0.4772  0.5232  1.2205
   13CHTO  H156 5246   5.472   4.907   1.893 -1.5221 -3.2733  2.1109
   13CHTO   N15 5247   5.499   5.016   1.713  0.3201  0.3120  0.6366
   13CHTO  H143 5248   5.604   5.034   1.724  1.2823 -1.6769 -3.9262
   13CHTO  H144 5249   5.443   5.101   1.745 -2.0518 -0.6271 -0.9252
   13CHTO   C87 5250   5.530   4.767   1.741 -0.5854 -0.4892  0.3515
   13CHTO  H159 5251   5.499   4.724   1.647 -0.2531  2.2512 -1.0599
   13CHTO   O53 5252   5.489   4.655   1.849  0.2461  0.0279  0.1947
   13CHTO   C82 5253   5.348   4.634   1.852 -0.7470 -0.8545 -0.0987
   13CHTO  H154 5254   5.326   4.598   1.751 -1.0627 -0.7547 -0.0649
   13CHTO   C89 5255   5.303   4.523   1.948 -0.5500 -0.2828  0.3952
   13CHTO   O59 5256   5.339   4.394   1.894  0.0900  0.3059 -0.0726
   13CHTO  H137 5257   5.316   4.385   1.803  1.1479 -1.6241 -0.1742
   13CHTO   O45 5258   5.699   4.782   1.733  0.3029  0.1155  0.3229
   13CHTO   C67 5259   5.790   4.675   1.775 -0.3442 -0.2971  0.7141
   13CHTO  H124 5260   5.735   4.585   1.750 -1.2296  0.0721  1.3044
   13CHTO   C65 5261   5.929   4.677   1.706 -0.2841 -0.5287 -0.0714
   13CHTO  H122 5262   5.905   4.706   1.604  1.0276  1.6154  0.2001
   13CHTO   O44 5263   6.000   4.555   1.714 -0.4551 -0.0106 -0.7287
   13CHTO  H102 5264   6.051   4.552   1.793 -2.8359  3.1948  1.0612
   13CHTO   C63 5265   6.009   4.799   1.765 -0.2146  0.1174  0.0245
   13CHTO  H120 5266   5.948   4.889   1.756  0.8289  0.7262 -1.0523
   13CHTO   N11 5267   6.134   4.836   1.686  0.2167  0.2447 -0.3671
   13CHTO  H108 5268   6.201   4.753   1.683 -0.8827 -0.8834  3.3765
   13CHTO  H109 5269   6.188   4.913   1.737  1.1649 -0.2271 -0.6640
   13CHTO   C61 5270   6.039   4.776   1.915  0.2798 -0.5719  0.1652
   13CHTO  H118 5271   6.083   4.866   1.960  0.3196 -0.2932 -0.4225
   13CHTO   O40 5272   5.920   4.750   1.989 -0.1861  0.3393  0.1445
   13CHTO   C68 5273   5.808   4.671   1.930 -0.0093  0.7868  0.5534
   13CHTO  H125 5274   5.721   4.720   1.978  0.9791  3.0668  0.0644
   13CHTO   C72 5275   5.820   4.531   1.993 -0.8446  0.6426  0.4378
   13CHTO   O48 5276   5.708   4.449   1.968  0.0308  0.2757 -0.8043
   13CHTO  H105 5277   5.737   4.369   2.009 -1.1099  0.4534  0.4039
   13CHTO   O38 5278   6.131   4.670   1.956  0.1311  0.0116  0.5823
   13CHTO   C55 5279   6.229   4.688   2.062 -0.1266  0.1479 -0.1990
   13CHTO  H112 5280   6.260   4.588   2.098 -1.2519 -0.3840 -0.6777
   13CHTO   C56 5281   6.179   4.773   2.183  0.3895 -0.4175 -0.3343
   13CHTO  H113 5282   6.161   4.875   2.146  2.7717  0.1039 -0.1813
   13CHTO   O42 5283   6.055   4.726   2.236  0.1701 -0.1712 -0.0434
   13CHTO  H100 5284   6.054   4.634   2.253 -0.0798 -0.3481 -1.0152
   13CHTO   C57 5285   6.295   4.796   2.289 -0.7579 -0.2020 -0.5488
   13CHTO  H114 5286   6.317   4.692   2.315 -0.2830  0.1607  0.5148
   13CHTO   N10 5287   6.254   4.869   2.411  0.0231 -0.1289  0.0755
   13CHTO  H106 5288   6.318   4.844   2.494  1.4202  1.1436 -0.6072
   13CHTO  H107 5289   6.157   4.824   2.428  0.7178 -1.3069  0.9927
   13CHTO   C58 5290   6.414   4.856   2.218 -0.4397 -0.8290  0.0000
   13CHTO  H115 5291   6.377   4.952   2.178 -0.8860 -1.1082 -0.2595
   13CHTO   O37 5292   6.454   4.773   2.105  0.0563  0.2605  0.3212
   13CHTO   C59 5293   6.360   4.747   2.000 -0.2174 -0.0001 -0.3781
   13CHTO  H116 5294   6.335   4.841   1.951  0.6695 -0.2422 -1.3026
   13CHTO   C70 5295   6.439   4.646   1.913 -0.0059  0.3405 -0.0460
   13CHTO   O46 5296   6.389   4.653   1.777  0.7116  1.0474 -0.2678
   13CHTO  H103 5297   6.440   4.589   1.730 -0.8507 -1.2657  1.0502
   13CHTO   O39 5298   6.549   4.879   2.326 -0.2356 -0.2955 -0.0486
   13CHTO   C60 5299   6.617   4.999   2.282 -0.4036 -0.3384  0.3973
   13CHTO  H117 5300   6.597   5.007   2.175 -1.4014  0.5511  0.6550
   13CHTO   C62 5301   6.585   5.126   2.360 -0.1688  0.0594  0.4378
   13CHTO  H119 5302   6.478   5.143   2.335  0.2565  0.4592 -1.1468
   13CHTO   O43 5303   6.608   5.106   2.506  0.1897  0.7449 -0.2182
   13CHTO  H101 5304   6.697   5.129   2.522 -0.3629  0.4574  3.7078
   13CHTO   C66 5305   6.671   5.245   2.293  0.3980 -0.2651 -0.4826
   13CHTO  H123 5306   6.663   5.243   2.184  3.6957 -0.3886 -0.7731
   13CHTO   N12 5307   6.624   5.376   2.339  0.0085  0.2524 -0.7131
   13CHTO  H110 5308   6.648   5.386   2.444  1.1016 -1.4906 -0.7942
   13CHTO  H111 5309   6.517   5.385   2.323  0.0649  1.0967 -0.6449
   13CHTO   C69 5310   6.821   5.231   2.316  0.6395 -0.0810  0.3694
   13CHTO  H126 5311   6.835   5.239   2.426 -1.1519 -0.0827  0.6081
   13CHTO   O41 5312   6.858   5.090   2.259  0.0620 -0.8825 -0.6429
   13CHTO   C64 5313   6.767   4.973   2.300 -0.4659  0.0078  0.2046
   13CHTO  H121 5314   6.780   4.955   2.409  2.0101 -0.1223 -0.0692
   13CHTO   C71 5315   6.806   4.854   2.206 -0.1730  0.0792 -0.0384
   13CHTO   O47 5316   6.942   4.811   2.221  0.2464  0.7468 -0.1984
   13CHTO  H104 5317   6.977   4.737   2.175  1.2333  0.3984  1.0681
   13CHTO   O34 5318   6.902   5.358   2.239 -0.0900 -0.0691  0.1117
   13CHTO   C49 5319   7.032   5.382   2.222  0.2031 -0.1436  0.0827
   13CHTO   H91 5320   7.066   5.283   2.195  1.9659 -0.0335  1.8275
   13CHTO   C47 5321   7.098   5.436   2.346  0.3273  0.2733  0.3440
   13CHTO   H89 5322   7.202   5.454   2.312  0.6883  0.6476  1.5924
   13CHTO   O33 5323   7.104   5.338   2.452  0.4226  0.0674  0.5964
   13CHTO   H70 5324   7.097   5.253   2.412  0.3339 -0.0151  0.7859
   13CHTO   C45 5325   7.027   5.574   2.404 -0.4815  0.5187  0.0260
   13CHTO   H87 5326   6.942   5.542   2.465  0.7587 -2.9744  0.0358
   13CHTO    N8 5327   7.128   5.636   2.493  0.6432  0.4506  0.4572
   13CHTO   H75 5328   7.092   5.727   2.538 -0.6333 -1.4002  3.3185
   13CHTO   H76 5329   7.159   5.574   2.576  0.6720  0.7038  0.6353
   13CHTO   C43 5330   6.974   5.658   2.278  0.3622  0.7576 -0.2870
   13CHTO   H85 5331   6.869   5.638   2.260 -0.0139  1.1925  1.3349
   13CHTO   O29 5332   7.058   5.626   2.161  0.0549  0.1996 -0.8219
   13CHTO   C50 5333   7.056   5.493   2.114 -0.2504  0.3667  0.8215
   13CHTO   H92 5334   6.984   5.472   2.033 -0.4588  1.5516  0.6906
   13CHTO   C54 5335   7.192   5.461   2.037  0.0725 -0.2378  0.2571
   13CHTO   O36 5336   7.206   5.548   1.924  0.1310  0.1444 -0.4280
   13CHTO   H72 5337   7.280   5.522   1.872 -0.1460 -0.0727 -0.7107
   13CHTO   O27 5338   6.977   5.799   2.300  0.0781 -0.5558  0.2946
   13CHTO   C37 5339   6.894   5.903   2.349  1.0939  0.3923 -0.0807
   13CHTO   H79 5340   6.822   5.862   2.421  0.9204 -0.1875 -0.5782
   13CHTO   C38 5341   6.960   6.022   2.430 -0.5724 -0.1807  0.0673
   13CHTO   H80 5342   7.039   6.062   2.364 -1.4081  1.5785  0.1061
   13CHTO   O31 5343   7.022   5.960   2.542  0.2364  0.4618 -0.8242
   13CHTO   H68 5344   7.102   5.917   2.520  0.0881 -1.4053  1.9532
   13CHTO   C39 5345   6.866   6.143   2.469  0.1385  0.4719  0.2812
   13CHTO   H81 5346   6.801   6.109   2.550  1.0436 -2.2108 -0.0799
   13CHTO    N7 5347   6.951   6.254   2.526  0.2702 -0.1658  0.0772
   13CHTO   H73 5348   7.018   6.289   2.449  0.5631 -1.3834 -0.2266
   13CHTO   H74 5349   6.886   6.335   2.557  0.8359  0.4364 -0.3165
   13CHTO   C40 5350   6.778   6.181   2.344  0.2290  0.0252  0.3466
   13CHTO   H82 5351   6.839   6.237   2.273  0.8652 -0.7702  0.2505
   13CHTO   O26 5352   6.718   6.062   2.284 -0.2836  0.0343 -0.2892
   13CHTO   C41 5353   6.813   5.972   2.236 -1.0449 -0.0174  0.6054
   13CHTO   H83 5354   6.881   6.027   2.169 -1.3239 -1.0887 -0.5903
   13CHTO   C52 5355   6.731   5.868   2.142 -0.2077 -0.2235 -0.0275
   13CHTO   O35 5356   6.638   5.786   2.249  0.3663  0.5075 -0.9192
   13CHTO   H71 5357   6.559   5.834   2.265  0.6155  0.4890  0.4388
   13CHTO   O28 5358   6.661   6.249   2.391 -0.1181 -0.2788  0.5015
   13CHTO   C42 5359   6.604   6.362   2.315 -0.1736 -0.6822  0.0227
   13CHTO   H84 5360   6.610   6.332   2.211 -0.4787  1.9127 -0.7865
   13CHTO   C44 5361   6.680   6.501   2.319  0.6090  0.2662  0.6231
   13CHTO   H86 5362   6.677   6.534   2.423 -1.9149 -1.0231  1.0161
   13CHTO   O32 5363   6.815   6.468   2.283  0.4300  0.6834  0.1052
   13CHTO   H69 5364   6.832   6.378   2.300 -1.9130  0.5517  2.0315
   13CHTO   C48 5365   6.615   6.614   2.222  0.0236 -0.2045  0.6181
   13CHTO   H90 5366   6.625   6.578   2.119 -0.0375  1.6201 -0.0394
   13CHTO    N9 5367   6.687   6.745   2.239  0.3312  0.4831  0.0870
   13CHTO   H77 5368   6.680   6.778   2.342 -2.5057 -0.9378  0.3965
   13CHTO   H78 5369   6.652   6.816   2.165 -1.3223  0.1922  0.5805
   13CHTO   C51 5370   6.466   6.626   2.262  0.0066  0.2965  0.1885
   13CHTO   H93 5371   6.472   6.662   2.365 -1.2719 -0.0224  0.3836
   13CHTO   O30 5372   6.407   6.501   2.254  0.7681  0.2502  0.4822
   13CHTO   C46 5373   6.461   6.393   2.351  0.0391  0.4643 -0.9603
   13CHTO   H88 5374   6.451   6.419   2.456 -0.5140 -0.4013 -0.7867
   13CHTO   C53 5375   6.378   6.261   2.326 -0.0541  0.2691  0.2136
   13CHTO   O72 5376   6.250   6.282   2.375 -0.2249 -0.2152  1.1699
   13CHTO  H199 5377   6.228   6.231   2.450  1.2695 -1.4705  0.7841
   13CHTO   O22 5378   6.394   6.716   2.171  0.2172 -0.1746  0.7862
   13CHTO   C31 5379   6.256   6.752   2.193  0.3898 -0.1753 -0.5799
   13CHTO   H59 5380   6.242   6.852   2.146  0.2887 -0.2644 -0.7439
   13CHTO   C29 5381   6.162   6.662   2.114  0.3238 -0.0217 -1.0355
   13CHTO   H57 5382   6.188   6.559   2.143 -0.8747  0.0054  0.1535
   13CHTO   O21 5383   6.208   6.666   1.978 -0.5634  0.6388 -0.3650
   13CHTO   H37 5384   6.174   6.738   1.928 -1.9647 -0.8509 -1.6220
   13CHTO   C27 5385   6.002   6.688   2.138 -0.2603  0.1618 -0.2562
   13CHTO   H55 5386   5.976   6.776   2.077  1.4025  0.8737  0.0367
   13CHTO    N5 5387   5.914   6.578   2.088  0.2751 -0.4038  0.8351
   13CHTO   H43 5388   5.926   6.494   2.155  0.1042 -1.0293  0.0900
   13CHTO   H44 5389   5.813   6.613   2.100 -0.9914 -3.1442 -1.3768
   13CHTO   C25 5390   5.977   6.712   2.292 -0.3124 -0.4599 -0.4221
   13CHTO   H53 5391   6.008   6.614   2.331 -1.3493 -1.7645 -2.7676
   13CHTO   O17 5392   6.067   6.816   2.334 -0.5874 -0.3741 -0.9016
   13CHTO   C32 5393   6.204   6.770   2.345 -0.9540  0.0784  0.5094
   13CHTO   H60 5394   6.207   6.672   2.393 -0.5519  0.1313  0.5912
   13CHTO   C36 5395   6.276   6.865   2.439  0.0067 -0.0377  0.0563
   13CHTO   O25 5396   6.360   6.963   2.375 -0.1614 -0.0412 -0.0114
   13CHTO   H40 5397   6.412   6.930   2.304 -0.3782 -2.0710  0.7584
   13CHTO   O15 5398   5.844   6.754   2.326  0.0275 -0.1211  1.0987
   13CHTO   C19 5399   5.725   6.824   2.294  0.2435  0.1430  0.7243
   13CHTO   H47 5400   5.679   6.856   2.388  1.3686  1.6491  0.7748
   13CHTO   C20 5401   5.752   6.954   2.208  0.5973 -0.2970 -0.1800
   13CHTO   H48 5402   5.800   6.933   2.112  1.5733  2.3381 -0.2985
   13CHTO   O19 5403   5.841   7.037   2.282  0.1211  0.1637  0.2572
   13CHTO   H35 5404   5.798   7.077   2.355 -0.7095 -2.0628  1.0239
   13CHTO   C21 5405   5.618   7.040   2.174 -0.1523 -0.1322 -0.8048
   13CHTO   H49 5406   5.573   7.078   2.266 -0.4923 -3.3376  0.4296
   13CHTO    N4 5407   5.651   7.159   2.090  0.5733  0.3233  0.0245
   13CHTO   H41 5408   5.566   7.224   2.078 -0.3988 -0.7326  1.1279
   13CHTO   H42 5409   5.728   7.212   2.144  1.4393  2.6191 -3.3023
   13CHTO   C22 5410   5.516   6.936   2.112 -0.0187 -0.4682  0.7213
   13CHTO   H50 5411   5.560   6.907   2.017  0.9055  4.0142 -0.3180
   13CHTO   O14 5412   5.492   6.825   2.198  0.6440 -0.1577 -0.3212
   13CHTO   C23 5413   5.608   6.739   2.220  0.3316 -0.1966 -0.8528
   13CHTO   H51 5414   5.643   6.698   2.124 -0.0260 -0.1015 -1.0240
   13CHTO   C34 5415   5.566   6.621   2.310  1.1161  0.1053  0.1630
   13CHTO   O23 5416   5.470   6.532   2.245 -0.2635  0.5813 -0.3143
   13CHTO   H38 5417   5.466   6.456   2.301 -1.2936  1.5822  0.9895
   13CHTO   O16 5418   5.398   7.007   2.084  0.7912 -0.4606  0.0343
   13CHTO   C24 5419   5.250   6.935   2.111  0.3750 -0.0842  0.5974
   13CHTO   H52 5420   5.252   6.868   2.197  1.4653 -0.5575  0.2171
   13CHTO   C26 5421   5.212   6.859   1.982  0.5710 -0.3084  0.1477
   13CHTO   H54 5422   5.196   6.932   1.900 -2.2328 -0.4144  0.5452
   13CHTO   O20 5423   5.318   6.775   1.943  0.2916 -0.7645 -0.5318
   13CHTO   H36 5424   5.340   6.709   2.006 -1.5955  1.4827  2.6194
   13CHTO   C30 5425   5.070   6.799   2.003 -0.0157 -0.3861  0.3089
   13CHTO   H58 5426   5.074   6.722   2.082  0.0323 -0.5601  0.1369
   13CHTO    N6 5427   5.026   6.721   1.887 -0.7871 -0.1132  0.1584
   13CHTO   H45 5428   4.924   6.687   1.902 -1.3981  1.4317 -0.3571
   13CHTO   H46 5429   5.085   6.630   1.881 -0.6105 -0.0241  0.5426
   13CHTO   C33 5430   4.968   6.911   2.053 -0.4950  0.3113 -0.1696
   13CHTO   H61 5431   4.945   6.983   1.973 -1.2061  0.2458 -0.0211
   13CHTO   O18 5432   5.020   6.986   2.164 -0.6062  0.2747  1.0764
   13CHTO   C28 5433   5.144   7.049   2.136  0.2689 -0.6747 -0.1418
   13CHTO   H56 5434   5.143   7.107   2.044 -1.8404 -0.3322  0.0641
   13CHTO   C35 5435   5.189   7.145   2.246  0.6568  0.0639 -0.6403
   13CHTO   O24 5436   5.091   7.245   2.281  0.0245  0.6512 -0.1945
   13CHTO   H39 5437   5.106   7.277   2.367 -2.8012  2.8069 -0.4394
   13CHTO    O9 5438   4.841   6.855   2.086  0.2194 -0.3100 -0.0004
   13CHTO   C13 5439   4.824   6.757   2.219 -0.8823  0.1301  0.5132
   13CHTO   H26 5440   4.921   6.725   2.262 -0.0139 -0.6331 -1.9067
   13CHTO   C11 5441   4.749   6.628   2.161 -0.8887 -0.7336  0.0570
   13CHTO   H24 5442   4.822   6.575   2.097  1.1211 -1.3533  2.7863
   13CHTO    O8 5443   4.632   6.660   2.087  0.5453 -0.3873 -0.0227
   13CHTO    H3 5444   4.609   6.585   2.034 -3.6271  1.7795 -1.5554
   13CHTO    C9 5445   4.721   6.541   2.285  0.1059  0.2968  0.1722
   13CHTO   H22 5446   4.820   6.521   2.329  0.2994 -0.5426 -0.6168
   13CHTO    N2 5447   4.674   6.412   2.243 -0.4456  0.2893 -0.3515
   13CHTO   H10 5448   4.582   6.432   2.189 -0.4953  1.0592  0.0038
   13CHTO   H11 5449   4.745   6.361   2.180  1.9671  1.9307  0.9703
   13CHTO    C7 5450   4.640   6.622   2.397 -0.0317 -0.3433  0.1875
   13CHTO   H20 5451   4.707   6.607   2.485  1.6985 -1.7132 -1.2969
   13CHTO    O4 5452   4.615   6.765   2.365 -0.3628  0.0683  0.1322
   13CHTO   C14 5453   4.738   6.833   2.330 -0.5964 -0.3028 -0.2407
   13CHTO   H27 5454   4.801   6.846   2.421  1.3912 -1.5197 -1.4187
   13CHTO   C18 5455   4.692   6.984   2.279  0.1874  0.4642 -0.0686
   13CHTO   O13 5456   4.562   7.025   2.318 -0.6372  0.0764  0.3191
   13CHTO    H7 5457   4.556   7.010   2.411  0.2028  1.8369  0.6760
   13CHTO    O2 5458   4.499   6.555   2.447  0.4641 -0.0247 -0.3010
   13CHTO    C1 5459   4.490   6.519   2.584  0.1889  0.1544 -0.3577
   13CHTO   H14 5460   4.541   6.587   2.655  2.0219 -2.5393  1.0436
   13CHTO    C2 5461   4.540   6.377   2.612 -0.1896 -0.3105 -0.1229
   13CHTO   H15 5462   4.473   6.302   2.567 -0.9347  0.3203 -0.0729
   13CHTO    O6 5463   4.673   6.348   2.561 -0.5340 -0.6033  0.0343
   13CHTO    H1 5464   4.689   6.356   2.469  2.3572  1.4219  0.6648
   13CHTO    C3 5465   4.528   6.361   2.772 -0.4809 -0.0748  0.0198
   13CHTO   H16 5466   4.594   6.436   2.820 -0.6538 -1.5716  2.7086
   13CHTO    N1 5467   4.562   6.226   2.823  0.8585  0.8503 -0.2427
   13CHTO    H8 5468   4.529   6.203   2.922  1.2607  0.9451 -0.0829
   13CHTO    H9 5469   4.531   6.152   2.750 -0.6012  1.3144 -0.0960
   13CHTO    C4 5470   4.380   6.394   2.829  0.3236 -0.4306  0.0239
   13CHTO   H17 5471   4.314   6.310   2.811  1.8042 -1.5480 -0.2863
   13CHTO    O1 5472   4.330   6.511   2.764 -0.0368 -0.4150  0.1019
   13CHTO    C5 5473   4.332   6.527   2.623  0.0774  0.4958  0.9561
   13CHTO   H18 5474   4.293   6.439   2.573  0.3073  1.7538 -1.4785
   13CHTO   C16 5475   4.258   6.650   2.571 -0.3522  0.8483  0.2822
   13CHTO   O11 5476   4.120   6.623   2.546 -0.2089 -0.5109  0.2215
   13CHTO    H5 5477   4.073   6.618   2.627 -1.8839 -2.8077 -0.8401
   13CHTO    O3 5478   4.391   6.426   2.972  0.4925  0.2872  0.3942
   13CHTO    C6 5479   4.264   6.460   3.028 -0.1973  0.4580 -0.4748
   13CHTO   H19 5480   4.190   6.489   2.953 -0.5904 -1.7268 -0.9810
   13CHTO    C8 5481   4.200   6.343   3.114 -0.5147 -0.0149 -0.1289
   13CHTO   H21 5482   4.265   6.312   3.196 -1.3051  0.5049  0.7049
   13CHTO    O7 5483   4.164   6.235   3.029  0.3088 -0.0153 -0.0963
   13CHTO    H2 5484   4.210   6.158   3.055  0.2963  0.3366  0.9970
   13CHTO   C12 5485   4.074   6.406   3.186 -0.1784 -0.0777 -0.5720
   13CHTO   H25 5486   4.007   6.420   3.100 -1.0732 -1.3613 -0.1066
   13CHTO    N3 5487   4.005   6.297   3.272 -0.2416  0.6253 -0.2032
   13CHTO   H12 5488   3.933   6.332   3.344 -1.3691 -3.6003  0.8301
   13CHTO   H13 5489   3.970   6.219   3.205  0.1745  0.9627 -0.8242
   13CHTO   C15 5490   4.101   6.546   3.254 -0.2682 -0.4700 -0.8658
   13CHTO   H28 5491   4.149   6.535   3.351  0.6259 -0.8575 -1.3469
   13CHTO   O10 5492   3.957   6.623   3.284 -0.2696 -0.6623  0.7259
   13CHTO    H4 5493   3.925   6.588   3.366 -2.7296 -0.7333 -0.2008
   13CHTO    O5 5494   4.180   6.635   3.174 -0.0183 -0.1502  0.2301
   13CHTO   C10 5495   4.294   6.579   3.108 -0.5962  0.0044 -0.1855
   13CHTO   H23 5496   4.362   6.540   3.184  0.0218  1.4331  0.0194
   13CHTO   C17 5497   4.360   6.699   3.033 -0.3807  0.8786  0.8815
   13CHTO   O12 5498   4.411   6.783   3.133  0.2054  0.1357 -0.7123
   13CHTO    H6 5499   4.421   6.741   3.216 -1.9628  0.0320 -0.4768
   14CHTO  H203 5500   7.039   4.218   1.905  1.0479  1.0620  3.0944
   14CHTO   O82 5501   6.964   4.274   1.902  0.4045  0.1288 -0.7052
   14CHTO  C123 5502   6.919   4.295   1.768 -0.4668  1.2243  0.3147
   14CHTO  H227 5503   7.002   4.336   1.709  0.2682  2.7026  2.3333
   14CHTO   O77 5504   6.892   4.159   1.721  0.1023  0.1472  0.0178
   14CHTO  C118 5505   6.825   4.140   1.600 -0.2050 -0.4941  0.4614
   14CHTO  H222 5506   6.883   4.183   1.516 -1.4639  0.0402 -0.1487
   14CHTO  C125 5507   6.822   3.983   1.568 -0.4192  0.2198 -0.0000
   14CHTO   O84 5508   6.945   3.939   1.509  0.0570 -0.1924 -0.3104
   14CHTO  H205 5509   6.933   3.854   1.469 -0.0933 -2.4734  4.2767
   14CHTO  C114 5510   6.682   4.206   1.604 -0.3356 -0.2645 -0.5113
   14CHTO  H218 5511   6.630   4.152   1.683  0.7284 -0.2126  0.2364
   14CHTO  C116 5512   6.689   4.350   1.649  0.5346 -0.1850  0.4088
   14CHTO  H220 5513   6.729   4.406   1.562  1.2129 -0.6827  0.3972
   14CHTO   O79 5514   6.559   4.400   1.676  0.3851 -0.3464  0.1631
   14CHTO  H201 5515   6.512   4.377   1.753  1.2991  0.6467  1.0349
   14CHTO  C120 5516   6.787   4.380   1.773 -0.3762  0.8149  0.5694
   14CHTO  H224 5517   6.741   4.353   1.870 -1.8254  1.3989  0.0644
   14CHTO   N21 5518   6.832   4.522   1.781  0.4852 -0.5546  0.3896
   14CHTO  H211 5519   6.841   4.576   1.687  1.4590 -0.9245  0.2653
   14CHTO  H212 5520   6.752   4.574   1.833  0.2361  0.0199 -0.5446
   14CHTO   O75 5521   6.622   4.177   1.479 -0.0853  0.1506  0.3279
   14CHTO  C112 5522   6.464   4.171   1.476 -0.0067 -0.5136  0.0286
   14CHTO  H216 5523   6.425   4.262   1.524  3.2611  1.8555 -1.6605
   14CHTO   O73 5524   6.434   4.052   1.551  0.2621  0.2433 -0.9548
   14CHTO  C113 5525   6.298   4.036   1.586 -0.5272 -0.9892 -0.1863
   14CHTO  H217 5526   6.265   4.117   1.654  1.8107  0.8698 -1.2055
   14CHTO  C124 5527   6.302   3.911   1.667 -0.7977 -0.3926 -0.6452
   14CHTO   O83 5528   6.179   3.884   1.729 -0.4961 -0.2622  0.1156
   14CHTO  H204 5529   6.183   3.811   1.789  1.8030 -0.9049 -0.7746
   14CHTO  C109 5530   6.213   4.032   1.455  1.1032 -0.3047  0.6347
   14CHTO  H213 5531   6.228   3.935   1.406  0.5053  0.2593 -0.6970
   14CHTO  C110 5532   6.255   4.146   1.353 -0.0574 -0.0760  0.4153
   14CHTO  H214 5533   6.219   4.241   1.391  2.2492  0.8193  0.4094
   14CHTO   O78 5534   6.178   4.111   1.234  0.2685 -0.1911  0.2478
   14CHTO  H200 5535   6.093   4.149   1.242  0.5494  0.8866 -1.8522
   14CHTO  C111 5536   6.410   4.152   1.335 -0.3900  0.5740  0.4894
   14CHTO  H215 5537   6.444   4.055   1.297 -1.6179  0.0463  0.7083
   14CHTO   N19 5538   6.446   4.249   1.234  0.2132 -0.2686 -0.4868
   14CHTO  H207 5539   6.407   4.211   1.140  0.2679  0.0976 -0.6618
   14CHTO  H208 5540   6.552   4.261   1.217  0.5641 -2.6817 -0.1235
   14CHTO   O74 5541   6.071   4.041   1.503 -0.3784 -0.6080 -0.1944
   14CHTO  C115 5542   5.976   3.951   1.418 -0.1654 -0.9023 -0.0685
   14CHTO  H219 5543   5.966   3.987   1.316  0.2178  0.4908  0.3732
   14CHTO   O76 5544   6.035   3.800   1.401 -0.3967 -0.1947 -0.2583
   14CHTO  C122 5545   5.951   3.715   1.327  0.0811  0.4239  0.1701
   14CHTO  H226 5546   5.999   3.617   1.335  0.5941  0.5189 -1.4137
   14CHTO  C126 5547   5.957   3.751   1.173  0.4498  0.1994  0.4530
   14CHTO   O85 5548   6.084   3.723   1.113 -0.5876  0.1624 -0.0414
   14CHTO  H206 5549   6.089   3.735   1.020  0.3271 -3.8477 -0.5925
   14CHTO  C121 5550   5.800   3.704   1.388 -0.4220 -1.0707  0.0805
   14CHTO  H225 5551   5.734   3.639   1.328 -1.9156 -1.3090  1.9175
   14CHTO   O81 5552   5.796   3.638   1.520 -0.7564  0.3336 -0.6596
   14CHTO  H202 5553   5.848   3.560   1.518 -1.2116  0.0056  0.0322
   14CHTO  C119 5554   5.735   3.846   1.401 -0.4650  0.1802 -0.0229
   14CHTO  H223 5555   5.713   3.893   1.305  0.0228  2.7184  1.0607
   14CHTO  C117 5556   5.828   3.944   1.483  0.6275  0.5449 -0.4508
   14CHTO  H221 5557   5.843   3.921   1.589  1.2131 -0.2327 -0.6975
   14CHTO   N20 5558   5.765   4.087   1.490  0.1756 -0.2423 -0.4290
   14CHTO  H209 5559   5.713   4.112   1.581 -2.9442  0.5215 -2.3235
   14CHTO  H210 5560   5.716   4.130   1.403 -2.0136 -1.0962  0.3649
   14CHTO   O80 5561   5.586   3.834   1.469 -0.3034  0.2582  1.3120
   14CHTO  C103 5562   5.468   3.792   1.386  0.2029  0.6123  0.1032
   14CHTO  H190 5563   5.498   3.769   1.284 -0.3932  0.6846 -0.0865
   14CHTO  C101 5564   5.393   3.656   1.432 -0.1250 -0.1479  0.2124
   14CHTO  H188 5565   5.372   3.663   1.538 -0.4246  2.4837  0.0176
   14CHTO   O68 5566   5.502   3.514   1.409  0.2449 -1.0736 -0.7379
   14CHTO  H168 5567   5.529   3.510   1.319  0.7675 -0.6748 -0.6061
   14CHTO   C99 5568   5.253   3.637   1.351  0.1483 -0.1633 -0.1882
   14CHTO  H186 5569   5.280   3.622   1.245 -0.2987  2.0341 -0.6373
   14CHTO   N17 5570   5.161   3.527   1.385 -0.1087 -0.2965  0.5345
   14CHTO  H174 5571   5.076   3.554   1.446 -0.6730 -0.4340 -0.1927
   14CHTO  H175 5572   5.140   3.471   1.296  2.8234 -0.9705  0.2337
   14CHTO   C97 5573   5.174   3.769   1.358 -0.4147 -0.3550  0.2809
   14CHTO  H184 5574   5.126   3.783   1.456  0.0792  0.2735  0.4310
   14CHTO   O64 5575   5.251   3.882   1.312  0.0622 -0.4339  0.2594
   14CHTO  C104 5576   5.368   3.911   1.384 -0.1444 -0.8450  0.4663
   14CHTO  H191 5577   5.351   3.939   1.488  1.1797 -0.8587  0.7008
   14CHTO  C108 5578   5.420   4.033   1.311 -0.6823 -0.9552 -0.3932
   14CHTO   O71 5579   5.339   4.144   1.356 -0.5713 -0.1179 -0.0027
   14CHTO  H171 5580   5.391   4.218   1.328  0.5329 -0.5438  0.8660
   14CHTO   O62 5581   5.076   3.785   1.254 -0.2689  0.2333  0.1547
   14CHTO   C91 5582   4.940   3.798   1.293  0.5439  0.1505  0.6912
   14CHTO  H178 5583   4.899   3.712   1.346  2.3569 -0.4512  1.1353
   14CHTO   C92 5584   4.873   3.805   1.150  0.0011  0.5721  0.8638
   14CHTO  H179 5585   4.904   3.715   1.094  0.0616  0.9805  0.2348
   14CHTO   O66 5586   4.730   3.785   1.175 -0.3133  0.0930 -0.2225
   14CHTO  H166 5587   4.683   3.857   1.213  2.9389  2.1748  0.0565
   14CHTO   C93 5588   4.888   3.944   1.080 -0.2855 -0.5679 -0.3993
   14CHTO  H180 5589   4.808   3.954   1.005 -0.9944  0.5831  0.4985
   14CHTO   N16 5590   5.007   3.949   1.001  0.0056 -0.4044  0.2574
   14CHTO  H172 5591   5.100   3.959   1.055  0.8953  1.6760 -1.5771
   14CHTO  H173 5592   5.005   4.030   0.929  1.3977  0.1085  0.7873
   14CHTO   C94 5593   4.869   4.065   1.177 -0.5366 -0.3734  0.2759
   14CHTO  H181 5594   4.962   4.114   1.205 -0.8792  0.2560  0.3265
   14CHTO   O61 5595   4.809   4.025   1.306 -0.3228 -0.6092 -0.6976
   14CHTO   C95 5596   4.895   3.934   1.375 -0.1307  0.0646 -0.6799
   14CHTO  H182 5597   4.987   3.983   1.407  0.4353  0.1934 -2.4633
   14CHTO  C106 5598   4.816   3.898   1.507 -0.1738 -0.6571  0.2050
   14CHTO   O69 5599   4.799   4.015   1.595 -0.6290  0.3973 -0.4517
   14CHTO  H169 5600   4.726   4.006   1.653  1.0391 -1.1681  1.4724
   14CHTO   O63 5601   4.761   4.165   1.115  0.5251  0.0689  0.0376
   14CHTO   C96 5602   4.732   4.305   1.196 -0.3562 -0.3450  0.1226
   14CHTO  H183 5603   4.808   4.313   1.274  0.3339 -0.1831 -0.5580
   14CHTO   C98 5604   4.592   4.327   1.261 -1.0744  0.2438  0.3193
   14CHTO  H185 5605   4.504   4.312   1.197 -0.6853 -0.9646  0.0524
   14CHTO   O67 5606   4.589   4.232   1.365  0.2547  0.4864  0.5674
   14CHTO  H167 5607   4.510   4.253   1.411 -2.0844 -0.1926 -2.9548
   14CHTO  C102 5608   4.583   4.474   1.324 -0.2487  0.2960  0.2343
   14CHTO  H189 5609   4.665   4.476   1.397  1.8898  1.2957 -2.1099
   14CHTO   N18 5610   4.460   4.504   1.397  0.1719  0.0972  0.1586
   14CHTO  H176 5611   4.363   4.496   1.350  1.0961  0.1333 -1.8017
   14CHTO  H177 5612   4.470   4.604   1.437 -0.2605  0.6508 -1.0939
   14CHTO  C105 5613   4.624   4.582   1.215  0.0856  0.1966  0.3030
   14CHTO  H192 5614   4.547   4.587   1.139  1.8219  0.7826 -1.4618
   14CHTO   O65 5615   4.752   4.549   1.157  0.0395 -0.3938 -0.4679
   14CHTO  C100 5616   4.764   4.419   1.094 -0.2217  0.7716 -0.1828
   14CHTO  H187 5617   4.691   4.412   1.012  0.1935  3.5644 -0.8593
   14CHTO  C107 5618   4.900   4.403   1.032 -0.6670  0.0861 -0.3181
   14CHTO   O70 5619   5.009   4.412   1.127  0.3253 -0.0908  0.2507
   14CHTO  H170 5620   5.013   4.501   1.157  0.0179  0.3504 -0.9858
   14CHTO   O57 5621   4.630   4.730   1.297  0.0346 -0.1524 -0.1305
   14CHTO   C85 5622   4.607   4.844   1.222 -0.5296 -0.0672  0.3707
   14CHTO  H157 5623   4.524   4.812   1.156  0.4614 -0.5547 -0.6425
   14CHTO   C83 5624   4.719   4.886   1.119  0.4032  0.0977  0.7625
   14CHTO  H155 5625   4.714   4.804   1.046 -1.3502  1.1989 -0.3859
   14CHTO   O56 5626   4.846   4.895   1.186  0.1220  0.7851 -0.5017
   14CHTO  H135 5627   4.824   4.893   1.277  0.5868 -0.3656 -0.4116
   14CHTO   C81 5628   4.679   5.018   1.055 -0.0193  0.2932  0.3496
   14CHTO  H153 5629   4.584   5.005   1.003 -0.1063 -0.7678  0.7669
   14CHTO   N14 5630   4.769   5.058   0.941 -0.2163 -0.3940 -0.4927
   14CHTO  H141 5631   4.723   5.030   0.849 -0.1382  0.6323 -0.8512
   14CHTO  H142 5632   4.803   5.160   0.945  3.4081 -1.4983 -1.2112
   14CHTO   C79 5633   4.672   5.137   1.162 -0.1472 -0.2003  0.1058
   14CHTO  H151 5634   4.635   5.223   1.107  0.9435 -0.0491 -0.3959
   14CHTO   O52 5635   4.584   5.103   1.275 -0.0357 -0.6662 -0.1578
   14CHTO   C86 5636   4.564   4.968   1.320 -0.6539  0.7161 -0.4874
   14CHTO  H158 5637   4.627   4.964   1.411 -1.4038  1.1544  0.0569
   14CHTO   C90 5638   4.422   4.969   1.373  0.4671 -0.2006  0.0063
   14CHTO   O60 5639   4.395   4.845   1.434  0.1751 -0.3804 -0.0613
   14CHTO  H138 5640   4.309   4.837   1.469  0.5910 -0.9475  0.8662
   14CHTO   O50 5641   4.806   5.169   1.209 -0.0236 -0.1592  0.4748
   14CHTO   C73 5642   4.865   5.271   1.286  0.3778 -0.0349 -0.4781
   14CHTO  H145 5643   4.805   5.284   1.377 -0.4536 -0.2145 -0.9994
   14CHTO   C74 5644   4.854   5.393   1.196  0.4238  0.1632 -0.1511
   14CHTO  H146 5645   4.748   5.401   1.168  0.1530 -0.7492  0.6147
   14CHTO   O54 5646   4.871   5.520   1.269 -0.3351 -0.2494 -0.4401
   14CHTO  H133 5647   4.947   5.510   1.324 -0.9083 -0.4218  0.3232
   14CHTO   C75 5648   4.950   5.385   1.071  0.5722  0.0050  0.5199
   14CHTO  H147 5649   4.915   5.292   1.023 -1.2395  0.6465  0.5596
   14CHTO   N13 5650   4.937   5.497   0.977 -0.5027 -0.1158 -0.2184
   14CHTO  H139 5651   4.924   5.477   0.871 -0.0354  0.3334 -0.3616
   14CHTO  H140 5652   5.010   5.572   1.003 -0.8042  0.0901  0.0271
   14CHTO   C76 5653   5.099   5.347   1.112 -0.2718  0.3499  0.7785
   14CHTO  H148 5654   5.140   5.442   1.146 -3.0153  1.4901  0.9888
   14CHTO   O49 5655   5.101   5.235   1.212 -0.2961 -0.1194  0.0355
   14CHTO   C77 5656   5.014   5.255   1.321  0.3204  0.0444  0.4519
   14CHTO  H149 5657   5.044   5.342   1.378 -0.4673  0.3495  0.4147
   14CHTO   C88 5658   5.015   5.135   1.415 -0.2985 -0.0796  0.2761
   14CHTO   O58 5659   5.176   5.099   1.450  0.1953 -0.3619  0.5533
   14CHTO  H136 5660   5.184   5.031   1.513  1.5791 -0.5139  0.2367
   14CHTO   O51 5661   5.165   5.287   0.980 -1.0821 -0.2425 -0.3179
   14CHTO   C78 5662   5.336   5.308   0.985  0.8566 -0.4165  0.0093
   14CHTO  H150 5663   5.363   5.349   1.085  0.4845 -0.5739  0.1792
   14CHTO   C80 5664   5.376   5.407   0.876  0.7160  0.3958  0.0280
   14CHTO  H152 5665   5.344   5.369   0.777  1.2473  0.4692 -0.1722
   14CHTO   O55 5666   5.293   5.524   0.901 -0.5430  0.1784 -0.0699
   14CHTO  H134 5667   5.316   5.587   0.835 -0.9824  2.1550  1.5972
   14CHTO   C84 5668   5.534   5.444   0.879  0.1535  0.1061  0.0648
   14CHTO  H156 5669   5.555   5.491   0.975  4.3401  1.3316 -1.3174
   14CHTO   N15 5670   5.575   5.536   0.772  0.3471 -0.4607 -0.4240
   14CHTO  H143 5671   5.489   5.580   0.727 -0.5952 -0.6920  1.0846
   14CHTO  H144 5672   5.643   5.612   0.804 -1.3078 -0.0645  2.3234
   14CHTO   C87 5673   5.609   5.312   0.866 -0.1347  0.0165  0.1032
   14CHTO  H159 5674   5.592   5.269   0.768  3.7048 -2.1361  0.2805
   14CHTO   O53 5675   5.548   5.213   0.994 -0.2749 -0.7347 -0.3277
   14CHTO   C82 5676   5.412   5.175   0.982  0.3164 -0.3681 -0.4158
   14CHTO  H154 5677   5.389   5.118   0.892  0.1258 -0.7923 -0.1067
   14CHTO   C89 5678   5.373   5.085   1.107  0.1728  0.0127  0.3257
   14CHTO   O59 5679   5.364   5.139   1.236  0.0347 -0.0233  0.1405
   14CHTO  H137 5680   5.365   5.070   1.299  3.5222  0.4610  0.6842
   14CHTO   O45 5681   5.768   5.345   0.899 -0.1275 -0.0770  0.2374
   14CHTO   C67 5682   5.855   5.238   0.879  0.0999  0.6524  0.0112
   14CHTO  H124 5683   5.801   5.149   0.911 -2.4941  1.7850 -1.1366
   14CHTO   C65 5684   5.888   5.223   0.730 -0.2610  0.6071 -0.5046
   14CHTO  H122 5685   5.795   5.243   0.676  0.6846 -2.7710 -3.5760
   14CHTO   O44 5686   5.936   5.092   0.696 -0.2782 -0.3413  0.0934
   14CHTO  H102 5687   6.025   5.099   0.668 -0.7089  0.8008 -1.0547
   14CHTO   C63 5688   5.977   5.345   0.690  0.2623  0.0129  0.0471
   14CHTO  H120 5689   5.921   5.433   0.722 -0.4045  0.2325 -1.6726
   14CHTO   N11 5690   6.000   5.366   0.547  0.0246 -0.4034  0.2365
   14CHTO  H108 5691   6.092   5.323   0.514 -0.6940 -1.2130 -0.7413
   14CHTO  H109 5692   5.922   5.320   0.490 -1.2603 -0.7110  2.1860
   14CHTO   C61 5693   6.114   5.350   0.779  0.1334 -0.1178  0.6463
   14CHTO  H118 5694   6.155   5.449   0.754  0.7216  0.1915  2.7191
   14CHTO   O40 5695   6.080   5.354   0.916  0.0657 -0.1545 -0.1703
   14CHTO   C68 5696   5.987   5.252   0.969 -0.9962  0.0787 -0.3468
   14CHTO  H125 5697   5.952   5.289   1.068  2.5806  0.5637  0.7857
   14CHTO   C72 5698   6.057   5.121   0.994  0.9620  0.2485 -0.7942
   14CHTO   O48 5699   6.171   5.151   1.072 -1.0892 -0.3507  0.1165
   14CHTO  H105 5700   6.240   5.174   1.012 -1.5550  1.2160  0.1592
   14CHTO   O38 5701   6.214   5.252   0.773  0.4484 -0.3503 -0.3181
   14CHTO   C55 5702   6.333   5.258   0.693 -0.8948  0.5534 -0.5796
   14CHTO  H112 5703   6.324   5.343   0.623  1.3216  1.2226 -0.0969
   14CHTO   C56 5704   6.347   5.115   0.616  0.3242  0.4606 -0.1565
   14CHTO  H113 5705   6.322   5.032   0.683  2.6595  1.7389  2.4090
   14CHTO   O42 5706   6.255   5.113   0.503 -0.5019  0.3114 -0.0282
   14CHTO  H100 5707   6.164   5.107   0.528 -0.6694  2.4812 -0.0115
   14CHTO   C57 5708   6.488   5.091   0.556  0.3341 -0.0688 -0.5771
   14CHTO  H114 5709   6.484   5.144   0.461  0.1598  0.7356 -0.1281
   14CHTO   N10 5710   6.524   4.946   0.526  0.3080  0.3117 -1.1333
   14CHTO  H106 5711   6.543   4.901   0.623  1.3535 -2.1322 -2.4337
   14CHTO  H107 5712   6.616   4.935   0.470  0.2536  1.1281 -1.3873
   14CHTO   C58 5713   6.603   5.150   0.645 -0.3489 -0.8829 -0.0959
   14CHTO  H115 5714   6.624   5.085   0.733 -1.2875 -2.3586 -0.9359
   14CHTO   O37 5715   6.572   5.278   0.691  0.1260  0.4541 -0.1396
   14CHTO   C59 5716   6.459   5.278   0.782 -0.4339  0.4568 -0.3163
   14CHTO  H116 5717   6.468   5.198   0.856 -0.8176  1.3164  0.6658
   14CHTO   C70 5718   6.452   5.412   0.862  0.1892  0.9138 -0.1216
   14CHTO   O46 5719   6.450   5.539   0.792  0.0085 -0.2275 -0.6321
   14CHTO  H103 5720   6.417   5.538   0.704 -2.3240  1.1817  0.2030
   14CHTO   O39 5721   6.734   5.182   0.547  0.1090  0.5863 -0.3834
   14CHTO   C60 5722   6.862   5.173   0.620  0.4680  0.9048  0.4102
   14CHTO  H117 5723   6.845   5.227   0.713  1.7143 -0.5353  1.4768
   14CHTO   C62 5724   6.896   5.024   0.653  0.1856 -0.0741 -0.0724
   14CHTO  H119 5725   6.817   5.005   0.728 -2.1199  1.2693 -2.0540
   14CHTO   O43 5726   6.897   4.950   0.528 -0.3506 -0.1104 -0.0591
   14CHTO  H101 5727   6.809   4.924   0.508 -1.9781  3.0439  2.5646
   14CHTO   C66 5728   7.036   5.023   0.729 -0.2789 -0.3147 -0.7947
   14CHTO  H123 5729   7.029   5.091   0.814  0.0113 -0.7844 -0.3962
   14CHTO   N12 5730   7.073   4.890   0.786  0.0783  0.4928  0.1813
   14CHTO  H110 5731   7.177   4.871   0.807  0.0762  1.3238  0.9654
   14CHTO  H111 5732   7.013   4.872   0.874  1.0915 -0.0939  0.7555
   14CHTO   C69 5733   7.146   5.088   0.645 -0.6599  0.0727  0.0240
   14CHTO  H126 5734   7.155   5.043   0.544  2.5578 -0.8676  0.6850
   14CHTO   O41 5735   7.103   5.250   0.636 -0.1271 -0.6941  0.0533
   14CHTO   C64 5736   6.974   5.250   0.550  0.0552 -0.1898 -0.5394
   14CHTO  H121 5737   6.995   5.199   0.453 -2.6284  2.7425 -2.7355
   14CHTO   C71 5738   6.941   5.403   0.518 -0.4028 -0.1080 -0.4000
   14CHTO   O47 5739   6.825   5.418   0.438 -0.4976 -0.1976 -0.2793
   14CHTO  H104 5740   6.829   5.505   0.405  2.4412  0.7406  2.3454
   14CHTO   O34 5741   7.298   5.075   0.709  0.2272 -0.0046 -0.2623
   14CHTO   C49 5742   7.433   5.142   0.683  0.0231 -0.1485 -0.2296
   14CHTO   H91 5743   7.481   5.078   0.610  2.0493  0.2861  0.6850
   14CHTO   C47 5744   7.507   5.140   0.813 -0.1677 -0.1847  0.6202
   14CHTO   H89 5745   7.609   5.174   0.786 -0.3717  1.5637  1.9557
   14CHTO   O33 5746   7.513   5.008   0.873 -0.7471 -0.6084 -0.1788
   14CHTO   H70 5747   7.435   4.959   0.852 -1.6531  0.1648  1.2719
   14CHTO   C45 5748   7.456   5.237   0.924  0.4481 -0.1086 -0.5686
   14CHTO   H87 5749   7.398   5.177   0.995  0.2099  1.8230  0.9295
   14CHTO    N8 5750   7.567   5.295   1.000 -0.0604  0.1273 -0.3868
   14CHTO   H75 5751   7.533   5.347   1.088 -1.6285 -0.4619 -0.6339
   14CHTO   H76 5752   7.639   5.352   0.943  0.6951 -1.0869 -0.6489
   14CHTO   C43 5753   7.354   5.350   0.854 -0.1484 -0.3510  0.5830
   14CHTO   H85 5754   7.257   5.300   0.847 -0.7168  0.8780 -0.7856
   14CHTO   O29 5755   7.403   5.386   0.722  0.1218 -0.6978  0.1609
   14CHTO   C50 5756   7.422   5.279   0.625  0.5507 -0.6159 -0.1329
   14CHTO   H92 5757   7.337   5.289   0.556  0.2614 -0.0433  0.2943
   14CHTO   C54 5758   7.548   5.324   0.548 -0.3727 -0.1469  0.0099
   14CHTO   O36 5759   7.516   5.431   0.456  0.1438  0.6560  0.1001
   14CHTO   H72 5760   7.555   5.416   0.372 -1.5820  2.3271 -1.0562
   14CHTO   O27 5761   7.333   5.475   0.925 -0.0253 -0.8791 -0.4028
   14CHTO   C37 5762   7.215   5.533   0.980  1.0876  0.2266  0.0421
   14CHTO   H79 5763   7.239   5.640   0.993  1.4600  0.5057 -2.7184
   14CHTO   C38 5764   7.095   5.541   0.882  0.8097  0.5193 -0.0949
   14CHTO   H80 5765   7.071   5.439   0.848  3.3778  0.6191 -2.3428
   14CHTO   O31 5766   7.136   5.616   0.768 -1.0816 -0.2656 -0.6722
   14CHTO   H68 5767   7.068   5.650   0.713 -1.6330  1.4333  1.0231
   14CHTO   C39 5768   6.970   5.610   0.947 -0.8700 -0.7358 -0.1615
   14CHTO   H81 5769   6.991   5.717   0.953  1.2364 -1.0140 -1.9373
   14CHTO    N7 5770   6.852   5.597   0.865 -0.3014 -0.3535  0.4240
   14CHTO   H73 5771   6.770   5.556   0.921  0.8799  0.3597  2.7450
   14CHTO   H74 5772   6.823   5.693   0.826 -0.4247 -0.4965  0.1592
   14CHTO   C40 5773   6.942   5.567   1.101 -0.1348 -0.1947 -0.2319
   14CHTO   H82 5774   6.894   5.469   1.109 -0.4961  0.0072  0.0434
   14CHTO   O26 5775   7.070   5.566   1.175 -0.6385  0.3058  0.8128
   14CHTO   C41 5776   7.175   5.473   1.123  0.2554 -0.7172 -0.0913
   14CHTO   H83 5777   7.147   5.369   1.102 -0.6696 -0.4267 -0.3089
   14CHTO   C52 5778   7.296   5.479   1.223  0.1160  0.5436 -0.0173
   14CHTO   O35 5779   7.362   5.606   1.234 -0.0341 -0.4798 -0.3036
   14CHTO   H71 5780   7.329   5.667   1.170 -1.8121 -0.1451  0.9168
   14CHTO   O28 5781   6.874   5.662   1.183  0.3469  0.2389  0.0752
   14CHTO   C42 5782   6.751   5.639   1.261  0.4470 -0.1413  0.0537
   14CHTO   H84 5783   6.745   5.719   1.334  1.3425 -1.3404  1.4611
   14CHTO   C44 5784   6.759   5.509   1.345 -0.3764 -0.1563 -0.0112
   14CHTO   H86 5785   6.762   5.424   1.277  0.8106 -0.7215  0.7229
   14CHTO   O32 5786   6.883   5.511   1.423  0.1479 -0.7244  0.1945
   14CHTO   H69 5787   6.866   5.563   1.499  1.5624 -1.4342  1.0139
   14CHTO   C48 5788   6.617   5.481   1.427 -0.4001 -0.3094 -0.1444
   14CHTO   H90 5789   6.604   5.548   1.512  0.2475 -1.1772  0.6426
   14CHTO    N9 5790   6.617   5.339   1.490 -0.7078  0.1568  0.3382
   14CHTO   H77 5791   6.719   5.306   1.486 -0.2772  1.7205 -2.9957
   14CHTO   H78 5792   6.554   5.266   1.440  1.3435  0.3791 -2.7171
   14CHTO   C51 5793   6.501   5.499   1.332 -0.1107 -0.3491 -0.2269
   14CHTO   H93 5794   6.518   5.428   1.251  2.1409  2.3211 -2.2092
   14CHTO   O30 5795   6.496   5.631   1.280  0.1692  0.2135 -0.1534
   14CHTO   C46 5796   6.623   5.647   1.181  0.0157 -0.4443 -0.1606
   14CHTO   H88 5797   6.624   5.575   1.099  3.3849 -1.4752  0.7056
   14CHTO   C53 5798   6.610   5.790   1.127 -0.0989  0.1144 -0.2290
   14CHTO   O72 5799   6.525   5.787   1.017 -0.2294  0.1267 -0.1030
   14CHTO  H199 5800   6.516   5.876   0.988  1.4528  0.9478  1.7673
   14CHTO   O22 5801   6.371   5.494   1.391  0.4193 -0.1151 -0.4164
   14CHTO   C31 5802   6.252   5.437   1.334  0.4352 -0.3519 -0.1289
   14CHTO   H59 5803   6.287   5.369   1.254  0.3875  0.4048 -0.7952
   14CHTO   C29 5804   6.175   5.348   1.438  0.9870 -0.8979 -0.8158
   14CHTO   H57 5805   6.155   5.412   1.524  1.5224 -1.9587  0.1125
   14CHTO   O21 5806   6.261   5.240   1.491  0.6648 -0.2559  0.1245
   14CHTO   H37 5807   6.326   5.271   1.550  0.7377  0.0820 -0.1247
   14CHTO   C27 5808   6.032   5.299   1.391  0.4580 -0.4879  0.3795
   14CHTO   H55 5809   6.047   5.233   1.303 -2.0221  1.0642 -1.2535
   14CHTO    N5 5810   5.951   5.220   1.488  0.1349 -0.7146  0.8285
   14CHTO   H43 5811   5.948   5.117   1.457  0.3397  0.2023 -2.4842
   14CHTO   H44 5812   5.860   5.274   1.509  0.7708  0.5915  0.3459
   14CHTO   C25 5813   5.952   5.423   1.336 -0.4399 -0.2800  0.3909
   14CHTO   H53 5814   5.908   5.489   1.412  0.5843 -1.5619  2.1555
   14CHTO   O17 5815   6.020   5.503   1.240 -0.2171 -0.4314  0.3056
   14CHTO   C32 5816   6.155   5.545   1.262  0.1210 -0.1524  0.4833
   14CHTO   H60 5817   6.147   5.630   1.329 -1.9110 -0.3304  0.5027
   14CHTO   C36 5818   6.205   5.572   1.124 -0.1627  0.1474 -0.0502
   14CHTO   O25 5819   6.136   5.675   1.051  0.3796  0.4055  0.4197
   14CHTO   H40 5820   6.052   5.641   1.028  1.5339 -2.9379  0.9099
   14CHTO   O15 5821   5.802   5.363   1.246  0.7172 -0.5436 -0.3410
   14CHTO   C19 5822   5.667   5.422   1.250  0.8813 -0.1035 -0.4071
   14CHTO   H47 5823   5.619   5.374   1.163 -0.8047 -1.3037  1.1592
   14CHTO   C20 5824   5.592   5.391   1.376  0.6548 -0.3160 -0.3517
   14CHTO   H48 5825   5.640   5.432   1.465  0.0264 -2.4272  0.9947
   14CHTO   O19 5826   5.591   5.248   1.396  0.0728  0.8181 -0.0229
   14CHTO   H35 5827   5.673   5.216   1.366 -0.6402 -1.6087  0.5297
   14CHTO   C21 5828   5.446   5.441   1.369  0.0443  0.3152  0.3922
   14CHTO   H49 5829   5.386   5.376   1.304  1.2941 -1.1010  0.6169
   14CHTO    N4 5830   5.364   5.430   1.490 -0.2504  0.2803  0.0827
   14CHTO   H41 5831   5.370   5.332   1.534 -0.8126  0.4378  0.5200
   14CHTO   H42 5832   5.382   5.502   1.569 -0.5179  1.0891 -0.5874
   14CHTO   C22 5833   5.436   5.583   1.307  0.2243  0.2112  0.2274
   14CHTO   H50 5834   5.445   5.670   1.372  2.0803  0.7681 -0.7630
   14CHTO   O14 5835   5.526   5.608   1.204 -0.3378 -0.1285  0.3971
   14CHTO   C23 5836   5.664   5.576   1.227 -0.4039  0.6921 -0.0575
   14CHTO   H51 5837   5.691   5.632   1.317 -1.3888  1.3033 -0.1420
   14CHTO   C34 5838   5.747   5.645   1.117  0.1685 -0.0260  0.1877
   14CHTO   O23 5839   5.714   5.781   1.117 -0.2233  0.1769 -0.0272
   14CHTO   H38 5840   5.737   5.832   1.043 -0.9061  0.5786  0.0358
   14CHTO   O16 5841   5.311   5.595   1.225 -0.9385 -0.0935 -0.7918
   14CHTO   C24 5842   5.244   5.758   1.209 -0.0106  0.0384 -0.1234
   14CHTO   H52 5843   5.148   5.758   1.157 -0.3148  1.0325  0.4252
   14CHTO   C26 5844   5.351   5.835   1.128  0.0038  0.1345 -0.0901
   14CHTO   H54 5845   5.453   5.816   1.168  0.7495  0.5528 -1.7180
   14CHTO   O20 5846   5.347   5.780   0.998  0.1193  0.0294 -0.1869
   14CHTO   H36 5847   5.365   5.688   1.002 -1.8619 -0.4784 -1.7375
   14CHTO   C30 5848   5.325   5.988   1.127  0.2985 -0.3175  0.0212
   14CHTO   H58 5849   5.238   6.008   1.064  0.4417 -0.3448 -0.1865
   14CHTO    N6 5850   5.446   6.053   1.076  0.3624 -0.2618 -0.2056
   14CHTO   H45 5851   5.463   6.151   1.117  1.4574 -0.8474  0.7807
   14CHTO   H46 5852   5.441   6.055   0.968 -0.7981 -0.1681 -0.1537
   14CHTO   C33 5853   5.277   6.045   1.268  0.0223  0.2610  0.6737
   14CHTO   H61 5854   5.358   6.045   1.342 -0.0647 -0.7945  0.7817
   14CHTO   O18 5855   5.169   5.962   1.316 -0.3369  0.5058  0.0229
   14CHTO   C28 5856   5.217   5.829   1.342 -0.6686 -0.6259 -0.2044
   14CHTO   H56 5857   5.312   5.839   1.394 -1.6894  2.2729  1.2107
   14CHTO   C35 5858   5.121   5.764   1.438  0.3138  0.5870 -0.0257
   14CHTO   O24 5859   4.987   5.751   1.403 -0.1291 -0.3516 -0.1232
   14CHTO   H39 5860   4.991   5.670   1.356 -0.3737  1.1118 -2.8004
   14CHTO    O9 5861   5.234   6.184   1.241  0.0279  0.4092 -0.6352
   14CHTO   C13 5862   5.216   6.266   1.380 -0.0650 -0.0872  0.4034
   14CHTO   H26 5863   5.197   6.203   1.469 -1.3826 -0.1250  0.1043
   14CHTO   C11 5864   5.098   6.371   1.354  0.7952 -0.9992  0.8812
   14CHTO   H24 5865   5.005   6.320   1.323 -0.3210  0.9401  0.9879
   14CHTO    O8 5866   5.118   6.459   1.244  0.1583 -0.6766 -0.2678
   14CHTO    H3 5867   5.162   6.418   1.172  1.7228  1.5992 -0.6660
   14CHTO    C9 5868   5.071   6.453   1.484 -0.0143  0.4598 -0.5337
   14CHTO   H22 5869   5.073   6.375   1.561  1.0081  0.1823 -0.8200
   14CHTO    N2 5870   4.941   6.529   1.480 -0.3492  0.0016 -0.5239
   14CHTO   H10 5871   4.875   6.499   1.560 -1.3384 -1.9571 -2.0364
   14CHTO   H11 5872   4.891   6.529   1.385 -0.3944  0.5302 -0.5033
   14CHTO    C7 5873   5.201   6.548   1.505 -0.0133  0.3602 -0.3300
   14CHTO   H20 5874   5.178   6.587   1.606 -2.9936 -2.6190  0.2630
   14CHTO    O4 5875   5.326   6.472   1.483  0.0158  0.1183 -0.0014
   14CHTO   C14 5876   5.346   6.348   1.417 -0.4190  0.2222 -0.6118
   14CHTO   H27 5877   5.405   6.289   1.491 -0.3438 -0.3035 -1.0827
   14CHTO   C18 5878   5.446   6.377   1.307 -0.5039  0.1783  0.5691
   14CHTO   O13 5879   5.572   6.409   1.360  0.0698  0.5005 -0.1318
   14CHTO    H7 5880   5.609   6.487   1.324 -0.3855  0.9369  0.3421
   14CHTO    O2 5881   5.196   6.685   1.400 -0.0242  0.4216 -0.0805
   14CHTO    C1 5882   5.255   6.807   1.446  0.2503  0.1651  0.5533
   14CHTO   H14 5883   5.277   6.870   1.357 -0.0168 -0.3368  0.1317
   14CHTO    C2 5884   5.393   6.794   1.527  0.4098  0.1069  0.0718
   14CHTO   H15 5885   5.363   6.750   1.623 -0.7238  2.9133  1.0436
   14CHTO    O6 5886   5.487   6.725   1.449 -0.5146  0.5422  0.1158
   14CHTO    H1 5887   5.553   6.697   1.510 -0.4281 -0.0590 -0.2512
   14CHTO    C3 5888   5.453   6.940   1.555  0.4138 -0.0055  0.4861
   14CHTO   H16 5889   5.491   6.980   1.460 -0.5064 -3.0387 -1.2382
   14CHTO    N1 5890   5.572   6.934   1.644 -0.6669 -0.3823  0.1039
   14CHTO    H8 5891   5.666   6.905   1.601 -0.0407  2.4713 -0.5691
   14CHTO    H9 5892   5.580   7.018   1.712 -2.5764 -0.7998  0.8806
   14CHTO    C4 5893   5.335   7.040   1.607  0.0905  0.1984  1.0836
   14CHTO   H17 5894   5.317   7.014   1.711  1.1272 -1.7945  0.7821
   14CHTO    O1 5895   5.207   7.032   1.541  0.1434 -0.2018  0.0222
   14CHTO    C5 5896   5.162   6.892   1.542  0.5185  0.1264  0.8859
   14CHTO   H18 5897   5.164   6.850   1.642  0.3759 -1.5113  0.2174
   14CHTO   C16 5898   5.014   6.895   1.499 -0.3639  0.4240  0.3781
   14CHTO   O11 5899   4.933   6.973   1.590 -0.0145  0.4143  0.0236
   14CHTO    H5 5900   4.849   6.968   1.548  1.1606 -0.7885 -2.2724
   14CHTO    O3 5901   5.386   7.176   1.593  0.9114 -0.4786 -0.2734
   14CHTO    C6 5902   5.312   7.277   1.667  0.1387 -0.3124  0.0863
   14CHTO   H19 5903   5.218   7.231   1.698  0.2581 -0.5892  0.0428
   14CHTO    C8 5904   5.388   7.326   1.795 -0.7817  0.8464 -0.4522
   14CHTO   H21 5905   5.495   7.329   1.771 -0.6158  0.2146  0.2179
   14CHTO    O7 5906   5.373   7.222   1.890 -0.0424  0.3017 -0.2838
   14CHTO    H2 5907   5.416   7.246   1.970  0.1454  1.7507 -0.8154
   14CHTO   C12 5908   5.339   7.466   1.839  0.1838 -0.6142 -0.5766
   14CHTO   H25 5909   5.235   7.445   1.874 -0.6395  0.2558 -2.4133
   14CHTO    N3 5910   5.417   7.513   1.955 -0.0632 -0.1569 -0.2865
   14CHTO   H12 5911   5.459   7.433   2.014  0.3296  0.0986 -0.2226
   14CHTO   H13 5912   5.494   7.584   1.927 -1.0619  0.9582 -0.2593
   14CHTO   C15 5913   5.329   7.562   1.722 -0.1769  0.6053 -0.1875
   14CHTO   H28 5914   5.427   7.577   1.676  1.0333 -3.5562  0.8431
   14CHTO   O10 5915   5.268   7.706   1.747  0.4104  0.1849  0.5903
   14CHTO    H4 5916   5.322   7.770   1.789 -2.3804  1.8001  1.8549
   14CHTO    O5 5917   5.233   7.509   1.625  0.4533  0.2977  0.0077
   14CHTO   C10 5918   5.280   7.382   1.558 -0.2740 -0.0988 -0.1490
   14CHTO   H23 5919   5.377   7.402   1.511  0.4085 -0.5370  1.0481
   14CHTO   C17 5920   5.175   7.334   1.455  0.1270 -0.2670 -0.0100
   14CHTO   O12 5921   5.049   7.304   1.507  0.0133 -0.0297  0.6192
   14CHTO    H6 5922   4.990   7.296   1.435  1.4672  1.2908 -0.7541
   15CHTO  H203 5923   7.163   4.459   1.533 -3.4250 -0.9006  2.2575
   15CHTO   O82 5924   7.200   4.373   1.534 -0.1063  0.3891 -0.1991
   15CHTO  C123 5925   7.162   4.283   1.424 -0.0794  0.2712  0.5583
   15CHTO  H227 5926   7.136   4.185   1.468  1.6490  0.7969  2.8521
   15CHTO   O77 5927   7.057   4.353   1.361 -0.0182 -0.2154 -0.2644
   15CHTO  C118 5928   6.984   4.282   1.258 -0.3058  0.3044  0.5059
   15CHTO  H222 5929   6.936   4.200   1.312 -1.3642 -0.3933 -1.4713
   15CHTO  C125 5930   6.868   4.369   1.195 -0.6021  0.6684  0.3223
   15CHTO   O84 5931   6.764   4.400   1.283  0.2324  0.0868  0.3213
   15CHTO  H205 5932   6.689   4.445   1.247  0.4056  1.2156  1.3284
   15CHTO  C114 5933   7.090   4.236   1.154 -0.6806  0.5460  0.5576
   15CHTO  H218 5934   7.120   4.325   1.099 -1.0052  0.7727  0.7424
   15CHTO  C116 5935   7.216   4.173   1.202 -0.3871  0.4933 -0.0930
   15CHTO  H220 5936   7.197   4.067   1.228 -0.6101 -0.0647 -2.4843
   15CHTO   O79 5937   7.299   4.164   1.085  0.2338  0.2756 -0.4743
   15CHTO  H201 5938   7.325   4.250   1.059  0.5036 -0.8417 -4.0320
   15CHTO  C120 5939   7.279   4.255   1.321 -0.3437 -0.1160  0.9218
   15CHTO  H224 5940   7.310   4.343   1.261 -0.1741  0.1799  1.4459
   15CHTO   N21 5941   7.404   4.183   1.364  0.0555 -0.1859  0.5545
   15CHTO  H211 5942   7.441   4.120   1.285  1.7253 -0.0176  1.1759
   15CHTO  H212 5943   7.480   4.247   1.408  0.0067  1.4145 -1.5957
   15CHTO   O75 5944   7.012   4.160   1.061 -0.0525  0.0292  0.2532
   15CHTO  C112 5945   7.000   3.999   1.096  0.3153 -0.9958 -0.4594
   15CHTO  H216 5946   6.992   3.998   1.205 -1.1836 -2.2407 -0.5678
   15CHTO   O73 5947   7.114   3.927   1.048 -0.1383 -0.7788 -0.2380
   15CHTO  C113 5948   7.107   3.783   1.052 -0.3307 -0.6970  0.2931
   15CHTO  H217 5949   7.081   3.747   1.154  1.5899 -2.0255  0.3551
   15CHTO  C124 5950   7.236   3.712   0.999  0.1103 -0.6311 -0.0756
   15CHTO   O83 5951   7.337   3.745   1.091  0.6333 -0.2126 -0.2929
   15CHTO  H204 5952   7.355   3.833   1.066 -0.0401  0.1796  0.5911
   15CHTO  C109 5953   6.985   3.729   0.976 -0.1130 -0.4050 -0.0646
   15CHTO  H213 5954   6.998   3.765   0.873 -0.3816 -2.0750 -0.7017
   15CHTO  C110 5955   6.858   3.792   1.035 -0.4747 -0.2456  0.0181
   15CHTO  H214 5956   6.849   3.759   1.139  0.6368  1.7394  0.7746
   15CHTO   O78 5957   6.744   3.744   0.960  0.6902 -0.0179 -0.0990
   15CHTO  H200 5958   6.747   3.651   0.955  0.4166  0.0001 -0.7401
   15CHTO  C111 5959   6.859   3.948   1.035  0.2028  0.0647 -0.6079
   15CHTO  H215 5960   6.847   3.983   0.931 -2.0418 -0.4122 -0.5288
   15CHTO   N19 5961   6.743   4.008   1.102 -0.4968  0.3106 -0.0692
   15CHTO  H207 5962   6.748   4.116   1.109 -0.9468  0.3679 -0.5539
   15CHTO  H208 5963   6.651   3.977   1.056 -0.8139 -2.2570  2.1610
   15CHTO   O74 5964   6.988   3.587   0.972 -0.3446 -0.2003  0.9726
   15CHTO  C115 5965   6.938   3.522   0.825  0.4117 -0.4457  1.0992
   15CHTO  H219 5966   6.835   3.550   0.803  0.6827 -0.7276 -0.5930
   15CHTO   O76 5967   7.026   3.581   0.698 -0.2442 -0.0620  0.1611
   15CHTO  C122 5968   7.134   3.497   0.672 -0.2222  0.8489  0.0269
   15CHTO  H226 5969   7.193   3.491   0.764  0.0377 -0.7732 -0.2303
   15CHTO  C126 5970   7.226   3.578   0.572 -0.0538 -0.8052  0.0882
   15CHTO   O85 5971   7.359   3.528   0.553 -0.0081 -0.0761 -0.1843
   15CHTO  H206 5972   7.416   3.552   0.623  0.6276  0.2611 -0.8056
   15CHTO  C121 5973   7.093   3.360   0.613  0.2836  0.9431 -0.0305
   15CHTO  H225 5974   7.085   3.354   0.503 -1.8257  1.0309  0.0924
   15CHTO   O81 5975   7.184   3.260   0.644 -0.4305 -0.6491  0.3762
   15CHTO  H202 5976   7.198   3.247   0.736  0.5261  0.7859  0.4411
   15CHTO  C119 5977   6.956   3.320   0.680 -0.1994  0.1237  0.0936
   15CHTO  H223 5978   6.883   3.376   0.621 -2.1406 -1.6626  0.7051
   15CHTO  C117 5979   6.946   3.367   0.829 -0.0269  0.0879 -0.2074
   15CHTO  H221 5980   7.030   3.346   0.896 -1.0995 -0.1862  1.0752
   15CHTO   N20 5981   6.831   3.314   0.904 -0.0801  0.4035 -0.5263
   15CHTO  H209 5982   6.841   3.362   1.000  1.1446 -1.2247  0.1870
   15CHTO  H210 5983   6.836   3.207   0.916  0.0959  0.6201  1.4152
   15CHTO   O80 5984   6.920   3.173   0.644  0.5371 -0.5352  0.2322
   15CHTO  C103 5985   6.756   3.132   0.611  0.3112  0.3440  0.0122
   15CHTO  H190 5986   6.699   3.126   0.704  1.9250 -1.1410  0.9321
   15CHTO  C101 5987   6.680   3.227   0.509 -0.2511  0.2843 -0.3080
   15CHTO  H188 5988   6.738   3.242   0.418 -1.3739 -0.9635 -1.2420
   15CHTO   O68 5989   6.652   3.362   0.579 -0.3079  0.2010 -0.2314
   15CHTO  H168 5990   6.581   3.350   0.638 -1.3299  0.7175 -1.3449
   15CHTO   C99 5991   6.543   3.151   0.459  0.7068  0.5506 -0.3188
   15CHTO  H186 5992   6.476   3.129   0.545 -0.2223  1.4637 -0.7947
   15CHTO   N17 5993   6.454   3.228   0.367 -0.2683 -0.4000 -0.3140
   15CHTO  H174 5994   6.351   3.204   0.385 -0.0566 -0.7619  0.4420
   15CHTO  H175 5995   6.472   3.334   0.380  1.5401 -0.5393 -1.5256
   15CHTO   C97 5996   6.586   3.016   0.404  0.5293 -0.4423  0.0634
   15CHTO  H184 5997   6.652   3.030   0.318 -1.6097  1.5445 -1.2913
   15CHTO   O64 5998   6.648   2.935   0.503  0.0062  0.1921  0.0101
   15CHTO  C104 5999   6.770   2.979   0.553 -0.5211  0.3825 -0.2240
   15CHTO  H191 6000   6.855   2.972   0.485  0.6415  1.7398  1.0369
   15CHTO  C108 6001   6.809   2.894   0.673 -0.0556  0.4693  0.7868
   15CHTO   O71 6002   6.843   2.761   0.650  0.3448  0.0376 -0.2160
   15CHTO  H171 6003   6.769   2.725   0.604  1.0738 -0.7916 -0.7645
   15CHTO   O62 6004   6.481   2.924   0.359 -0.4830  0.5093 -0.3507
   15CHTO   C91 6005   6.531   2.821   0.274  0.7112 -0.8618 -0.1418
   15CHTO  H178 6006   6.600   2.862   0.200  0.1070  0.7422  0.1480
   15CHTO   C92 6007   6.405   2.781   0.186 -0.9466 -0.4218  0.5312
   15CHTO  H179 6008   6.367   2.874   0.142  2.4367 -0.2753 -2.2705
   15CHTO   O66 6009   6.449   2.687   0.078 -0.1839 -0.4798  0.2724
   15CHTO  H166 6010   6.511   2.623   0.107 -0.9363 -1.6426 -0.6113
   15CHTO   C93 6011   6.295   2.699   0.272 -0.2838  0.8659 -0.7891
   15CHTO  H180 6012   6.229   2.643   0.204 -0.3190  0.0371 -0.0788
   15CHTO   N16 6013   6.202   2.786   0.340  0.2131  0.0234  0.4154
   15CHTO  H172 6014   6.259   2.843   0.413  0.4291 -1.3888  1.3748
   15CHTO  H173 6015   6.124   2.734   0.394 -0.6729  1.0688  0.1653
   15CHTO   C94 6016   6.368   2.592   0.364  0.6304 -0.2191 -0.4690
   15CHTO  H181 6017   6.356   2.611   0.471  0.5073  1.0443 -0.6939
   15CHTO   O61 6018   6.505   2.572   0.328 -0.1008 -0.1292  0.1119
   15CHTO   C95 6019   6.591   2.685   0.345  0.8244  0.2817  0.5557
   15CHTO  H182 6020   6.616   2.697   0.450  0.9702 -0.5624  0.6147
   15CHTO  C106 6021   6.736   2.653   0.291 -0.2403 -0.2828  1.0049
   15CHTO   O69 6022   6.817   2.774   0.295  0.1344 -0.2700 -0.2062
   15CHTO  H169 6023   6.841   2.795   0.383 -0.8728 -0.1577  0.0537
   15CHTO   O63 6024   6.295   2.446   0.322  0.2519 -0.4137 -0.5924
   15CHTO   C96 6025   6.342   2.342   0.435 -0.2725  0.1758  0.1504
   15CHTO  H183 6026   6.353   2.386   0.534  0.6094 -0.9336  0.5466
   15CHTO   C98 6027   6.476   2.263   0.398 -0.1265 -0.1530  0.4874
   15CHTO  H185 6028   6.485   2.256   0.289  0.3726  0.6588  0.4743
   15CHTO   O67 6029   6.585   2.346   0.448  0.4359  0.4088  0.4368
   15CHTO  H167 6030   6.596   2.424   0.397 -0.7600 -0.2896 -0.9440
   15CHTO  C102 6031   6.500   2.111   0.453  0.9635 -0.7236 -0.4025
   15CHTO  H189 6032   6.517   2.120   0.561 -0.6219  2.3079 -0.3367
   15CHTO   N18 6033   6.621   2.051   0.395 -0.4558 -0.1394 -0.1711
   15CHTO  H176 6034   6.687   2.009   0.470 -1.4601 -0.2765  0.6452
   15CHTO  H177 6035   6.684   2.124   0.347  1.2258 -0.6106  1.2653
   15CHTO  C105 6036   6.364   2.049   0.432 -1.1383 -0.0502  0.8178
   15CHTO  H192 6037   6.329   2.059   0.330  1.3207  0.0946 -0.0534
   15CHTO   O65 6038   6.266   2.120   0.508  0.2633  0.0525 -0.3919
   15CHTO  C100 6039   6.222   2.245   0.448  0.1451  0.0224 -0.2728
   15CHTO  H187 6040   6.174   2.227   0.350 -1.9294 -0.1158  0.7400
   15CHTO  C107 6041   6.102   2.299   0.535  0.2695 -0.7302 -0.2273
   15CHTO   O70 6042   6.076   2.436   0.499  0.3037 -0.4859  0.3879
   15CHTO  H170 6043   6.136   2.494   0.541  0.3715  0.6748 -1.2778
   15CHTO   O57 6044   6.366   1.896   0.460 -0.0712 -0.0473 -0.2774
   15CHTO   C85 6045   6.370   1.852   0.597  0.7273  0.4801  0.4046
   15CHTO  H157 6046   6.388   1.938   0.665  0.9806  1.3901 -0.8034
   15CHTO   C83 6047   6.483   1.747   0.610 -0.3636  0.0584 -0.1260
   15CHTO  H155 6048   6.573   1.805   0.590  0.2436 -1.0679 -0.7428
   15CHTO   O56 6049   6.477   1.650   0.503  0.0927  0.1349 -0.1194
   15CHTO  H135 6050   6.420   1.579   0.526  2.0995 -1.2469  0.7403
   15CHTO   C81 6051   6.483   1.691   0.749  0.7064 -0.6338  0.3217
   15CHTO  H153 6052   6.489   1.779   0.812 -0.7741  0.0184 -0.3996
   15CHTO   N14 6053   6.601   1.608   0.783  0.1206 -0.1926 -0.3863
   15CHTO  H141 6054   6.689   1.667   0.766 -0.2377  1.0814  2.0970
   15CHTO  H142 6055   6.593   1.575   0.884  0.3933 -1.9149 -0.9198
   15CHTO   C79 6056   6.346   1.618   0.776 -0.8326  0.1374  0.0845
   15CHTO  H151 6057   6.345   1.596   0.883 -0.1333  0.3654  0.1405
   15CHTO   O52 6058   6.236   1.705   0.755 -0.0527  0.0908 -0.0139
   15CHTO   C86 6059   6.237   1.775   0.625  0.6205 -0.7947 -0.1396
   15CHTO  H158 6060   6.223   1.697   0.548  0.7819 -0.8075 -0.1562
   15CHTO   C90 6061   6.107   1.867   0.618  0.1870  0.6954 -0.0031
   15CHTO   O60 6062   6.085   1.944   0.734  0.4870  0.3395  0.3192
   15CHTO  H138 6063   6.118   2.032   0.736  0.0435  0.5235 -0.3147
   15CHTO   O50 6064   6.326   1.491   0.717 -1.0850 -0.0135 -0.1198
   15CHTO   C73 6065   6.212   1.401   0.693 -1.2549 -0.2405  0.1093
   15CHTO  H145 6066   6.133   1.456   0.640 -0.2102  2.6474  1.4510
   15CHTO   C74 6067   6.156   1.339   0.824  0.7013 -0.3307 -0.2694
   15CHTO  H146 6068   6.138   1.429   0.886  0.3806 -0.2953 -0.4137
   15CHTO   O54 6069   6.040   1.259   0.787 -0.3361 -0.6267 -0.3555
   15CHTO  H133 6070   5.978   1.252   0.857 -0.0184  0.0971  0.0051
   15CHTO   C75 6071   6.276   1.250   0.880 -0.5593  0.0361 -0.0045
   15CHTO  H147 6072   6.356   1.321   0.906  0.1667 -0.9769  0.5769
   15CHTO   N13 6073   6.254   1.174   1.008  0.2328  0.1120  0.6651
   15CHTO  H139 6074   6.226   1.072   0.987  1.6708 -0.0022 -0.7685
   15CHTO  H140 6075   6.167   1.216   1.057 -0.2227 -1.4723  1.2288
   15CHTO   C76 6076   6.333   1.153   0.760  0.2979  0.0270 -0.1482
   15CHTO  H148 6077   6.264   1.071   0.740  3.0793 -2.3246 -0.4362
   15CHTO   O49 6078   6.366   1.218   0.636 -0.3184 -0.6474  0.5343
   15CHTO   C77 6079   6.259   1.293   0.591 -1.2240 -0.3586  0.0444
   15CHTO  H149 6080   6.172   1.233   0.563 -0.8862 -0.3756 -0.9908
   15CHTO   C88 6081   6.308   1.369   0.465 -0.1252 -0.1508  0.1663
   15CHTO   O58 6082   6.214   1.471   0.419  0.0417 -0.4264  0.3683
   15CHTO  H136 6083   6.244   1.521   0.345 -0.1422  0.7016  1.0439
   15CHTO   O51 6084   6.477   1.113   0.813 -0.1606  0.0577  0.2947
   15CHTO   C78 6085   6.556   0.981   0.746  0.0351  1.0469  0.6544
   15CHTO  H150 6086   6.546   0.971   0.636  2.8856 -1.4488  0.5378
   15CHTO   C80 6087   6.517   0.845   0.813  0.3242 -1.2301 -0.0886
   15CHTO  H152 6088   6.553   0.847   0.918  0.6968 -1.7735 -0.2063
   15CHTO   O55 6089   6.376   0.824   0.800  0.3459  0.7062 -0.3857
   15CHTO  H134 6090   6.323   0.897   0.825  0.8116  0.9357 -0.0681
   15CHTO   C84 6091   6.596   0.733   0.736  0.0501  0.1027 -0.3369
   15CHTO  H156 6092   6.560   0.752   0.634 -2.1476 -0.1429  0.3672
   15CHTO   N15 6093   6.558   0.600   0.778 -0.8253  0.2133  0.1285
   15CHTO  H143 6094   6.505   0.551   0.699 -3.2696  0.0093  1.8308
   15CHTO  H144 6095   6.504   0.589   0.870 -0.7542 -2.1334 -0.0795
   15CHTO   C87 6096   6.748   0.754   0.749 -0.1974 -0.2148  0.3185
   15CHTO  H159 6097   6.778   0.716   0.847  2.9153 -1.0988 -0.9239
   15CHTO   O53 6098   6.802   0.922   0.717  0.2740  0.2565  0.4831
   15CHTO   C82 6099   6.707   1.021   0.767 -0.2007  1.1752 -0.0266
   15CHTO  H154 6100   6.724   1.031   0.875 -0.5447 -0.7846  0.2370
   15CHTO   C89 6101   6.743   1.154   0.697  0.5706 -0.2787 -0.6904
   15CHTO   O59 6102   6.705   1.266   0.771  0.0427 -0.0380 -0.0970
   15CHTO  H137 6103   6.764   1.331   0.740  1.0368 -0.7310  0.3173
   15CHTO   O45 6104   6.833   0.666   0.636 -0.1408 -0.5273 -0.1263
   15CHTO   C67 6105   6.977   0.692   0.634 -0.6611  0.3414 -0.7849
   15CHTO  H124 6106   6.998   0.787   0.683  2.9084 -0.0900 -1.3811
   15CHTO   C65 6107   7.047   0.574   0.713  0.3720  0.2985  0.3166
   15CHTO  H122 6108   6.997   0.480   0.689 -0.9708  0.4897  2.2918
   15CHTO   O44 6109   7.021   0.607   0.849  0.1747  0.3177  0.0966
   15CHTO  H102 6110   7.023   0.533   0.907  0.7711  1.9587  2.2084
   15CHTO   C63 6111   7.202   0.551   0.675 -1.1026  0.0748 -0.1361
   15CHTO  H120 6112   7.209   0.468   0.604 -2.6448  1.5277 -2.0295
   15CHTO   N11 6113   7.295   0.498   0.787  1.8353 -0.0363 -0.2252
   15CHTO  H108 6114   7.282   0.545   0.882  0.9499 -0.8250  0.0479
   15CHTO  H109 6115   7.398   0.502   0.758  1.6341 -1.3358 -1.1393
   15CHTO   C61 6116   7.258   0.675   0.614 -0.3817 -0.4421  0.1940
   15CHTO  H118 6117   7.359   0.645   0.584 -0.5286 -1.5228  0.7539
   15CHTO   O40 6118   7.189   0.708   0.497 -0.7393 -0.1735 -0.0180
   15CHTO   C68 6119   7.046   0.707   0.486  0.2917 -0.0558  0.0784
   15CHTO  H125 6120   7.026   0.622   0.418  0.6224  0.1366 -0.2596
   15CHTO   C72 6121   6.993   0.838   0.417  0.1470  0.2361  0.3170
   15CHTO   O48 6122   7.018   0.961   0.485 -0.2744  0.2907  0.2449
   15CHTO  H105 6123   6.942   1.015   0.484 -0.2168  0.3723  0.2548
   15CHTO   O38 6124   7.267   0.789   0.711  0.2728 -0.3203  0.5082
   15CHTO   C55 6125   7.307   0.922   0.664  0.0138 -0.5543  0.8258
   15CHTO  H112 6126   7.252   0.941   0.571  2.1820  1.1067 -0.1411
   15CHTO   C56 6127   7.467   0.925   0.638  0.4820 -0.7346 -0.3674
   15CHTO  H113 6128   7.512   0.874   0.724 -0.6346  2.7616  2.4302
   15CHTO   O42 6129   7.500   0.855   0.515  0.2772 -0.1182  0.2263
   15CHTO  H100 6130   7.428   0.852   0.456 -0.4225  1.9611  0.9379
   15CHTO   C57 6131   7.532   1.073   0.616 -0.8929 -0.9736 -0.8385
   15CHTO  H114 6132   7.515   1.108   0.514 -1.9614 -1.2332 -0.7530
   15CHTO   N10 6133   7.678   1.087   0.624  0.3282 -0.3235 -0.6854
   15CHTO  H106 6134   7.712   1.031   0.710 -1.5694  0.6603  0.7309
   15CHTO  H107 6135   7.722   1.044   0.535 -0.9206 -1.1300 -0.9301
   15CHTO   C58 6136   7.473   1.171   0.722  0.2207 -0.7167 -0.0928
   15CHTO  H115 6137   7.513   1.145   0.822 -1.4671  1.7848  1.2858
   15CHTO   O37 6138   7.329   1.158   0.727 -0.2501  0.9154  0.1729
   15CHTO   C59 6139   7.284   1.032   0.774 -0.1516  0.7574  0.5722
   15CHTO  H116 6140   7.333   1.007   0.868 -1.5574 -0.7954  0.9131
   15CHTO   C70 6141   7.134   1.045   0.792  0.0687 -0.1097  0.8207
   15CHTO   O46 6142   7.101   1.094   0.921 -0.0028  0.1502  0.2966
   15CHTO  H103 6143   7.009   1.093   0.937  0.2090  1.5725  1.7109
   15CHTO   O39 6144   7.501   1.336   0.692 -0.2369 -0.9705  0.3433
   15CHTO   C60 6145   7.404   1.387   0.591  0.4885  0.2899 -0.3301
   15CHTO  H117 6146   7.384   1.300   0.528  0.3486  0.1918 -0.1510
   15CHTO   C62 6147   7.284   1.451   0.657 -0.2651  0.2556  0.0503
   15CHTO  H119 6148   7.242   1.373   0.725 -0.5469  1.4128  1.2213
   15CHTO   O43 6149   7.328   1.561   0.743  0.3334  0.0873 -0.4471
   15CHTO  H101 6150   7.367   1.630   0.692  0.8054  0.1675  0.0195
   15CHTO   C66 6151   7.180   1.484   0.537 -0.0068 -0.7893 -0.2272
   15CHTO  H123 6152   7.175   1.396   0.472 -0.9226  0.3113 -1.6740
   15CHTO   N12 6153   7.043   1.514   0.583 -0.0553 -0.2038 -0.0721
   15CHTO  H110 6154   7.009   1.425   0.634  1.4839 -1.4950 -1.2006
   15CHTO  H111 6155   7.044   1.606   0.638 -3.2602  0.4587 -1.0224
   15CHTO   C69 6156   7.241   1.601   0.459  0.2543  0.3718  0.5278
   15CHTO  H126 6157   7.234   1.702   0.505  1.1849  0.3019  0.8401
   15CHTO   O41 6158   7.384   1.571   0.431 -0.4329 -0.5253  0.4755
   15CHTO   C64 6159   7.484   1.481   0.505 -0.5824  0.1161  0.5833
   15CHTO  H121 6160   7.545   1.554   0.563  0.0736  0.2281 -0.2519
   15CHTO   C71 6161   7.568   1.396   0.405  0.2377 -0.0762 -0.1555
   15CHTO   O47 6162   7.653   1.483   0.325 -0.1692 -0.0885  0.2396
   15CHTO  H104 6163   7.636   1.466   0.235  2.1670 -1.0762 -0.0357
   15CHTO   O34 6164   7.172   1.608   0.323  0.3176  0.4065 -0.1678
   15CHTO   C49 6165   7.132   1.675   0.220  0.3642 -0.5539 -0.4908
   15CHTO   H91 6166   7.096   1.595   0.154 -0.1890  0.1724 -1.0768
   15CHTO   C47 6167   7.256   1.731   0.152 -0.4381 -0.2086 -0.1882
   15CHTO   H89 6168   7.213   1.764   0.055  0.6214 -0.9178 -0.9065
   15CHTO   O33 6169   7.358   1.633   0.126 -0.2383 -0.2398 -0.7934
   15CHTO   H70 6170   7.336   1.589   0.046  1.3053  1.3356 -2.1230
   15CHTO   C45 6171   7.311   1.863   0.228  0.3452  0.7970 -0.1284
   15CHTO   H87 6172   7.333   1.846   0.335 -2.6915  2.6204  0.8642
   15CHTO    N8 6173   7.431   1.920   0.162 -0.1459 -0.4491  0.2120
   15CHTO   H75 6174   7.518   1.869   0.202  0.9728 -0.4388 -2.1676
   15CHTO   H76 6175   7.426   1.906   0.055  1.1964  0.7716 -0.0261
   15CHTO   C43 6176   7.190   1.971   0.232 -0.3176 -0.0770 -0.2547
   15CHTO   H85 6177   7.231   2.057   0.285  1.3671 -0.5141 -0.8146
   15CHTO   O29 6178   7.075   1.915   0.305  0.0691  0.0015 -0.0196
   15CHTO   C50 6179   7.029   1.786   0.261 -0.2274  0.2988 -0.0359
   15CHTO   H92 6180   6.964   1.756   0.344 -1.3526 -0.2488 -1.0994
   15CHTO   C54 6181   6.918   1.821   0.156 -0.0156 -0.6262  0.5983
   15CHTO   O36 6182   6.842   1.708   0.103 -0.3415  0.3647  0.4383
   15CHTO   H72 6183   6.761   1.738   0.067 -1.0832  0.1147  1.8654
   15CHTO   O27 6184   7.159   2.019   0.097  0.5326 -0.0485  0.1849
   15CHTO   C37 6185   7.098   2.114   0.005  0.3522 -0.8112 -0.4291
   15CHTO   H79 6186   7.016   2.066  -0.051 -0.8895  0.2032  0.4813
   15CHTO   C38 6187   7.038   2.238   0.075 -0.4514  0.7564 -0.9322
   15CHTO   H80 6188   7.115   2.288   0.137 -1.6244  0.4243  0.8395
   15CHTO   O31 6189   6.943   2.185   0.172  0.7121  0.2351  0.2249
   15CHTO   H68 6190   6.893   2.255   0.211 -1.0720  0.4472 -2.3497
   15CHTO   C39 6191   6.973   2.335  -0.029  0.3987 -0.0120  0.6629
   15CHTO   H81 6192   6.892   2.280  -0.075  0.5667  0.0510  0.2890
   15CHTO    N7 6193   6.903   2.453   0.032 -0.0444  0.3350  0.1453
   15CHTO   H73 6194   6.831   2.412   0.101  0.2771 -0.0747  0.2351
   15CHTO   H74 6195   6.974   2.523   0.073  0.4361  0.4213 -0.8353
   15CHTO   C40 6196   7.081   2.367  -0.142  0.6529  0.9616 -0.1227
   15CHTO   H82 6197   7.133   2.456  -0.106  4.0099 -0.7373 -0.6352
   15CHTO   O26 6198   7.173   2.265  -0.183 -0.1348 -0.0298 -0.0365
   15CHTO   C41 6199   7.208   2.158  -0.096 -0.2563 -0.2209 -0.4510
   15CHTO   H83 6200   7.292   2.200  -0.040 -1.0161 -0.3291  0.7814
   15CHTO   C52 6201   7.272   2.041  -0.181  0.4069  0.5062  0.0515
   15CHTO   O35 6202   7.185   1.940  -0.228  0.3219 -0.4235  0.2243
   15CHTO   H71 6203   7.235   1.862  -0.244 -2.8968 -2.2632 -1.3978
   15CHTO   O28 6204   7.012   2.399  -0.261 -0.2389 -0.1402 -0.2266
   15CHTO   C42 6205   7.015   2.509  -0.349 -0.1440 -0.0466 -0.6224
   15CHTO   H84 6206   6.982   2.472  -0.447 -0.1379 -1.5991 -0.0438
   15CHTO   C44 6207   7.153   2.585  -0.373  0.4712  0.0783  0.6393
   15CHTO   H86 6208   7.191   2.623  -0.278 -0.6578 -0.2343  1.2189
   15CHTO   O32 6209   7.247   2.484  -0.415  0.1104 -0.1712 -0.0445
   15CHTO   H69 6210   7.258   2.423  -0.345 -0.3159 -1.3470 -0.9790
   15CHTO   C48 6211   7.150   2.709  -0.474  0.7032  0.2111  0.2304
   15CHTO   H90 6212   7.124   2.665  -0.571  5.2343 -2.4734  0.0505
   15CHTO    N9 6213   7.285   2.775  -0.492 -0.1252 -0.7665 -0.4856
   15CHTO   H77 6214   7.284   2.838  -0.580  1.0170 -1.6314 -1.1408
   15CHTO   H78 6215   7.375   2.716  -0.502  0.1467 -0.1897 -1.5707
   15CHTO   C51 6216   7.044   2.814  -0.434 -0.0637 -0.0009 -0.0969
   15CHTO   H93 6217   7.074   2.868  -0.345 -1.9645 -0.3584  0.7836
   15CHTO   O30 6218   6.913   2.751  -0.419 -0.6400  0.2519  0.2096
   15CHTO   C46 6219   6.909   2.622  -0.307  0.6869 -0.6759  1.0122
   15CHTO   H88 6220   6.927   2.658  -0.206  1.9643  0.4726  0.4006
   15CHTO   C53 6221   6.769   2.556  -0.317  0.7507 -0.9025 -0.3531
   15CHTO   O72 6222   6.673   2.668  -0.336  0.4651  0.0551 -0.2408
   15CHTO  H199 6223   6.590   2.626  -0.354  0.7181 -1.0683  1.1348
   15CHTO   O22 6224   7.031   2.913  -0.539  0.5326  0.0705  0.3721
   15CHTO   C31 6225   6.983   3.050  -0.512 -0.0893 -0.3785 -0.4223
   15CHTO   H59 6226   6.967   3.092  -0.614  1.0296 -0.6244 -0.7063
   15CHTO   C29 6227   6.843   3.041  -0.443 -0.1154  0.0931  0.0842
   15CHTO   H57 6228   6.866   2.998  -0.345  1.2400  0.2223 -0.1618
   15CHTO   O21 6229   6.746   2.962  -0.516 -0.4736 -0.8489  0.0568
   15CHTO   H37 6230   6.666   2.958  -0.468  0.8925 -0.3709  2.4641
   15CHTO   C27 6231   6.788   3.191  -0.418 -0.2120 -0.4488  0.4155
   15CHTO   H55 6232   6.790   3.242  -0.515 -0.9478 -1.4483 -0.1380
   15CHTO    N5 6233   6.651   3.206  -0.367 -0.2808 -0.1552 -0.4720
   15CHTO   H43 6234   6.627   3.311  -0.369 -1.1161 -0.1389  3.9337
   15CHTO   H44 6235   6.582   3.171  -0.442  1.9770 -3.7085 -0.9763
   15CHTO   C25 6236   6.896   3.268  -0.341  0.5580 -0.4884 -0.7834
   15CHTO   H53 6237   6.909   3.217  -0.244  0.0104 -0.5757 -0.7517
   15CHTO   O17 6238   7.014   3.274  -0.426  0.3919 -0.5612 -0.1545
   15CHTO   C32 6239   7.076   3.149  -0.440 -0.4273  0.7111  0.2548
   15CHTO   H60 6240   7.096   3.108  -0.341  1.2840  0.0487 -0.3403
   15CHTO   C36 6241   7.218   3.154  -0.513  0.1594 -0.0631 -0.3427
   15CHTO   O25 6242   7.302   3.261  -0.459 -0.4037  0.1058  0.1473
   15CHTO   H40 6243   7.393   3.242  -0.475 -0.4641 -0.4262  0.4065
   15CHTO   O15 6244   6.846   3.411  -0.319 -0.0858 -0.3238  0.0166
   15CHTO   C19 6245   6.890   3.540  -0.265 -0.5942  0.5649 -0.2442
   15CHTO   H47 6246   6.960   3.572  -0.344 -0.9600  0.7966 -0.4772
   15CHTO   C20 6247   6.767   3.641  -0.259 -0.2137 -0.2663  0.2386
   15CHTO   H48 6248   6.679   3.598  -0.208 -0.1332 -0.0292  0.5823
   15CHTO   O19 6249   6.729   3.668  -0.399 -0.2419 -0.2107  0.3623
   15CHTO   H35 6250   6.655   3.726  -0.401 -0.4282 -0.4978 -1.7572
   15CHTO   C21 6251   6.806   3.783  -0.185 -0.4701  0.0305 -0.1108
   15CHTO   H49 6252   6.870   3.842  -0.250 -1.0753  1.7903  0.8522
   15CHTO    N4 6253   6.686   3.866  -0.159 -0.1600  0.2032  0.6224
   15CHTO   H41 6254   6.607   3.864  -0.232  0.6008  1.3661 -0.2578
   15CHTO   H42 6255   6.702   3.968  -0.126 -3.9679  0.9111  0.5070
   15CHTO   C22 6256   6.897   3.762  -0.059  0.7659  0.7726 -0.2268
   15CHTO   H50 6257   6.837   3.724   0.023 -0.7372  0.4191 -1.4618
   15CHTO   O14 6258   6.999   3.667  -0.096 -0.4943 -0.0792 -0.0726
   15CHTO   C23 6259   6.963   3.540  -0.131  0.5044 -0.3032 -0.2062
   15CHTO   H51 6260   6.892   3.508  -0.053 -0.3134 -1.0792 -1.2550
   15CHTO   C34 6261   7.081   3.441  -0.119 -0.3840  0.0854 -0.1767
   15CHTO   O23 6262   7.177   3.478  -0.216  0.1416  0.3169  0.2714
   15CHTO   H38 6263   7.264   3.456  -0.189  0.1088 -1.6283 -1.1127
   15CHTO   O16 6264   6.964   3.879  -0.018 -0.1935 -0.1432 -0.4064
   15CHTO   C24 6265   6.967   3.921   0.138 -0.1056 -0.1579 -0.4193
   15CHTO   H52 6266   6.897   3.862   0.197 -1.1940  1.2901 -0.2273
   15CHTO   C26 6267   6.928   4.067   0.143  0.1066  0.0372 -0.7775
   15CHTO   H54 6268   7.000   4.124   0.081  1.9353 -0.3828  0.9153
   15CHTO   O20 6269   6.805   4.074   0.076 -1.2732  0.7602 -0.4107
   15CHTO   H36 6270   6.741   4.123   0.124 -0.3190  3.1447 -1.5232
   15CHTO   C30 6271   6.944   4.121   0.289 -0.4595  0.3622 -0.7645
   15CHTO   H58 6272   6.885   4.070   0.366  0.2171 -1.0120 -1.1468
   15CHTO    N6 6273   6.899   4.265   0.293  0.8140  0.3250 -0.3834
   15CHTO   H45 6274   6.988   4.321   0.320  0.7414  1.1174 -1.7594
   15CHTO   H46 6275   6.819   4.279   0.364 -0.5829 -2.2157 -1.3912
   15CHTO   C33 6276   7.089   4.107   0.330 -0.0786 -0.2643  0.0403
   15CHTO   H61 6277   7.155   4.153   0.255 -2.4652 -1.7579 -3.1002
   15CHTO   O18 6278   7.105   3.963   0.328  0.4801 -0.3990  0.0121
   15CHTO   C28 6279   7.107   3.900   0.198 -0.4519  0.3727  0.4541
   15CHTO   H56 6280   7.184   3.935   0.130  0.5410 -1.1071  0.7858
   15CHTO   C35 6281   7.132   3.746   0.215 -0.7573 -0.5930 -0.6177
   15CHTO   O24 6282   7.260   3.734   0.277  1.1755  0.4923 -0.1786
   15CHTO   H39 6283   7.265   3.642   0.296 -0.9296  0.6898  1.6476
   15CHTO    O9 6284   7.131   4.157   0.453 -0.2168  0.3001  0.0318
   15CHTO   C13 6285   7.290   4.228   0.453 -0.0957 -0.4826 -0.3559
   15CHTO   H26 6286   7.279   4.331   0.413  0.7979 -0.3440 -0.2722
   15CHTO   C11 6287   7.390   4.140   0.369 -0.2896 -0.2985  0.1263
   15CHTO   H24 6288   7.364   4.153   0.263  1.5605 -0.4162 -0.3603
   15CHTO    O8 6289   7.385   4.002   0.404 -0.3405 -0.4586 -0.6254
   15CHTO    H3 6290   7.462   3.959   0.373 -0.3948 -1.3841  0.4995
   15CHTO    C9 6291   7.529   4.202   0.396  0.0454  1.2752 -0.2172
   15CHTO   H22 6292   7.522   4.306   0.361  0.2407  1.1370 -0.6664
   15CHTO    N2 6293   7.641   4.148   0.317  0.1282 -0.7076 -0.6163
   15CHTO   H10 6294   7.726   4.209   0.341 -0.6802  0.2008 -0.0072
   15CHTO   H11 6295   7.652   4.045   0.350 -1.2386  0.1445  2.7890
   15CHTO    C7 6296   7.568   4.196   0.553  0.0238 -0.9711 -0.1196
   15CHTO   H20 6297   7.665   4.251   0.558 -0.3683 -0.2726 -0.0644
   15CHTO    O4 6298   7.478   4.267   0.633 -0.4505  0.6122 -0.1582
   15CHTO   C14 6299   7.336   4.249   0.604 -0.3391  0.2038 -0.9584
   15CHTO   H27 6300   7.282   4.341   0.634 -1.3013 -0.8014  0.4551
   15CHTO   C18 6301   7.284   4.138   0.693  0.0733  0.1284  0.1573
   15CHTO   O13 6302   7.316   4.155   0.831  0.6835 -0.0624  0.5011
   15CHTO    H7 6303   7.271   4.092   0.884 -0.8132 -0.5758 -1.3210
   15CHTO    O2 6304   7.589   4.053   0.596  0.3260 -0.4903  0.3653
   15CHTO    C1 6305   7.651   4.045   0.725 -0.5373 -0.2814 -0.2249
   15CHTO   H14 6306   7.579   4.094   0.794 -0.3168  0.3722 -0.4554
   15CHTO    C2 6307   7.798   4.107   0.758 -0.3185 -0.0417 -1.3339
   15CHTO   H15 6308   7.871   4.081   0.680  0.1821  1.1926 -1.2888
   15CHTO    O6 6309   7.790   4.251   0.769 -0.0693  0.1304 -0.6979
   15CHTO    H1 6310   7.854   4.311   0.805 -1.7236  2.7852 -2.0070
   15CHTO    C3 6311   7.864   4.052   0.901 -0.4019  0.3425 -0.3137
   15CHTO   H16 6312   7.801   4.096   0.980 -0.1292  1.0609 -0.4891
   15CHTO    N1 6313   8.004   4.094   0.919 -0.6601 -0.2542  0.1302
   15CHTO    H8 6314   8.069   4.011   0.899  2.2175  2.0035 -0.1672
   15CHTO    H9 6315   8.022   4.141   1.014 -2.2752  0.1845  0.2451
   15CHTO    C4 6316   7.845   3.898   0.921  0.2097  0.3387 -0.1795
   15CHTO   H17 6317   7.904   3.847   0.845 -1.7016 -1.5483 -0.4350
   15CHTO    O1 6318   7.705   3.865   0.898 -0.2304 -0.4625  0.0152
   15CHTO    C5 6319   7.664   3.893   0.762 -0.9691 -0.1546  0.4633
   15CHTO   H18 6320   7.738   3.851   0.693  1.0473  1.4125  1.6055
   15CHTO   C16 6321   7.525   3.822   0.745  0.4429 -0.0163  0.0881
   15CHTO   O11 6322   7.533   3.685   0.739 -0.3249  0.4822  0.1537
   15CHTO    H5 6323   7.446   3.651   0.727  1.0102 -2.7023 -1.0645
   15CHTO    O3 6324   7.884   3.868   1.056  0.6436 -0.1399 -0.0478
   15CHTO    C6 6325   7.919   3.732   1.092 -0.0587 -0.8007 -0.3917
   15CHTO   H19 6326   7.875   3.667   1.016 -1.9498  0.0429 -0.0610
   15CHTO    C8 6327   8.073   3.702   1.106  0.4278  0.3087  0.3422
   15CHTO   H21 6328   8.125   3.787   1.151  0.8583  0.1924  0.0679
   15CHTO    O7 6329   8.112   3.697   0.975  0.4382 -0.1559 -0.2230
   15CHTO    H2 6330   8.205   3.685   0.968  0.2889 -0.4441 -2.1831
   15CHTO   C12 6331   8.115   3.572   1.186  0.0612 -0.6802  0.1643
   15CHTO   H25 6332   8.089   3.494   1.111  1.5446 -1.1542  0.1377
   15CHTO    N3 6333   8.259   3.563   1.212 -0.6418  0.2944  0.6034
   15CHTO   H12 6334   8.287   3.475   1.268 -2.0219  0.2518  1.2444
   15CHTO   H13 6335   8.291   3.652   1.266  1.6205  0.8892 -1.6351
   15CHTO   C15 6336   8.013   3.561   1.311  0.7860  0.0489 -0.8477
   15CHTO   H28 6337   8.038   3.635   1.387 -0.9091  1.1812 -1.3466
   15CHTO   O10 6338   8.011   3.442   1.359 -0.0640 -0.3404  0.1357
   15CHTO    H4 6339   7.993   3.435   1.451  0.3236 -0.0973  0.2303
   15CHTO    O5 6340   7.876   3.577   1.272  0.1210  0.5334 -0.0393
   15CHTO   C10 6341   7.846   3.706   1.225 -0.1414  0.4990 -0.2704
   15CHTO   H23 6342   7.877   3.779   1.300 -1.6898  1.1015 -0.1891
   15CHTO   C17 6343   7.692   3.724   1.210 -0.0094  0.6118  0.7091
   15CHTO   O12 6344   7.648   3.863   1.192  0.0908  0.4506  0.5015
   15CHTO    H6 6345   7.564   3.859   1.151  0.6727 -0.4212 -0.6104
   16CHTO  H203 6346   6.358   4.271   0.013  0.0224 -0.9810  2.4614
   16CHTO   O82 6347   6.331   4.188  -0.022 -0.0422 -0.1452  0.4620
   16CHTO  C123 6348   6.316   4.093   0.085 -0.0215 -0.1747  0.6370
   16CHTO  H227 6349   6.213   4.093   0.122 -0.1294 -0.8248  0.3542
   16CHTO   O77 6350   6.353   3.979   0.005  0.2112  0.0898  0.2137
   16CHTO  C118 6351   6.342   3.857   0.083 -0.0900  0.2266  0.0532
   16CHTO  H222 6352   6.255   3.863   0.150 -0.0956  0.6115  0.0121
   16CHTO  C125 6353   6.328   3.742  -0.023  0.7766 -0.7984 -0.0885
   16CHTO   O84 6354   6.208   3.764  -0.093 -0.0810 -0.1567  0.1207
   16CHTO  H205 6355   6.169   3.678  -0.096  0.4595 -0.5845  3.3350
   16CHTO  C114 6356   6.473   3.853   0.171  0.3547 -0.1460 -0.3592
   16CHTO  H218 6357   6.562   3.861   0.108 -1.3336  0.2434 -2.7723
   16CHTO  C116 6358   6.463   3.974   0.269 -0.4567 -0.4593 -0.7539
   16CHTO  H220 6359   6.379   3.950   0.337  1.1896  0.6012  1.7020
   16CHTO   O79 6360   6.576   3.978   0.360 -0.4337  0.4051  0.0846
   16CHTO  H201 6361   6.565   3.904   0.416 -3.0104 -0.3277 -1.3076
   16CHTO  C120 6362   6.437   4.104   0.190  0.8155 -0.3259  0.6569
   16CHTO  H224 6363   6.534   4.122   0.139  0.8605 -0.2986  0.7521
   16CHTO   N21 6364   6.409   4.222   0.283  0.2052  0.4105  0.1864
   16CHTO  H211 6365   6.507   4.260   0.307 -0.1531  0.3195  1.8414
   16CHTO  H212 6366   6.361   4.188   0.373 -0.3540 -2.5425 -1.1743
   16CHTO   O75 6367   6.479   3.728   0.243  0.2115  0.3371  0.1991
   16CHTO  C112 6368   6.604   3.631   0.192  0.0571 -0.6607 -0.0152
   16CHTO  H216 6369   6.675   3.685   0.129  2.5051 -3.2519  0.4559
   16CHTO   O73 6370   6.543   3.518   0.126  0.0573  0.7593 -0.3037
   16CHTO  C113 6371   6.648   3.445   0.057  0.3535  0.5046 -0.9168
   16CHTO  H217 6372   6.700   3.515  -0.011  0.0505  1.3351 -0.3061
   16CHTO  C124 6373   6.587   3.335  -0.029 -0.4672  0.0747  0.1048
   16CHTO   O83 6374   6.495   3.392  -0.121 -0.7163  0.1528 -0.0286
   16CHTO  H204 6375   6.458   3.317  -0.163  1.9959 -1.5464  0.4980
   16CHTO  C109 6376   6.743   3.389   0.166 -0.1915 -0.4191  0.0014
   16CHTO  H213 6377   6.680   3.323   0.228 -0.0794 -1.3895 -0.9075
   16CHTO  C110 6378   6.809   3.503   0.258  0.5632  0.7782 -0.5023
   16CHTO  H214 6379   6.879   3.555   0.191 -0.0130  1.1897 -0.7903
   16CHTO   O78 6380   6.881   3.437   0.363 -0.2274  0.1312  0.7662
   16CHTO  H200 6381   6.820   3.419   0.432  0.5030 -2.3666  0.8347
   16CHTO  C111 6382   6.696   3.594   0.313 -0.4832 -0.0279  0.2396
   16CHTO  H215 6383   6.632   3.537   0.383  0.7834 -0.3818  1.1199
   16CHTO   N19 6384   6.741   3.715   0.392 -0.0046  0.2788 -0.1108
   16CHTO  H207 6385   6.848   3.701   0.392  0.2532  2.1180 -0.6764
   16CHTO  H208 6386   6.691   3.713   0.487  0.0823  0.2447 -0.0663
   16CHTO   O74 6387   6.845   3.314   0.092 -0.0659 -0.5469  0.1649
   16CHTO  C115 6388   6.870   3.175   0.155  0.2786  0.1830  0.2043
   16CHTO  H219 6389   6.843   3.174   0.261 -3.8043  1.7702 -0.7065
   16CHTO   O76 6390   6.768   3.074   0.096 -0.4521  0.1146 -0.1413
   16CHTO  C122 6391   6.816   2.999  -0.018  0.0090  0.4349  0.2646
   16CHTO  H226 6392   6.818   3.070  -0.100 -2.2531 -1.8778 -1.8726
   16CHTO  C126 6393   6.708   2.884  -0.058  0.1127 -0.5895  0.2558
   16CHTO   O85 6394   6.587   2.941  -0.098 -0.0815 -1.4516  0.0343
   16CHTO  H206 6395   6.602   2.997  -0.172  2.0454 -0.8689  0.8699
   16CHTO  C121 6396   6.963   2.936  -0.005 -0.4995 -0.7212 -0.4133
   16CHTO  H225 6397   6.963   2.825   0.006  0.6870 -0.7676 -0.7658
   16CHTO   O81 6398   7.043   2.958  -0.122 -0.0332 -0.4427  0.1686
   16CHTO  H202 6399   6.987   2.926  -0.190  0.5193 -0.6669 -0.1906
   16CHTO  C119 6400   7.046   2.999   0.121  0.4523 -0.4503  0.1804
   16CHTO  H223 6401   7.008   2.961   0.216  1.0357 -1.0786  0.1682
   16CHTO  C117 6402   7.016   3.152   0.133 -0.4271 -0.3254  0.1311
   16CHTO  H221 6403   7.050   3.209   0.047 -0.0475  0.4321  0.7764
   16CHTO   N20 6404   7.097   3.203   0.251 -0.2066  0.1196 -1.1074
   16CHTO  H209 6405   7.088   3.311   0.251 -0.1594  0.1952  3.0672
   16CHTO  H210 6406   7.201   3.180   0.233  1.4672  3.7334  3.1898
   16CHTO   O80 6407   7.203   2.941   0.135 -0.2466 -0.3783  0.0129
   16CHTO  C103 6408   7.223   2.768   0.155  0.4058 -0.2100 -0.6525
   16CHTO  H190 6409   7.127   2.721   0.134  0.2414 -0.8378  1.4094
   16CHTO  C101 6410   7.330   2.695   0.065 -0.4834 -0.8892 -0.4772
   16CHTO  H188 6411   7.421   2.744   0.097 -2.4750  1.1378  2.3341
   16CHTO   O68 6412   7.296   2.727  -0.098 -0.0817 -0.2067  0.1878
   16CHTO  H168 6413   7.299   2.821  -0.098  1.0856 -0.2233 -1.6379
   16CHTO   C99 6414   7.335   2.537   0.098  0.2109  0.2689 -0.0733
   16CHTO  H186 6415   7.236   2.503   0.061  0.3265  0.6443 -0.7367
   16CHTO   N17 6416   7.444   2.460   0.034 -0.6852  0.5916 -0.1652
   16CHTO  H174 6417   7.422   2.354   0.033 -1.9292  0.8406 -0.3609
   16CHTO  H175 6418   7.546   2.493   0.043 -0.3087 -0.4010 -0.7659
   16CHTO   C97 6419   7.334   2.504   0.249 -0.8008 -0.0408 -0.3885
   16CHTO  H184 6420   7.430   2.542   0.285 -1.1827  1.1491 -0.6255
   16CHTO   O64 6421   7.226   2.585   0.303 -0.6670 -0.0809  0.0946
   16CHTO  C104 6422   7.252   2.732   0.307  0.2399  0.1538 -0.2795
   16CHTO  H191 6423   7.352   2.757   0.343  0.6071  0.7016 -1.6539
   16CHTO  C108 6424   7.146   2.795   0.402  0.0529 -0.5368  0.5956
   16CHTO   O71 6425   7.173   2.922   0.462 -0.4334  0.5809 -0.1139
   16CHTO  H171 6426   7.222   2.906   0.541  0.3942 -0.7365 -0.8919
   16CHTO   O62 6427   7.310   2.367   0.292  0.0228  0.6350  0.5292
   16CHTO   C91 6428   7.300   2.338   0.433 -0.0539  0.1204 -0.0902
   16CHTO  H178 6429   7.311   2.434   0.483  0.4036 -0.5551  1.1252
   16CHTO   C92 6430   7.418   2.253   0.494  0.3937  0.4779  0.0796
   16CHTO  H179 6431   7.440   2.157   0.446  0.0603  1.3410 -1.8310
   16CHTO   O66 6432   7.546   2.317   0.462  0.0306  0.0965 -0.2834
   16CHTO  H166 6433   7.531   2.408   0.445  1.9855  1.4047  4.2195
   16CHTO   C93 6434   7.407   2.252   0.652 -0.3029 -0.2014 -0.2538
   16CHTO  H180 6435   7.437   2.349   0.694  0.8656 -1.1814  1.2295
   16CHTO   N16 6436   7.497   2.148   0.712  0.1902 -0.2148  0.4526
   16CHTO  H172 6437   7.476   2.145   0.818 -1.8956  0.0441  0.0673
   16CHTO  H173 6438   7.505   2.052   0.663  0.5909 -0.7992  1.6461
   16CHTO   C94 6439   7.257   2.217   0.700  0.1117  0.3879  0.1288
   16CHTO  H181 6440   7.233   2.114   0.676  1.1201  0.2271 -0.2020
   16CHTO   O61 6441   7.161   2.298   0.632  0.5789 -0.2220  0.3589
   16CHTO   C95 6442   7.164   2.272   0.488  0.0522 -0.2311  0.1809
   16CHTO  H182 6443   7.138   2.167   0.473 -1.4932  0.2543 -0.6655
   16CHTO  C106 6444   7.044   2.349   0.425 -0.8356  0.5171  0.8081
   16CHTO   O69 6445   6.918   2.316   0.484  0.2161 -0.1389  0.0725
   16CHTO  H169 6446   6.924   2.228   0.514  5.7867 -0.8248 -2.4231
   16CHTO   O63 6447   7.231   2.240   0.869 -0.3184 -0.2263 -0.3284
   16CHTO   C96 6448   7.088   2.222   0.912  0.2443 -0.0662  0.6037
   16CHTO  H183 6449   7.089   2.198   1.018 -1.4612  0.2998  0.7084
   16CHTO   C98 6450   7.017   2.099   0.846 -0.0441  0.6753  0.5392
   16CHTO  H185 6451   7.023   2.098   0.736 -0.5860 -0.4045  0.5176
   16CHTO   O67 6452   7.085   1.978   0.895  0.3327  0.2149 -0.2091
   16CHTO  H167 6453   7.177   1.989   0.908  0.1930  0.6919  0.3928
   16CHTO  C102 6454   6.855   2.089   0.881  0.7007  0.7700  0.1965
   16CHTO  H189 6455   6.854   2.058   0.986 -0.0853  0.4065  0.0876
   16CHTO   N18 6456   6.773   1.985   0.817  0.1723 -0.2884 -0.2116
   16CHTO  H176 6457   6.832   1.906   0.774  0.8151  0.1036 -0.0440
   16CHTO  H177 6458   6.717   1.930   0.891  0.4585  0.1913  0.3632
   16CHTO  C105 6459   6.802   2.233   0.866  0.5184  0.1078 -0.3246
   16CHTO  H192 6460   6.821   2.264   0.764  2.4855 -3.1186 -1.0050
   16CHTO   O65 6461   6.878   2.317   0.952  0.0974 -0.0238  0.4990
   16CHTO  C100 6462   7.002   2.351   0.891 -0.1123 -0.5512  0.3297
   16CHTO  H187 6463   6.991   2.386   0.788 -3.3759  1.3103  1.2259
   16CHTO  C107 6464   7.065   2.469   0.971  0.2841  0.0787 -0.1271
   16CHTO   O70 6465   6.997   2.594   0.947  0.1794  0.2188  0.4501
   16CHTO  H170 6466   7.058   2.666   0.946 -1.0290  1.2953  2.1798
   16CHTO   O57 6467   6.641   2.241   0.910  0.4737  0.2532  0.2613
   16CHTO   C85 6468   6.560   2.319   0.818 -0.1645  0.3335 -0.3027
   16CHTO  H157 6469   6.582   2.278   0.717  0.0870 -2.2168  0.7476
   16CHTO   C83 6470   6.590   2.473   0.821 -0.3036 -0.6546 -0.2919
   16CHTO  H155 6471   6.691   2.482   0.781 -0.1330  0.7853  0.4247
   16CHTO   O56 6472   6.590   2.524   0.950  0.3708 -0.0827 -0.3007
   16CHTO  H135 6473   6.624   2.610   0.941  1.3881 -0.3116  1.1808
   16CHTO   C81 6474   6.498   2.553   0.723 -0.7763  0.0412 -0.1234
   16CHTO  H153 6475   6.512   2.522   0.620 -1.5768 -1.0786  0.1014
   16CHTO   N14 6476   6.525   2.700   0.712 -0.1490 -0.6475 -0.4150
   16CHTO  H141 6477   6.602   2.718   0.640 -1.7742 -0.7465 -2.2403
   16CHTO  H142 6478   6.567   2.724   0.807 -0.6826  0.5821 -0.4846
   16CHTO   C79 6479   6.348   2.525   0.759  0.3455  0.1351 -0.2466
   16CHTO  H151 6480   6.290   2.569   0.679 -0.5054 -1.0364 -0.2883
   16CHTO   O52 6481   6.316   2.382   0.768 -0.1930 -0.0579 -0.3995
   16CHTO   C86 6482   6.407   2.302   0.850  0.3213  0.9305 -0.2946
   16CHTO  H158 6483   6.386   2.331   0.955 -0.9081  0.6860 -0.4636
   16CHTO   C90 6484   6.375   2.153   0.842 -0.6196 -0.2595 -0.5084
   16CHTO   O60 6485   6.243   2.140   0.879  0.4483 -0.0957 -0.1141
   16CHTO  H138 6486   6.215   2.052   0.864  1.0169 -0.6245  1.8055
   16CHTO   O50 6487   6.301   2.597   0.874  0.5198 -0.1782  0.2176
   16CHTO   C73 6488   6.194   2.579   0.974  0.2684  0.4496 -0.3782
   16CHTO  H145 6489   6.200   2.479   1.021 -0.7655  0.6196  0.1332
   16CHTO   C74 6490   6.049   2.605   0.923 -1.3630  0.3243  0.8388
   16CHTO  H146 6491   6.024   2.522   0.855  0.7874 -0.2928  0.7347
   16CHTO   O54 6492   5.960   2.589   1.034 -0.6281 -0.1849  0.3493
   16CHTO  H133 6493   5.890   2.532   1.009  0.0652 -0.4946 -0.9311
   16CHTO   C75 6494   6.041   2.743   0.852 -0.8917 -0.1782 -0.1351
   16CHTO  H147 6495   6.097   2.737   0.758 -3.6874  1.1034 -1.9410
   16CHTO   N13 6496   5.911   2.788   0.801 -0.1253  0.2881  0.2717
   16CHTO  H139 6497   5.891   2.825   0.702  2.6806 -0.4972 -0.6277
   16CHTO  H140 6498   5.861   2.837   0.884  1.5464 -1.4563  2.3786
   16CHTO   C76 6499   6.100   2.853   0.959  0.5346 -0.1989  0.7082
   16CHTO  H148 6500   6.022   2.855   1.035 -2.2983 -1.2480 -2.0798
   16CHTO   O49 6501   6.225   2.810   1.015 -0.2915 -0.4307 -0.2451
   16CHTO   C77 6502   6.227   2.683   1.080  0.0836  0.3932 -0.6466
   16CHTO  H149 6503   6.155   2.676   1.161  0.1485  1.2295 -0.5097
   16CHTO   C88 6504   6.371   2.665   1.145 -0.0154 -1.0516  0.0968
   16CHTO   O58 6505   6.386   2.539   1.207  0.5758 -0.8836 -0.4048
   16CHTO  H136 6506   6.308   2.506   1.248 -0.5041  2.3337  0.1998
   16CHTO   O51 6507   6.125   3.002   0.877 -0.5255 -0.2001  0.2323
   16CHTO   C78 6508   6.152   3.116   0.974  0.3671 -0.1793  0.0402
   16CHTO  H150 6509   6.187   3.072   1.069 -0.4962  0.3277  0.5969
   16CHTO   C80 6510   6.019   3.194   0.999  0.6692  0.3902 -0.3334
   16CHTO  H152 6511   5.970   3.228   0.906  0.3845 -1.3334 -0.8247
   16CHTO   O55 6512   5.929   3.090   1.046  0.6545  0.5511  0.2737
   16CHTO  H134 6513   5.843   3.126   1.054 -0.4127 -2.1050  1.3391
   16CHTO   C84 6514   6.036   3.301   1.113  0.1288  0.2499  0.1319
   16CHTO  H156 6515   6.060   3.244   1.202  1.5976 -0.8889 -0.9628
   16CHTO   N15 6516   5.907   3.377   1.143  1.3881  0.0509 -0.0216
   16CHTO  H143 6517   5.907   3.395   1.249  3.3048  0.9627 -0.1574
   16CHTO  H144 6518   5.824   3.315   1.114  1.2510  0.2109  0.0302
   16CHTO   C87 6519   6.151   3.398   1.080 -0.1401 -0.2565 -0.2247
   16CHTO  H159 6520   6.123   3.459   0.994 -2.1798  0.2169  0.7415
   16CHTO   O53 6521   6.279   3.314   1.023 -0.0926  0.1487 -0.2557
   16CHTO   C82 6522   6.262   3.214   0.922 -0.3427 -0.3088  0.1367
   16CHTO  H154 6523   6.232   3.266   0.831 -0.1723 -0.8491 -0.2295
   16CHTO   C89 6524   6.397   3.143   0.897 -0.4326  0.1257 -0.4298
   16CHTO   O59 6525   6.401   3.045   0.792 -0.0623 -0.3121 -0.5868
   16CHTO  H137 6526   6.485   3.004   0.795  0.5947  1.1512  1.9659
   16CHTO   O45 6527   6.196   3.477   1.217  0.1635  0.9638  0.0305
   16CHTO   C67 6528   6.337   3.479   1.251  0.5300 -0.3857  0.8603
   16CHTO  H124 6529   6.390   3.412   1.183 -0.6909  0.5491 -1.0429
   16CHTO   C65 6530   6.407   3.619   1.244  0.1795 -0.4226 -0.2727
   16CHTO  H122 6531   6.326   3.692   1.250  0.9235  0.3383  0.9506
   16CHTO   O44 6532   6.466   3.626   1.117  0.2121  0.6471  0.1221
   16CHTO  H102 6533   6.539   3.685   1.114  2.1530 -1.6032  1.1882
   16CHTO   C63 6534   6.483   3.654   1.376 -0.0748  0.4562 -0.7319
   16CHTO  H120 6535   6.413   3.669   1.457 -0.1020 -0.1009 -0.6562
   16CHTO   N11 6536   6.557   3.783   1.386 -0.4114 -0.1187 -0.8806
   16CHTO  H108 6537   6.503   3.860   1.335 -1.0483  0.0081 -0.0342
   16CHTO  H109 6538   6.584   3.815   1.484 -0.5827 -0.6345 -0.6661
   16CHTO   C61 6539   6.570   3.531   1.424  0.5610  0.1512  0.2003
   16CHTO  H118 6540   6.623   3.564   1.515  2.7449  0.2836 -1.0739
   16CHTO   O40 6541   6.481   3.419   1.458 -0.2117  0.2266 -0.1549
   16CHTO   C68 6542   6.347   3.409   1.394  0.4789 -0.0977  0.1595
   16CHTO  H125 6543   6.278   3.461   1.463  0.0832 -2.4336  1.5649
   16CHTO   C72 6544   6.302   3.262   1.391  0.4733  0.5829  0.0268
   16CHTO   O48 6545   6.389   3.174   1.317  0.2897 -0.4629 -0.1344
   16CHTO  H105 6546   6.470   3.165   1.364 -1.4399  0.2995  3.0889
   16CHTO   O38 6547   6.667   3.490   1.333  0.0765 -0.1713 -0.0413
   16CHTO   C55 6548   6.791   3.427   1.383 -0.0980 -0.4471  0.3439
   16CHTO  H112 6549   6.767   3.382   1.480 -1.2237 -2.2264 -0.7394
   16CHTO   C56 6550   6.904   3.542   1.392  0.1601 -0.2050 -0.2934
   16CHTO  H113 6551   6.902   3.601   1.299  0.7399  0.2514 -0.0189
   16CHTO   O42 6552   6.859   3.639   1.491  0.0265 -0.3267 -0.4652
   16CHTO  H100 6553   6.861   3.619   1.582  0.7616  2.8720  0.2553
   16CHTO   C57 6554   7.042   3.484   1.431 -0.5126  0.0079  0.2504
   16CHTO  H114 6555   7.023   3.434   1.526  1.7246  1.3332  1.4286
   16CHTO   N10 6556   7.148   3.591   1.454 -0.3401 -0.9422 -0.3133
   16CHTO  H106 6557   7.240   3.560   1.407  0.0891  0.0584 -0.1537
   16CHTO  H107 6558   7.165   3.605   1.559 -1.9822 -2.7238  0.2230
   16CHTO   C58 6559   7.080   3.381   1.321  0.8675 -0.4212 -0.2986
   16CHTO  H115 6560   7.085   3.432   1.223  0.9943  2.4153  1.1238
   16CHTO   O37 6561   6.975   3.283   1.324  0.6207 -0.2429 -0.1638
   16CHTO   C59 6562   6.845   3.323   1.278 -0.5415  0.0531 -0.0851
   16CHTO  H116 6563   6.843   3.364   1.177 -2.1627 -1.2460 -0.6056
   16CHTO   C70 6564   6.748   3.204   1.293 -0.3396  0.4385 -0.4858
   16CHTO   O46 6565   6.783   3.107   1.193 -0.2436  0.5034  0.2671
   16CHTO  H103 6566   6.866   3.078   1.224  0.0851  1.7972  0.6185
   16CHTO   O39 6567   7.229   3.306   1.347  0.4401  0.1479  0.1860
   16CHTO   C60 6568   7.275   3.258   1.220 -0.2671 -0.3928 -0.7735
   16CHTO  H117 6569   7.188   3.223   1.164 -2.7012  2.9141  0.7295
   16CHTO   C62 6570   7.345   3.366   1.125  0.4444  0.0076  0.0920
   16CHTO  H119 6571   7.268   3.445   1.110  0.4251 -0.4504 -2.4743
   16CHTO   O43 6572   7.447   3.432   1.196 -0.4217 -0.3695 -0.6357
   16CHTO  H101 6573   7.497   3.384   1.259  1.0659  0.5068 -1.1238
   16CHTO   C66 6574   7.393   3.291   0.985 -0.4268  0.6297 -0.1868
   16CHTO  H123 6575   7.309   3.240   0.939 -0.7420 -0.1659  1.2441
   16CHTO   N12 6576   7.457   3.381   0.891 -0.0457  0.6038 -0.6139
   16CHTO  H110 6577   7.512   3.463   0.935 -1.1539 -0.8955  3.7296
   16CHTO  H111 6578   7.375   3.426   0.837 -1.0392  3.0536  2.7846
   16CHTO   C69 6579   7.493   3.175   1.015 -0.0213  0.5298  0.4941
   16CHTO  H126 6580   7.584   3.203   1.072  1.4041  2.8401 -2.7752
   16CHTO   O41 6581   7.425   3.075   1.102  0.4036  0.1440  0.5727
   16CHTO   C64 6582   7.361   3.137   1.243 -0.0422 -1.1056 -0.0185
   16CHTO  H121 6583   7.445   3.162   1.312 -0.8498 -1.3419  1.0748
   16CHTO   C71 6584   7.279   3.023   1.304 -0.0277  0.3530  0.0125
   16CHTO   O47 6585   7.365   2.907   1.318  0.0067 -0.5461  0.2970
   16CHTO  H104 6586   7.395   2.876   1.235  0.1455  0.3718  0.0035
   16CHTO   O34 6587   7.564   3.099   0.873  0.2942  0.3388 -0.9358
   16CHTO   C49 6588   7.614   3.028   0.749 -0.1679 -0.1356 -0.2267
   16CHTO   H91 6589   7.631   3.119   0.693  1.0716  0.3721  0.9510
   16CHTO   C47 6590   7.493   2.943   0.686 -0.1481 -0.1312 -0.8775
   16CHTO   H89 6591   7.538   2.908   0.591 -0.9586  0.0888 -1.3421
   16CHTO   O33 6592   7.378   3.027   0.658 -0.4423 -0.2773 -0.3834
   16CHTO   H70 6593   7.328   3.060   0.730  0.4403  0.3397 -0.0496
   16CHTO   C45 6594   7.455   2.822   0.793 -0.0731  0.1123  0.5939
   16CHTO   H87 6595   7.375   2.860   0.858 -1.3337 -0.0001 -0.8417
   16CHTO    N8 6596   7.410   2.703   0.720  0.0770  0.4817  0.1168
   16CHTO   H75 6597   7.428   2.607   0.767 -0.2745 -0.6870 -2.0792
   16CHTO   H76 6598   7.303   2.712   0.709  0.2065  0.5545 -1.1436
   16CHTO   C43 6599   7.578   2.796   0.900  0.3519  0.2642  1.0690
   16CHTO   H85 6600   7.555   2.867   0.980  0.6927  0.9913  0.5256
   16CHTO   O29 6601   7.705   2.818   0.844 -0.4039 -0.6440 -0.1570
   16CHTO   C50 6602   7.732   2.947   0.787 -0.1683  0.4969 -0.3650
   16CHTO   H92 6603   7.781   3.005   0.867  0.2622 -1.6883  1.0004
   16CHTO   C54 6604   7.837   2.931   0.676  0.4907  0.1522 -0.0708
   16CHTO   O36 6605   7.959   2.884   0.728 -0.0248  0.4741 -0.1544
   16CHTO   H72 6606   7.940   2.805   0.776 -1.2229 -1.0494 -3.0392
   16CHTO   O27 6607   7.572   2.658   0.947  0.3371 -0.2662  0.1953
   16CHTO   C37 6608   7.609   2.542   1.030 -0.4933 -0.3612 -0.4787
   16CHTO   H79 6609   7.680   2.573   1.108 -0.8399 -4.8734  1.8484
   16CHTO   C38 6610   7.477   2.516   1.111  0.1634  0.2953 -0.2061
   16CHTO   H80 6611   7.398   2.495   1.037  0.6444  0.4657 -0.7729
   16CHTO   O31 6612   7.447   2.632   1.186 -0.1850  0.6387 -0.1546
   16CHTO   H68 6613   7.390   2.608   1.256  0.1953  1.6807  0.5331
   16CHTO   C39 6614   7.494   2.388   1.207 -0.0432 -0.1076 -0.4578
   16CHTO   H81 6615   7.549   2.426   1.293  0.7373  1.0568 -1.4519
   16CHTO    N7 6616   7.370   2.343   1.277  0.1425 -0.3630 -0.4663
   16CHTO   H73 6617   7.374   2.395   1.372  0.6713  1.0080 -1.2211
   16CHTO   H74 6618   7.371   2.239   1.306  1.3536 -0.5261 -1.0642
   16CHTO   C40 6619   7.561   2.272   1.119 -0.0859  0.2138 -0.3019
   16CHTO   H82 6620   7.486   2.237   1.048  0.9034 -1.8955 -0.3675
   16CHTO   O26 6621   7.678   2.323   1.050  0.1520  0.0947 -0.6307
   16CHTO   C41 6622   7.670   2.425   0.955 -0.2807 -0.1692  0.1537
   16CHTO   H83 6623   7.598   2.397   0.877 -1.4947  2.2656  0.3481
   16CHTO   C52 6624   7.809   2.458   0.896 -0.2330 -0.6408 -0.0754
   16CHTO   O35 6625   7.881   2.350   0.803 -0.3507 -0.6014  0.2730
   16CHTO   H71 6626   7.951   2.394   0.759 -2.2452  0.9557 -1.2856
   16CHTO   O28 6627   7.605   2.163   1.203 -0.3718 -0.2697 -0.2196
   16CHTO   C42 6628   7.571   2.029   1.168  0.0247 -0.6897  0.3539
   16CHTO   H84 6629   7.653   1.974   1.215 -0.0697  0.0907  1.4459
   16CHTO   C44 6630   7.576   1.979   1.016  0.2173  0.0461 -0.1588
   16CHTO   H86 6631   7.495   2.024   0.960 -2.1908 -1.0899  2.2893
   16CHTO   O32 6632   7.703   2.011   0.957 -0.6767 -0.2057 -0.0414
   16CHTO   H69 6633   7.768   1.947   0.974  1.7340  2.0724 -0.4078
   16CHTO   C48 6634   7.560   1.820   1.018  1.1908  0.2431 -0.4256
   16CHTO   H90 6635   7.626   1.758   1.078 -2.2066 -1.3837  1.8312
   16CHTO    N9 6636   7.557   1.768   0.878  0.1230  0.2436 -0.5049
   16CHTO   H77 6637   7.657   1.735   0.856  1.1686  2.5028  0.6097
   16CHTO   H78 6638   7.471   1.707   0.855 -0.4461  1.3761 -1.4455
   16CHTO   C51 6639   7.424   1.789   1.092 -0.1428  0.5490  0.2119
   16CHTO   H93 6640   7.340   1.839   1.042 -1.1544 -0.9521  0.3701
   16CHTO   O30 6641   7.436   1.833   1.225 -0.3377  0.4126  0.0891
   16CHTO   C46 6642   7.442   1.985   1.248  0.3450  0.6767 -0.2148
   16CHTO   H88 6643   7.353   2.035   1.209  0.4274  0.1393 -1.1063
   16CHTO   C53 6644   7.465   2.015   1.400  0.4447  0.5329 -0.1997
   16CHTO   O72 6645   7.347   1.985   1.489 -0.0450  0.0247 -0.0874
   16CHTO  H199 6646   7.302   2.068   1.490 -1.9163 -0.9609 -0.7932
   16CHTO   O22 6647   7.391   1.652   1.107  0.1809 -0.0107  0.8710
   16CHTO   C31 6648   7.264   1.592   1.156 -0.4611 -0.1553 -0.6734
   16CHTO   H59 6649   7.212   1.675   1.207  1.2821  0.8997 -0.6106
   16CHTO   C29 6650   7.177   1.548   1.034  0.3303  0.3535  0.2417
   16CHTO   H57 6651   7.239   1.477   0.977  0.0188  1.2630 -1.2316
   16CHTO   O21 6652   7.153   1.664   0.959 -0.1944 -0.0951 -0.3500
   16CHTO   H37 6653   7.231   1.695   0.916  1.9881 -1.3927  2.5361
   16CHTO   C27 6654   7.046   1.468   1.073 -0.1123 -0.1994 -0.5849
   16CHTO   H55 6655   6.973   1.542   1.109 -1.1642 -0.6534 -1.7621
   16CHTO    N5 6656   6.983   1.393   0.960  0.4501 -0.0408  0.1046
   16CHTO   H43 6657   6.952   1.293   0.986 -0.1348 -0.1388 -0.9092
   16CHTO   H44 6658   7.033   1.406   0.865 -0.4135  0.1756 -0.3316
   16CHTO   C25 6659   7.066   1.381   1.199  0.0381 -0.7114  0.5995
   16CHTO   H53 6660   7.109   1.286   1.166 -0.6389 -1.1103  0.8584
   16CHTO   O17 6661   7.153   1.438   1.301 -0.4234 -0.2507  0.1146
   16CHTO   C32 6662   7.279   1.482   1.257  1.1079 -0.3416  0.1224
   16CHTO   H60 6663   7.335   1.398   1.217 -0.6690 -2.5942  2.2442
   16CHTO   C36 6664   7.355   1.539   1.375 -0.3256 -0.0890  0.1718
   16CHTO   O25 6665   7.437   1.442   1.440  0.3673  0.2354 -0.3482
   16CHTO   H40 6666   7.486   1.483   1.509  0.8739 -1.1036  0.1049
   16CHTO   O15 6667   6.948   1.349   1.273  0.5137 -0.0441  0.0522
   16CHTO   C19 6668   6.835   1.365   1.357 -0.0322 -0.0673 -0.4559
   16CHTO   H47 6669   6.827   1.267   1.408 -0.9597 -0.2352 -0.9141
   16CHTO   C20 6670   6.859   1.480   1.463 -0.0832  1.3263  0.2360
   16CHTO   H48 6671   6.883   1.573   1.411  0.7814  1.9403  1.7205
   16CHTO   O19 6672   6.976   1.436   1.532 -0.0832 -0.1486 -0.3981
   16CHTO   H35 6673   7.044   1.432   1.468  0.7459 -0.4509  0.4886
   16CHTO   C21 6674   6.734   1.500   1.563  0.1529 -0.2799 -0.1830
   16CHTO   H49 6675   6.730   1.413   1.629  3.3450  1.3445  2.2793
   16CHTO    N4 6676   6.753   1.614   1.656 -0.3815 -1.2830 -0.6779
   16CHTO   H41 6677   6.656   1.651   1.686 -0.0808 -0.7918 -0.3127
   16CHTO   H42 6678   6.799   1.582   1.748 -1.1030 -1.1276 -0.2629
   16CHTO   C22 6679   6.601   1.500   1.481  0.3130 -0.3117 -0.2113
   16CHTO   H50 6680   6.598   1.582   1.409 -1.3140 -0.7442 -0.6611
   16CHTO   O14 6681   6.598   1.388   1.390 -0.3130 -0.0474  0.5289
   16CHTO   C23 6682   6.702   1.398   1.290  0.2841 -0.0071 -0.0662
   16CHTO   H51 6683   6.699   1.502   1.252 -0.5526 -0.6397 -1.7495
   16CHTO   C34 6684   6.662   1.296   1.178  0.0549  0.1836  0.6027
   16CHTO   O23 6685   6.530   1.310   1.120  0.0718 -0.3171 -0.2276
   16CHTO   H38 6686   6.537   1.364   1.043  0.1447  1.1394  0.7912
   16CHTO   O16 6687   6.482   1.491   1.560 -0.5261  0.3610  0.6582
   16CHTO   C24 6688   6.361   1.587   1.503  0.2265 -0.1168  0.5784
   16CHTO   H52 6689   6.378   1.617   1.399  0.5311  0.4557  0.7942
   16CHTO   C26 6690   6.342   1.718   1.583  0.0157 -0.2288 -0.4898
   16CHTO   H54 6691   6.350   1.692   1.691 -0.0928  1.6804 -0.0110
   16CHTO   O20 6692   6.464   1.790   1.560 -0.3110  0.5407 -0.7507
   16CHTO   H36 6693   6.454   1.826   1.474 -1.5148  1.7599 -0.1232
   16CHTO   C30 6694   6.210   1.793   1.561 -0.3893 -0.1433 -0.1937
   16CHTO   H58 6695   6.207   1.841   1.462  0.7877  1.6166  0.5989
   16CHTO    N6 6696   6.192   1.902   1.656  0.9836 -0.4711  0.6211
   16CHTO   H45 6697   6.256   1.985   1.629 -2.3455  2.3289  1.0809
   16CHTO   H46 6698   6.222   1.868   1.754  0.3833 -2.2783  0.1937
   16CHTO   C33 6699   6.088   1.697   1.557  0.2170 -0.6383 -0.9997
   16CHTO   H61 6700   6.078   1.656   1.659 -0.0719  0.3534 -0.6292
   16CHTO   O18 6701   6.114   1.590   1.464 -0.7448 -0.1412 -0.0991
   16CHTO   C28 6702   6.228   1.506   1.503  0.6816 -0.2077  0.9628
   16CHTO   H56 6703   6.210   1.462   1.600 -2.7371 -0.0654  0.4699
   16CHTO   C35 6704   6.232   1.389   1.404  0.1012  0.3511  0.2624
   16CHTO   O24 6705   6.124   1.294   1.415  0.2218 -0.4892  0.0857
   16CHTO   H39 6706   6.070   1.297   1.338 -0.4029 -0.8626  0.5032
   16CHTO    O9 6707   5.965   1.762   1.528  0.0268 -0.3243  0.2845
   16CHTO   C13 6708   5.855   1.745   1.635  0.3750 -0.0181  0.1893
   16CHTO   H26 6709   5.895   1.768   1.736 -2.8600  2.2014  1.0470
   16CHTO   C11 6710   5.783   1.606   1.626 -0.2632 -0.9457  0.0700
   16CHTO   H24 6711   5.844   1.527   1.672  1.2689  0.2202  0.0454
   16CHTO    O8 6712   5.770   1.566   1.488 -0.2643  0.0881 -0.7548
   16CHTO    H3 6713   5.723   1.485   1.485 -0.7479  0.3229  0.2701
   16CHTO    C9 6714   5.645   1.615   1.696  0.1980  0.0007 -0.0280
   16CHTO   H22 6715   5.661   1.674   1.787 -0.7252  0.3322 -0.0738
   16CHTO    N2 6716   5.594   1.486   1.741  0.4097  0.0906  0.0878
   16CHTO   H10 6717   5.577   1.493   1.848  1.8044 -0.4120  0.3430
   16CHTO   H11 6718   5.661   1.405   1.720  2.1779  1.2207  1.1890
   16CHTO    C7 6719   5.556   1.707   1.609  0.5187 -0.0395 -0.4959
   16CHTO   H20 6720   5.486   1.749   1.683  0.5931 -0.6050 -0.1000
   16CHTO    O4 6721   5.622   1.821   1.547 -0.5265  0.0330  0.5715
   16CHTO   C14 6722   5.740   1.864   1.619 -0.5879  0.1591  0.0225
   16CHTO   H27 6723   5.714   1.897   1.721  2.3015  0.0914  0.8115
   16CHTO   C18 6724   5.780   1.990   1.532  0.0105  0.9975 -0.0440
   16CHTO   O13 6725   5.876   2.076   1.590 -0.4118 -0.6623  0.0149
   16CHTO    H7 6726   5.899   2.147   1.534 -0.2986 -1.1105 -0.5138
   16CHTO    O2 6727   5.458   1.611   1.484 -0.1406  0.1043 -0.5252
   16CHTO    C1 6728   5.328   1.659   1.453 -0.1742  0.5809  0.2801
   16CHTO   H14 6729   5.278   1.598   1.375 -1.2916  1.8940 -0.0405
   16CHTO    C2 6730   5.330   1.809   1.407  0.1080  0.0162 -0.1441
   16CHTO   H15 6731   5.375   1.875   1.483  0.0473 -1.4667  1.1963
   16CHTO    O6 6732   5.402   1.819   1.278  0.4334 -0.5345 -0.5630
   16CHTO    H1 6733   5.374   1.749   1.223 -0.7142 -1.0741  0.6856
   16CHTO    C3 6734   5.181   1.864   1.389 -0.2089 -0.2123  0.5408
   16CHTO   H16 6735   5.134   1.811   1.304  2.1700 -0.2923 -0.7667
   16CHTO    N1 6736   5.165   2.010   1.357 -0.0124  0.0483 -0.1004
   16CHTO    H8 6737   5.257   2.063   1.376 -0.0817  0.3524 -0.6108
   16CHTO    H9 6738   5.145   2.017   1.251  0.1045  2.2502  0.0029
   16CHTO    C4 6739   5.094   1.822   1.511  0.0588 -0.1271 -0.4470
   16CHTO   H17 6740   5.121   1.889   1.594  1.0127 -1.0229 -0.0291
   16CHTO    O1 6741   5.112   1.682   1.543 -0.3519 -0.7898 -0.5103
   16CHTO    C5 6742   5.246   1.638   1.577 -0.4293  0.2114 -0.0229
   16CHTO   H18 6743   5.288   1.690   1.663  2.5717  1.0885 -1.9311
   16CHTO   C16 6744   5.215   1.486   1.609  0.4873  0.4696  0.1694
   16CHTO   O11 6745   5.106   1.467   1.699 -0.0108  0.0357  0.6648
   16CHTO    H5 6746   5.088   1.379   1.723  0.7626 -0.8934 -1.9794
   16CHTO    O3 6747   4.950   1.831   1.490 -0.0970  0.3667 -0.0661
   16CHTO    C6 6748   4.851   1.799   1.601 -0.6572  0.1733 -0.5201
   16CHTO   H19 6749   4.896   1.755   1.690 -2.1844 -1.3322 -0.4536
   16CHTO    C8 6750   4.786   1.928   1.646 -0.2720 -0.4598 -0.5967
   16CHTO   H21 6751   4.739   1.976   1.560 -2.0941  0.0115  0.6223
   16CHTO    O7 6752   4.892   2.013   1.695  0.4561  0.4361  0.1348
   16CHTO    H2 6753   4.886   2.034   1.787  1.0235  1.1189  0.0282
   16CHTO   C12 6754   4.671   1.894   1.757  0.0071  0.3782 -0.3325
   16CHTO   H25 6755   4.724   1.835   1.835 -2.5851  0.5591  1.6584
   16CHTO    N3 6756   4.605   2.019   1.810  0.6611 -0.2095 -0.5436
   16CHTO   H12 6757   4.636   2.102   1.748  0.3200 -1.3957 -2.3497
   16CHTO   H13 6758   4.498   2.003   1.806  0.9076 -2.2839  0.7281
   16CHTO   C15 6759   4.575   1.792   1.681  0.1251 -0.3919  0.0074
   16CHTO   H28 6760   4.525   1.849   1.602  0.1276  0.9730  0.9737
   16CHTO   O10 6761   4.451   1.744   1.772  0.0999 -0.0151 -0.2994
   16CHTO    H4 6762   4.395   1.693   1.716 -1.8382  0.3610  1.2350
   16CHTO    O5 6763   4.641   1.666   1.650  0.2673  0.3168  0.2988
   16CHTO   C10 6764   4.741   1.691   1.553 -0.3207  0.1753 -0.1670
   16CHTO   H23 6765   4.705   1.737   1.462  0.6931  1.8727  0.2726
   16CHTO   C17 6766   4.812   1.563   1.503  0.1532 -0.4784  0.0318
   16CHTO   O12 6767   4.719   1.493   1.420  0.2231  0.7063  0.1234
   16CHTO    H6 6768   4.743   1.407   1.393 -0.1804  0.3819  0.7900
   17CHTO  H203 6769   5.831   3.895   0.000 -1.3985  0.7914 -0.3145
   17CHTO   O82 6770   5.781   3.898   0.079  0.1134 -0.0394  0.7059
   17CHTO  C123 6771   5.703   4.019   0.090  0.1532  0.0936  0.6612
   17CHTO  H227 6772   5.623   4.007   0.166 -0.2038  1.2242  0.4897
   17CHTO   O77 6773   5.803   4.118   0.140  0.1089  0.3873  0.7792
   17CHTO  C118 6774   5.751   4.246   0.184  0.5671 -0.2885 -0.0909
   17CHTO  H222 6775   5.696   4.216   0.275  0.4839  1.9255  0.6202
   17CHTO  C125 6776   5.882   4.337   0.228 -0.0859 -0.8897 -0.2489
   17CHTO   O84 6777   5.954   4.299   0.347  0.1644 -0.1874  0.1094
   17CHTO  H205 6778   6.007   4.224   0.330 -0.4387 -0.6739  0.3276
   17CHTO  C114 6779   5.667   4.320   0.079 -0.4125  0.1108  0.1105
   17CHTO  H218 6780   5.733   4.349  -0.003 -1.8109 -1.4737 -1.6155
   17CHTO  C116 6781   5.566   4.214   0.012 -0.8088  0.2938  0.6427
   17CHTO  H220 6782   5.485   4.185   0.083 -0.9587  2.0373  1.2093
   17CHTO   O79 6783   5.491   4.279  -0.094 -0.8644  0.0647 -0.2749
   17CHTO  H201 6784   5.429   4.347  -0.076 -0.9678 -0.4823  1.5662
   17CHTO  C120 6785   5.642   4.089  -0.035 -0.0812 -0.7649  0.2288
   17CHTO  H224 6786   5.727   4.114  -0.102 -0.0519  1.9791  1.2578
   17CHTO   N21 6787   5.564   3.995  -0.117 -0.4185  0.3051  0.6926
   17CHTO  H211 6788   5.468   4.033  -0.147 -0.6736 -0.4517  0.5532
   17CHTO  H212 6789   5.617   3.952  -0.200 -1.1936  0.1446  0.2771
   17CHTO   O75 6790   5.612   4.440   0.136 -0.1839 -0.0606 -0.0300
   17CHTO  C112 6791   5.578   4.558   0.030  0.6037  0.0734  0.0387
   17CHTO  H216 6792   5.508   4.529  -0.050 -0.2961 -0.3373  0.9600
   17CHTO   O73 6793   5.704   4.611  -0.015  0.5305  0.4003  0.1022
   17CHTO  C113 6794   5.689   4.719  -0.109 -0.8313  0.1310  0.3023
   17CHTO  H217 6795   5.630   4.691  -0.198  3.1711 -1.0914 -2.0722
   17CHTO  C124 6796   5.835   4.744  -0.154 -0.4531 -0.1663  0.4487
   17CHTO   O83 6797   5.880   4.630  -0.229 -0.0641  0.7240  0.5872
   17CHTO  H204 6798   5.868   4.556  -0.173 -0.9900  0.6749  0.3215
   17CHTO  C109 6799   5.641   4.837  -0.030 -0.1010  0.0303  0.7823
   17CHTO  H213 6800   5.709   4.849   0.055 -2.2397 -1.8507  2.8360
   17CHTO  C110 6801   5.502   4.813   0.027  0.6069 -0.7028 -0.3577
   17CHTO  H214 6802   5.431   4.799  -0.055 -0.5818  0.3956  0.4610
   17CHTO   O78 6803   5.463   4.917   0.116 -0.3991 -0.2293 -0.6724
   17CHTO  H200 6804   5.414   4.978   0.064 -0.3309 -0.3666 -0.8938
   17CHTO  C111 6805   5.501   4.677   0.104  0.5431 -0.0116  0.7186
   17CHTO  H215 6806   5.562   4.694   0.194  0.6574  1.0268  0.4520
   17CHTO   N19 6807   5.366   4.638   0.151 -0.2757  0.2681 -0.3274
   17CHTO  H207 6808   5.332   4.720   0.213  2.1198  0.2884  0.9983
   17CHTO  H208 6809   5.364   4.556   0.221 -1.0361  1.3540  0.9527
   17CHTO   O74 6810   5.646   4.957  -0.113 -0.3416  0.3974 -0.1039
   17CHTO  C115 6811   5.687   5.098  -0.050 -0.2681 -0.3416  1.0105
   17CHTO  H219 6812   5.673   5.098   0.059 -3.4490  0.4228  0.6731
   17CHTO   O76 6813   5.858   5.126  -0.071 -0.1454 -0.3048 -0.3464
   17CHTO  C122 6814   5.893   5.174  -0.204 -0.0864 -0.2480  0.0990
   17CHTO  H226 6815   5.882   5.093  -0.276  1.6780  0.4392 -0.9912
   17CHTO  C126 6816   6.048   5.191  -0.187 -0.0640 -0.4223 -0.0431
   17CHTO   O85 6817   6.114   5.238  -0.303  1.0486  0.0985  0.4673
   17CHTO  H206 6818   6.203   5.262  -0.284  0.4251  2.6868  0.2644
   17CHTO  C121 6819   5.817   5.316  -0.225 -0.2736  0.6047  0.2344
   17CHTO  H225 6820   5.893   5.397  -0.221 -1.2021  1.5795 -1.0497
   17CHTO   O81 6821   5.768   5.317  -0.359  0.2365 -0.1217 -0.0686
   17CHTO  H202 6822   5.704   5.380  -0.386  1.0421  0.0543 -1.5635
   17CHTO  C119 6823   5.695   5.346  -0.128 -0.1186  0.0119 -0.7001
   17CHTO  H223 6824   5.727   5.364  -0.025 -1.6300  0.9392 -0.3843
   17CHTO  C117 6825   5.602   5.217  -0.119  0.5018  0.0557 -0.1805
   17CHTO  H221 6826   5.571   5.172  -0.214 -2.7054 -2.4163  1.9277
   17CHTO   N20 6827   5.469   5.237  -0.045 -0.3996  0.1431  0.0172
   17CHTO  H209 6828   5.449   5.142   0.003 -1.9106 -0.0268 -0.8968
   17CHTO  H210 6829   5.388   5.253  -0.114  0.8716  1.4716 -1.2028
   17CHTO   O80 6830   5.615   5.482  -0.169 -0.1392 -0.8239 -0.2747
   17CHTO  C103 6831   5.662   5.625  -0.105 -0.3243  0.0442 -0.1515
   17CHTO  H190 6832   5.642   5.631   0.002  0.7856 -1.4439  0.1640
   17CHTO  C101 6833   5.818   5.662  -0.119 -0.6148  0.1932  0.3366
   17CHTO  H188 6834   5.852   5.620  -0.214 -1.4327 -0.9509  0.5252
   17CHTO   O68 6835   5.887   5.589  -0.003 -0.2905 -0.2371  0.3307
   17CHTO  H168 6836   5.935   5.519  -0.043 -0.8541 -0.6386  0.3487
   17CHTO   C99 6837   5.854   5.819  -0.112  0.4836  0.5515 -0.4246
   17CHTO  H186 6838   5.856   5.845  -0.004  2.5957  3.6342 -1.1225
   17CHTO   N17 6839   5.987   5.850  -0.170 -0.0101  0.2409  0.5979
   17CHTO  H174 6840   5.993   5.829  -0.276  0.1613  1.4321  0.3699
   17CHTO  H175 6841   6.079   5.836  -0.115  0.6307  2.4193  0.1319
   17CHTO   C97 6842   5.739   5.904  -0.170 -0.3071  0.1568 -1.0764
   17CHTO  H184 6843   5.749   5.908  -0.279  2.0562 -1.2979 -0.9372
   17CHTO   O64 6844   5.606   5.861  -0.130  0.3376 -0.3710 -0.1562
   17CHTO  C104 6845   5.565   5.729  -0.182 -0.3239 -0.2463 -0.4322
   17CHTO  H191 6846   5.576   5.729  -0.290  0.8745 -0.2856 -0.3083
   17CHTO  C108 6847   5.411   5.714  -0.159  0.5862 -0.0454  0.4278
   17CHTO   O71 6848   5.336   5.825  -0.193 -0.2949 -0.9648  0.3128
   17CHTO  H171 6849   5.248   5.826  -0.162 -0.8839 -0.9191 -1.3366
   17CHTO   O62 6850   5.762   6.037  -0.121  0.0801  0.0858  0.4213
   17CHTO   C91 6851   5.673   6.129  -0.187  0.5784 -0.0699 -0.4584
   17CHTO  H178 6852   5.602   6.083  -0.255 -1.0549  1.1755  0.3763
   17CHTO   C92 6853   5.775   6.204  -0.288 -0.0033  0.2976 -0.2225
   17CHTO  H179 6854   5.828   6.136  -0.356  0.7891 -0.7509  1.4295
   17CHTO   O66 6855   5.688   6.284  -0.373 -0.1729  0.0230  0.5060
   17CHTO  H166 6856   5.632   6.225  -0.421  0.3468  1.3827 -1.8536
   17CHTO   C93 6857   5.863   6.307  -0.210  0.0931  0.3461  0.4071
   17CHTO  H180 6858   5.899   6.378  -0.287 -2.6712 -0.8467 -2.0891
   17CHTO   N16 6859   5.983   6.258  -0.142 -0.0070  0.2025 -0.4952
   17CHTO  H172 6860   5.963   6.186  -0.064  1.9130  0.0688 -0.1081
   17CHTO  H173 6861   6.042   6.205  -0.215  0.4720 -1.5391  1.1205
   17CHTO   C94 6862   5.774   6.389  -0.102 -0.8461  0.6741  0.0594
   17CHTO  H181 6863   5.813   6.375  -0.002  0.7289 -0.0745 -0.6378
   17CHTO   O61 6864   5.629   6.367  -0.112 -0.2625  0.1416 -0.3745
   17CHTO   C95 6865   5.587   6.234  -0.089 -0.4128 -0.0323  0.1890
   17CHTO  H182 6866   5.606   6.211   0.016 -0.4731 -0.8177  0.0275
   17CHTO  C106 6867   5.437   6.212  -0.115 -0.3201 -0.3828  0.1301
   17CHTO   O69 6868   5.352   6.276  -0.020 -0.1999 -0.2478  0.5653
   17CHTO  H169 6869   5.356   6.225   0.059  0.4507  0.0914  0.7552
   17CHTO   O63 6870   5.794   6.542  -0.135  0.3516 -0.2241 -0.2752
   17CHTO   C96 6871   5.752   6.633   0.006 -0.5036 -0.1039  0.4902
   17CHTO  H183 6872   5.770   6.568   0.091 -0.5448 -1.5617 -0.5914
   17CHTO   C98 6873   5.610   6.687   0.016 -0.0436 -0.3105 -0.4680
   17CHTO  H185 6874   5.576   6.742  -0.072  2.0175 -0.2919 -1.2693
   17CHTO   O67 6875   5.519   6.572   0.033  0.0741  0.2549  0.7778
   17CHTO  H167 6876   5.467   6.551  -0.042  1.2965  0.6726 -0.2063
   17CHTO  C102 6877   5.579   6.790   0.144 -0.2560  0.8871 -0.0266
   17CHTO  H189 6878   5.595   6.729   0.234  1.3093  0.9801 -0.2367
   17CHTO   N18 6879   5.439   6.837   0.158 -0.0980  0.2019 -0.7537
   17CHTO  H176 6880   5.392   6.845   0.060  0.6358 -1.4132 -1.2497
   17CHTO  H177 6881   5.435   6.924   0.222  0.8284 -1.7870  2.0848
   17CHTO  C105 6882   5.690   6.896   0.146 -0.9117 -0.3060  0.8701
   17CHTO  H192 6883   5.670   6.967   0.065 -0.4121 -0.8124  0.2987
   17CHTO   O65 6884   5.822   6.840   0.128  0.3277  0.5665  0.4957
   17CHTO  C100 6885   5.855   6.757   0.013  0.2452 -0.8438  0.0839
   17CHTO  H187 6886   5.840   6.815  -0.080  3.8347 -0.7742 -0.5305
   17CHTO  C107 6887   5.996   6.703   0.021  0.0446 -0.3733  0.2452
   17CHTO   O70 6888   6.028   6.645   0.144 -0.0304 -0.0691 -0.3488
   17CHTO  H170 6889   6.037   6.708   0.212 -1.9248  1.1367 -1.1607
   17CHTO   O57 6890   5.683   6.973   0.283  0.1580 -0.2519 -0.1898
   17CHTO   C85 6891   5.736   7.103   0.308 -0.1259  0.4346  0.0452
   17CHTO  H157 6892   5.739   7.143   0.204 -1.4508 -0.1248 -0.2158
   17CHTO   C83 6893   5.883   7.102   0.366  0.2670 -0.1294 -0.3735
   17CHTO  H155 6894   5.945   7.081   0.279 -0.9518 -1.2069 -1.0118
   17CHTO   O56 6895   5.899   6.986   0.447  0.0767  0.6427 -0.7134
   17CHTO  H135 6896   5.962   6.987   0.517 -0.7748 -0.7000  0.0807
   17CHTO   C81 6897   5.932   7.235   0.431  0.4972  0.1312  0.4502
   17CHTO  H153 6898   5.926   7.312   0.354  0.3220 -0.8530 -0.5375
   17CHTO   N14 6899   6.067   7.244   0.481 -0.9792 -0.0759  0.3037
   17CHTO  H141 6900   6.095   7.345   0.504 -0.8155  0.0087 -0.2466
   17CHTO  H142 6901   6.071   7.186   0.571 -3.7920 -1.0801 -0.1516
   17CHTO   C79 6902   5.832   7.271   0.543  0.2344  0.5295 -0.2041
   17CHTO  H151 6903   5.866   7.366   0.583 -0.5159  0.4533  0.6232
   17CHTO   O52 6904   5.693   7.292   0.486 -0.3827 -0.1715  0.4106
   17CHTO   C86 6905   5.640   7.191   0.403  0.0963 -0.0813  0.1628
   17CHTO  H158 6906   5.600   7.124   0.482  1.1105 -0.8505  0.0462
   17CHTO   C90 6907   5.516   7.256   0.333 -0.6107  0.5384  0.8355
   17CHTO   O60 6908   5.426   7.162   0.277 -0.3547  0.2640  0.2375
   17CHTO  H138 6909   5.414   7.190   0.188  1.8460 -0.6048 -0.3874
   17CHTO   O50 6910   5.821   7.166   0.640  0.8089  0.4999 -0.1613
   17CHTO   C73 6911   5.803   7.134   0.776 -0.0758 -0.1166 -0.1157
   17CHTO  H145 6912   5.751   7.217   0.825  1.1909  1.7649 -1.8929
   17CHTO   C74 6913   5.945   7.120   0.842  0.6947 -0.2495 -1.0430
   17CHTO  H146 6914   5.998   7.215   0.825 -0.8198  0.6223 -0.9256
   17CHTO   O54 6915   5.903   7.104   0.981 -0.3053 -0.2026  0.1552
   17CHTO  H133 6916   5.934   7.030   1.029  1.3561 -0.1064 -0.7119
   17CHTO   C75 6917   6.016   6.990   0.785 -0.1651 -0.2140  0.7009
   17CHTO  H147 6918   6.036   6.998   0.677  0.0939 -0.1086  0.7567
   17CHTO   N13 6919   6.157   6.962   0.832 -0.0053 -0.1733 -0.1429
   17CHTO  H139 6920   6.222   6.926   0.754  1.8235 -2.0563  2.1532
   17CHTO  H140 6921   6.204   7.046   0.881  1.1933 -0.4650 -0.7573
   17CHTO   C76 6922   5.916   6.862   0.794 -0.1187  0.0882 -0.0784
   17CHTO  H148 6923   5.904   6.830   0.898  0.1670 -2.5438 -0.8114
   17CHTO   O49 6924   5.784   6.893   0.733 -0.2170 -0.1433  0.2104
   17CHTO   C77 6925   5.711   7.007   0.791  0.5133  0.2368  0.3684
   17CHTO  H149 6926   5.690   6.983   0.895  1.7714 -2.3060  0.0689
   17CHTO   C88 6927   5.570   7.020   0.728 -0.3307 -0.2003 -0.0618
   17CHTO   O58 6928   5.497   7.146   0.778 -0.1183  0.2052  0.1990
   17CHTO  H136 6929   5.412   7.142   0.739  0.2226 -1.0201 -0.4538
   17CHTO   O51 6930   5.978   6.729   0.715 -0.6257  0.5281  0.2963
   17CHTO   C78 6931   5.891   6.603   0.712 -0.2792  0.2055 -1.4988
   17CHTO  H150 6932   5.784   6.629   0.724 -0.7238 -2.6708  1.3711
   17CHTO   C80 6933   5.940   6.513   0.830 -0.2400  0.1771 -0.3374
   17CHTO  H152 6934   6.050   6.497   0.818 -0.2400 -0.6471  0.6818
   17CHTO   O55 6935   5.912   6.580   0.960  0.8070 -0.6000  0.3359
   17CHTO  H134 6936   5.850   6.531   1.010  1.6675 -1.8616  0.1935
   17CHTO   C84 6937   5.877   6.367   0.829  0.1050  0.0463 -0.4677
   17CHTO  H156 6938   5.773   6.377   0.861 -0.5347 -0.0957 -2.4462
   17CHTO   N15 6939   5.930   6.281   0.927 -0.2906  0.3474 -0.5196
   17CHTO  H143 6940   6.009   6.329   0.981  0.6632 -0.4464 -1.2064
   17CHTO  H144 6941   5.857   6.244   0.997 -0.4914  2.0179  0.1708
   17CHTO   C87 6942   5.892   6.310   0.689 -0.2690 -0.8238  0.7149
   17CHTO  H159 6943   5.997   6.296   0.664 -0.2721  1.5233 -0.7729
   17CHTO   O53 6944   5.834   6.402   0.593  0.1879  0.1431 -0.1456
   17CHTO   C82 6945   5.900   6.532   0.574  0.8212 -0.2044  0.2375
   17CHTO  H154 6946   6.004   6.515   0.547  0.9465 -1.0018  1.1902
   17CHTO   C89 6947   5.830   6.605   0.456  0.0562 -0.3086 -0.4238
   17CHTO   O59 6948   5.695   6.643   0.486  0.2015 -0.2082 -0.8373
   17CHTO  H137 6949   5.659   6.698   0.419  1.0960  0.1350 -1.0420
   17CHTO   O45 6950   5.785   6.165   0.671  0.2850  0.2510 -0.4687
   17CHTO   C67 6951   5.645   6.161   0.706 -0.4828  0.5585 -0.3600
   17CHTO  H124 6952   5.638   6.183   0.812 -0.9986  1.0731 -0.5011
   17CHTO   C65 6953   5.563   6.265   0.629  0.8386  0.1461 -0.0272
   17CHTO  H122 6954   5.629   6.332   0.573  1.5533  0.3501  1.0563
   17CHTO   O44 6955   5.502   6.338   0.731  0.2539  0.4128 -0.3285
   17CHTO  H102 6956   5.460   6.416   0.700  2.0130  0.1901 -3.4859
   17CHTO   C63 6957   5.471   6.200   0.519 -0.1202  0.3608  0.4998
   17CHTO  H120 6958   5.527   6.135   0.452  0.8937 -1.3348  2.8980
   17CHTO   N11 6959   5.396   6.292   0.429 -0.2433  0.1824  0.3730
   17CHTO  H108 6960   5.328   6.243   0.362 -0.6720 -1.4368  1.9338
   17CHTO  H109 6961   5.453   6.370   0.384 -1.1703  0.6796  0.0439
   17CHTO   C61 6962   5.375   6.098   0.599  0.4336 -0.7116  0.4238
   17CHTO  H118 6963   5.338   6.024   0.526 -0.7960  0.2292  0.0822
   17CHTO   O40 6964   5.449   6.019   0.702 -0.0344 -0.2554  0.8684
   17CHTO   C68 6965   5.594   6.015   0.681 -0.6127  0.2361 -0.2250
   17CHTO  H125 6966   5.620   5.980   0.579  0.2807 -0.5534  0.2651
   17CHTO   C72 6967   5.646   5.906   0.783 -0.4582  0.0812  0.3689
   17CHTO   O48 6968   5.770   5.842   0.744  0.2892  0.0213 -0.6904
   17CHTO  H105 6969   5.835   5.907   0.764 -1.1262  1.1224  0.4408
   17CHTO   O38 6970   5.264   6.153   0.663  0.0566  0.2065 -0.7000
   17CHTO   C55 6971   5.183   6.071   0.750 -0.2357  0.1408  0.8028
   17CHTO  H112 6972   5.242   6.029   0.833  0.8077  0.5103  0.2519
   17CHTO   C56 6973   5.102   5.950   0.670 -0.5123  0.4953  0.2764
   17CHTO  H113 6974   5.051   5.997   0.585  0.0839  0.8814  0.1288
   17CHTO   O42 6975   5.204   5.863   0.613 -0.4179  0.3575 -0.5369
   17CHTO  H100 6976   5.266   5.831   0.676 -1.7645 -0.9667  0.1728
   17CHTO   C57 6977   4.998   5.873   0.762  0.0570  0.0739 -0.2734
   17CHTO  H114 6978   5.056   5.806   0.827  3.2366  1.3039 -1.7124
   17CHTO   N10 6979   4.903   5.795   0.683  0.1472  0.0482 -0.2890
   17CHTO  H106 6980   4.955   5.702   0.667 -0.2209 -0.1340 -0.4493
   17CHTO  H107 6981   4.817   5.779   0.746  1.7520 -0.8361  1.6957
   17CHTO   C58 6982   4.927   5.972   0.857 -0.3953  0.2980  0.5632
   17CHTO  H115 6983   4.855   6.032   0.796 -0.7824 -2.2032 -1.5264
   17CHTO   O37 6984   5.019   6.065   0.914 -0.5071  0.4063 -0.1818
   17CHTO   C59 6985   5.083   6.156   0.829  0.2819  0.4002  1.0028
   17CHTO  H116 6986   5.008   6.195   0.761  0.3652 -0.6346  0.3048
   17CHTO   C70 6987   5.146   6.271   0.911  0.2163 -0.7618 -0.2805
   17CHTO   O46 6988   5.229   6.362   0.833  0.0327  0.4335 -0.4866
   17CHTO  H103 6989   5.275   6.429   0.880 -0.5848 -0.8711  2.0603
   17CHTO   O39 6990   4.851   5.894   0.976 -0.1234 -0.6623 -0.2396
   17CHTO   C60 6991   4.724   5.947   0.997 -0.6362 -0.7884  0.6721
   17CHTO  H117 6992   4.734   6.054   0.982  0.3603 -0.9130  0.4468
   17CHTO   C62 6993   4.623   5.891   0.891  0.5713  0.2427  0.1787
   17CHTO  H119 6994   4.657   5.909   0.787 -1.1325 -0.3582 -0.4941
   17CHTO   O43 6995   4.614   5.744   0.913  0.5119 -0.5172  0.0153
   17CHTO  H101 6996   4.640   5.715   0.998 -2.0817 -1.6444  0.4624
   17CHTO   C66 6997   4.484   5.967   0.918  0.1895  0.3662  0.0249
   17CHTO  H123 6998   4.508   6.072   0.901 -1.0472  0.5730 -0.5336
   17CHTO   N12 6999   4.385   5.922   0.821 -0.3299 -0.1649 -0.0681
   17CHTO  H110 7000   4.316   5.999   0.793  0.8821  0.6767 -0.7946
   17CHTO  H111 7001   4.339   5.827   0.845 -1.0102  0.4110  0.9134
   17CHTO   C69 7002   4.444   5.950   1.070  0.0241 -0.4371  0.3576
   17CHTO  H126 7003   4.415   5.844   1.083 -0.1458 -0.6210 -1.4018
   17CHTO   O41 7004   4.549   5.994   1.165  0.0375  0.9636  0.5064
   17CHTO   C64 7005   4.678   5.926   1.143 -0.3831 -0.4931  0.1654
   17CHTO  H121 7006   4.664   5.821   1.175 -1.3842  0.3971  2.8293
   17CHTO   C71 7007   4.779   5.985   1.247  0.1969  0.6646  0.2990
   17CHTO   O47 7008   4.759   5.937   1.385  0.5840  0.2054  0.0891
   17CHTO  H104 7009   4.845   5.940   1.422  0.9016 -0.6673 -0.5605
   17CHTO   O34 7010   4.315   6.039   1.101  0.8408  0.3908  0.4814
   17CHTO   C49 7011   4.217   6.148   1.108 -1.2559 -0.3592  0.4490
   17CHTO   H91 7012   4.277   6.238   1.112 -0.3159 -1.0091  1.1821
   17CHTO   C47 7013   4.138   6.128   1.241 -0.4732 -0.0647 -0.0862
   17CHTO   H89 7014   4.075   6.220   1.245 -0.1968  0.4354 -4.4531
   17CHTO   O33 7015   4.232   6.124   1.357  0.0728 -0.0556  0.2130
   17CHTO   H70 7016   4.221   6.044   1.403 -1.2860 -0.3033 -0.5264
   17CHTO   C45 7017   4.044   6.003   1.241  0.2186  0.6982  0.5607
   17CHTO   H87 7018   4.102   5.923   1.290 -1.3993 -0.7557  0.1331
   17CHTO    N8 7019   3.925   6.034   1.323  0.2157  0.3010 -0.2304
   17CHTO   H75 7020   3.866   6.100   1.260 -0.0987  0.7663  0.5523
   17CHTO   H76 7021   3.875   5.945   1.356 -0.7221  1.1590  0.6984
   17CHTO   C43 7022   4.025   5.957   1.090  0.5857 -0.8372  0.5789
   17CHTO   H85 7023   4.119   5.905   1.069  0.3897 -0.7538 -0.5459
   17CHTO   O29 7024   4.000   6.061   0.998 -0.5660  0.2065  0.1644
   17CHTO   C50 7025   4.111   6.153   0.987  0.0384  0.4750 -0.1141
   17CHTO   H92 7026   4.162   6.118   0.895 -0.4509 -1.9724  0.5015
   17CHTO   C54 7027   4.067   6.293   0.946 -0.3805  0.2612  0.2509
   17CHTO   O36 7028   4.010   6.377   1.050 -0.0639  0.2699 -0.3919
   17CHTO   H72 7029   3.917   6.384   1.038 -0.3979 -0.6394  1.4420
   17CHTO   O27 7030   3.919   5.858   1.072 -0.6033 -0.5357 -0.0155
   17CHTO   C37 7031   3.923   5.715   1.053  0.2136  0.1589  0.1490
   17CHTO   H79 7032   4.007   5.672   1.109  0.4323  0.5327  0.1090
   17CHTO   C38 7033   3.796   5.643   1.128  0.7323 -0.2882 -0.3385
   17CHTO   H80 7034   3.703   5.681   1.084 -1.7362 -4.4691  0.9834
   17CHTO   O31 7035   3.805   5.675   1.269 -0.6880  0.2372  0.4297
   17CHTO   H68 7036   3.774   5.762   1.284  0.1989  0.4691  0.9818
   17CHTO   C39 7037   3.797   5.489   1.103 -0.4441 -0.3965  0.6249
   17CHTO   H81 7038   3.874   5.438   1.160  1.3169  1.6320  0.1466
   17CHTO    N7 7039   3.670   5.429   1.160  0.9589 -0.6586 -0.0980
   17CHTO   H73 7040   3.625   5.400   1.066  2.8324 -1.6960 -0.7026
   17CHTO   H74 7041   3.695   5.343   1.220 -0.3236 -0.7079  0.3808
   17CHTO   C40 7042   3.813   5.450   0.946  0.2307  0.3049 -0.6417
   17CHTO   H82 7043   3.720   5.460   0.890 -0.5325  0.4617  0.6156
   17CHTO   O26 7044   3.919   5.526   0.891  0.2371  0.0934  0.0140
   17CHTO   C41 7045   3.924   5.668   0.905 -0.4078  0.1547 -0.4684
   17CHTO   H83 7046   3.848   5.725   0.850  1.1042  2.6343 -0.0762
   17CHTO   C52 7047   4.055   5.718   0.838  0.0077  0.0217 -0.4024
   17CHTO   O35 7048   4.069   5.665   0.703  0.2535 -0.5220 -0.5491
   17CHTO   H71 7049   4.150   5.684   0.659 -0.2738  2.1000 -0.4637
   17CHTO   O28 7050   3.837   5.307   0.934  0.2599  0.2554 -0.1270
   17CHTO   C42 7051   3.963   5.240   0.915  0.2759 -0.4091  0.1686
   17CHTO   H84 7052   3.930   5.137   0.929  1.0642 -1.0021 -2.1503
   17CHTO   C44 7053   4.071   5.266   1.027 -0.6257  0.8179 -0.6408
   17CHTO   H86 7054   4.079   5.373   1.043  1.9389  0.4820  0.7116
   17CHTO   O32 7055   4.021   5.200   1.139  0.1361 -0.1341 -0.5376
   17CHTO   H69 7056   4.090   5.188   1.202  0.1036 -4.0067 -1.1366
   17CHTO   C48 7057   4.215   5.211   0.991 -0.1351  0.5059  0.0292
   17CHTO   H90 7058   4.227   5.104   1.011  0.6183  0.8182  1.2937
   17CHTO    N9 7059   4.325   5.267   1.072  0.6054 -0.4479 -0.1351
   17CHTO   H77 7060   4.295   5.273   1.175  2.1609 -2.9356  0.4966
   17CHTO   H78 7061   4.340   5.370   1.040  1.2525 -0.2417  0.8010
   17CHTO   C51 7062   4.243   5.226   0.835 -0.7863  0.3591 -0.4973
   17CHTO   H93 7063   4.259   5.333   0.827 -0.0498  0.3995  1.3759
   17CHTO   O30 7064   4.128   5.172   0.766 -0.5120 -0.5065 -0.0498
   17CHTO   C46 7065   4.019   5.250   0.772  0.1935 -0.1917 -0.5899
   17CHTO   H88 7066   4.031   5.353   0.740 -3.2538  0.0188 -1.4175
   17CHTO   C53 7067   3.916   5.196   0.669 -0.1847  0.3370 -0.0295
   17CHTO   O72 7068   3.935   5.254   0.543  0.4754 -0.3988  0.5655
   17CHTO  H199 7069   3.998   5.207   0.492  0.6231 -0.5144  0.8531
   17CHTO   O22 7070   4.357   5.154   0.777 -0.5709  0.4620  0.6324
   17CHTO   C31 7071   4.432   5.189   0.656 -0.3682  0.2588  0.0104
   17CHTO   H59 7072   4.518   5.119   0.652 -1.1687 -0.8000  0.9009
   17CHTO   C29 7073   4.350   5.171   0.528  0.5472 -0.2968  0.4783
   17CHTO   H57 7074   4.252   5.218   0.542  0.6259 -0.0408  0.1600
   17CHTO   O21 7075   4.320   5.030   0.524  0.4418  0.0703 -0.5801
   17CHTO   H37 7076   4.245   5.016   0.469 -1.5742  2.8159  1.3435
   17CHTO   C27 7077   4.407   5.227   0.392  0.1545 -0.2862  0.5401
   17CHTO   H55 7078   4.498   5.168   0.371 -0.4804 -1.4109  0.9349
   17CHTO    N5 7079   4.312   5.213   0.275 -0.5030  0.3582  0.2804
   17CHTO   H43 7080   4.238   5.137   0.298 -0.9439  0.8321  0.4336
   17CHTO   H44 7081   4.365   5.184   0.185 -0.6363  1.0019 -0.0080
   17CHTO   C25 7082   4.442   5.375   0.420 -0.0886 -0.4933  0.0254
   17CHTO   H53 7083   4.358   5.438   0.453  1.2836  1.2250  0.2887
   17CHTO   O17 7084   4.539   5.379   0.530 -0.1735  0.2216 -0.5640
   17CHTO   C32 7085   4.485   5.331   0.655 -0.0087  0.1568 -0.1557
   17CHTO   H60 7086   4.406   5.400   0.685 -0.8324 -0.9978  0.3960
   17CHTO   C36 7087   4.597   5.341   0.756  0.2618  0.0075  0.0642
   17CHTO   O25 7088   4.652   5.475   0.756 -0.1232 -0.5744 -0.5876
   17CHTO   H40 7089   4.741   5.469   0.786 -0.4997 -0.6050  0.5616
   17CHTO   O15 7090   4.514   5.446   0.301  0.1624  0.0002 -0.0068
   17CHTO   C19 7091   4.560   5.586   0.287  0.6186 -0.6413  0.5365
   17CHTO   H47 7092   4.588   5.589   0.181 -1.4262 -3.1561 -0.1183
   17CHTO   C20 7093   4.447   5.685   0.305 -0.6279 -0.0437 -0.5646
   17CHTO   H48 7094   4.405   5.684   0.407  4.0947  3.4165  1.6358
   17CHTO   O19 7095   4.345   5.636   0.220  0.3507 -0.4091  0.3813
   17CHTO   H35 7096   4.317   5.553   0.255  0.9025 -0.4911  0.6358
   17CHTO   C21 7097   4.495   5.838   0.272 -0.2269  0.4757 -0.0840
   17CHTO   H49 7098   4.532   5.837   0.169  2.0211 -1.8907  0.6980
   17CHTO    N4 7099   4.383   5.939   0.280 -0.6070  0.2354 -0.2358
   17CHTO   H41 7100   4.301   5.909   0.217 -0.8118 -1.0379  0.6185
   17CHTO   H42 7101   4.351   5.954   0.382 -0.2729  0.9385 -0.2308
   17CHTO   C22 7102   4.617   5.866   0.366  0.0514 -0.9679 -1.2557
   17CHTO   H50 7103   4.579   5.850   0.467 -0.3625 -1.8603 -1.5408
   17CHTO   O14 7104   4.722   5.768   0.359 -0.0339 -0.5317 -0.2050
   17CHTO   C23 7105   4.687   5.626   0.377  0.1389 -0.0864  0.3118
   17CHTO   H51 7106   4.666   5.614   0.485 -1.7170  1.7743  0.1696
   17CHTO   C34 7107   4.802   5.544   0.339  0.1916 -0.1206  0.4810
   17CHTO   O23 7108   4.771   5.408   0.378 -0.7460 -0.0361  0.8888
   17CHTO   H38 7109   4.828   5.356   0.325 -0.6358  0.1066  0.8681
   17CHTO   O16 7110   4.669   5.994   0.332 -0.0016  0.9508 -0.1527
   17CHTO   C24 7111   4.741   6.075   0.449  0.2249  0.3681 -0.2889
   17CHTO   H52 7112   4.785   6.010   0.525  0.3901  0.5733 -0.2107
   17CHTO   C26 7113   4.641   6.172   0.512 -0.3552  0.3608  0.1350
   17CHTO   H54 7114   4.588   6.227   0.432  0.6559  0.8318 -0.2090
   17CHTO   O20 7115   4.526   6.107   0.583 -0.5596  0.0673 -0.2982
   17CHTO   H36 7116   4.553   6.046   0.648  3.2623 -0.0141 -1.8645
   17CHTO   C30 7117   4.709   6.285   0.604  0.4066  0.5897 -0.3361
   17CHTO   H58 7118   4.746   6.248   0.700  2.7612  1.4066 -0.8865
   17CHTO    N6 7119   4.621   6.396   0.649 -0.4593  0.0776 -0.0410
   17CHTO   H45 7120   4.526   6.364   0.690 -0.8197  0.9968 -0.1516
   17CHTO   H46 7121   4.673   6.460   0.720  2.3742 -0.4488 -1.5647
   17CHTO   C33 7122   4.828   6.342   0.526  0.2403 -0.7835 -0.3712
   17CHTO   H61 7123   4.788   6.389   0.435  1.2144  0.2156 -0.2939
   17CHTO   O18 7124   4.917   6.235   0.483  0.2352  0.1771 -0.3824
   17CHTO   C28 7125   4.858   6.154   0.379 -1.0186  0.4069 -0.3416
   17CHTO   H56 7126   4.819   6.211   0.295  0.5276  0.7098 -0.8711
   17CHTO   C35 7127   4.952   6.051   0.323 -0.0988  0.1054  0.1946
   17CHTO   O24 7128   5.050   6.115   0.244 -0.5150  0.0485  0.3084
   17CHTO   H39 7129   5.140   6.096   0.258  0.0220 -0.5403 -3.5171
   17CHTO    O9 7130   4.902   6.445   0.592 -0.2409 -0.1808  0.4053
   17CHTO   C13 7131   4.988   6.543   0.497  0.0353  0.5069 -0.2124
   17CHTO   H26 7132   5.017   6.486   0.406  0.6382  0.2329  0.1447
   17CHTO   C11 7133   5.117   6.595   0.573  0.7727 -0.0085 -0.5638
   17CHTO   H24 7134   5.181   6.510   0.601 -2.4972 -2.0337  1.1901
   17CHTO    O8 7135   5.070   6.647   0.700 -0.3758  0.2729 -0.1404
   17CHTO    H3 7136   5.143   6.669   0.755 -0.0672 -1.0034 -0.0429
   17CHTO    C9 7137   5.192   6.700   0.487 -0.0731  1.0716 -0.0497
   17CHTO   H22 7138   5.213   6.652   0.391 -0.5915  0.3140  0.2051
   17CHTO    N2 7139   5.324   6.739   0.545 -0.2838  0.1369  0.6147
   17CHTO   H10 7140   5.359   6.831   0.501 -1.3570  0.4995  0.4900
   17CHTO   H11 7141   5.403   6.666   0.537 -0.4961 -0.2424  1.7416
   17CHTO    C7 7142   5.098   6.820   0.468 -0.6966 -0.0346  0.0697
   17CHTO   H20 7143   5.146   6.884   0.391  1.5588  0.2662  1.6625
   17CHTO    O4 7144   4.973   6.778   0.415  0.5027 -0.0516  0.1876
   17CHTO   C14 7145   4.897   6.666   0.453 -0.1499  0.0915 -0.7150
   17CHTO   H27 7146   4.837   6.627   0.368  0.2191  0.6828 -1.2506
   17CHTO   C18 7147   4.791   6.710   0.561 -0.2018 -0.2928  0.3609
   17CHTO   O13 7148   4.692   6.799   0.501  0.0431  0.1491  0.1671
   17CHTO    H7 7149   4.609   6.795   0.543  0.3957  2.6994  1.2304
   17CHTO    O2 7150   5.070   6.907   0.595  0.4738  0.4199  0.3352
   17CHTO    C1 7151   5.020   7.039   0.580  0.0370  0.2519 -1.3773
   17CHTO   H14 7152   4.946   7.040   0.497  0.6809 -0.0410 -1.9549
   17CHTO    C2 7153   5.139   7.139   0.539 -0.5082 -0.6125  0.3026
   17CHTO   H15 7154   5.226   7.103   0.596 -0.3831  0.8878  1.0875
   17CHTO    O6 7155   5.172   7.113   0.403 -0.2183 -0.2573  0.0500
   17CHTO    H1 7156   5.231   7.043   0.383 -1.4529 -1.1391 -0.6017
   17CHTO    C3 7157   5.091   7.292   0.561  0.3778  0.6193  0.8190
   17CHTO   H16 7158   5.032   7.331   0.476  0.4840 -1.5629 -0.3069
   17CHTO    N1 7159   5.207   7.381   0.572 -1.0273  0.1783 -0.4438
   17CHTO    H8 7160   5.277   7.331   0.637 -1.4010  1.0058  0.6169
   17CHTO    H9 7161   5.246   7.433   0.486 -1.2452 -1.5600 -1.6110
   17CHTO    C4 7162   5.008   7.313   0.687  0.2366  0.0059  0.3622
   17CHTO   H17 7163   5.077   7.317   0.772 -0.5220  4.6829  0.8934
   17CHTO    O1 7164   4.902   7.217   0.695 -0.4190 -0.1385  0.5570
   17CHTO    C5 7165   4.949   7.085   0.717 -0.6774 -0.3763 -0.0214
   17CHTO   H18 7166   5.028   7.080   0.791 -1.1145 -3.2066  0.3140
   17CHTO   C16 7167   4.837   6.996   0.757  0.3316  0.3705  0.0338
   17CHTO   O11 7168   4.791   7.004   0.891  0.1499  0.2073 -0.0075
   17CHTO    H5 7169   4.786   6.914   0.915 -0.8356 -0.2077 -1.6508
   17CHTO    O3 7170   4.922   7.434   0.683  0.9533  0.4266 -0.0075
   17CHTO    C6 7171   4.883   7.504   0.802 -0.3899  0.4764  0.3391
   17CHTO   H19 7172   4.781   7.539   0.791  0.2419  2.0212 -0.9511
   17CHTO    C8 7173   4.890   7.417   0.933  0.9174  0.4228  1.1553
   17CHTO   H21 7174   4.989   7.373   0.938  0.8262  0.1602  0.7356
   17CHTO    O7 7175   4.785   7.316   0.930 -0.4128  0.2532  0.6123
   17CHTO    H2 7176   4.708   7.360   0.958  1.0733  1.4536  2.9307
   17CHTO   C12 7177   4.881   7.505   1.064 -0.2107 -0.4574  1.4069
   17CHTO   H25 7178   4.776   7.538   1.068 -0.2806 -0.3019 -1.1371
   17CHTO    N3 7179   4.907   7.419   1.187  0.0791 -0.7584 -0.0926
   17CHTO   H12 7180   4.844   7.332   1.180 -0.2634 -0.5251  0.0619
   17CHTO   H13 7181   4.895   7.466   1.284 -2.4143 -1.8508  0.1684
   17CHTO   C15 7182   4.967   7.627   1.055  0.3518 -0.0549  0.2413
   17CHTO   H28 7183   5.072   7.607   1.077  0.2380 -0.6683  0.2545
   17CHTO   O10 7184   4.920   7.730   1.165 -0.1190  0.3074  0.3789
   17CHTO    H4 7185   4.835   7.760   1.138  0.9787  1.9503 -1.4562
   17CHTO    O5 7186   4.956   7.704   0.931  0.6376 -0.1197 -0.4820
   17CHTO   C10 7187   4.971   7.630   0.809 -0.1454  0.5419  0.1175
   17CHTO   H23 7188   5.077   7.604   0.806 -0.4662 -0.7172 -0.3853
   17CHTO   C17 7189   4.939   7.727   0.690  0.0329 -0.5814  0.6223
   17CHTO   O12 7190   5.013   7.844   0.698  0.3079 -0.3289  0.4971
   17CHTO    H6 7191   5.099   7.826   0.664  0.1438  1.2969 -0.8207
   18CHTO  H203 7192   6.272   7.146   1.566 -0.4097  0.9190  0.3674
   18CHTO   O82 7193   6.284   7.237   1.549  0.0893  0.7701 -0.1107
   18CHTO  C123 7194   6.271   7.268   1.403 -0.1344  0.3930 -0.3675
   18CHTO  H227 7195   6.165   7.289   1.381 -0.2644  0.5269  0.3645
   18CHTO   O77 7196   6.342   7.399   1.394  0.2245  0.1960  0.4203
   18CHTO  C118 7197   6.324   7.449   1.257 -0.0920 -0.5418 -0.8696
   18CHTO  H222 7198   6.215   7.451   1.241 -0.1136  0.3463 -0.6626
   18CHTO  C125 7199   6.387   7.593   1.243  0.2416 -0.0784 -0.6132
   18CHTO   O84 7200   6.527   7.591   1.289 -0.1419  0.0837 -0.2554
   18CHTO  H205 7201   6.533   7.607   1.382  0.9445 -2.0262  0.0735
   18CHTO  C114 7202   6.384   7.361   1.146  0.3065 -0.3995 -0.0108
   18CHTO  H218 7203   6.490   7.352   1.171  0.2459  1.3971  1.0456
   18CHTO  C116 7204   6.323   7.213   1.151  0.5613  0.8413  0.0419
   18CHTO  H220 7205   6.215   7.216   1.126  0.6847 -1.3549 -0.8664
   18CHTO   O79 7206   6.385   7.126   1.060  0.3390  0.0505 -0.1641
   18CHTO  H201 7207   6.325   7.056   1.045  1.4892 -0.7928 -0.8412
   18CHTO  C120 7208   6.337   7.159   1.303 -0.5930 -0.0696  0.6825
   18CHTO  H224 7209   6.446   7.162   1.320 -0.3253 -0.2593 -0.9351
   18CHTO   N21 7210   6.292   7.020   1.326 -0.3630  0.7739  0.2267
   18CHTO  H211 7211   6.244   7.007   1.422 -1.1842  0.2611 -0.2439
   18CHTO  H212 7212   6.227   6.993   1.244 -0.4176  1.8274 -0.0752
   18CHTO   O75 7213   6.357   7.419   1.021  0.4360  0.1195  0.1874
   18CHTO  C112 7214   6.478   7.419   0.919  0.3529 -0.4141  0.7384
   18CHTO  H216 7215   6.544   7.335   0.944  1.5697  0.1168 -0.6524
   18CHTO   O73 7216   6.549   7.549   0.929  0.2744 -0.6070  0.0582
   18CHTO  C113 7217   6.664   7.569   0.839 -0.5076  0.5423 -0.0522
   18CHTO  H217 7218   6.751   7.506   0.867 -1.1789 -0.8924 -1.1630
   18CHTO  C124 7219   6.703   7.711   0.882 -0.2367  0.1263 -0.7912
   18CHTO   O83 7220   6.825   7.762   0.813  0.5930  0.5183  0.7857
   18CHTO  H204 7221   6.804   7.787   0.725  2.8758  2.5460  0.7797
   18CHTO  C109 7222   6.610   7.564   0.693 -0.6870 -0.1171  0.8101
   18CHTO  H213 7223   6.540   7.648   0.678 -2.6152 -1.7940  0.1585
   18CHTO  C110 7224   6.540   7.426   0.662 -0.1123 -0.8528  0.0814
   18CHTO  H214 7225   6.627   7.362   0.670  0.5416  0.1400  1.0826
   18CHTO   O78 7226   6.489   7.412   0.529 -0.0275  0.1425  0.5458
   18CHTO  H200 7227   6.563   7.419   0.471 -1.1462  0.3433 -0.8879
   18CHTO  C111 7228   6.431   7.395   0.771 -0.1292 -0.0053 -0.3102
   18CHTO  H215 7229   6.352   7.468   0.751 -0.3298 -0.1154  0.0876
   18CHTO   N19 7230   6.372   7.258   0.759 -0.5054 -0.5643  0.0233
   18CHTO  H207 7231   6.329   7.230   0.664  1.3502 -1.5455 -0.5471
   18CHTO  H208 7232   6.298   7.240   0.836 -0.6333 -1.4753 -0.3036
   18CHTO   O74 7233   6.723   7.584   0.601 -0.2631 -0.1913  0.0759
   18CHTO  C115 7234   6.691   7.653   0.437  0.0312 -0.3680 -0.2100
   18CHTO  H219 7235   6.606   7.605   0.390  0.2821 -0.1755 -0.8630
   18CHTO   O76 7236   6.663   7.811   0.445 -0.6049  0.1762  0.3803
   18CHTO  C122 7237   6.655   7.884   0.325 -0.4200  0.0594  0.3468
   18CHTO  H226 7238   6.660   7.989   0.352  0.9215 -0.4944  2.3716
   18CHTO  C126 7239   6.519   7.867   0.247  0.2120 -0.3425  0.3850
   18CHTO   O85 7240   6.507   7.956   0.136 -0.3214  0.1534  0.0619
   18CHTO  H206 7241   6.567   8.028   0.136 -0.5458  0.3419  0.4539
   18CHTO  C121 7242   6.782   7.854   0.233 -0.2850  0.2150 -0.5653
   18CHTO  H225 7243   6.753   7.904   0.138 -1.7353 -0.0097 -0.2544
   18CHTO   O81 7244   6.900   7.921   0.284  0.0617  0.3552  0.0971
   18CHTO  H202 7245   6.894   8.010   0.256 -0.6080 -0.6351 -3.1668
   18CHTO  C119 7246   6.803   7.701   0.208 -0.2903  0.3751  0.3200
   18CHTO  H223 7247   6.711   7.666   0.160 -0.4127  0.7227  0.2975
   18CHTO  C117 7248   6.815   7.620   0.342  0.4319 -0.3201  0.1334
   18CHTO  H221 7249   6.910   7.642   0.393  1.3476 -1.5410 -1.0115
   18CHTO   N20 7250   6.819   7.474   0.322 -0.1498 -0.2122 -0.2618
   18CHTO  H209 7251   6.918   7.441   0.297  0.0375  0.8248 -0.9080
   18CHTO  H210 7252   6.772   7.420   0.403 -1.0607  1.3126  0.2591
   18CHTO   O80 7253   6.905   7.677   0.114 -0.6210  0.2161  0.1263
   18CHTO  C103 7254   6.871   7.608  -0.039 -0.0486 -0.3215  0.1199
   18CHTO  H190 7255   6.957   7.600  -0.106  1.1791 -0.4045  1.6671
   18CHTO  C101 7256   6.800   7.467  -0.031 -0.1135 -0.1312  0.5144
   18CHTO  H188 7257   6.733   7.479   0.054  0.2568 -0.8235  0.9024
   18CHTO   O68 7258   6.917   7.367   0.001  0.0711 -0.2315 -1.0410
   18CHTO  H168 7259   6.913   7.282  -0.038  0.5102 -0.8219  0.1620
   18CHTO   C99 7260   6.721   7.419  -0.153  0.2881  1.1011  0.1325
   18CHTO  H186 7261   6.793   7.399  -0.236  1.0836  1.9948  0.5876
   18CHTO   N17 7262   6.646   7.289  -0.138 -0.5902  0.1923 -0.2797
   18CHTO  H174 7263   6.634   7.241  -0.235 -0.2135  0.4231 -0.4394
   18CHTO  H175 7264   6.714   7.228  -0.081 -0.6173 -1.1030 -1.6006
   18CHTO   C97 7265   6.627   7.536  -0.200 -1.0926 -0.8543 -0.3404
   18CHTO  H184 7266   6.554   7.558  -0.121  0.4090 -1.0656  1.1245
   18CHTO   O64 7267   6.707   7.650  -0.230  0.2274  0.0227  0.3224
   18CHTO  C104 7268   6.776   7.702  -0.110 -0.0241 -0.0691  1.1744
   18CHTO  H191 7269   6.696   7.731  -0.043 -1.9854  2.0417 -1.9582
   18CHTO  C108 7270   6.851   7.831  -0.147  0.7816  0.4607  0.2995
   18CHTO   O71 7271   6.750   7.930  -0.177 -0.3235 -0.6878  0.1377
   18CHTO  H171 7272   6.766   7.963  -0.264  0.8849  1.1114  1.0149
   18CHTO   O62 7273   6.552   7.515  -0.327 -0.2097  0.0560 -0.6002
   18CHTO   C91 7274   6.416   7.554  -0.335 -0.5283  0.1606 -0.2613
   18CHTO  H178 7275   6.362   7.556  -0.240  0.1032  0.7765  0.0893
   18CHTO   C92 7276   6.345   7.434  -0.400  0.9917  0.5208  0.1907
   18CHTO  H179 7277   6.394   7.421  -0.498 -0.2273  1.7341 -0.5968
   18CHTO   O66 7278   6.374   7.316  -0.317  0.1207 -0.0511  0.9049
   18CHTO  H166 7279   6.292   7.287  -0.282 -1.1393  1.0424 -1.0963
   18CHTO   C93 7280   6.182   7.457  -0.406 -0.7511 -0.2842  0.0698
   18CHTO  H180 7281   6.147   7.445  -0.302 -0.5597 -0.6609  0.0919
   18CHTO   N16 7282   6.118   7.357  -0.497  0.1162 -0.1612  0.6680
   18CHTO  H172 7283   6.183   7.341  -0.582  1.4781  0.8720  1.4974
   18CHTO  H173 7284   6.109   7.267  -0.438  0.0907  0.8476  2.2364
   18CHTO   C94 7285   6.138   7.606  -0.456  0.0310 -0.3617 -0.3173
   18CHTO  H181 7286   6.147   7.624  -0.564 -2.3194  0.5278 -0.4054
   18CHTO   O61 7287   6.227   7.700  -0.389 -0.2616 -0.1743  0.3506
   18CHTO   C95 7288   6.373   7.691  -0.397 -1.2764  0.4151 -0.3466
   18CHTO  H182 7289   6.404   7.702  -0.501  0.1367 -0.2425 -0.0098
   18CHTO  C106 7290   6.432   7.807  -0.324 -1.0470  0.3865  0.1614
   18CHTO   O69 7291   6.383   7.807  -0.185 -1.0464  0.7170 -0.4984
   18CHTO  H169 7292   6.294   7.781  -0.194 -0.6426 -1.8790  2.3284
   18CHTO   O63 7293   5.979   7.636  -0.394 -0.3288  0.5894 -0.1932
   18CHTO   C96 7294   5.912   7.767  -0.437 -0.3483 -0.6507  0.6449
   18CHTO  H183 7295   5.980   7.810  -0.511 -1.9815 -2.1017 -1.8102
   18CHTO   C98 7296   5.879   7.876  -0.336 -0.0087  0.0195 -0.3067
   18CHTO  H185 7297   5.804   7.835  -0.266  2.0714 -1.4584  1.1305
   18CHTO   O67 7298   6.001   7.896  -0.260  0.2464  0.0355  0.1709
   18CHTO  H167 7299   5.979   7.966  -0.201  0.5313  0.1351  0.1578
   18CHTO  C102 7300   5.822   8.009  -0.411 -0.2630 -0.0215 -0.7262
   18CHTO  H189 7301   5.911   8.058  -0.453 -0.3178  0.3216 -0.4498
   18CHTO   N18 7302   5.755   8.111  -0.326  0.2719  0.1094  0.3034
   18CHTO  H176 7303   5.674   8.065  -0.272 -0.1800  1.3238  0.6734
   18CHTO  H177 7304   5.731   8.202  -0.379 -0.1615 -0.0719  0.1910
   18CHTO  C105 7305   5.729   7.978  -0.532  0.5457  0.2594  0.0728
   18CHTO  H192 7306   5.625   7.972  -0.498 -0.0856  3.1974 -1.1262
   18CHTO   O65 7307   5.758   7.854  -0.596  0.1124  0.2176 -0.0287
   18CHTO  C100 7308   5.778   7.735  -0.517  0.5486 -1.2765  0.0348
   18CHTO  H187 7309   5.692   7.713  -0.452  0.1040 -2.0299 -0.7948
   18CHTO  C107 7310   5.783   7.616  -0.607 -0.2943 -0.2247  0.5419
   18CHTO   O70 7311   5.741   7.498  -0.542 -0.0018  0.4998  0.1642
   18CHTO  H170 7312   5.721   7.434  -0.608 -0.7802 -1.2318  2.0378
   18CHTO   O57 7313   5.741   8.103  -0.637 -0.0011 -0.0025 -0.2516
   18CHTO   C85 7314   5.628   8.140  -0.715  0.0629 -0.7114 -0.8129
   18CHTO  H157 7315   5.666   8.203  -0.799 -0.5961  1.5899  0.5616
   18CHTO   C83 7316   5.534   8.246  -0.640 -0.5814  0.6438 -0.2776
   18CHTO  H155 7317   5.592   8.336  -0.620  1.8048 -1.0671  0.7422
   18CHTO   O56 7318   5.507   8.199  -0.509 -0.5054 -0.2422  0.5334
   18CHTO  H135 7319   5.578   8.166  -0.457 -0.8095 -1.4649  0.1944
   18CHTO   C81 7320   5.414   8.278  -0.726  0.6656 -0.2065 -0.3308
   18CHTO  H153 7321   5.442   8.319  -0.824 -1.4584  3.0465  0.3443
   18CHTO   N14 7322   5.334   8.393  -0.672  0.0509  0.4648  0.0149
   18CHTO  H141 7323   5.258   8.416  -0.744 -1.3243 -1.6679  0.7116
   18CHTO  H142 7324   5.396   8.477  -0.650  1.9589 -0.4108 -1.8162
   18CHTO   C79 7325   5.328   8.151  -0.752  0.0513 -0.3012 -0.1501
   18CHTO  H151 7326   5.242   8.179  -0.813 -0.9305 -0.3330  1.1947
   18CHTO   O52 7327   5.408   8.055  -0.833  0.3004 -0.1351  0.0683
   18CHTO   C86 7328   5.533   8.017  -0.769 -0.0600 -0.2079 -0.2542
   18CHTO  H158 7329   5.499   7.956  -0.683  0.5903  0.3193  0.3847
   18CHTO   C90 7330   5.618   7.926  -0.862 -0.3576  0.3138  0.2728
   18CHTO   O60 7331   5.543   7.815  -0.902 -0.2083  0.5256 -0.1431
   18CHTO  H138 7332   5.489   7.840  -0.974  0.0812  0.1916 -0.4817
   18CHTO   O50 7333   5.275   8.082  -0.633 -0.3050  0.0304  0.6404
   18CHTO   C73 7334   5.176   7.984  -0.612  0.0225 -0.2890 -0.1841
   18CHTO  H145 7335   5.152   7.912  -0.692 -0.0594 -0.4470 -0.0159
   18CHTO   C74 7336   5.038   8.047  -0.585  0.3534 -1.3648 -0.7971
   18CHTO  H146 7337   5.001   8.099  -0.674 -1.1573 -0.5208  0.3025
   18CHTO   O54 7338   4.936   7.955  -0.543 -0.1169 -0.1006 -0.3807
   18CHTO  H133 7339   4.892   7.984  -0.465 -0.2630 -2.0575  0.2982
   18CHTO   C75 7340   5.064   8.151  -0.459  0.0541  0.1647  0.5022
   18CHTO  H147 7341   5.131   8.229  -0.495  1.0606 -1.3479 -0.9761
   18CHTO   N13 7342   4.946   8.233  -0.417 -0.2507 -0.1980 -0.3850
   18CHTO  H139 7343   4.860   8.214  -0.480 -0.2412 -0.8141 -0.2219
   18CHTO  H140 7344   4.966   8.338  -0.423  2.1931 -0.6444 -0.5150
   18CHTO   C76 7345   5.129   8.070  -0.338  0.3810 -0.2151  0.0355
   18CHTO  H148 7346   5.051   8.010  -0.292  0.3673  1.1340  1.8142
   18CHTO   O49 7347   5.239   7.984  -0.375 -0.2707  0.1164  0.2019
   18CHTO   C77 7348   5.220   7.897  -0.488  0.4319 -0.0115  0.2813
   18CHTO  H149 7349   5.137   7.829  -0.472 -1.4265  1.8312 -1.3647
   18CHTO   C88 7350   5.350   7.817  -0.506 -0.3348 -0.0415 -0.1388
   18CHTO   O58 7351   5.388   7.745  -0.410 -0.5785  0.0213 -0.2874
   18CHTO  H136 7352   5.449   7.780  -0.348  1.1284 -1.9725 -0.7792
   18CHTO   O51 7353   5.195   8.170  -0.240  0.4535  0.0940 -0.0123
   18CHTO   C78 7354   5.203   8.123  -0.098  0.4568 -0.6911 -0.4626
   18CHTO  H150 7355   5.205   8.013  -0.092 -0.5477 -0.6906 -0.0491
   18CHTO   C80 7356   5.086   8.167  -0.015 -0.9060  0.1318 -0.4645
   18CHTO  H152 7357   5.068   8.276  -0.029 -0.2102  0.3355  0.2157
   18CHTO   O55 7358   4.975   8.105  -0.081  0.3343  0.0156  0.1886
   18CHTO  H134 7359   4.936   8.168  -0.139  0.3455 -2.3592 -2.4734
   18CHTO   C84 7360   5.099   8.130   0.135  0.2864  0.5529  0.1639
   18CHTO  H156 7361   5.108   8.022   0.142  0.9927  0.5586 -0.7025
   18CHTO   N15 7362   4.982   8.168   0.211  0.4814  0.3260 -0.0919
   18CHTO  H143 7363   5.004   8.238   0.289 -2.1987  1.0917  0.0121
   18CHTO  H144 7364   4.900   8.207   0.156 -0.4736 -1.5493 -0.0352
   18CHTO   C87 7365   5.227   8.185   0.193 -0.0307  0.8584 -0.5902
   18CHTO  H159 7366   5.211   8.292   0.180  0.1768  1.2352  2.0343
   18CHTO   O53 7367   5.339   8.132   0.098  0.0820  0.2521  0.2835
   18CHTO   C82 7368   5.334   8.174  -0.037  0.2429 -0.1163  0.6855
   18CHTO  H154 7369   5.342   8.283  -0.037 -1.4058  0.0189 -0.0447
   18CHTO   C89 7370   5.459   8.126  -0.109 -0.2490 -0.6026 -1.2124
   18CHTO   O59 7371   5.476   7.980  -0.125  0.4292 -0.1505  0.4102
   18CHTO  H137 7372   5.569   7.973  -0.126  0.5532  1.3545 -2.3558
   18CHTO   O45 7373   5.250   8.151   0.348  0.1403  0.1902 -0.4356
   18CHTO   C67 7374   5.381   8.169   0.395 -0.0544  0.3057 -0.3946
   18CHTO  H124 7375   5.458   8.161   0.319  1.6081 -0.6885  1.3442
   18CHTO   C65 7376   5.385   8.317   0.450 -0.3269 -0.0045  0.0891
   18CHTO  H122 7377   5.289   8.356   0.482 -0.6918 -1.5234  0.8911
   18CHTO   O44 7378   5.429   8.386   0.335 -0.1307 -0.2601 -0.1056
   18CHTO  H102 7379   5.407   8.476   0.350  2.2491  0.6968 -1.9854
   18CHTO   C63 7380   5.488   8.336   0.569  0.0896  0.0083 -0.1310
   18CHTO  H120 7381   5.436   8.307   0.660  1.4296 -1.0228  0.3202
   18CHTO   N11 7382   5.540   8.472   0.607 -0.7672 -0.5268 -0.9677
   18CHTO  H108 7383   5.466   8.550   0.597 -1.0586 -0.5541  0.8247
   18CHTO  H109 7384   5.639   8.501   0.581 -1.3517  1.7999 -0.7815
   18CHTO   C61 7385   5.605   8.234   0.558  0.1998 -0.3810  1.0876
   18CHTO  H118 7386   5.669   8.235   0.647 -0.3441 -1.8265  1.5041
   18CHTO   O40 7387   5.560   8.093   0.537  0.0875 -0.8959  0.6735
   18CHTO   C68 7388   5.424   8.075   0.505  0.4283  0.8482 -0.2308
   18CHTO  H125 7389   5.368   8.093   0.599  1.2886  1.1202  0.2398
   18CHTO   C72 7390   5.401   7.929   0.456 -0.2108  0.4301 -0.1913
   18CHTO   O48 7391   5.278   7.864   0.468 -0.4494 -0.2258 -0.1258
   18CHTO  H105 7392   5.261   7.846   0.378  0.6903 -1.8576 -0.0530
   18CHTO   O38 7393   5.688   8.276   0.445 -0.3520 -1.0911 -0.0266
   18CHTO   C55 7394   5.823   8.213   0.439 -0.0275 -0.6498  0.7411
   18CHTO  H112 7395   5.843   8.139   0.518 -0.0993 -3.2616 -1.5919
   18CHTO   C56 7396   5.929   8.339   0.451 -0.1356 -0.6735  0.3913
   18CHTO  H113 7397   5.911   8.417   0.375 -0.1811 -0.0606  1.0286
   18CHTO   O42 7398   5.900   8.420   0.571  0.1025  0.0745 -0.4242
   18CHTO  H100 7399   5.807   8.433   0.578 -0.0348 -0.2868 -1.4864
   18CHTO   C57 7400   6.081   8.278   0.441 -0.6003 -0.6564 -0.7850
   18CHTO  H114 7401   6.088   8.230   0.538  0.2199 -1.7820 -1.3846
   18CHTO   N10 7402   6.188   8.376   0.433 -0.8963  0.4062 -0.0309
   18CHTO  H106 7403   6.269   8.334   0.374 -0.1053  0.5539  0.9329
   18CHTO  H107 7404   6.149   8.465   0.386  2.4579  2.0811  0.1571
   18CHTO   C58 7405   6.092   8.171   0.326  0.4041 -0.4469  0.1875
   18CHTO  H115 7406   6.126   8.219   0.232 -0.8955 -0.0150 -0.0602
   18CHTO   O37 7407   5.981   8.086   0.306  0.5725  0.0182  0.5601
   18CHTO   C59 7408   5.854   8.149   0.299 -0.3657  0.1793  0.3630
   18CHTO  H116 7409   5.861   8.216   0.213  0.5943 -1.2313 -0.6861
   18CHTO   C70 7410   5.749   8.045   0.262  0.3617  0.3404  0.4124
   18CHTO   O46 7411   5.710   8.023   0.126 -0.6756  0.2945 -0.3268
   18CHTO  H103 7412   5.637   7.965   0.120  0.0567 -0.4459 -2.9395
   18CHTO   O39 7413   6.214   8.067   0.371  0.7005  0.0906  0.2941
   18CHTO   C60 7414   6.184   7.976   0.479 -0.1079 -0.1906 -0.2626
   18CHTO  H117 7415   6.110   8.024   0.543 -1.9599 -2.0554 -0.9732
   18CHTO   C62 7416   6.120   7.840   0.429  0.2058 -0.3948 -0.1331
   18CHTO  H119 7417   6.027   7.866   0.376 -0.7361 -1.0451  1.1777
   18CHTO   O43 7418   6.223   7.776   0.353  0.2804  0.1985  0.1366
   18CHTO  H101 7419   6.199   7.690   0.323 -0.0828  0.4433 -0.2830
   18CHTO   C66 7420   6.072   7.749   0.548  0.3902 -0.0024 -0.3405
   18CHTO  H123 7421   5.993   7.805   0.597  0.7703  0.2978 -0.0798
   18CHTO   N12 7422   6.000   7.626   0.503 -0.4194  0.2322  0.0889
   18CHTO  H110 7423   5.911   7.614   0.563 -0.9861 -1.0039 -0.9804
   18CHTO  H111 7424   5.986   7.625   0.396  1.3394  0.9472 -0.1646
   18CHTO   C69 7425   6.184   7.725   0.651 -0.0921  1.0349 -0.0098
   18CHTO  H126 7426   6.250   7.644   0.616 -0.3630  0.6825  0.2799
   18CHTO   O41 7427   6.271   7.850   0.689 -0.0711  0.1904 -0.2674
   18CHTO   C64 7428   6.311   7.946   0.570  0.4004 -0.3056 -0.8836
   18CHTO  H121 7429   6.383   7.897   0.501  0.4407  0.3697 -1.3314
   18CHTO   C71 7430   6.364   8.085   0.627  0.2154 -0.6725  0.5896
   18CHTO   O47 7431   6.477   8.088   0.716  0.5817  0.0443 -0.5081
   18CHTO  H104 7432   6.453   8.052   0.800  0.3801 -0.2801 -0.7071
   18CHTO   O34 7433   6.119   7.654   0.796 -0.2853  0.0738  0.4230
   18CHTO   C49 7434   6.029   7.672   0.920  0.2925 -0.5583 -0.6058
   18CHTO   H91 7435   6.104   7.667   0.999  0.2469 -2.1263 -0.6351
   18CHTO   C47 7436   5.909   7.572   0.923 -0.1626  0.2351 -0.0867
   18CHTO   H89 7437   5.866   7.580   1.025 -1.6997  0.4405 -0.7371
   18CHTO   O33 7438   5.962   7.442   0.906 -0.2209 -0.1723  0.0343
   18CHTO   H70 7439   5.919   7.377   0.958  0.9109 -1.1757 -0.2539
   18CHTO   C45 7440   5.796   7.601   0.811  0.7398  0.3876 -0.1458
   18CHTO   H87 7441   5.842   7.601   0.711  2.0915 -2.5937  0.4253
   18CHTO    N8 7442   5.683   7.502   0.802 -0.0264 -0.3460 -0.4285
   18CHTO   H75 7443   5.625   7.519   0.892  0.3249 -0.5908 -0.1527
   18CHTO   H76 7444   5.729   7.405   0.802 -1.7309 -1.1643 -1.6676
   18CHTO   C43 7445   5.750   7.761   0.818  0.4323  0.2891 -0.1478
   18CHTO   H85 7446   5.683   7.778   0.734 -0.2707 -0.9195  0.1491
   18CHTO   O29 7447   5.863   7.847   0.822  0.1166 -0.0375  0.1646
   18CHTO   C50 7448   5.972   7.818   0.914  0.4874  0.1160 -0.3218
   18CHTO   H92 7449   6.062   7.874   0.883  0.2531  1.2098  0.9195
   18CHTO   C54 7450   5.938   7.885   1.051 -0.2898 -0.5084  0.6625
   18CHTO   O36 7451   6.046   7.856   1.138 -0.0863 -0.1540 -0.2138
   18CHTO   H72 7452   6.129   7.860   1.095  0.4614 -1.2829  0.7120
   18CHTO   O27 7453   5.659   7.789   0.931  0.0551 -0.2942 -0.4850
   18CHTO   C37 7454   5.558   7.878   0.982 -0.2163 -0.6716 -0.2452
   18CHTO   H79 7455   5.516   7.843   1.077  2.6232  0.6391  1.5683
   18CHTO   C38 7456   5.616   8.024   1.008 -0.5861  0.6264 -0.3171
   18CHTO   H80 7457   5.695   8.041   0.933  0.1940  1.8764  0.7506
   18CHTO   O31 7458   5.675   8.036   1.139 -0.1796  0.0985 -0.1711
   18CHTO   H68 7459   5.614   8.026   1.210 -0.7185 -0.7786 -0.7542
   18CHTO   C39 7460   5.506   8.134   0.995  0.7887 -0.0708 -0.0705
   18CHTO   H81 7461   5.456   8.140   1.092 -0.1432  1.6525 -0.6201
   18CHTO    N7 7462   5.568   8.269   0.983  0.7300  0.4722  0.1201
   18CHTO   H73 7463   5.503   8.344   1.026 -0.1278 -0.3807  0.3395
   18CHTO   H74 7464   5.662   8.276   1.036  1.0927 -0.0697 -0.4468
   18CHTO   C40 7465   5.409   8.095   0.875 -0.4766  0.1887  0.3273
   18CHTO   H82 7466   5.477   8.101   0.790  0.6929  0.1859  1.2589
   18CHTO   O26 7467   5.357   7.965   0.886 -0.1790  0.4810  0.4973
   18CHTO   C41 7468   5.453   7.865   0.867 -0.2454  0.3467  0.0380
   18CHTO   H83 7469   5.488   7.878   0.764 -0.3834 -1.1623 -0.2144
   18CHTO   C52 7470   5.369   7.729   0.867 -0.3536  0.9131  0.4170
   18CHTO   O35 7471   5.291   7.716   0.741  0.4712 -0.5018 -0.0590
   18CHTO   H71 7472   5.234   7.641   0.747 -2.9025  1.9734  0.0468
   18CHTO   O28 7473   5.305   8.193   0.860  0.1905  0.2039  0.1264
   18CHTO   C42 7474   5.164   8.200   0.917  0.7594  0.0030  0.5903
   18CHTO   H84 7475   5.149   8.308   0.925 -0.6761 -0.0390 -1.2362
   18CHTO   C44 7476   5.133   8.144   1.057  0.3739  0.4942  0.6282
   18CHTO   H86 7477   5.143   8.036   1.048  3.1018  0.9177 -2.5669
   18CHTO   O32 7478   5.238   8.194   1.135 -0.0216  0.1546 -0.2105
   18CHTO   H69 7479   5.247   8.287   1.143  3.4327  0.0481 -1.9544
   18CHTO   C48 7480   4.988   8.184   1.098  0.4643 -0.6502 -0.7531
   18CHTO   H90 7481   4.977   8.292   1.093 -0.2814 -0.6809  0.1353
   18CHTO    N9 7482   4.962   8.155   1.240 -0.0566  0.5391  0.1495
   18CHTO   H77 7483   4.855   8.164   1.253 -0.4764 -0.1046 -2.5862
   18CHTO   H78 7484   4.998   8.058   1.271 -0.4542  0.4229  0.2504
   18CHTO   C51 7485   4.887   8.120   0.990  0.2883  0.0649 -0.3620
   18CHTO   H93 7486   4.891   8.011   0.986  5.3305  0.1173 -0.1302
   18CHTO   O30 7487   4.918   8.182   0.859  0.0889  0.1356 -0.1447
   18CHTO   C46 7488   5.061   8.152   0.813  0.9222  0.3616  0.3225
   18CHTO   H88 7489   5.067   8.043   0.810 -0.7448  0.2986 -1.8931
   18CHTO   C53 7490   5.071   8.211   0.667 -0.2227  0.7558 -0.2681
   18CHTO   O72 7491   4.978   8.161   0.569  0.5678 -0.4246  0.0874
   18CHTO  H199 7492   5.012   8.200   0.490  0.7780  0.7250  0.7306
   18CHTO   O22 7493   4.746   8.142   1.020  0.0363  0.5798  0.9780
   18CHTO   C31 7494   4.632   8.126   0.928 -0.3237  0.3792  0.2573
   18CHTO   H59 7495   4.541   8.130   0.990 -0.5070 -0.2756  0.0354
   18CHTO   C29 7496   4.626   8.246   0.832  1.0160  0.5005  0.6152
   18CHTO   H57 7497   4.729   8.259   0.796  0.2794  0.2942 -1.6446
   18CHTO   O21 7498   4.587   8.351   0.919  0.3571  0.4202  0.2659
   18CHTO   H37 7499   4.658   8.410   0.933  1.0583 -0.1310 -0.9244
   18CHTO   C27 7500   4.528   8.226   0.707  0.0893  0.4268  0.8343
   18CHTO   H55 7501   4.423   8.223   0.740 -0.3167 -0.3259 -0.4834
   18CHTO    N5 7502   4.540   8.327   0.603 -0.4716 -0.0861 -0.0991
   18CHTO   H43 7503   4.636   8.313   0.555 -0.8584  1.3080 -1.3059
   18CHTO   H44 7504   4.501   8.419   0.643  0.5166 -0.1004  0.8968
   18CHTO   C25 7505   4.559   8.085   0.649  0.2093  0.3320 -0.3039
   18CHTO   H53 7506   4.662   8.075   0.612 -0.1349  1.1799 -1.5352
   18CHTO   O17 7507   4.537   7.985   0.752  0.4232  0.5107  0.4167
   18CHTO   C32 7508   4.639   7.989   0.855 -0.4116  0.0945  0.5035
   18CHTO   H60 7509   4.730   7.985   0.795 -1.4148  0.1761 -1.0795
   18CHTO   C36 7510   4.622   7.874   0.954  0.8665  0.2556  0.2006
   18CHTO   O25 7511   4.609   7.742   0.893  0.3788  0.1968 -0.1116
   18CHTO   H40 7512   4.692   7.699   0.900  0.1156 -0.7210 -2.2078
   18CHTO   O15 7513   4.465   8.046   0.504  0.1141 -0.0142 -0.0405
   18CHTO   C19 7514   4.479   7.962   0.389 -0.2963 -0.9020  0.5368
   18CHTO   H47 7515   4.377   7.921   0.385 -2.4024  4.0293 -1.2226
   18CHTO   C20 7516   4.498   8.041   0.252  0.2356  0.2134 -0.4399
   18CHTO   H48 7517   4.581   8.113   0.253 -0.3393  0.8733 -0.1125
   18CHTO   O19 7518   4.378   8.113   0.223 -0.2372  0.2260  0.4070
   18CHTO   H35 7519   4.383   8.205   0.243 -0.5742  0.6212 -1.2034
   18CHTO   C21 7520   4.540   7.933   0.141 -0.3558 -0.2736  0.5124
   18CHTO   H49 7521   4.452   7.875   0.112 -0.2067  0.8834 -2.4392
   18CHTO    N4 7522   4.585   7.996   0.013 -0.1506  0.4928 -0.6527
   18CHTO   H41 7523   4.503   8.033  -0.048 -1.1056  0.7683  0.7871
   18CHTO   H42 7524   4.650   7.935  -0.047  0.7024  1.6368 -0.9142
   18CHTO   C22 7525   4.657   7.842   0.190  0.0353  0.5572  0.2380
   18CHTO   H50 7526   4.729   7.906   0.241 -1.6785  0.4802  2.8274
   18CHTO   O14 7527   4.598   7.770   0.294 -0.0506 -0.0202  0.2278
   18CHTO   C23 7528   4.576   7.838   0.415  0.2019  0.3608  0.1202
   18CHTO   H51 7529   4.673   7.869   0.457  0.6010  2.2415 -2.1269
   18CHTO   C34 7530   4.524   7.735   0.515  0.7182  0.4257 -1.1273
   18CHTO   O23 7531   4.628   7.638   0.527  0.0668  0.1532 -0.6360
   18CHTO   H38 7532   4.598   7.555   0.496  2.1874 -1.3506  1.1858
   18CHTO   O16 7533   4.705   7.740   0.099  0.3211 -0.1666  0.0330
   18CHTO   C24 7534   4.849   7.761   0.025  0.0032  0.9523 -0.5345
   18CHTO   H52 7535   4.875   7.867   0.027 -0.0874  1.0081 -1.7890
   18CHTO   C26 7536   4.854   7.705  -0.116  0.3886  0.0186  0.1087
   18CHTO   H54 7537   4.816   7.601  -0.118 -0.7353  0.4149  0.3875
   18CHTO   O20 7538   4.766   7.791  -0.182 -0.0126  0.5468  0.0358
   18CHTO   H36 7539   4.756   7.763  -0.271  0.8294  1.8052 -0.4634
   18CHTO   C30 7540   4.997   7.695  -0.171 -0.6998 -0.3542  0.0610
   18CHTO   H58 7541   5.033   7.799  -0.183 -0.7251 -0.0828  2.0972
   18CHTO    N6 7542   4.995   7.640  -0.309 -0.6690 -0.1506 -0.1212
   18CHTO   H45 7543   4.936   7.551  -0.325 -1.1977 -0.0953  1.4892
   18CHTO   H46 7544   4.964   7.716  -0.380  1.4169  1.9376  1.1254
   18CHTO   C33 7545   5.088   7.615  -0.073 -0.0238 -0.1630 -0.4246
   18CHTO   H61 7546   5.053   7.511  -0.068  1.8859 -0.7967  0.1274
   18CHTO   O18 7547   5.074   7.676   0.061  0.1623 -0.2290 -0.4936
   18CHTO   C28 7548   4.945   7.684   0.123 -0.3721 -0.1511  0.0331
   18CHTO   H56 7549   4.910   7.581   0.135 -0.7429  0.1025  1.2088
   18CHTO   C35 7550   4.969   7.742   0.267  0.8012  0.3308 -0.3435
   18CHTO   O24 7551   4.995   7.634   0.361  0.0395 -0.7724  0.3272
   18CHTO   H39 7552   4.945   7.644   0.440  0.2757 -3.5872  0.8645
   18CHTO    O9 7553   5.225   7.607  -0.115  0.1936  0.4945  0.0486
   18CHTO   C13 7554   5.325   7.534   0.016  0.0438  0.3341 -0.0931
   18CHTO   H26 7555   5.263   7.491   0.097 -0.2469  0.2872 -0.3411
   18CHTO   C11 7556   5.418   7.650   0.072  0.0100  0.2874  0.0358
   18CHTO   H24 7557   5.355   7.718   0.131  0.4835 -0.1600  1.0719
   18CHTO    O8 7558   5.467   7.717  -0.037 -0.5497 -0.0847  0.6461
   18CHTO    H3 7559   5.486   7.807  -0.020 -0.7184 -0.0387  0.5939
   18CHTO    C9 7560   5.527   7.594   0.167  0.5129  0.0431  0.1363
   18CHTO   H22 7561   5.471   7.552   0.252 -1.6487 -0.2327 -1.4039
   18CHTO    N2 7562   5.612   7.698   0.230  0.0890  0.5865 -0.4218
   18CHTO   H10 7563   5.655   7.649   0.316 -1.4292  2.6991  1.6089
   18CHTO   H11 7564   5.684   7.731   0.157  0.7757  0.6197  0.2647
   18CHTO    C7 7565   5.609   7.493   0.085 -0.3695 -0.2167  0.3241
   18CHTO   H20 7566   5.677   7.462   0.167 -2.0443 -0.0467  1.7937
   18CHTO    O4 7567   5.530   7.385   0.032 -0.3736 -0.3926  0.5205
   18CHTO   C14 7568   5.405   7.411  -0.042  0.2345  0.4126 -0.5863
   18CHTO   H27 7569   5.345   7.319  -0.027  1.1940 -0.3188 -1.1775
   18CHTO   C18 7570   5.419   7.428  -0.194  0.0849  0.1533  0.1571
   18CHTO   O13 7571   5.485   7.321  -0.269 -0.2214  0.5951 -0.5864
   18CHTO    H7 7572   5.563   7.296  -0.222 -0.4793 -1.6401 -1.2838
   18CHTO    O2 7573   5.713   7.556  -0.034 -0.5416  0.1315  0.3674
   18CHTO    C1 7574   5.840   7.490  -0.054  0.0739  0.0423  1.1679
   18CHTO   H14 7575   5.879   7.539  -0.145  1.7624  0.3851  2.0575
   18CHTO    C2 7576   5.830   7.333  -0.070  0.1483  0.2302 -1.1496
   18CHTO   H15 7577   5.765   7.305   0.014 -1.5218  1.1645 -2.0894
   18CHTO    O6 7578   5.763   7.320  -0.193  0.2321 -0.1386 -0.2717
   18CHTO    H1 7579   5.670   7.308  -0.190  0.6448 -4.1262  0.0269
   18CHTO    C3 7580   5.972   7.267  -0.066 -0.1235  0.3372 -0.4825
   18CHTO   H16 7581   6.033   7.285  -0.156 -0.6679  0.0949 -0.9001
   18CHTO    N1 7582   5.951   7.114  -0.055  0.5382 -0.1803  0.1370
   18CHTO    H8 7583   5.923   7.092   0.047  0.5344 -0.2712  0.1165
   18CHTO    H9 7584   6.051   7.072  -0.062  1.7655  2.9189 -2.1566
   18CHTO    C4 7585   6.056   7.319   0.056 -0.8681 -0.3858 -0.2015
   18CHTO   H17 7586   6.013   7.289   0.151  0.4559  0.0158  0.5427
   18CHTO    O1 7587   6.071   7.459   0.055  0.1756  0.2885  0.0300
   18CHTO    C5 7588   5.944   7.533   0.062  1.1663 -0.7922 -0.1054
   18CHTO   H18 7589   5.909   7.511   0.164  2.2659  1.4609  0.7860
   18CHTO   C16 7590   5.982   7.684   0.061 -0.3981  0.0089 -0.1146
   18CHTO   O11 7591   6.046   7.724  -0.060  0.1262 -0.1986  0.4360
   18CHTO    H5 7592   5.974   7.735  -0.119 -1.7784 -2.7363  2.1649
   18CHTO    O3 7593   6.190   7.273   0.039 -0.0286  0.2780  0.1864
   18CHTO    C6 7594   6.280   7.254   0.162  0.1466  0.0840 -0.0404
   18CHTO   H19 7595   6.233   7.290   0.253  0.6871  0.2601  0.1770
   18CHTO    C8 7596   6.313   7.101   0.175  0.8069 -0.3704  0.8088
   18CHTO   H21 7597   6.346   7.069   0.076 -2.8940  0.2907 -0.7342
   18CHTO    O7 7598   6.188   7.034   0.213  0.6074 -0.0952 -0.2488
   18CHTO    H2 7599   6.149   7.004   0.134  0.1235  0.2608 -0.1469
   18CHTO   C12 7600   6.409   7.065   0.288  0.0389 -0.2339  0.3828
   18CHTO   H25 7601   6.359   7.100   0.380 -0.9611 -0.9268  0.1161
   18CHTO    N3 7602   6.440   6.917   0.307  0.6440 -0.7360  0.2808
   18CHTO   H12 7603   6.523   6.903   0.375  1.2045 -3.0909 -0.8339
   18CHTO   H13 7604   6.451   6.861   0.216 -0.5833  1.0605 -0.9902
   18CHTO   C15 7605   6.537   7.146   0.267  0.3100  0.4127  0.1237
   18CHTO   H28 7606   6.584   7.107   0.177  2.1515 -0.8018  1.5599
   18CHTO   O10 7607   6.632   7.154   0.391  0.1842 -0.6186  0.2002
   18CHTO    H4 7608   6.630   7.235   0.438  1.5843 -0.5715  0.1969
   18CHTO    O5 7609   6.511   7.287   0.251  0.2167  0.2052 -0.3610
   18CHTO   C10 7610   6.418   7.326   0.144  0.7693  0.0666  0.1151
   18CHTO   H23 7611   6.457   7.288   0.049 -0.0533 -0.2812 -0.0867
   18CHTO   C17 7612   6.412   7.480   0.141 -0.2376  0.4008 -0.5276
   18CHTO   O12 7613   6.351   7.518   0.016 -0.0269  0.0832  0.6619
   18CHTO    H6 7614   6.282   7.582   0.023  0.1620  0.0504  3.3261
   19CHTO  H203 7615   4.744   9.318   2.047  0.4604  1.2143 -0.9880
   19CHTO   O82 7616   4.789   9.305   1.967  0.6300 -0.8429 -0.5887
   19CHTO  C123 7617   4.735   9.191   1.903 -0.6571  0.0456 -0.9958
   19CHTO  H227 7618   4.638   9.222   1.861 -2.8329 -3.1396  1.4830
   19CHTO   O77 7619   4.839   9.164   1.805  0.0386 -0.3155 -0.1113
   19CHTO  C118 7620   4.816   9.061   1.714  0.2549  0.1717  0.2369
   19CHTO  H222 7621   4.724   9.063   1.654  1.0388 -0.4132 -0.9979
   19CHTO  C125 7622   4.943   9.062   1.613 -0.0284  0.4038 -0.8985
   19CHTO   O84 7623   4.957   9.193   1.554 -0.1433  0.2310  0.0917
   19CHTO  H205 7624   4.909   9.195   1.474  0.2926 -0.5484 -0.1933
   19CHTO  C114 7625   4.817   8.934   1.801 -0.0985  0.3464 -0.2052
   19CHTO  H218 7626   4.904   8.933   1.867  0.1947  0.7118 -0.5819
   19CHTO  C116 7627   4.702   8.943   1.910 -0.4091 -0.4814 -0.5995
   19CHTO  H220 7628   4.604   8.936   1.859 -0.2885 -0.8157 -0.7880
   19CHTO   O79 7629   4.700   8.820   1.980  0.2637 -0.1158 -0.0425
   19CHTO  H201 7630   4.653   8.750   1.939  1.5347 -1.5017  0.7801
   19CHTO  C120 7631   4.713   9.070   2.000 -0.6328  0.1076  0.8926
   19CHTO  H224 7632   4.798   9.061   2.070  1.6079 -0.0240 -1.7984
   19CHTO   N21 7633   4.600   9.093   2.091 -0.5852 -0.3421 -0.7733
   19CHTO  H211 7634   4.625   9.180   2.151 -0.0487 -1.5335  0.7702
   19CHTO  H212 7635   4.587   9.014   2.164  0.4184 -0.1508 -0.3794
   19CHTO   O75 7636   4.804   8.825   1.710 -0.5217 -0.7054  0.2438
   19CHTO  C112 7637   4.919   8.700   1.749  0.3479 -0.7346 -0.4395
   19CHTO  H216 7638   4.925   8.709   1.858  1.2773  0.9646 -0.6151
   19CHTO   O73 7639   5.040   8.738   1.688 -0.0592  0.3700 -0.3020
   19CHTO  C113 7640   5.137   8.633   1.707  0.7318 -0.3122  0.4261
   19CHTO  H217 7641   5.136   8.609   1.815 -1.3771  1.3322  0.8207
   19CHTO  C124 7642   5.268   8.701   1.672  0.3409 -0.4739 -0.4067
   19CHTO   O83 7643   5.282   8.711   1.528 -0.7361  0.3387  0.1941
   19CHTO  H204 7644   5.361   8.670   1.497 -1.4509 -0.3770 -0.7303
   19CHTO  C109 7645   5.093   8.511   1.625 -0.0716  0.2049  0.3252
   19CHTO  H213 7646   5.085   8.539   1.519 -0.8779  0.7977  0.5419
   19CHTO  C110 7647   4.968   8.455   1.687  0.8117  0.5154 -0.0269
   19CHTO  H214 7648   4.980   8.410   1.786  0.0110  2.6523  1.0821
   19CHTO   O78 7649   4.915   8.353   1.593  0.0052  0.2698  0.0045
   19CHTO  H200 7650   4.882   8.286   1.649  2.4337 -1.0022 -0.0263
   19CHTO  C111 7651   4.866   8.569   1.693  0.0011  0.9319  1.0741
   19CHTO  H215 7652   4.825   8.591   1.593 -0.0354 -0.1632  0.8397
   19CHTO   N19 7653   4.746   8.529   1.775  0.7324 -0.5721 -0.0946
   19CHTO  H207 7654   4.765   8.434   1.823  2.1932 -0.8028 -1.0708
   19CHTO  H208 7655   4.704   8.604   1.841 -0.3947 -1.4313  0.1657
   19CHTO   O74 7656   5.199   8.411   1.636  0.2964 -0.3991  0.0512
   19CHTO  C115 7657   5.240   8.321   1.508  0.1787  0.5541  0.1679
   19CHTO  H219 7658   5.157   8.305   1.440 -0.2213  1.7848  0.3585
   19CHTO   O76 7659   5.345   8.392   1.417  0.1992  0.4821 -0.2761
   19CHTO  C122 7660   5.476   8.386   1.473 -0.3384  0.1294 -0.0283
   19CHTO  H226 7661   5.482   8.455   1.557  2.0925 -0.0387 -0.0287
   19CHTO  C126 7662   5.571   8.452   1.362  0.7383  0.0407 -0.3102
   19CHTO   O85 7663   5.538   8.584   1.319 -0.3670 -0.1014  0.0244
   19CHTO  H206 7664   5.476   8.628   1.374 -0.5551  1.8697 -1.6917
   19CHTO  C121 7665   5.534   8.246   1.502  0.5487  0.0984 -0.3196
   19CHTO  H225 7666   5.611   8.223   1.425  0.8452  0.3456 -0.0959
   19CHTO   O81 7667   5.591   8.243   1.636 -0.4863 -0.1769  0.1190
   19CHTO  H202 7668   5.608   8.331   1.665  1.9284 -0.5032 -0.1707
   19CHTO  C119 7669   5.421   8.140   1.491 -0.7951 -0.1113 -0.6968
   19CHTO  H223 7670   5.386   8.138   1.388 -0.8029 -0.7509 -0.6880
   19CHTO  C117 7671   5.293   8.190   1.565 -0.3360  0.4196 -1.0151
   19CHTO  H221 7672   5.305   8.207   1.672 -1.0453  1.0377 -1.0328
   19CHTO   N20 7673   5.191   8.079   1.555  0.2758 -0.8236  0.0523
   19CHTO  H209 7674   5.092   8.113   1.531  1.1911  0.6864 -1.7139
   19CHTO  H210 7675   5.184   8.024   1.648 -1.9373 -0.8869 -0.1268
   19CHTO   O80 7676   5.472   7.974   1.512  0.2309 -0.0847 -0.5309
   19CHTO  C103 7677   5.523   7.893   1.398  0.3328 -0.0343 -0.3252
   19CHTO  H190 7678   5.527   7.953   1.307 -1.1938  0.5878  0.0138
   19CHTO  C101 7679   5.666   7.837   1.425 -0.4005 -0.6248 -0.4298
   19CHTO  H188 7680   5.661   7.796   1.525  2.0922 -0.6196 -0.2814
   19CHTO   O68 7681   5.748   7.954   1.421 -0.4123 -0.4027  0.0350
   19CHTO  H168 7682   5.778   7.980   1.336  1.3546  1.5024  1.1673
   19CHTO   C99 7683   5.697   7.715   1.324  0.3763  0.1375 -0.0584
   19CHTO  H186 7684   5.706   7.764   1.225  2.0228  0.4281  0.2134
   19CHTO   N17 7685   5.829   7.660   1.358  0.9072 -0.3324 -0.1105
   19CHTO  H174 7686   5.823   7.579   1.429  1.2345  0.6976  1.1301
   19CHTO  H175 7687   5.897   7.741   1.382  1.1645 -0.5473 -0.1071
   19CHTO   C97 7688   5.572   7.618   1.309 -0.3920  0.1955 -0.3285
   19CHTO  H184 7689   5.561   7.557   1.399 -2.1803  0.6968 -0.1940
   19CHTO   O64 7690   5.456   7.695   1.284 -0.2009  0.3182  0.0132
   19CHTO  C104 7691   5.415   7.786   1.381  0.1905 -0.0311 -0.1447
   19CHTO  H191 7692   5.386   7.747   1.478 -0.6987  0.7372 -0.0987
   19CHTO  C108 7693   5.285   7.852   1.326  0.0803  0.3819  0.2922
   19CHTO   O71 7694   5.182   7.757   1.304  0.6058  0.0990 -0.2389
   19CHTO  H171 7695   5.102   7.780   1.348  2.0849  1.5996  1.8249
   19CHTO   O62 7696   5.592   7.539   1.189  0.2070  0.0258  0.3122
   19CHTO   C91 7697   5.553   7.406   1.207 -0.0006  1.1972 -0.1359
   19CHTO  H178 7698   5.503   7.393   1.302 -2.3595  1.1901 -1.3562
   19CHTO   C92 7699   5.675   7.309   1.216  0.4216  0.8192 -0.1112
   19CHTO  H179 7700   5.725   7.305   1.118  0.6995 -0.7000  0.0696
   19CHTO   O66 7701   5.765   7.355   1.315  0.1721 -0.3510 -0.2609
   19CHTO  H166 7702   5.848   7.316   1.294  1.5734  2.2513  0.2699
   19CHTO   C93 7703   5.620   7.159   1.249  0.3657 -0.4331 -0.0137
   19CHTO  H180 7704   5.569   7.169   1.346 -1.1505  2.9115 -1.0770
   19CHTO   N16 7705   5.722   7.057   1.263 -0.1966  0.2399 -0.4844
   19CHTO  H172 7706   5.816   7.089   1.220  1.1477 -1.2591  1.2821
   19CHTO  H173 7707   5.740   7.030   1.366 -0.1245  2.5967  0.1431
   19CHTO   C94 7708   5.522   7.116   1.144  0.1602  0.5469  0.5088
   19CHTO  H181 7709   5.570   7.112   1.046  1.7004 -0.5821  1.2894
   19CHTO   O61 7710   5.419   7.215   1.138 -0.6524 -0.6267 -0.7039
   19CHTO   C95 7711   5.462   7.349   1.097 -0.1445 -0.4073  0.2918
   19CHTO  H182 7712   5.518   7.339   1.004  0.8880 -1.4274  1.0123
   19CHTO  C106 7713   5.343   7.439   1.070 -0.5165  0.3926  0.0178
   19CHTO   O69 7714   5.258   7.392   0.961 -0.0543 -0.2776 -0.2976
   19CHTO  H169 7715   5.190   7.455   0.949 -0.1174 -0.2702  0.0958
   19CHTO   O63 7716   5.439   6.958   1.172 -0.3464  0.3918  0.4339
   19CHTO   C96 7717   5.371   6.907   1.039 -0.1861 -0.3790 -0.9368
   19CHTO  H183 7718   5.449   6.915   0.964  1.5196  2.8824  1.0831
   19CHTO   C98 7719   5.251   6.987   0.970 -0.3738 -0.2429 -0.0233
   19CHTO  H185 7720   5.293   7.087   0.953 -3.2967  1.3947  2.0352
   19CHTO   O67 7721   5.228   6.931   0.846 -0.0744 -0.6742  0.1867
   19CHTO  H167 7722   5.311   6.925   0.801 -0.1377  0.1162 -0.0465
   19CHTO  C102 7723   5.118   6.974   1.052  0.2068  0.1397  0.9137
   19CHTO  H189 7724   5.029   7.001   0.993 -0.0498  2.6046  2.3655
   19CHTO   N18 7725   5.105   7.068   1.162 -0.1978  0.3696  0.3951
   19CHTO  H176 7726   5.184   7.051   1.234  1.2738  1.2202 -0.9787
   19CHTO  H177 7727   5.113   7.169   1.124 -0.4224 -0.4451 -1.8640
   19CHTO  C105 7728   5.101   6.828   1.100  0.2776  0.5609 -0.5681
   19CHTO  H192 7729   5.118   6.823   1.207 -2.5351  1.1508 -0.0478
   19CHTO   O65 7730   5.186   6.732   1.039  0.1553 -0.0960 -0.0479
   19CHTO  C100 7731   5.326   6.757   1.065 -0.4968 -0.6263 -0.3195
   19CHTO  H187 7732   5.333   6.730   1.171  1.2551  0.9964 -0.0033
   19CHTO  C107 7733   5.415   6.654   0.994  0.0042  0.4606  0.7094
   19CHTO   O70 7734   5.388   6.520   1.029 -0.2069 -0.0111  0.0129
   19CHTO  H170 7735   5.424   6.464   0.963 -0.6755 -1.0962  0.6585
   19CHTO   O57 7736   4.936   6.800   1.064 -0.4636  0.1621 -0.0605
   19CHTO   C85 7737   4.869   6.697   1.128 -1.3231 -0.0659 -0.2929
   19CHTO  H157 7738   4.940   6.676   1.211  0.0294 -2.1392 -1.9080
   19CHTO   C83 7739   4.853   6.575   1.033 -0.8823  0.2380 -0.3952
   19CHTO  H155 7740   4.956   6.542   1.017 -1.1394 -0.4629 -0.6091
   19CHTO   O56 7741   4.799   6.613   0.910  0.6989  0.3343  0.1207
   19CHTO  H135 7742   4.706   6.598   0.920 -0.0489  4.4322  0.0395
   19CHTO   C81 7743   4.778   6.460   1.107 -0.1480 -0.3935  0.8888
   19CHTO  H153 7744   4.839   6.431   1.193 -0.4960  3.4265  2.4927
   19CHTO   N14 7745   4.750   6.328   1.039  0.4524 -0.8227 -0.8490
   19CHTO  H141 7746   4.712   6.349   0.941 -0.2602  3.6441  0.2603
   19CHTO  H142 7747   4.691   6.260   1.096 -0.0626  0.2484 -0.0940
   19CHTO   C79 7748   4.640   6.517   1.157 -0.0623  0.5593 -0.1331
   19CHTO  H151 7749   4.596   6.437   1.217  2.3690 -1.5639 -1.0918
   19CHTO   O52 7750   4.652   6.629   1.247 -0.1413 -0.2111  0.7172
   19CHTO   C86 7751   4.727   6.738   1.184 -0.3698  0.5626  0.1137
   19CHTO  H158 7752   4.654   6.772   1.108 -1.1056  1.0591  1.0205
   19CHTO   C90 7753   4.745   6.858   1.284  0.2371 -0.2208  0.5002
   19CHTO   O60 7754   4.627   6.929   1.311  0.8543 -0.0387  0.4988
   19CHTO  H138 7755   4.557   6.867   1.322  0.3267  0.7910  2.0362
   19CHTO   O50 7756   4.551   6.540   1.043 -0.7722  0.8333 -0.0912
   19CHTO   C73 7757   4.404   6.553   1.048 -0.8333 -0.4638  0.1120
   19CHTO  H145 7758   4.362   6.451   1.055  1.5752 -1.6373 -1.4957
   19CHTO   C74 7759   4.348   6.619   0.916 -0.5906 -0.5745 -0.5189
   19CHTO  H146 7760   4.391   6.551   0.841  1.8019 -0.0220  0.3128
   19CHTO   O54 7761   4.205   6.600   0.918 -0.3586 -0.2669 -0.1359
   19CHTO  H133 7762   4.173   6.670   0.972 -4.3144 -0.6269 -1.8329
   19CHTO   C75 7763   4.414   6.767   0.912  1.0458  0.1388  0.4618
   19CHTO  H147 7764   4.524   6.761   0.910  1.1143 -0.7128  3.3768
   19CHTO   N13 7765   4.370   6.834   0.788 -0.2420 -0.5239 -0.0584
   19CHTO  H139 7766   4.400   6.787   0.696  1.5926  0.4131  0.0379
   19CHTO  H140 7767   4.266   6.862   0.784  0.3203  1.5080 -1.4493
   19CHTO   C76 7768   4.364   6.844   1.048 -0.3824 -0.3209  0.1047
   19CHTO  H148 7769   4.258   6.869   1.040 -0.5038 -0.7241  0.4734
   19CHTO   O49 7770   4.404   6.771   1.165  0.2133 -0.2124 -0.2025
   19CHTO   C77 7771   4.353   6.638   1.169 -0.2354 -0.0589  0.1868
   19CHTO  H149 7772   4.244   6.648   1.163 -0.1476  0.4596 -0.6133
   19CHTO   C88 7773   4.368   6.577   1.313 -0.4611 -0.4265 -0.4011
   19CHTO   O58 7774   4.325   6.457   1.331  0.2415  0.0007 -0.2426
   19CHTO  H136 7775   4.343   6.429   1.419 -1.4392 -0.5172 -0.0437
   19CHTO   O51 7776   4.457   6.993   1.059  0.1569  0.4222  0.0712
   19CHTO   C78 7777   4.349   7.120   1.020 -0.1862  0.3443  0.3534
   19CHTO  H150 7778   4.265   7.079   0.961 -0.2791 -1.1462  1.4761
   19CHTO   C80 7779   4.432   7.218   0.934  0.1821  0.5970  0.6298
   19CHTO  H152 7780   4.529   7.235   0.986 -0.3547  0.0402  1.8346
   19CHTO   O55 7781   4.460   7.155   0.804  0.1537 -0.3617 -0.1607
   19CHTO  H134 7782   4.383   7.109   0.776 -0.5362  0.1965  0.8185
   19CHTO   C84 7783   4.349   7.355   0.916  0.8874 -0.3061 -0.0764
   19CHTO  H156 7784   4.253   7.336   0.867  0.9580 -0.3974 -0.1796
   19CHTO   N15 7785   4.414   7.446   0.821 -0.3301 -0.0736 -0.2371
   19CHTO  H143 7786   4.518   7.448   0.845 -0.1138  0.5196 -1.1831
   19CHTO  H144 7787   4.373   7.545   0.825 -1.4201 -0.4049 -2.2704
   19CHTO   C87 7788   4.321   7.411   1.051 -0.2135  0.0531 -0.7285
   19CHTO  H159 7789   4.416   7.435   1.099  0.4352  0.4134 -2.1786
   19CHTO   O53 7790   4.240   7.309   1.131  0.0918 -0.0913  0.7044
   19CHTO   C82 7791   4.318   7.194   1.151  0.2603  0.2944 -0.6236
   19CHTO  H154 7792   4.418   7.206   1.192  0.6781 -1.6082 -1.0017
   19CHTO   C89 7793   4.237   7.110   1.254 -0.0058  1.2002 -0.0152
   19CHTO   O59 7794   4.243   7.168   1.380  0.6048 -0.5000 -0.3811
   19CHTO  H137 7795   4.259   7.109   1.452 -0.4178 -0.0156  0.2550
   19CHTO   O45 7796   4.218   7.529   1.037  1.0307  0.1777  0.4083
   19CHTO   C67 7797   4.205   7.602   1.160 -0.1997  0.4232  0.0641
   19CHTO  H124 7798   4.231   7.536   1.243 -0.8271 -1.2788 -1.0824
   19CHTO   C65 7799   4.302   7.727   1.157 -0.0620 -0.3618 -0.4866
   19CHTO  H122 7800   4.329   7.744   1.052 -1.0563 -1.8851 -1.0118
   19CHTO   O44 7801   4.417   7.688   1.230 -0.1994  0.2156  0.4487
   19CHTO  H102 7802   4.394   7.691   1.321  0.3867  0.6694  0.5879
   19CHTO   C63 7803   4.228   7.862   1.213  0.3378 -0.2471 -0.0123
   19CHTO  H120 7804   4.160   7.896   1.135  0.2268 -2.7855 -1.0784
   19CHTO   N11 7805   4.318   7.980   1.221 -0.6099 -0.6960  0.3113
   19CHTO  H108 7806   4.345   8.008   1.122 -1.7637 -1.4865 -0.2399
   19CHTO  H109 7807   4.306   8.057   1.295 -0.7338  0.1157 -0.5513
   19CHTO   C61 7808   4.146   7.821   1.340  0.1794 -0.8592 -0.8691
   19CHTO  H118 7809   4.105   7.913   1.383  2.5408 -0.3353  0.3402
   19CHTO   O40 7810   4.035   7.739   1.299 -0.2832  0.4428 -0.6067
   19CHTO   C68 7811   4.054   7.654   1.185 -0.1147  0.5916 -0.4695
   19CHTO  H125 7812   4.025   7.719   1.100  0.0848 -0.3516 -1.2628
   19CHTO   C72 7813   3.967   7.525   1.184 -0.3581 -1.0852 -0.0609
   19CHTO   O48 7814   3.980   7.442   1.301 -0.2274 -0.9705 -0.1171
   19CHTO  H105 7815   3.924   7.484   1.363  0.9509 -0.4404  0.5943
   19CHTO   O38 7816   4.221   7.758   1.445 -0.1368 -0.2350  0.3154
   19CHTO   C55 7817   4.148   7.679   1.544 -0.7318  0.7202 -0.4510
   19CHTO  H112 7818   4.094   7.599   1.490 -2.2274  0.5552  1.2362
   19CHTO   C56 7819   4.049   7.767   1.638 -0.1766 -0.2724 -0.4957
   19CHTO  H113 7820   4.109   7.843   1.689  0.2922 -0.1923 -1.1633
   19CHTO   O42 7821   3.956   7.845   1.568  0.5002  0.5819 -0.0585
   19CHTO  H100 7822   3.916   7.796   1.500  1.9945 -1.1423  0.2831
   19CHTO   C57 7823   3.977   7.663   1.737 -0.0791 -0.5598 -0.3053
   19CHTO  H114 7824   3.915   7.622   1.657 -1.2570 -2.9271  1.7651
   19CHTO   N10 7825   3.893   7.724   1.841  0.4579 -0.6526 -0.1833
   19CHTO  H106 7826   3.876   7.657   1.924 -2.8647 -0.8211 -0.9375
   19CHTO  H107 7827   3.944   7.812   1.878 -0.1551 -0.5624  0.4571
   19CHTO   C58 7828   4.074   7.552   1.789  0.0082 -0.1426  0.1293
   19CHTO  H115 7829   4.115   7.586   1.886  0.8491  1.2689 -0.7081
   19CHTO   O37 7830   4.183   7.517   1.703 -0.0940  0.8234 -0.0187
   19CHTO   C59 7831   4.250   7.620   1.640 -0.9639 -0.4820 -0.6133
   19CHTO  H116 7832   4.274   7.698   1.712  0.3566 -0.6612 -0.8459
   19CHTO   C70 7833   4.373   7.566   1.566 -0.2525  0.2562  0.3692
   19CHTO   O46 7834   4.347   7.461   1.471 -0.0883  0.2287  0.4619
   19CHTO  H103 7835   4.331   7.379   1.514  1.2064 -0.0005  0.5313
   19CHTO   O39 7836   3.992   7.408   1.821  0.6448 -0.3675 -0.2100
   19CHTO   C60 7837   3.957   7.319   1.715 -0.2075 -0.6346  0.2842
   19CHTO  H117 7838   3.983   7.362   1.618 -1.3489 -1.1587 -0.2714
   19CHTO   C62 7839   4.038   7.187   1.739 -0.0798  0.6488  0.1482
   19CHTO  H119 7840   4.144   7.221   1.741  0.0519  0.3063 -0.6217
   19CHTO   O43 7841   4.001   7.124   1.863 -0.2135 -0.5368  0.2241
   19CHTO  H101 7842   4.011   7.031   1.854  0.1182 -0.3960 -0.9780
   19CHTO   C66 7843   4.020   7.097   1.613  0.0871  0.6637  0.3446
   19CHTO  H123 7844   4.050   7.151   1.524  2.7335 -0.2827  0.6126
   19CHTO   N12 7845   4.101   6.974   1.618 -0.6368  1.0674 -0.0501
   19CHTO  H110 7846   4.089   6.922   1.525 -1.5059  0.8945  0.1459
   19CHTO  H111 7847   4.186   6.988   1.683 -1.7962  2.9726  1.1406
   19CHTO   C69 7848   3.870   7.053   1.595  0.2295 -0.9422  0.0773
   19CHTO  H126 7849   3.832   6.984   1.675  0.1214 -2.1706 -1.0115
   19CHTO   O41 7850   3.782   7.177   1.587 -0.1221 -0.0320  0.4313
   19CHTO   C64 7851   3.800   7.280   1.708  0.6271 -0.3981 -0.3996
   19CHTO  H121 7852   3.778   7.219   1.797  0.1651 -1.9339 -1.5492
   19CHTO   C71 7853   3.704   7.402   1.694 -0.4230 -0.4658  0.0404
   19CHTO   O47 7854   3.719   7.468   1.565  0.0943  0.6811 -0.1741
   19CHTO  H104 7855   3.802   7.455   1.524  0.6719  2.3482  0.4258
   19CHTO   O34 7856   3.865   6.993   1.459 -0.3250  0.6192  0.2875
   19CHTO   C49 7857   3.761   6.990   1.346  0.5013 -0.6249  0.3039
   19CHTO   H91 7858   3.662   6.976   1.389 -0.3811  1.1130 -1.0889
   19CHTO   C47 7859   3.807   6.890   1.240  0.3714 -0.0026  0.1653
   19CHTO   H89 7860   3.724   6.887   1.166  0.7989  0.0785 -0.3181
   19CHTO   O33 7861   3.806   6.764   1.308 -0.0686  0.0351  0.4039
   19CHTO   H70 7862   3.788   6.696   1.246 -0.0075  0.4068 -0.0251
   19CHTO   C45 7863   3.947   6.932   1.172  0.3454 -0.2840  0.7337
   19CHTO   H87 7864   4.022   6.945   1.252  0.0861  0.0936  0.9164
   19CHTO    N8 7865   3.995   6.820   1.087 -0.1116  0.1811  0.4595
   19CHTO   H75 7866   3.937   6.730   1.104  0.5811 -0.3649 -0.0498
   19CHTO   H76 7867   4.018   6.845   0.985 -1.2372  0.3287  0.2355
   19CHTO   C43 7868   3.925   7.078   1.107  0.5914  0.6996  0.0542
   19CHTO   H85 7869   4.030   7.099   1.085  0.2824  2.8651  0.4591
   19CHTO   O29 7870   3.875   7.168   1.206 -0.2024  0.4786 -0.1684
   19CHTO   C50 7871   3.753   7.134   1.280 -0.0415  0.4366 -0.2920
   19CHTO   H92 7872   3.740   7.211   1.357 -1.4648 -0.3953  0.3223
   19CHTO   C54 7873   3.619   7.146   1.204 -0.0823 -0.0605 -0.7243
   19CHTO   O36 7874   3.581   7.272   1.156  0.1966  0.2140 -0.1834
   19CHTO   H72 7875   3.534   7.260   1.075 -0.2344 -0.6664  0.1891
   19CHTO   O27 7876   3.849   7.072   0.986  0.1762 -0.1421 -0.7206
   19CHTO   C37 7877   3.846   7.152   0.865 -0.1837  0.1288 -0.6161
   19CHTO   H79 7878   3.744   7.147   0.823 -0.1510 -1.8195 -0.5071
   19CHTO   C38 7879   3.874   7.305   0.900 -0.3784  0.0271 -0.2632
   19CHTO   H80 7880   3.962   7.315   0.965 -0.6666  1.1280 -0.0282
   19CHTO   O31 7881   3.752   7.350   0.966 -0.3648  0.2735  0.5680
   19CHTO   H68 7882   3.744   7.301   1.046  0.5867 -1.6697 -0.4894
   19CHTO   C39 7883   3.897   7.394   0.769 -0.6277  0.3167  0.3859
   19CHTO   H81 7884   3.805   7.405   0.712 -0.7300 -3.3390 -0.2675
   19CHTO    N7 7885   3.934   7.535   0.806  0.3693  0.4207 -0.5312
   19CHTO   H73 7886   3.851   7.589   0.850 -0.7406 -1.2879 -0.5018
   19CHTO   H74 7887   4.036   7.548   0.839  0.1414 -0.1397  0.3981
   19CHTO   C40 7888   4.002   7.319   0.681  0.5795 -0.2127  0.4046
   19CHTO   H82 7889   4.101   7.327   0.725 -0.4923  1.8846  2.5674
   19CHTO   O26 7890   3.960   7.184   0.648  0.2909 -0.1503  0.2138
   19CHTO   C41 7891   3.943   7.092   0.763 -0.9067 -0.0214 -0.0113
   19CHTO   H83 7892   4.038   7.078   0.816  0.0489  1.8844 -1.1899
   19CHTO   C52 7893   3.902   6.958   0.699  0.1263  0.0621 -0.3309
   19CHTO   O35 7894   3.994   6.898   0.627  0.0747  0.1717  0.1373
   19CHTO   H71 7895   3.959   6.824   0.582 -1.3317  0.2883  0.9930
   19CHTO   O28 7896   4.009   7.377   0.552  0.3735 -0.4974 -0.2049
   19CHTO   C42 7897   4.144   7.403   0.494  1.0151 -0.4475 -0.6530
   19CHTO   H84 7898   4.207   7.450   0.569  0.7950  0.5523 -1.0936
   19CHTO   C44 7899   4.131   7.508   0.369  0.2327  0.0818 -0.6352
   19CHTO   H86 7900   4.067   7.467   0.291 -1.6110  1.0087  0.3352
   19CHTO   O32 7901   4.066   7.629   0.411 -0.2523 -0.2064 -0.5685
   19CHTO   H69 7902   4.067   7.639   0.505 -1.1172 -1.1235 -0.4547
   19CHTO   C48 7903   4.269   7.543   0.304  0.3120  0.0295 -0.9354
   19CHTO   H90 7904   4.312   7.609   0.380 -2.3017 -0.1057  0.7438
   19CHTO    N9 7905   4.270   7.632   0.179 -0.2905 -0.4159 -0.1646
   19CHTO   H77 7906   4.220   7.725   0.202 -0.9054 -0.6530 -0.5362
   19CHTO   H78 7907   4.371   7.655   0.148 -0.5827  0.7086 -0.3172
   19CHTO   C51 7908   4.349   7.410   0.287 -0.4650  0.0705  0.4793
   19CHTO   H93 7909   4.331   7.357   0.193  1.4079 -0.7417  0.5661
   19CHTO   O30 7910   4.345   7.322   0.403 -0.2282  0.0302 -0.0425
   19CHTO   C46 7911   4.225   7.282   0.432 -0.0896  0.8706  0.0339
   19CHTO   H88 7912   4.170   7.254   0.342 -0.7471 -1.1627  1.0335
   19CHTO   C53 7913   4.254   7.155   0.522  1.0272  0.7983  0.6783
   19CHTO   O72 7914   4.167   7.050   0.488  0.2933 -0.3124 -0.4454
   19CHTO  H199 7915   4.173   6.979   0.549  0.5126 -0.8924 -1.1333
   19CHTO   O22 7916   4.490   7.452   0.282  0.2472 -0.0769 -0.3089
   19CHTO   C31 7917   4.592   7.354   0.228  0.7372  0.2939 -0.2432
   19CHTO   H59 7918   4.541   7.256   0.227 -0.1986  0.7657  0.0734
   19CHTO   C29 7919   4.633   7.386   0.083  0.2426 -0.4079 -0.0799
   19CHTO   H57 7920   4.679   7.486   0.084 -0.9925  0.1649  0.1341
   19CHTO   O21 7921   4.511   7.402   0.010 -0.4037 -0.1700  0.7036
   19CHTO   H37 7922   4.533   7.450  -0.068 -1.6137  2.0522  1.6700
   19CHTO   C27 7923   4.745   7.282   0.027 -0.7301 -0.6593 -0.2935
   19CHTO   H55 7924   4.695   7.185   0.016 -1.5418 -0.2772  0.0261
   19CHTO    N5 7925   4.801   7.328  -0.103 -0.1566  0.0029 -0.7722
   19CHTO   H43 7926   4.843   7.239  -0.147 -1.6262 -0.0840 -2.0567
   19CHTO   H44 7927   4.713   7.358  -0.158 -0.5565  0.6325  0.2000
   19CHTO   C25 7928   4.863   7.270   0.137 -0.2119  0.1064 -0.1280
   19CHTO   H53 7929   4.927   7.359   0.145 -0.8311  0.6784 -1.4878
   19CHTO   O17 7930   4.808   7.237   0.262  0.1056  0.3124  0.4296
   19CHTO   C32 7931   4.719   7.331   0.323 -0.0822  0.5493 -0.2600
   19CHTO   H60 7932   4.757   7.427   0.357  0.6031 -0.0338  0.6360
   19CHTO   C36 7933   4.676   7.253   0.453  0.1790 -0.0171  0.4392
   19CHTO   O25 7934   4.583   7.331   0.543 -0.4334 -0.6430 -0.1136
   19CHTO   H40 7935   4.594   7.419   0.514 -1.2882  0.3322  2.3558
   19CHTO   O15 7936   4.960   7.140   0.109  0.1246 -0.0712  0.0665
   19CHTO   C19 7937   4.987   7.020   0.029 -0.5698  0.0674  0.2835
   19CHTO   H47 7938   4.934   7.041  -0.065 -1.3896 -3.1900 -0.0356
   19CHTO   C20 7939   5.136   7.002  -0.020 -0.3037 -0.1111  1.2171
   19CHTO   H48 7940   5.202   6.966   0.061  0.5645 -2.8163 -0.6406
   19CHTO   O19 7941   5.185   7.131  -0.062 -0.1704  0.2054  0.1840
   19CHTO   H35 7942   5.231   7.165   0.012 -0.5382  1.8180 -0.3096
   19CHTO   C21 7943   5.134   6.878  -0.133 -0.1884  0.5442 -0.1228
   19CHTO   H49 7944   5.067   6.908  -0.214 -0.5984  3.1295  1.1074
   19CHTO    N4 7945   5.270   6.839  -0.182  0.5337 -0.0887  0.2016
   19CHTO   H41 7946   5.276   6.731  -0.186  0.8244 -0.0866  0.5346
   19CHTO   H42 7947   5.348   6.870  -0.114 -0.1419  1.5613  0.2498
   19CHTO   C22 7948   5.058   6.761  -0.073  0.0726  0.1564 -0.5440
   19CHTO   H50 7949   5.113   6.708   0.005  1.4400 -0.9354 -2.2189
   19CHTO   O14 7950   4.932   6.794  -0.017 -0.0254 -0.1898  0.7596
   19CHTO   C23 7951   4.934   6.894   0.085 -0.9001  0.7709 -0.6435
   19CHTO   H51 7952   4.990   6.851   0.169 -2.3564 -1.1094 -0.5827
   19CHTO   C34 7953   4.793   6.901   0.139  0.0991  0.0287  0.2113
   19CHTO   O23 7954   4.740   6.780   0.193 -0.3391 -0.2265  0.0196
   19CHTO   H38 7955   4.656   6.797   0.231 -1.0342  0.4714 -1.7845
   19CHTO   O16 7956   5.012   6.677  -0.186 -0.6871  0.2688  0.0382
   19CHTO   C24 7957   5.089   6.539  -0.216 -0.8471 -0.2151 -0.8203
   19CHTO   H52 7958   5.191   6.531  -0.179 -0.6848 -2.1849 -1.5900
   19CHTO   C26 7959   5.104   6.520  -0.364  0.0884 -0.3904  0.4952
   19CHTO   H54 7960   5.004   6.521  -0.412  0.7834  0.6962 -0.9731
   19CHTO   O20 7961   5.187   6.628  -0.417  0.0217  0.0428  0.3438
   19CHTO   H36 7962   5.132   6.677  -0.474  0.5061 -0.0243 -0.1802
   19CHTO   C30 7963   5.145   6.376  -0.404 -0.8135  0.4052 -0.8685
   19CHTO   H58 7964   5.247   6.350  -0.370 -2.0141 -2.9804  0.3839
   19CHTO    N6 7965   5.161   6.349  -0.546 -0.1691  0.2568  0.0196
   19CHTO   H45 7966   5.255   6.300  -0.567  0.0437  0.6410  0.0498
   19CHTO   H46 7967   5.079   6.302  -0.598  0.7946  1.2232 -2.4639
   19CHTO   C33 7968   5.057   6.274  -0.328  0.5171  0.0940  0.2382
   19CHTO   H61 7969   4.954   6.278  -0.367  0.0805 -1.2913  1.2058
   19CHTO   O18 7970   5.054   6.304  -0.191 -0.2179 -0.4049  0.4063
   19CHTO   C28 7971   5.002   6.427  -0.148  0.1226 -0.4882  0.5450
   19CHTO   H56 7972   4.898   6.444  -0.176  1.0011  2.2338 -1.1945
   19CHTO   C35 7973   5.006   6.425   0.011  0.4470  0.2876  0.5266
   19CHTO   O24 7974   4.933   6.536   0.073  0.3652  0.3862 -0.2726
   19CHTO   H39 7975   4.951   6.522   0.164 -0.8021  1.3778  0.1197
   19CHTO    O9 7976   5.097   6.138  -0.346 -1.1019  0.4653 -1.2111
   19CHTO   C13 7977   4.969   6.044  -0.343  0.4708  0.3509  0.7883
   19CHTO   H26 7978   4.900   6.087  -0.418  1.4482 -1.0933 -0.9797
   19CHTO   C11 7979   4.910   6.038  -0.201  0.4635 -0.1454 -0.3988
   19CHTO   H24 7980   4.880   6.140  -0.174 -0.1586 -0.6991  1.0831
   19CHTO    O8 7981   5.016   6.008  -0.101  0.8299  0.4540  0.2519
   19CHTO    H3 7982   5.069   5.945  -0.145 -0.0891 -1.1882  1.4468
   19CHTO    C9 7983   4.803   5.926  -0.194  0.1033  0.1745 -0.4922
   19CHTO   H22 7984   4.730   5.948  -0.273  0.0739  1.2757 -0.1651
   19CHTO    N2 7985   4.710   5.925  -0.075 -0.9970  0.1361  0.6318
   19CHTO   H10 7986   4.625   5.859  -0.081 -0.0628 -1.0549  0.1560
   19CHTO   H11 7987   4.667   6.024  -0.068  0.1670  0.6965  0.0913
   19CHTO    C7 7988   4.880   5.781  -0.222  0.2307  0.0151  0.0376
   19CHTO   H20 7989   4.810   5.739  -0.297  0.2456 -1.0454  0.6068
   19CHTO    O4 7990   4.999   5.803  -0.298 -0.2082  0.2368 -0.0711
   19CHTO   C14 7991   5.001   5.900  -0.405 -0.0595 -0.7788  0.1226
   19CHTO   H27 7992   4.924   5.888  -0.484 -0.0826  4.2151 -0.7681
   19CHTO   C18 7993   5.137   5.898  -0.477  0.3153 -0.4150  0.2590
   19CHTO   O13 7994   5.149   5.787  -0.564  0.2577  0.5753  0.6390
   19CHTO    H7 7995   5.102   5.804  -0.643  1.1906  0.2581  0.0139
   19CHTO    O2 7996   4.925   5.696  -0.101  0.2263  0.4452  0.2820
   19CHTO    C1 7997   4.887   5.554  -0.115  0.0397 -0.1863 -0.0825
   19CHTO   H14 7998   4.915   5.519  -0.217 -3.0429  0.9112 -1.3695
   19CHTO    C2 7999   4.728   5.523  -0.096 -0.1280  0.7438  0.1138
   19CHTO   H15 8000   4.690   5.579  -0.010 -0.5517 -1.6006  1.4993
   19CHTO    O6 8001   4.664   5.565  -0.216 -0.6838  0.2976 -0.5554
   19CHTO    H1 8002   4.695   5.506  -0.281  0.5741 -1.0446  1.2148
   19CHTO    C3 8003   4.709   5.367  -0.066  0.1547  0.5176 -0.2736
   19CHTO   H16 8004   4.721   5.322  -0.166  2.8777  0.2040  0.1606
   19CHTO    N1 8005   4.560   5.339  -0.023 -0.5841 -0.3189  0.3933
   19CHTO    H8 8006   4.512   5.436  -0.015  0.0432 -0.0259  0.6391
   19CHTO    H9 8007   4.549   5.285   0.070  0.2760 -2.8873 -0.9708
   19CHTO    C4 8008   4.825   5.314   0.029  0.3118 -0.0546 -0.6941
   19CHTO   H17 8009   4.819   5.375   0.119  0.5867  0.8460 -1.2765
   19CHTO    O1 8010   4.955   5.344  -0.020 -0.6534  0.0685  0.6213
   19CHTO    C5 8011   4.987   5.483  -0.017 -0.1674 -0.6097  0.3659
   19CHTO   H18 8012   4.989   5.538   0.076 -1.2360  0.4434 -0.2195
   19CHTO   C16 8013   5.127   5.486  -0.064  0.1408  0.0303  0.2917
   19CHTO   O11 8014   5.219   5.455   0.042 -0.0005  0.0848  0.1439
   19CHTO    H5 8015   5.241   5.538   0.081  0.8720 -0.2903  0.4489
   19CHTO    O3 8016   4.813   5.167   0.040  0.4507 -0.5587  0.0570
   19CHTO    C6 8017   4.811   5.107   0.175  0.3369 -0.1997  0.0498
   19CHTO   H19 8018   4.804   5.178   0.258 -0.6324 -0.4754  0.1978
   19CHTO    C8 8019   4.695   5.011   0.182 -0.0952 -0.2379 -0.7326
   19CHTO   H21 8020   4.703   4.948   0.093  0.9942 -0.6184 -0.3792
   19CHTO    O7 8021   4.579   5.090   0.166  0.1636 -0.6893  0.1277
   19CHTO    H2 8022   4.505   5.032   0.171 -1.2328  0.8844 -1.5931
   19CHTO   C12 8023   4.694   4.929   0.319 -0.0294  1.0186 -0.2690
   19CHTO   H25 8024   4.666   5.010   0.389 -0.9242  2.2298 -1.9860
   19CHTO    N3 8025   4.593   4.822   0.334 -0.0239  0.9799  0.4917
   19CHTO   H12 8026   4.638   4.724   0.334 -0.9652  0.5294 -1.0104
   19CHTO   H13 8027   4.554   4.835   0.433 -0.3404 -0.3054  0.5500
   19CHTO   C15 8028   4.838   4.870   0.352 -0.3689  0.1125  0.3703
   19CHTO   H28 8029   4.856   4.780   0.294  0.9069 -0.5762  1.8016
   19CHTO   O10 8030   4.851   4.860   0.505 -0.1693  0.0490  0.3086
   19CHTO    H4 8031   4.940   4.838   0.527 -0.4149  1.4162  2.8311
   19CHTO    O5 8032   4.941   4.963   0.331 -0.2877  0.2339  0.3992
   19CHTO   C10 8033   4.937   5.023   0.200  0.0619  0.4890 -0.5214
   19CHTO   H23 8034   4.948   4.940   0.130 -0.6280 -1.0883  1.1920
   19CHTO   C17 8035   5.072   5.103   0.190 -0.1271  0.4699  0.5885
   19CHTO   O12 8036   5.180   5.012   0.189 -0.0011  0.2600 -0.3719
   19CHTO    H6 8037   5.247   5.052   0.139  0.9750  0.8509  1.3573
   20CHTO  H203 8038   4.493   0.877   1.776  0.4702 -0.8273  0.1345
   20CHTO   O82 8039   4.586   0.886   1.775  0.4483 -0.6390 -0.1855
   20CHTO  C123 8040   4.617   0.969   1.663 -0.5788 -0.1004  0.0777
   20CHTO  H227 8041   4.549   1.056   1.663 -2.3382 -1.4355 -0.7476
   20CHTO   O77 8042   4.752   1.009   1.697  0.1178  0.0066  0.0849
   20CHTO  C118 8043   4.798   1.119   1.619  0.8053  0.0657 -0.2446
   20CHTO  H222 8044   4.727   1.202   1.626  1.5305  0.7051 -0.4178
   20CHTO  C125 8045   4.933   1.166   1.672  0.4304  0.2786 -0.2888
   20CHTO   O84 8046   4.915   1.221   1.804  0.2184  0.7966  0.3099
   20CHTO  H205 8047   4.874   1.304   1.789 -2.4804 -0.4597  0.3688
   20CHTO  C114 8048   4.811   1.074   1.471 -0.2497 -0.9215  0.1802
   20CHTO  H218 8049   4.887   0.997   1.471  1.6940  0.9442 -1.2534
   20CHTO  C116 8050   4.678   1.013   1.420  0.2346  0.1826  0.7995
   20CHTO  H220 8051   4.599   1.090   1.409 -1.3343 -1.4955  0.0554
   20CHTO   O79 8052   4.694   0.951   1.290 -0.6330 -0.9755 -0.4576
   20CHTO  H201 8053   4.658   0.999   1.217 -0.7930  1.1330  0.9703
   20CHTO  C120 8054   4.615   0.906   1.523  0.1956  0.1768  0.0842
   20CHTO  H224 8055   4.675   0.814   1.536 -0.6039 -0.4675 -0.7561
   20CHTO   N21 8056   4.482   0.861   1.486  0.0449 -0.4032  0.1479
   20CHTO  H211 8057   4.418   0.935   1.439  1.5069  0.5364 -0.3850
   20CHTO  H212 8058   4.470   0.766   1.436  2.9846  0.7786 -2.8919
   20CHTO   O75 8059   4.858   1.184   1.395  0.0177 -0.0560  0.5041
   20CHTO  C112 8060   4.969   1.154   1.307  0.1432 -0.3710 -0.3772
   20CHTO  H216 8061   4.969   1.047   1.284 -2.8128 -0.5654  0.2969
   20CHTO   O73 8062   5.086   1.196   1.386  0.4310  0.1987  0.5668
   20CHTO  C113 8063   5.207   1.167   1.316  0.1837  0.2593 -0.3869
   20CHTO  H217 8064   5.210   1.066   1.269 -3.0553  1.4686 -3.3902
   20CHTO  C124 8065   5.334   1.190   1.403  0.0536  0.0665  0.4109
   20CHTO   O83 8066   5.442   1.094   1.383  0.2507  0.2139 -0.2084
   20CHTO  H204 8067   5.518   1.126   1.426 -0.0587  0.1524  0.3882
   20CHTO  C109 8068   5.214   1.273   1.196  0.4405  0.3876 -0.2992
   20CHTO  H213 8069   5.209   1.373   1.241  0.2195 -0.3108  1.2445
   20CHTO  C110 8070   5.100   1.242   1.099  0.1149  0.5952 -0.0440
   20CHTO  H214 8071   5.120   1.144   1.056  1.9041  0.9036  0.0183
   20CHTO   O78 8072   5.097   1.340   0.992  0.2129  0.3240 -0.4063
   20CHTO  H200 8073   5.143   1.308   0.916  0.6503 -0.0251  0.0054
   20CHTO  C111 8074   4.957   1.237   1.175 -0.3265  0.6562  0.7422
   20CHTO  H215 8075   4.936   1.340   1.207 -0.0931  1.5217 -1.7255
   20CHTO   N19 8076   4.847   1.195   1.086 -0.0072 -0.6529 -0.2517
   20CHTO  H207 8077   4.746   1.198   1.122 -0.1756  0.4482 -0.8041
   20CHTO  H208 8078   4.870   1.099   1.041 -3.0679 -0.4042 -2.5218
   20CHTO   O74 8079   5.333   1.270   1.126  0.6421  0.9022  0.0284
   20CHTO  C115 8080   5.422   1.388   1.122 -0.3334 -0.2308  0.9125
   20CHTO  H219 8081   5.393   1.465   1.193  3.4320  0.5104  1.7956
   20CHTO   O76 8082   5.585   1.352   1.178  0.2406 -0.6905 -0.2867
   20CHTO  C122 8083   5.643   1.243   1.107 -0.6153 -0.7681 -0.0269
   20CHTO  H226 8084   5.604   1.149   1.146  0.6398 -1.7997 -1.1693
   20CHTO  C126 8085   5.796   1.249   1.141  0.6132  0.4338 -0.2401
   20CHTO   O85 8086   5.866   1.137   1.090  0.0246 -0.8693 -0.3399
   20CHTO  H206 8087   5.955   1.154   1.066 -0.9738  1.3005 -2.7314
   20CHTO  C121 8088   5.625   1.257   0.949  0.3900 -0.7236  0.8906
   20CHTO  H225 8089   5.724   1.245   0.900  0.7092 -0.2160  1.4068
   20CHTO   O81 8090   5.532   1.154   0.913 -0.3603  0.0645  0.4498
   20CHTO  H202 8091   5.530   1.141   0.820  3.5434  0.5949  0.1994
   20CHTO  C119 8092   5.567   1.404   0.906  0.0356  0.5529 -0.7687
   20CHTO  H223 8093   5.647   1.469   0.943 -0.4148  0.4793  0.3554
   20CHTO  C117 8094   5.421   1.435   0.968 -0.0107  0.2740  0.6377
   20CHTO  H221 8095   5.345   1.373   0.921 -0.7913  1.4205  0.3695
   20CHTO   N20 8096   5.375   1.572   0.950 -0.1072  0.1560  0.6761
   20CHTO  H209 8097   5.281   1.560   0.897  2.0398 -3.7669 -2.5426
   20CHTO  H210 8098   5.443   1.619   0.881  1.5889  0.2485  2.3682
   20CHTO   O80 8099   5.569   1.439   0.756  0.1347  0.1382  0.3848
   20CHTO  C103 8100   5.708   1.422   0.658 -0.4774  0.1648  0.5999
   20CHTO  H190 8101   5.799   1.410   0.717 -1.1968  0.0881  1.7128
   20CHTO  C101 8102   5.701   1.312   0.551 -0.1009 -0.6437  0.1118
   20CHTO  H188 8103   5.599   1.301   0.515 -0.6695 -0.5685  1.6891
   20CHTO   O68 8104   5.752   1.184   0.627  0.3004  0.4178  0.3243
   20CHTO  H168 8105   5.676   1.135   0.650  0.6834 -0.3004  0.0830
   20CHTO   C99 8106   5.791   1.342   0.423  0.5738  0.1081  0.0828
   20CHTO  H186 8107   5.894   1.340   0.464  0.6471 -2.5807 -0.1832
   20CHTO   N17 8108   5.787   1.246   0.305 -0.5247  0.6304  0.0011
   20CHTO  H174 8109   5.702   1.261   0.240 -0.2055 -0.0212 -0.5761
   20CHTO  H175 8110   5.800   1.143   0.334 -1.5743 -0.4511 -3.1695
   20CHTO   C97 8111   5.764   1.489   0.376 -0.7316 -1.0416 -0.5856
   20CHTO  H184 8112   5.656   1.489   0.352 -0.4094 -0.8249 -2.0707
   20CHTO   O64 8113   5.796   1.571   0.490  0.0295  0.1946 -0.0457
   20CHTO  C104 8114   5.708   1.562   0.603 -0.7635 -0.4867  0.8916
   20CHTO  H191 8115   5.608   1.585   0.568 -0.3490  0.0645  0.0434
   20CHTO  C108 8116   5.754   1.669   0.704 -0.1281  0.3738  0.4397
   20CHTO   O71 8117   5.883   1.630   0.749  0.4027 -0.1870 -0.0742
   20CHTO  H171 8118   5.945   1.694   0.719  1.1438 -1.1086 -0.5116
   20CHTO   O62 8119   5.845   1.537   0.261  0.3752  0.1706 -0.3526
   20CHTO   C91 8120   5.802   1.673   0.217  0.8871  0.2510  0.8268
   20CHTO  H178 8121   5.745   1.714   0.300  1.6138  3.2482 -0.0979
   20CHTO   C92 8122   5.710   1.662   0.088 -0.0946  0.8909  0.6258
   20CHTO  H179 8123   5.769   1.624   0.003  1.3160  3.0952  0.5711
   20CHTO   O66 8124   5.612   1.562   0.123  0.3238  0.0771 -0.7643
   20CHTO  H166 8125   5.561   1.544   0.046 -0.6661  0.3844 -0.1822
   20CHTO   C93 8126   5.649   1.799   0.049 -0.2500  0.2049 -0.1837
   20CHTO  H180 8127   5.579   1.832   0.127  1.6254  0.9228  1.2244
   20CHTO   N16 8128   5.568   1.793  -0.071 -0.8611  0.3878  0.0831
   20CHTO  H172 8129   5.466   1.780  -0.038 -0.0579 -1.3013  2.0251
   20CHTO  H173 8130   5.597   1.716  -0.140 -0.8125 -0.6420  1.2337
   20CHTO   C94 8131   5.765   1.904   0.047 -0.6087 -0.0278  0.6045
   20CHTO  H181 8132   5.830   1.889  -0.039 -0.5998  0.0553  0.5969
   20CHTO   O61 8133   5.851   1.896   0.156  0.2074  0.0333 -0.1749
   20CHTO   C95 8134   5.916   1.772   0.178 -0.3179 -0.3791 -1.0998
   20CHTO  H182 8135   5.962   1.739   0.085  1.1545 -0.9426 -0.1965
   20CHTO  C106 8136   6.024   1.783   0.290 -0.4090 -0.2523  0.2739
   20CHTO   O69 8137   6.139   1.841   0.232 -0.6421  0.2501  0.4484
   20CHTO  H169 8138   6.163   1.915   0.284  1.3488  1.6695 -2.3858
   20CHTO   O63 8139   5.715   2.035   0.061  0.0683 -0.2228  0.3084
   20CHTO   C96 8140   5.676   2.117  -0.092 -0.2421 -0.4271  0.7303
   20CHTO  H183 8141   5.598   2.060  -0.142 -3.1374  4.2796 -0.4726
   20CHTO   C98 8142   5.795   2.133  -0.188 -0.2166  0.6630  1.0606
   20CHTO  H185 8143   5.887   2.158  -0.134  2.0096 -0.8740 -1.9071
   20CHTO   O67 8144   5.818   2.006  -0.247  0.1961  0.1446  0.6305
   20CHTO  H167 8145   5.907   2.013  -0.275  0.5106  1.3657  1.8688
   20CHTO  C102 8146   5.780   2.240  -0.308 -0.7812  0.0275 -0.4807
   20CHTO  H189 8147   5.724   2.192  -0.389 -3.9106  0.0861  1.5394
   20CHTO   N18 8148   5.908   2.283  -0.368  0.9538  0.1636  0.1935
   20CHTO  H176 8149   5.935   2.381  -0.333 -1.2809  0.6435  0.6930
   20CHTO  H177 8150   5.902   2.270  -0.475 -1.8400  1.4764  0.1342
   20CHTO  C105 8151   5.688   2.360  -0.266 -0.2319 -0.2209 -0.3941
   20CHTO  H192 8152   5.748   2.436  -0.216  2.5169 -1.8739 -1.0708
   20CHTO   O65 8153   5.578   2.317  -0.181 -0.3941  0.1247 -0.6568
   20CHTO  C100 8154   5.612   2.252  -0.057  0.6374 -0.4630 -0.2925
   20CHTO  H187 8155   5.687   2.309   0.000  1.3214  0.7857 -2.3342
   20CHTO  C107 8156   5.487   2.242   0.023 -0.5709  0.1429  0.0731
   20CHTO   O70 8157   5.520   2.250   0.160  0.0279 -0.2610  0.4898
   20CHTO  H170 8158   5.525   2.339   0.188 -1.3110  0.2177 -0.7250
   20CHTO   O57 8159   5.620   2.414  -0.412 -0.5261  0.5056  0.5138
   20CHTO   C85 8160   5.600   2.551  -0.439  0.1831 -0.0638  0.0704
   20CHTO  H157 8161   5.586   2.594  -0.338  1.4258 -0.2295  0.3216
   20CHTO   C83 8162   5.462   2.575  -0.506  0.1705  0.4359 -0.4249
   20CHTO  H155 8163   5.383   2.537  -0.441 -1.3295 -1.7733 -3.3935
   20CHTO   O56 8164   5.458   2.498  -0.617 -0.5804  0.4652 -0.4613
   20CHTO  H135 8165   5.377   2.456  -0.639 -0.7587  1.4602 -1.7935
   20CHTO   C81 8166   5.439   2.734  -0.525 -0.8429  0.3762 -0.1990
   20CHTO  H153 8167   5.451   2.787  -0.430 -2.5468  0.7154 -0.1560
   20CHTO   N14 8168   5.301   2.765  -0.576  0.1301  1.1050  0.0211
   20CHTO  H141 8169   5.278   2.697  -0.656 -0.0346 -0.4842  1.3905
   20CHTO  H142 8170   5.304   2.862  -0.621 -2.0957 -0.3771 -3.5362
   20CHTO   C79 8171   5.551   2.779  -0.627  0.1282 -0.4711 -0.5200
   20CHTO  H151 8172   5.543   2.888  -0.628 -0.6507 -0.5347 -1.5941
   20CHTO   O52 8173   5.684   2.744  -0.582  0.0319 -0.5530  1.0505
   20CHTO   C86 8174   5.717   2.623  -0.521  0.2558  0.7954 -0.0072
   20CHTO  H158 8175   5.755   2.565  -0.607 -0.2838 -0.2646  0.4539
   20CHTO   C90 8176   5.836   2.647  -0.437 -0.0213 -0.0722 -0.1743
   20CHTO   O60 8177   5.800   2.764  -0.355 -0.0858  0.5958 -0.3567
   20CHTO  H138 8178   5.819   2.837  -0.410  1.5144  0.1692 -0.4099
   20CHTO   O50 8179   5.531   2.730  -0.760 -0.1035 -0.1495 -0.7958
   20CHTO   C73 8180   5.610   2.730  -0.879 -0.0118 -0.3485  0.7187
   20CHTO  H145 8181   5.691   2.657  -0.865  0.7071 -0.0295 -1.5700
   20CHTO   C74 8182   5.672   2.873  -0.911  0.1804 -0.1700 -0.2098
   20CHTO  H146 8183   5.738   2.894  -0.826 -0.8409  0.1971  0.5098
   20CHTO   O54 8184   5.756   2.874  -1.026 -0.0362 -0.4430 -0.1073
   20CHTO  H133 8185   5.723   2.943  -1.080 -1.7074 -1.1129  0.0451
   20CHTO   C75 8186   5.552   2.974  -0.921  0.1361  0.2019  0.0029
   20CHTO  H147 8187   5.494   2.976  -0.828 -2.8582 -2.0901 -1.7191
   20CHTO   N13 8188   5.597   3.113  -0.958 -0.3267  0.2651  0.5092
   20CHTO  H139 8189   5.652   3.116  -1.051 -0.8875  0.3170  0.1827
   20CHTO  H140 8190   5.522   3.190  -0.956  0.4169  0.9754  1.4112
   20CHTO   C76 8191   5.450   2.921  -1.041 -0.3696  0.5766  0.7121
   20CHTO  H148 8192   5.490   2.925  -1.142  3.2515  1.5711  2.1212
   20CHTO   O49 8193   5.414   2.782  -1.016  0.1527  0.8509  0.1292
   20CHTO   C77 8194   5.527   2.688  -1.003 -0.7039 -0.2189 -0.2107
   20CHTO  H149 8195   5.589   2.690  -1.093 -0.6445 -0.0620 -0.1672
   20CHTO   C88 8196   5.467   2.551  -0.985 -0.5840 -0.1006  0.3249
   20CHTO   O58 8197   5.555   2.445  -1.059  0.1535 -0.1471 -0.7050
   20CHTO  H136 8198   5.556   2.477  -1.148  0.3626  1.8719 -0.0005
   20CHTO   O51 8199   5.307   3.003  -1.036  0.0053  0.6395  0.3785
   20CHTO   C78 8200   5.212   3.000  -0.912 -0.1240  0.6968 -0.7199
   20CHTO  H150 8201   5.278   2.974  -0.827  0.1068  1.5799 -0.6262
   20CHTO   C80 8202   5.099   2.895  -0.910 -0.5822  0.1423  0.0424
   20CHTO  H152 8203   5.036   2.910  -1.000 -0.6348  0.1033  0.0724
   20CHTO   O55 8204   5.153   2.764  -0.916  0.5151  0.5693 -0.0828
   20CHTO  H134 8205   5.221   2.772  -0.980 -0.3116 -0.5254 -1.1210
   20CHTO   C84 8206   5.014   2.919  -0.774  0.0172  0.1799 -0.1029
   20CHTO  H156 8207   5.075   2.901  -0.685 -1.2168 -0.2661  0.6562
   20CHTO   N15 8208   4.900   2.823  -0.769 -0.5678 -0.0853  0.2797
   20CHTO  H143 8209   4.901   2.766  -0.678  0.1329  1.7421  1.4402
   20CHTO  H144 8210   4.904   2.753  -0.850  1.2485  0.5299 -0.1765
   20CHTO   C87 8211   4.979   3.069  -0.749  0.2522 -0.3569  0.0180
   20CHTO  H159 8212   4.905   3.086  -0.828  0.9191  0.3176 -0.4750
   20CHTO   O53 8213   5.097   3.154  -0.764 -0.1975  0.0875 -0.4933
   20CHTO   C82 8214   5.154   3.143  -0.891  0.3070  0.3758 -0.8332
   20CHTO  H154 8215   5.078   3.159  -0.967  0.0719 -0.1552 -0.7078
   20CHTO   C89 8216   5.267   3.252  -0.918 -0.2138 -0.1999 -0.6098
   20CHTO   O59 8217   5.290   3.281  -1.058 -0.7732  0.4000 -0.1160
   20CHTO  H137 8218   5.347   3.217  -1.096 -0.1944 -0.3217  1.8862
   20CHTO   O45 8219   4.902   3.101  -0.595 -0.6165 -0.1271  0.0712
   20CHTO   C67 8220   4.985   3.083  -0.479 -0.8109  0.0087 -0.0752
   20CHTO  H124 8221   5.057   3.003  -0.498 -0.4786  0.1809  0.4355
   20CHTO   C65 8222   5.063   3.210  -0.440  0.0818 -0.8016  0.3635
   20CHTO  H122 8223   5.026   3.286  -0.509  0.4578 -0.6101  0.3736
   20CHTO   O44 8224   5.191   3.179  -0.481  0.1903 -0.9248 -0.5084
   20CHTO  H102 8225   5.238   3.256  -0.507  1.5755 -1.6993 -0.3739
   20CHTO   C63 8226   5.050   3.265  -0.294 -0.4070  0.1201  0.3514
   20CHTO  H120 8227   4.954   3.317  -0.287 -0.4398  0.0057  0.7923
   20CHTO   N11 8228   5.133   3.387  -0.261  0.1452  0.6730  0.3720
   20CHTO  H108 8229   5.148   3.447  -0.348  0.2600 -2.4598 -1.8843
   20CHTO  H109 8230   5.089   3.447  -0.185  1.2349 -0.6095  2.0417
   20CHTO   C61 8231   5.041   3.145  -0.190  0.0828  0.0046 -0.0632
   20CHTO  H118 8232   4.983   3.193  -0.109  0.1746 -1.5656  0.9490
   20CHTO   O40 8233   4.964   3.029  -0.235  0.0807  0.3836  0.2226
   20CHTO   C68 8234   4.894   3.040  -0.360 -0.3249  0.1124 -0.8303
   20CHTO  H125 8235   4.807   3.109  -0.358  1.5061  2.4509  0.2903
   20CHTO   C72 8236   4.833   2.898  -0.391  0.4978 -0.0791  0.7825
   20CHTO   O48 8237   4.919   2.781  -0.408 -0.4736 -1.0162  0.1612
   20CHTO  H105 8238   4.995   2.787  -0.462  0.2908 -0.2018  1.2838
   20CHTO   O38 8239   5.165   3.087  -0.144  0.6404  0.0807 -0.1061
   20CHTO   C55 8240   5.160   3.006  -0.026  0.2820  0.2171 -0.2532
   20CHTO  H112 8241   5.060   2.961  -0.017  0.9904 -1.5282 -0.9078
   20CHTO   C56 8242   5.204   3.086   0.112 -0.5165  0.0317 -0.0428
   20CHTO  H113 8243   5.299   3.140   0.104 -0.2491 -0.7111 -2.2301
   20CHTO   O42 8244   5.104   3.189   0.128 -0.4089 -0.4898 -0.8320
   20CHTO  H100 8245   5.124   3.272   0.088 -1.8678  0.0403 -0.5321
   20CHTO   C57 8246   5.217   2.979   0.233 -0.1132  0.0521 -1.0434
   20CHTO  H114 8247   5.116   2.960   0.269  0.3331 -1.7296 -0.6882
   20CHTO   N10 8248   5.300   3.041   0.336  0.0161 -0.5045 -0.4542
   20CHTO  H106 8249   5.406   3.023   0.343  0.4089  2.1317  0.8723
   20CHTO  H107 8250   5.255   3.012   0.430  1.1203 -0.0428  0.2230
   20CHTO   C58 8251   5.273   2.841   0.195  0.0664  0.0375 -0.0598
   20CHTO  H115 8252   5.383   2.847   0.182 -0.2675 -0.0051 -3.1437
   20CHTO   O37 8253   5.226   2.789   0.065  0.3329  0.0993  0.1809
   20CHTO   C59 8254   5.252   2.885  -0.044  0.1229 -0.1525  0.8265
   20CHTO  H116 8255   5.354   2.921  -0.029 -0.5981  2.4144 -0.1015
   20CHTO   C70 8256   5.232   2.817  -0.181  0.0223  0.1979  0.0223
   20CHTO   O46 8257   5.308   2.692  -0.201  0.0328  0.1321  0.0418
   20CHTO  H103 8258   5.273   2.639  -0.270 -2.5525  1.8063  0.0060
   20CHTO   O39 8259   5.239   2.731   0.317 -0.4237 -0.2651  0.5577
   20CHTO   C60 8260   5.331   2.632   0.346  0.0505  0.2969  0.0477
   20CHTO  H117 8261   5.369   2.597   0.250 -0.4107  0.9602 -0.3822
   20CHTO   C62 8262   5.453   2.680   0.433 -0.4474  0.8604 -0.6406
   20CHTO  H119 8263   5.504   2.764   0.381 -0.9560  1.4829 -0.1481
   20CHTO   O43 8264   5.403   2.750   0.550  0.7954  0.6356  0.2077
   20CHTO  H101 8265   5.478   2.774   0.601  1.9776 -0.2749 -1.0506
   20CHTO   C66 8266   5.541   2.555   0.471 -0.1571  0.4883  0.0113
   20CHTO  H123 8267   5.591   2.525   0.379  0.6414 -0.0224  0.6056
   20CHTO   N12 8268   5.668   2.591   0.543  0.1418  0.6266  0.5580
   20CHTO  H110 8269   5.720   2.499   0.567  0.6055  0.9110  0.6421
   20CHTO  H111 8270   5.638   2.645   0.632 -1.2762  0.1537  0.3748
   20CHTO   C69 8271   5.463   2.446   0.548 -1.0652 -0.0007  0.2816
   20CHTO  H126 8272   5.421   2.485   0.643 -1.8676  0.5039 -0.2651
   20CHTO   O41 8273   5.367   2.403   0.462 -0.0652  0.2285 -0.7678
   20CHTO   C64 8274   5.260   2.509   0.411 -0.3111  0.1203 -0.2311
   20CHTO  H121 8275   5.188   2.553   0.482  1.1722 -0.2600  1.5334
   20CHTO   C71 8276   5.167   2.438   0.308  0.5666 -0.4119  0.9185
   20CHTO   O47 8277   5.106   2.335   0.392  0.0425 -0.2251  0.4975
   20CHTO  H104 8278   5.135   2.253   0.357  0.0184  1.1911 -2.9750
   20CHTO   O34 8279   5.555   2.325   0.589 -0.4000 -0.0913  0.0759
   20CHTO   C49 8280   5.495   2.165   0.580 -0.1261  0.0664 -0.0349
   20CHTO   H91 8281   5.446   2.166   0.483 -0.4148  3.2625  0.0762
   20CHTO   C47 8282   5.386   2.137   0.678  0.8477  0.4325  0.2317
   20CHTO   H89 8283   5.297   2.169   0.621  1.4829  0.5293 -0.7268
   20CHTO   O33 8284   5.399   2.222   0.790  0.1375  0.3475 -0.5137
   20CHTO   H70 8285   5.317   2.256   0.821  1.6420  1.1211  2.8517
   20CHTO   C45 8286   5.356   1.982   0.726 -0.0571 -0.1997  0.0007
   20CHTO   H87 8287   5.409   1.969   0.821 -0.8389  0.8900  0.6020
   20CHTO    N8 8288   5.217   1.956   0.751  0.0887 -0.0159  0.0298
   20CHTO   H75 8289   5.184   1.853   0.757 -0.7678  0.2598  0.0520
   20CHTO   H76 8290   5.168   2.024   0.819 -0.6772 -0.6926  0.1676
   20CHTO   C43 8291   5.431   1.874   0.628  0.0866  0.1663  0.0872
   20CHTO   H85 8292   5.422   1.776   0.674 -0.5120  0.8098  1.3649
   20CHTO   O29 8293   5.570   1.910   0.607 -0.1717 -0.3582 -0.1032
   20CHTO   C50 8294   5.605   2.052   0.581  0.7202  0.0493  0.5144
   20CHTO   H92 8295   5.687   2.087   0.644  1.3854  0.6226 -0.6550
   20CHTO   C54 8296   5.686   2.052   0.443 -0.3461  0.5078 -0.4277
   20CHTO   O36 8297   5.610   2.020   0.331  0.1435 -0.8234 -0.3580
   20CHTO   H72 8298   5.649   2.062   0.256 -1.3638 -0.2836 -0.8707
   20CHTO   O27 8299   5.370   1.871   0.496 -0.6955  0.5205 -0.2074
   20CHTO   C37 8300   5.263   1.815   0.416  0.3823  0.5381 -0.4891
   20CHTO   H79 8301   5.165   1.804   0.464  0.5359  0.9637 -0.0738
   20CHTO   C38 8302   5.233   1.909   0.287 -0.1512 -0.3794 -0.6383
   20CHTO   H80 8303   5.331   1.944   0.250  0.6572 -1.1714  0.6929
   20CHTO   O31 8304   5.166   2.017   0.334 -0.5633  0.5497  0.6376
   20CHTO   H68 8305   5.217   2.092   0.356 -1.4324  1.2285  0.3742
   20CHTO   C39 8306   5.154   1.835   0.174  0.0038 -0.5167 -0.0524
   20CHTO   H81 8307   5.048   1.826   0.198 -0.1694  0.8851 -0.2543
   20CHTO    N7 8308   5.150   1.910   0.047  0.4252 -0.6314  0.5917
   20CHTO   H73 8309   5.166   2.014   0.068 -0.7448 -0.3478  0.1423
   20CHTO   H74 8310   5.070   1.886  -0.022 -0.6948 -0.5624  1.8517
   20CHTO   C40 8311   5.205   1.685   0.163  0.4221 -0.3469 -0.2132
   20CHTO   H82 8312   5.306   1.698   0.124 -1.1067  3.3755 -3.1806
   20CHTO   O26 8313   5.199   1.613   0.288  0.4211 -0.5511  0.1755
   20CHTO   C41 8314   5.307   1.673   0.373  0.6975  0.4622  0.1583
   20CHTO   H83 8315   5.401   1.673   0.316  1.1299 -0.7723  0.8359
   20CHTO   C52 8316   5.327   1.576   0.494 -0.0985  0.5475  0.3036
   20CHTO   O35 8317   5.353   1.432   0.470  0.4035  0.4623 -0.5891
   20CHTO   H71 8318   5.272   1.385   0.473  0.3151  0.6243 -0.4365
   20CHTO   O28 8319   5.135   1.610   0.063 -0.6433 -0.5379 -0.2664
   20CHTO   C42 8320   5.186   1.497  -0.011  0.2081  0.2117  0.4824
   20CHTO   H84 8321   5.097   1.466  -0.066  0.0183  0.1595  0.8157
   20CHTO   C44 8322   5.220   1.380   0.080 -0.6844  0.4103  0.5126
   20CHTO   H86 8323   5.299   1.407   0.150 -1.3245  1.6761  0.7558
   20CHTO   O32 8324   5.106   1.349   0.158  0.1295 -0.4455 -0.1684
   20CHTO   H69 8325   5.085   1.419   0.216 -2.0973  0.7566 -2.3259
   20CHTO   C48 8326   5.279   1.254  -0.000 -0.2044  0.4087  0.4483
   20CHTO   H90 8327   5.201   1.215  -0.065 -1.3902  1.2719  1.3262
   20CHTO    N9 8328   5.319   1.142   0.095  0.1001  0.0848 -0.2741
   20CHTO   H77 8329   5.377   1.067   0.043 -1.1437 -0.2632 -1.1996
   20CHTO   H78 8330   5.238   1.094   0.149  1.5675 -2.2715 -0.0817
   20CHTO   C51 8331   5.402   1.310  -0.085  0.5375 -0.1708 -0.0613
   20CHTO   H93 8332   5.474   1.353  -0.015 -0.1821  2.6639 -0.9745
   20CHTO   O30 8333   5.352   1.410  -0.173  0.2170 -0.6977  0.0900
   20CHTO   C46 8334   5.295   1.531  -0.116  0.0696 -0.4049  0.4930
   20CHTO   H88 8335   5.372   1.593  -0.071  0.0784 -2.3025  3.2161
   20CHTO   C53 8336   5.231   1.609  -0.238 -0.0248 -0.6648  0.1420
   20CHTO   O72 8337   5.329   1.666  -0.334 -0.2450  0.3547  0.0730
   20CHTO  H199 8338   5.307   1.646  -0.423  2.0876  0.3253 -0.5199
   20CHTO   O22 8339   5.468   1.214  -0.171  0.0144  0.2732  0.2583
   20CHTO   C31 8340   5.609   1.225  -0.199 -0.3133 -0.5604 -0.0470
   20CHTO   H59 8341   5.625   1.159  -0.286 -0.7614 -0.1587 -0.4416
   20CHTO   C29 8342   5.656   1.368  -0.239  0.0071 -0.6922  0.8035
   20CHTO   H57 8343   5.649   1.432  -0.150  0.0023 -2.5743  2.1926
   20CHTO   O21 8344   5.579   1.414  -0.353  0.3805 -0.0249  0.0224
   20CHTO   H37 8345   5.494   1.443  -0.328 -0.1299 -0.4472 -1.1793
   20CHTO   C27 8346   5.808   1.349  -0.277  0.5612  0.3620  0.0844
   20CHTO   H55 8347   5.820   1.278  -0.360 -0.9461 -1.7936  1.6462
   20CHTO    N5 8348   5.860   1.484  -0.314 -0.4765  0.2674  0.2385
   20CHTO   H43 8349   5.817   1.505  -0.411  1.0077  2.2361 -0.0354
   20CHTO   H44 8350   5.966   1.483  -0.334 -0.5943  1.6370 -0.5561
   20CHTO   C25 8351   5.885   1.294  -0.156  0.6659 -0.2571  0.6382
   20CHTO   H53 8352   5.863   1.360  -0.071  0.1768  1.7823 -1.0068
   20CHTO   O17 8353   5.831   1.161  -0.123  0.3835  0.5432 -0.0234
   20CHTO   C32 8354   5.693   1.157  -0.083  0.3845 -0.3102  0.0196
   20CHTO   H60 8355   5.669   1.208   0.011  1.1868 -1.1803  0.7015
   20CHTO   C36 8356   5.646   1.013  -0.070 -0.2742  0.1141  1.0458
   20CHTO   O25 8357   5.665   0.934  -0.189 -0.6700 -0.1296  0.0793
   20CHTO   H40 8358   5.699   0.850  -0.167  0.2643  0.3665  0.5564
   20CHTO   O15 8359   6.042   1.290  -0.172  0.3385 -0.1187 -0.5106
   20CHTO   C19 8360   6.158   1.269  -0.253  0.0819  0.0285 -0.0598
   20CHTO   H47 8361   6.141   1.330  -0.343 -0.4263  0.4801  0.3364
   20CHTO   C20 8362   6.291   1.317  -0.187 -0.7514 -0.0210  0.3104
   20CHTO   H48 8363   6.325   1.251  -0.106  1.2245  1.0460  0.3669
   20CHTO   O19 8364   6.261   1.452  -0.154  0.2544 -0.0503  0.5047
   20CHTO   H35 8365   6.335   1.507  -0.169 -0.2258  0.3305 -0.4376
   20CHTO   C21 8366   6.413   1.308  -0.287  0.1519  0.2514  0.5636
   20CHTO   H49 8367   6.387   1.358  -0.380  0.9839 -0.0927  0.1355
   20CHTO    N4 8368   6.545   1.362  -0.236 -0.5195  0.0371  0.4687
   20CHTO   H41 8369   6.601   1.405  -0.317 -0.8876  2.2455  1.3501
   20CHTO   H42 8370   6.601   1.279  -0.197 -0.8195 -1.2765 -1.8167
   20CHTO   C22 8371   6.423   1.153  -0.331 -0.0764 -0.4037 -0.2515
   20CHTO   H50 8372   6.449   1.100  -0.240 -2.6422 -1.1321  0.1015
   20CHTO   O14 8373   6.300   1.109  -0.384 -0.4559 -0.9360  0.0074
   20CHTO   C23 8374   6.183   1.115  -0.302  0.5961 -0.8091 -0.0838
   20CHTO   H51 8375   6.205   1.049  -0.217 -1.9277 -2.5995 -0.7582
   20CHTO   C34 8376   6.062   1.056  -0.370 -0.5504 -0.1746  1.2704
   20CHTO   O23 8377   6.063   0.913  -0.375 -0.1787  0.6283 -0.5701
   20CHTO   H38 8378   6.028   0.893  -0.290 -1.2653  3.0240 -0.3973
   20CHTO   O16 8379   6.531   1.138  -0.432 -0.3141 -0.2749  0.2385
   20CHTO   C24 8380   6.594   1.007  -0.447  0.2005 -0.2029  0.2928
   20CHTO   H52 8381   6.557   0.937  -0.373  0.7154 -0.5567  0.2198
   20CHTO   C26 8382   6.750   0.995  -0.426  0.2914 -0.1791  0.4703
   20CHTO   H54 8383   6.800   1.043  -0.513  0.9811 -0.8981  0.4692
   20CHTO   O20 8384   6.793   1.068  -0.307 -0.1605 -0.5007  0.1645
   20CHTO   H36 8385   6.728   1.054  -0.241  0.2945 -1.5043  0.4112
   20CHTO   C30 8386   6.793   0.846  -0.413  1.2455  0.0068  0.0659
   20CHTO   H58 8387   6.781   0.815  -0.309 -3.4288 -2.5689 -1.0785
   20CHTO    N6 8388   6.936   0.828  -0.449 -0.1478  0.2410 -0.2003
   20CHTO   H45 8389   6.999   0.895  -0.394 -0.3294 -0.7758  1.2567
   20CHTO   H46 8390   6.970   0.726  -0.438 -0.7480  0.1372  0.7269
   20CHTO   C33 8391   6.703   0.749  -0.494  0.1976 -0.2991 -0.0019
   20CHTO   H61 8392   6.756   0.662  -0.536 -1.0068 -0.8067 -0.5195
   20CHTO   O18 8393   6.649   0.823  -0.607  0.3252  0.1050 -0.1631
   20CHTO   C28 8394   6.565   0.938  -0.589 -0.9246 -0.2148 -0.4461
   20CHTO   H56 8395   6.596   1.005  -0.670 -0.4072 -0.0927 -0.1540
   20CHTO   C35 8396   6.420   0.901  -0.614 -0.1373 -0.6399 -0.1538
   20CHTO   O24 8397   6.365   0.809  -0.520  0.3742 -0.1546  0.1425
   20CHTO   H39 8398   6.403   0.828  -0.436  1.1464 -0.7049 -0.0742
   20CHTO    O9 8399   6.603   0.692  -0.412 -0.0603  0.4726 -0.2862
   20CHTO   C13 8400   6.642   0.573  -0.331 -0.3956 -0.1830  0.2940
   20CHTO   H26 8401   6.746   0.593  -0.299 -0.7669 -1.0737  2.1264
   20CHTO   C11 8402   6.635   0.457  -0.435  0.8530  0.3488 -0.0585
   20CHTO   H24 8403   6.723   0.461  -0.501  0.0185 -1.4621 -1.3422
   20CHTO    O8 8404   6.518   0.468  -0.522 -0.0271 -0.0631  0.0140
   20CHTO    H3 8405   6.537   0.461  -0.613 -0.2565  0.0090 -0.0409
   20CHTO    C9 8406   6.626   0.327  -0.347 -0.0729  0.2124 -0.3048
   20CHTO   H22 8407   6.704   0.329  -0.269 -0.9541 -1.4451  0.6664
   20CHTO    N2 8408   6.638   0.194  -0.414 -0.8148 -0.1494 -0.0691
   20CHTO   H10 8409   6.701   0.125  -0.358 -1.0578 -0.1619  0.1912
   20CHTO   H11 8410   6.538   0.153  -0.410 -1.0636  0.1925 -2.2748
   20CHTO    C7 8411   6.476   0.331  -0.284 -0.4399  0.1173  0.1536
   20CHTO   H20 8412   6.486   0.254  -0.205 -0.1482 -0.0665 -0.0626
   20CHTO    O4 8413   6.442   0.462  -0.222 -0.3718  0.3157 -0.6973
   20CHTO   C14 8414   6.551   0.558  -0.207  0.7026  0.2679 -0.1892
   20CHTO   H27 8415   6.614   0.532  -0.119 -1.1919 -1.0730  0.8284
   20CHTO   C18 8416   6.478   0.683  -0.167 -0.1162 -0.5582 -0.1694
   20CHTO   O13 8417   6.554   0.780  -0.094 -0.0094  0.3277  0.1736
   20CHTO    H7 8418   6.550   0.757  -0.003 -1.5464  0.8428  0.2456
   20CHTO    O2 8419   6.362   0.298  -0.396 -0.2869 -0.1516  0.4807
   20CHTO    C1 8420   6.255   0.216  -0.348  0.2262 -0.8293  0.4689
   20CHTO   H14 8421   6.225   0.248  -0.246  1.0476  1.7512 -0.0581
   20CHTO    C2 8422   6.292   0.065  -0.342  0.0077  0.0133 -0.5145
   20CHTO   H15 8423   6.323   0.030  -0.442 -1.0406 -1.0662 -0.4757
   20CHTO    O6 8424   6.398   0.039  -0.242  0.3185  0.0213  0.1957
   20CHTO    H1 8425   6.447  -0.036  -0.271 -0.0055 -0.9357  2.0037
   20CHTO    C3 8426   6.162  -0.018  -0.310  0.5017 -0.7502 -0.4626
   20CHTO   H16 8427   6.160   0.002  -0.202  4.0903  3.7656 -1.0742
   20CHTO    N1 8428   6.176  -0.167  -0.337 -0.6550  0.0572 -0.3508
   20CHTO    H8 8429   6.151  -0.217  -0.244  1.2810  1.9282  1.2189
   20CHTO    H9 8430   6.278  -0.197  -0.353 -0.9145 -0.4015 -1.1871
   20CHTO    C4 8431   6.028   0.028  -0.368  0.0188  0.8857  0.0442
   20CHTO   H17 8432   6.012  -0.013  -0.468 -1.6267  0.5225  0.4491
   20CHTO    O1 8433   6.010   0.166  -0.371  0.1918  0.0983 -0.5799
   20CHTO    C5 8434   6.123   0.237  -0.428 -0.2563 -0.4800 -0.0736
   20CHTO   H18 8435   6.137   0.189  -0.525 -0.5547  0.0228 -0.3690
   20CHTO   C16 8436   6.080   0.382  -0.454 -0.4863  0.1276 -0.8624
   20CHTO   O11 8437   5.976   0.382  -0.546 -0.0083  0.4750  0.4062
   20CHTO    H5 8438   5.969   0.459  -0.599 -0.8498 -0.0744 -0.3117
   20CHTO    O3 8439   5.915  -0.018  -0.294 -0.0067  0.2451  0.0299
   20CHTO    C6 8440   5.785  -0.032  -0.369 -0.7403  0.4861 -0.1987
   20CHTO   H19 8441   5.789   0.032  -0.457  0.3077 -1.3214 -1.4860
   20CHTO    C8 8442   5.773  -0.183  -0.420 -0.1075 -0.6730  0.1879
   20CHTO   H21 8443   5.799  -0.248  -0.336 -0.8326  1.6105  2.2625
   20CHTO    O7 8444   5.865  -0.199  -0.532 -0.6313 -0.6717 -0.4483
   20CHTO    H2 8445   5.920  -0.275  -0.525 -1.8471 -1.4727  0.6144
   20CHTO   C12 8446   5.628  -0.201  -0.476  0.0788  0.3800  0.8030
   20CHTO   H25 8447   5.614  -0.136  -0.565 -0.4367 -0.6004  0.1566
   20CHTO    N3 8448   5.613  -0.345  -0.529  0.5987 -0.4457  0.9919
   20CHTO   H12 8449   5.664  -0.413  -0.462  0.5925  0.1816  1.6413
   20CHTO   H13 8450   5.509  -0.371  -0.537 -0.0470  2.4590 -0.7576
   20CHTO   C15 8451   5.523  -0.159  -0.368  0.4818  0.3209 -1.3073
   20CHTO   H28 8452   5.516  -0.221  -0.279  1.0189  1.9553 -0.0974
   20CHTO   O10 8453   5.362  -0.156  -0.435  0.3988 -0.3907 -0.3422
   20CHTO    H4 8454   5.359  -0.110  -0.517 -1.6045  0.3874  0.1377
   20CHTO    O5 8455   5.537  -0.016  -0.340  0.0629 -0.1168  0.5677
   20CHTO   C10 8456   5.665   0.018  -0.281 -0.8214  0.6557  0.3518
   20CHTO   H23 8457   5.678  -0.031  -0.185  1.5354 -0.0272 -0.2682
   20CHTO   C17 8458   5.668   0.163  -0.258  0.4365 -0.5859 -0.0748
   20CHTO   O12 8459   5.576   0.206  -0.153 -0.3247 -0.1649 -0.2084
   20CHTO    H6 8460   5.509   0.257  -0.195 -1.1960 -1.8224 -0.9012
   21GLOH   H03 8461   3.910  10.100   0.502 -0.8580  0.0702 -1.2110
   21GLOH    O1 8462   3.869  10.029   0.554 -0.2296  0.4332 -0.1859
   21GLOH    C1 8463   3.832   9.931   0.458 -0.4180 -0.3366 -0.3405
   21GLOH   H02 8464   3.847   9.829   0.494  0.1374 -0.1851 -0.1309
   21GLOH   H08 8465   3.896   9.946   0.371 -0.0985  1.4467  0.1668
   21GLOH    C2 8466   3.685   9.942   0.409 -0.2361 -0.0397 -0.5924
   21GLOH   H04 8467   3.663  10.039   0.363 -2.1053  1.1268  2.5943
   21GLOH    O2 8468   3.647   9.841   0.323  0.1372 -0.2743  0.6854
   21GLOH   H05 8469   3.554   9.862   0.301  0.7673  1.8331 -0.1213
   21GLOH    C3 8470   3.593   9.933   0.538 -0.3290  0.1382  0.4937
   21GLOH   H06 8471   3.616   9.843   0.595 -0.4955  0.4052  0.9903
   21GLOH   H07 8472   3.490   9.924   0.505 -1.0000 -0.5179  2.6498
   21GLOH    O3 8473   3.598  10.046   0.621  0.8370  0.4043  0.7923
   21GLOH   H01 8474   3.596  10.126   0.564 -0.8604 -1.2863 -1.6052
   22GLOH   H03 8475   3.505   0.880   1.360  1.1746 -2.5738 -0.6399
   22GLOH    O1 8476   3.513   0.845   1.451  0.8310 -0.7252  0.1371
   22GLOH    C1 8477   3.591   0.724   1.437 -0.0067  0.1361 -0.4687
   22GLOH   H02 8478   3.566   0.683   1.338 -0.3411 -1.7133  0.3568
   22GLOH   H08 8479   3.553   0.652   1.509  1.0436  0.1230  0.0705
   22GLOH    C2 8480   3.742   0.737   1.467  0.5978 -1.1005 -0.0708
   22GLOH   H04 8481   3.752   0.732   1.576 -3.3952  0.0976  0.4086
   22GLOH    O2 8482   3.811   0.616   1.427 -0.0091 -0.4785  0.5144
   22GLOH   H05 8483   3.795   0.545   1.491  0.7481 -0.8318  0.3112
   22GLOH    C3 8484   3.820   0.859   1.409 -0.0318 -0.3796 -0.0099
   22GLOH   H06 8485   3.801   0.854   1.302 -0.0720 -0.1706 -0.0142
   22GLOH   H07 8486   3.926   0.839   1.423 -0.2677 -1.1098  0.7923
   22GLOH    O3 8487   3.772   0.989   1.448 -0.1635  0.3551 -0.1600
   22GLOH   H01 8488   3.833   1.025   1.515 -0.5968 -0.2692  0.5846
   23GLOH   H03 8489   2.807   6.934   2.877 -3.1844  0.8012  0.5622
   23GLOH    O1 8490   2.799   6.985   2.794  0.0310  0.9299  0.2439
   23GLOH    C1 8491   2.940   7.016   2.760  0.2949  0.2653  0.4305
   23GLOH   H02 8492   2.983   6.920   2.732 -1.6099 -1.0830  2.0862
   23GLOH   H08 8493   2.997   7.062   2.841 -0.5267  1.6614  0.2358
   23GLOH    C2 8494   2.939   7.105   2.637 -0.6077 -0.0681  0.4876
   23GLOH   H04 8495   2.893   7.202   2.664 -0.4186 -0.4841  2.4250
   23GLOH    O2 8496   3.070   7.147   2.599  0.1814  0.3716  0.6614
   23GLOH   H05 8497   3.071   7.239   2.569  1.5714  0.6262  1.4495
   23GLOH    C3 8498   2.862   7.065   2.511  0.5652  0.2831 -0.0039
   23GLOH   H06 8499   2.926   7.004   2.447 -1.1541 -0.3693 -1.1212
   23GLOH   H07 8500   2.841   7.155   2.454 -0.0341  0.3245  0.2829
   23GLOH    O3 8501   2.734   6.997   2.546  0.1624 -0.1218  0.2002
   23GLOH   H01 8502   2.742   6.965   2.638 -2.2510  2.1549  1.2701
   24GLOH   H03 8503   4.043   0.869   1.120 -0.2892 -2.3086  1.2535
   24GLOH    O1 8504   4.138   0.857   1.141  0.1877 -0.0160  0.5328
   24GLOH    C1 8505   4.196   0.757   1.058  0.6752  0.2909 -0.1782
   24GLOH   H02 8506   4.194   0.789   0.954 -0.7479  1.9162  0.3277
   24GLOH   H08 8507   4.143   0.662   1.071 -1.3022  1.1243 -1.8928
   24GLOH    C2 8508   4.345   0.724   1.093  0.3656 -0.2510 -0.1932
   24GLOH   H04 8509   4.337   0.685   1.196  2.7880 -0.2098  0.0249
   24GLOH    O2 8510   4.389   0.615   1.009  0.5682  0.7764 -0.4845
   24GLOH   H05 8511   4.343   0.534   1.036 -2.4571  2.7243  0.4424
   24GLOH    C3 8512   4.432   0.847   1.075  0.0963  0.2650 -0.6789
   24GLOH   H06 8513   4.452   0.855   0.969 -1.6576  1.7017 -0.9471
   24GLOH   H07 8514   4.524   0.846   1.132 -0.4387  2.1634  0.2952
   24GLOH    O3 8515   4.359   0.961   1.128 -0.3947 -0.2863 -0.3989
   24GLOH   H01 8516   4.270   0.920   1.138 -1.5934  1.9123 -1.6898
   25GLOH   H03 8517   4.853   1.540   1.009 -0.3671  0.9149 -0.9135
   25GLOH    O1 8518   4.819   1.557   1.098  0.6707 -0.2545 -0.2728
   25GLOH    C1 8519   4.863   1.695   1.138  0.5477 -0.9679 -0.3061
   25GLOH   H02 8520   4.956   1.695   1.195  0.7483  1.1026 -0.5982
   25GLOH   H08 8521   4.794   1.732   1.214 -0.3246 -0.4385 -1.3464
   25GLOH    C2 8522   4.872   1.792   1.017  0.0840 -0.4934  0.2654
   25GLOH   H04 8523   4.770   1.812   0.979 -0.5005 -1.1714  1.4357
   25GLOH    O2 8524   4.927   1.912   1.061  0.0527 -0.3334  0.0219
   25GLOH   H05 8525   4.915   1.985   0.998  0.0738  0.6063  1.1142
   25GLOH    C3 8526   4.968   1.733   0.908 -0.2245 -0.2272 -0.4685
   25GLOH   H06 8527   5.056   1.700   0.964 -2.7853 -2.9561  2.1134
   25GLOH   H07 8528   4.994   1.804   0.830  3.0075 -0.7670  0.0163
   25GLOH    O3 8529   4.912   1.615   0.851  0.2002  0.2813  0.3800
   25GLOH   H01 8530   4.852   1.651   0.783 -0.9002  0.9021  1.6346
   26GLOH   H03 8531   4.652   3.156   0.335  0.7092  0.4955  0.9961
   26GLOH    O1 8532   4.578   3.213   0.365  0.1623  0.0447  0.4986
   26GLOH    C1 8533   4.632   3.331   0.426  0.2662 -0.2138 -0.4647
   26GLOH   H02 8534   4.698   3.383   0.356 -0.6659  2.1495  0.3878
   26GLOH   H08 8535   4.686   3.306   0.517  0.5376  0.0854 -0.5427
   26GLOH    C2 8536   4.528   3.440   0.467  0.2314  0.1776  0.0322
   26GLOH   H04 8537   4.475   3.411   0.559  0.7074  1.2676  0.6585
   26GLOH    O2 8538   4.596   3.561   0.506  0.1285  0.7444  0.0686
   26GLOH   H05 8539   4.609   3.614   0.425 -1.2463  1.6971  0.4636
   26GLOH    C3 8540   4.421   3.466   0.360  0.1881 -0.6285  0.4977
   26GLOH   H06 8541   4.474   3.499   0.270  0.8129 -1.3125  0.6094
   26GLOH   H07 8542   4.349   3.544   0.383  0.2814 -0.4854  0.3136
   26GLOH    O3 8543   4.360   3.341   0.319  0.0174  0.3569 -0.3914
   26GLOH   H01 8544   4.433   3.277   0.314  0.2070  0.6254 -1.1061
   27GLOH   H03 8545   4.415   4.013   1.380 -1.8102 -1.3696 -0.9739
   27GLOH    O1 8546   4.359   4.066   1.440  0.1201 -0.2445 -0.1057
   27GLOH    C1 8547   4.403   4.060   1.575 -0.1107 -0.1885  0.5087
   27GLOH   H02 8548   4.459   4.151   1.591 -1.6588  0.5457  1.8332
   27GLOH   H08 8549   4.473   3.978   1.596 -0.4984 -0.6576  0.0027
   27GLOH    C2 8550   4.276   4.056   1.664 -0.2969  0.8971  0.4556
   27GLOH   H04 8551   4.232   3.960   1.633  2.1548 -0.8130  2.0748
   27GLOH    O2 8552   4.310   4.054   1.805 -0.1363  0.2619 -0.7236
   27GLOH   H05 8553   4.243   4.014   1.863 -0.6245  0.4469 -1.1599
   27GLOH    C3 8554   4.174   4.160   1.629 -0.0881  0.2300 -0.1388
   27GLOH   H06 8555   4.228   4.254   1.642  0.7621  0.2031 -3.0530
   27GLOH   H07 8556   4.089   4.163   1.697  0.3162  3.5348  0.2740
   27GLOH    O3 8557   4.121   4.144   1.501 -0.0269  0.1129  0.1705
   27GLOH   H01 8558   4.199   4.121   1.447 -0.4778  0.1280 -0.4816
   28GLOH   H03 8559   4.408   1.572   1.448  0.5727  0.4062  0.4925
   28GLOH    O1 8560   4.421   1.525   1.533 -0.6723  0.4014  0.6941
   28GLOH    C1 8561   4.428   1.382   1.504 -1.0880  1.2550  0.0016
   28GLOH   H02 8562   4.532   1.352   1.518 -1.0038  0.4931 -2.1045
   28GLOH   H08 8563   4.404   1.361   1.400 -0.4275 -0.8686  0.2611
   28GLOH    C2 8564   4.333   1.312   1.594  0.6962 -0.2024 -0.1351
   28GLOH   H04 8565   4.238   1.368   1.597  1.7015  1.6216 -1.8383
   28GLOH    O2 8566   4.305   1.176   1.559 -0.2050  0.0779  0.0637
   28GLOH   H05 8567   4.314   1.162   1.463 -2.0861  2.3701 -0.4763
   28GLOH    C3 8568   4.400   1.308   1.734 -0.6770  0.2155 -0.8741
   28GLOH   H06 8569   4.488   1.244   1.739  2.5433  4.4485 -1.0690
   28GLOH   H07 8570   4.334   1.267   1.811  0.8707  1.2796  1.0754
   28GLOH    O3 8571   4.444   1.433   1.781  0.4746  0.2627  0.2433
   28GLOH   H01 8572   4.460   1.492   1.705  1.3092 -2.6948 -2.0034
   29GLOH   H03 8573   3.739   0.955   0.087 -3.1416  0.0800  1.7759
   29GLOH    O1 8574   3.716   0.890   0.018 -0.0729  0.0974  0.6638
   29GLOH    C1 8575   3.763   0.762   0.033  0.2695  0.3622  0.4676
   29GLOH   H02 8576   3.868   0.772   0.062  0.5935 -0.7758 -0.2477
   29GLOH   H08 8577   3.756   0.707  -0.060  0.5462  0.3536  0.4499
   29GLOH    C2 8578   3.690   0.676   0.138 -1.2322  0.5009 -0.7489
   29GLOH   H04 8579   3.665   0.735   0.227 -0.3755  0.2271 -0.3178
   29GLOH    O2 8580   3.573   0.616   0.084  0.1272  0.2802 -0.4362
   29GLOH   H05 8581   3.492   0.640   0.133 -0.4548 -0.0561 -1.2183
   29GLOH    C3 8582   3.786   0.564   0.176  0.2483  0.0554  0.3410
   29GLOH   H06 8583   3.822   0.508   0.090 -0.8019 -2.9994  1.8023
   29GLOH   H07 8584   3.745   0.491   0.246  1.1965 -0.7886  0.0382
   29GLOH    O3 8585   3.900   0.623   0.235  0.1204  0.4324  0.0280
   29GLOH   H01 8586   3.888   0.693   0.302  0.6092  2.4206 -1.8828
   30GLOH   H03 8587   4.478   3.488   1.983 -1.7251  1.9881 -0.9286
   30GLOH    O1 8588   4.563   3.530   1.964 -0.2640 -0.1636  0.7106
   30GLOH    C1 8589   4.685   3.464   2.012  0.8271  0.1331  0.1139
   30GLOH   H02 8590   4.776   3.525   2.011 -0.1454  1.5811 -1.3281
   30GLOH   H08 8591   4.710   3.377   1.951  2.9367  2.4736 -2.5291
   30GLOH    C2 8592   4.673   3.427   2.162 -0.2085 -0.4778 -0.6801
   30GLOH   H04 8593   4.582   3.366   2.173  0.3342 -1.5933 -2.1541
   30GLOH    O2 8594   4.777   3.341   2.197 -0.8364 -0.4269  0.5940
   30GLOH   H05 8595   4.776   3.321   2.292  1.6942 -2.4784  0.2600
   30GLOH    C3 8596   4.667   3.555   2.252 -0.7952  0.2617 -0.2262
   30GLOH   H06 8597   4.606   3.635   2.210 -1.4013 -0.2038 -0.2434
   30GLOH   H07 8598   4.769   3.592   2.245 -1.5077  2.4637  0.4358
   30GLOH    O3 8599   4.633   3.523   2.392  0.6468 -0.3655  0.1278
   30GLOH   H01 8600   4.686   3.574   2.457 -2.7017 -0.6195  3.2077
   31GLOH   H03 8601   3.639   2.656   1.688  0.1340  0.3043 -2.2298
   31GLOH    O1 8602   3.609   2.749   1.693  0.2093  0.2558 -0.5129
   31GLOH    C1 8603   3.625   2.826   1.812  0.1019 -0.0843  0.1700
   31GLOH   H02 8604   3.565   2.793   1.897 -0.6439 -2.0538 -1.0987
   31GLOH   H08 8605   3.592   2.929   1.796  0.2262  0.1018  1.0491
   31GLOH    C2 8606   3.766   2.842   1.856  0.2949  0.3414 -0.4192
   31GLOH   H04 8607   3.817   2.917   1.793 -0.0511  0.3904 -0.6455
   31GLOH    O2 8608   3.766   2.898   1.987  0.1541  0.4284 -0.4328
   31GLOH   H05 8609   3.840   2.863   2.040  0.3694 -0.6826 -1.4382
   31GLOH    C3 8610   3.835   2.709   1.845  0.2278  0.4935 -0.0169
   31GLOH   H06 8611   3.852   2.683   1.740 -0.3880  1.2694 -0.3099
   31GLOH   H07 8612   3.769   2.630   1.881  0.7997 -0.1636 -0.3911
   31GLOH    O3 8613   3.970   2.714   1.901  0.5569 -0.0955  0.5762
   31GLOH   H01 8614   3.971   2.770   1.981  0.1327  2.5504 -1.2055
   32GLOH   H03 8615   2.598   2.089   2.509 -0.9795 -0.6360 -0.7723
   32GLOH    O1 8616   2.669   2.036   2.468 -0.1597  0.0990 -0.3325
   32GLOH    C1 8617   2.751   1.982   2.572 -0.0943 -0.5677 -0.2911
   32GLOH   H02 8618   2.685   1.945   2.650 -0.7896 -1.6554 -1.3785
   32GLOH   H08 8619   2.818   2.059   2.611  0.7085 -0.4721 -1.8142
   32GLOH    C2 8620   2.824   1.853   2.530  0.3388 -0.7214  0.0207
   32GLOH   H04 8621   2.889   1.878   2.445 -0.6393  0.5768 -0.3739
   32GLOH    O2 8622   2.903   1.807   2.645 -0.3873 -0.1447 -0.0437
   32GLOH   H05 8623   2.963   1.731   2.634  0.1868  0.0078  1.8010
   32GLOH    C3 8624   2.719   1.741   2.503 -0.4188  0.2716 -0.4959
   32GLOH   H06 8625   2.773   1.647   2.511  0.0202  0.3904 -1.9017
   32GLOH   H07 8626   2.691   1.767   2.401 -0.2273  0.1295 -0.5851
   32GLOH    O3 8627   2.611   1.730   2.602  0.4781 -0.3962 -0.2762
   32GLOH   H01 8628   2.660   1.729   2.686 -0.2151  0.1347  0.1406
   33GLOH   H03 8629   3.286   7.179   0.887 -0.5769  1.4897  0.6301
   33GLOH    O1 8630   3.248   7.126   0.959 -0.3622  0.7505  0.2084
   33GLOH    C1 8631   3.215   7.000   0.902  0.1008 -0.2969 -0.1387
   33GLOH   H02 8632   3.132   6.952   0.954 -0.6523  1.2435  0.1249
   33GLOH   H08 8633   3.298   6.931   0.915  0.8726  0.5605 -0.4559
   33GLOH    C2 8634   3.176   6.998   0.752  0.0886  0.0261  0.4121
   33GLOH   H04 8635   3.111   7.085   0.742  0.9979  0.7469  0.7034
   33GLOH    O2 8636   3.294   7.029   0.674  0.4863  0.0191 -0.0577
   33GLOH   H05 8637   3.282   7.012   0.579  0.8292 -3.0121  0.3812
   33GLOH    C3 8638   3.094   6.871   0.712  0.1710  0.0319 -0.8046
   33GLOH   H06 8639   3.152   6.781   0.733 -0.9340 -0.8042 -1.3072
   33GLOH   H07 8640   3.074   6.870   0.605  1.3718 -2.0547 -1.0450
   33GLOH    O3 8641   2.968   6.887   0.785  0.3465  0.5155 -0.0214
   33GLOH   H01 8642   2.917   6.811   0.753  1.2674 -0.3187  0.4556
   34GLOH   H03 8643   2.886   6.366   2.463 -0.8462  0.4331 -1.0155
   34GLOH    O1 8644   2.930   6.450   2.487 -0.5662  0.2004 -0.7109
   34GLOH    C1 8645   2.930   6.541   2.381 -0.1897  0.6533  0.3284
   34GLOH   H02 8646   3.028   6.573   2.345 -0.5856  0.5892 -0.8451
   34GLOH   H08 8647   2.887   6.634   2.420 -0.7055 -0.2710  2.0030
   34GLOH    C2 8648   2.853   6.509   2.254 -0.4856 -0.6532  0.4836
   34GLOH   H04 8649   2.880   6.584   2.178  0.8238  1.0175  2.5360
   34GLOH    O2 8650   2.887   6.374   2.205 -0.2699 -0.0273  0.2081
   34GLOH   H05 8651   2.896   6.324   2.287  1.0175  1.4793  1.0182
   34GLOH    C3 8652   2.702   6.519   2.284 -0.4670 -0.1742  0.2528
   34GLOH   H06 8653   2.690   6.451   2.369  0.3534 -1.1256 -0.3817
   34GLOH   H07 8654   2.646   6.476   2.201  0.0390 -0.4828  0.0704
   34GLOH    O3 8655   2.641   6.648   2.302 -0.4794  0.1320 -0.6845
   34GLOH   H01 8656   2.653   6.696   2.218  1.1937  0.2006 -0.4243
   35GLOH   H03 8657   2.476   6.887  -0.151 -2.5620 -0.1684 -1.0762
   35GLOH    O1 8658   2.451   6.891  -0.056  0.1330 -0.1008 -0.3185
   35GLOH    C1 8659   2.462   6.763  -0.004  0.9848 -0.8301  0.0311
   35GLOH   H02 8660   2.564   6.729  -0.014  0.8914 -0.9860 -0.4104
   35GLOH   H08 8661   2.402   6.686  -0.053 -0.8679  1.3299 -1.2261
   35GLOH    C2 8662   2.414   6.779   0.145  0.3573  0.0650 -0.3505
   35GLOH   H04 8663   2.304   6.787   0.140  0.2834 -1.1150 -0.7551
   35GLOH    O2 8664   2.445   6.654   0.203 -0.3956  0.8100 -0.0383
   35GLOH   H05 8665   2.524   6.648   0.258 -0.2760  0.7563 -0.2153
   35GLOH    C3 8666   2.457   6.906   0.221  0.1817  0.5351  0.2786
   35GLOH   H06 8667   2.566   6.898   0.229  0.2696  0.1817 -1.0644
   35GLOH   H07 8668   2.425   6.881   0.322  2.5694 -0.8419  0.7417
   35GLOH    O3 8669   2.414   7.040   0.179 -0.4482  0.2219  0.5376
   35GLOH   H01 8670   2.417   7.017   0.084 -2.4637 -1.4163  0.8176
   36GLOH   H03 8671   3.281   8.588   2.601 -3.6095  0.4725 -1.0985
   36GLOH    O1 8672   3.243   8.555   2.685 -0.0549  0.0225  0.3931
   36GLOH    C1 8673   3.140   8.654   2.706  0.2480  0.3715 -0.1347
   36GLOH   H02 8674   3.188   8.749   2.731  0.2942  0.5622 -0.9321
   36GLOH   H08 8675   3.078   8.626   2.792 -1.5466  0.0285 -1.4960
   36GLOH    C2 8676   3.046   8.691   2.588  0.2126 -0.6138 -0.9207
   36GLOH   H04 8677   3.105   8.723   2.501  0.1057  1.4259 -0.2697
   36GLOH    O2 8678   2.971   8.570   2.564  0.5469  0.0012 -0.0128
   36GLOH   H05 8679   2.909   8.579   2.490 -1.0287 -1.5639  1.0918
   36GLOH    C3 8680   2.946   8.803   2.628 -0.0140 -0.4003 -0.2235
   36GLOH   H06 8681   2.868   8.774   2.698  2.2844  1.9818  3.4337
   36GLOH   H07 8682   2.891   8.832   2.538  0.3029  0.6746 -0.0715
   36GLOH    O3 8683   3.003   8.917   2.695  0.3824  0.3060 -0.0478
   36GLOH   H01 8684   3.054   8.963   2.626  0.4960 -0.9043 -0.7875
   37GLOH   H03 8685   3.292   4.514   1.357 -0.5206  0.3064 -0.2471
   37GLOH    O1 8686   3.285   4.607   1.328 -0.5135  0.1797 -0.6556
   37GLOH    C1 8687   3.425   4.657   1.324 -1.2811  0.1163 -0.7017
   37GLOH   H02 8688   3.440   4.727   1.242 -0.5563  0.4382 -0.2989
   37GLOH   H08 8689   3.489   4.571   1.305 -1.5918 -0.0869 -0.8365
   37GLOH    C2 8690   3.463   4.716   1.465 -0.0515  0.7023 -0.0346
   37GLOH   H04 8691   3.449   4.636   1.539  0.8570 -0.3563 -0.9873
   37GLOH    O2 8692   3.602   4.748   1.455  0.2277  0.1705 -0.3234
   37GLOH   H05 8693   3.639   4.753   1.545 -0.6083 -1.9121  0.1621
   37GLOH    C3 8694   3.374   4.832   1.502  0.0036  0.0172  0.1977
   37GLOH   H06 8695   3.403   4.921   1.447  1.1754  0.0692  0.8675
   37GLOH   H07 8696   3.393   4.851   1.608  0.4103 -0.7007  0.2590
   37GLOH    O3 8697   3.237   4.797   1.484 -0.3680 -0.2315 -0.4497
   37GLOH   H01 8698   3.238   4.736   1.408  0.7922  2.6854 -2.8699
   38GLOH   H03 8699   3.083   5.450   0.063 -1.6700 -0.2543  0.4029
   38GLOH    O1 8700   3.019   5.513   0.026 -1.0445  0.0825 -0.1202
   38GLOH    C1 8701   2.883   5.472   0.054  0.2433 -0.0884  0.1723
   38GLOH   H02 8702   2.876   5.365   0.075 -0.9315 -0.1260 -0.3829
   38GLOH   H08 8703   2.820   5.482  -0.034  2.3759  0.2275 -1.3587
   38GLOH    C2 8704   2.827   5.554   0.170  0.3744  0.1656 -0.9946
   38GLOH   H04 8705   2.853   5.660   0.154  1.8835  0.2665  1.7952
   38GLOH    O2 8706   2.685   5.542   0.192 -0.3545  0.2591 -0.5688
   38GLOH   H05 8707   2.657   5.610   0.256 -0.1937  1.4302 -1.7229
   38GLOH    C3 8708   2.892   5.499   0.300 -0.6036  0.0975  1.0702
   38GLOH   H06 8709   2.999   5.486   0.287 -1.3147 -3.1649 -2.4811
   38GLOH   H07 8710   2.852   5.399   0.319  0.1267 -0.6507 -1.1381
   38GLOH    O3 8711   2.868   5.586   0.412  0.2559  0.2358  0.1236
   38GLOH   H01 8712   2.891   5.678   0.393  1.6554  0.1964  1.4905
   39GLOH   H03 8713   2.886   4.419   1.592 -0.5984  0.6695 -1.3071
   39GLOH    O1 8714   2.877   4.516   1.594 -0.5213  0.6526 -0.1106
   39GLOH    C1 8715   2.993   4.574   1.655  0.2089  0.8792  0.4010
   39GLOH   H02 8716   2.971   4.680   1.645  0.5274  1.1965  2.6846
   39GLOH   H08 8717   3.074   4.565   1.583  1.1127  2.2602  1.2173
   39GLOH    C2 8718   3.044   4.523   1.796 -0.1632  0.2510  0.1253
   39GLOH   H04 8719   2.958   4.507   1.862  1.3352 -0.4503  1.9423
   39GLOH    O2 8720   3.112   4.399   1.785 -0.1271 -0.1586  0.5434
   39GLOH   H05 8721   3.104   4.355   1.872 -0.5875  0.8830  1.0284
   39GLOH    C3 8722   3.133   4.639   1.842 -0.0664 -0.1174  0.0701
   39GLOH   H06 8723   3.209   4.661   1.767 -0.4802  0.3430 -0.2214
   39GLOH   H07 8724   3.180   4.607   1.935 -1.3456 -0.7506  0.5102
   39GLOH    O3 8725   3.059   4.757   1.864  0.1366 -0.0024 -0.1980
   39GLOH   H01 8726   3.095   4.817   1.796  2.0728  0.5071  1.2329
   40GLOH   H03 8727   3.444   7.873   0.807 -0.7137  1.4145 -1.2779
   40GLOH    O1 8728   3.534   7.872   0.771 -0.1363 -0.6150  0.1161
   40GLOH    C1 8729   3.530   7.797   0.646 -0.1020 -0.0035  0.5493
   40GLOH   H02 8730   3.482   7.856   0.569 -0.4689 -1.2305 -0.1766
   40GLOH   H08 8731   3.459   7.715   0.652 -2.2671  1.3645 -4.5322
   40GLOH    C2 8732   3.673   7.733   0.610  0.8032  0.4432 -0.0568
   40GLOH   H04 8733   3.684   7.646   0.677 -3.5041 -1.2085 -1.2857
   40GLOH    O2 8734   3.682   7.680   0.478 -0.2131  0.4403 -0.3308
   40GLOH   H05 8735   3.665   7.752   0.415  1.5190  1.1593 -0.0122
   40GLOH    C3 8736   3.790   7.827   0.648  0.2422 -0.4578 -0.4933
   40GLOH   H06 8737   3.802   7.907   0.575 -1.0721 -0.2478 -0.4897
   40GLOH   H07 8738   3.883   7.771   0.637 -0.5234 -1.4421 -2.2341
   40GLOH    O3 8739   3.783   7.881   0.781 -0.0415  0.4153 -0.4425
   40GLOH   H01 8740   3.688   7.902   0.789  0.0025  1.2488 -1.9361
   41GLOH   H03 8741   4.023   0.291   0.909  1.1296  0.5652  1.5252
   41GLOH    O1 8742   4.085   0.221   0.886  0.0386  0.2073 -0.4087
   41GLOH    C1 8743   4.008   0.102   0.893  0.4013 -0.6074 -0.0426
   41GLOH   H02 8744   4.020   0.055   0.990  2.3641  1.4747  0.7506
   41GLOH   H08 8745   4.041   0.030   0.818  2.7126  1.5360 -1.1486
   41GLOH    C2 8746   3.856   0.120   0.883  0.1372  0.3735  0.0938
   41GLOH   H04 8747   3.820   0.188   0.961  1.6214 -0.0232  1.1489
   41GLOH    O2 8748   3.825   0.180   0.760  0.6615 -0.0892  0.1627
   41GLOH   H05 8749   3.824   0.113   0.690 -0.6359 -0.1723  0.2389
   41GLOH    C3 8750   3.780  -0.013   0.901  0.4241  0.7960 -0.2969
   41GLOH   H06 8751   3.789  -0.036   1.007 -0.7765  0.1219 -0.3349
   41GLOH   H07 8752   3.826  -0.097   0.848 -2.2638 -2.1423  1.7906
   41GLOH    O3 8753   3.637   0.003   0.877  0.5629 -0.3145 -0.0953
   41GLOH   H01 8754   3.628   0.043   0.788  2.2103 -1.8391 -1.0013
   42GLOH   H03 8755   4.205   4.049   0.422 -0.2356 -1.2978 -1.9961
   42GLOH    O1 8756   4.108   4.063   0.427  0.0778  0.2909  0.7415
   42GLOH    C1 8757   4.079   4.199   0.433 -0.2575  0.0388 -0.6955
   42GLOH   H02 8758   4.089   4.228   0.538  0.7363 -2.4495 -0.0597
   42GLOH   H08 8759   3.978   4.229   0.405 -0.2032  0.8358 -0.0575
   42GLOH    C2 8760   4.175   4.279   0.347  0.4467 -0.1332  0.3026
   42GLOH   H04 8761   4.185   4.233   0.247  0.8123  0.9644 -0.1726
   42GLOH    O2 8762   4.119   4.412   0.330  0.1254 -0.3094  0.0610
   42GLOH   H05 8763   4.119   4.453   0.419 -0.1709  1.0457 -0.5529
   42GLOH    C3 8764   4.313   4.283   0.410 -0.0250  0.6620 -0.2015
   42GLOH   H06 8765   4.312   4.314   0.515 -0.1451 -2.6875  0.8280
   42GLOH   H07 8766   4.370   4.364   0.364 -0.0376  0.7234 -0.1099
   42GLOH    O3 8767   4.379   4.157   0.395 -0.0369  0.0694  0.1274
   42GLOH   H01 8768   4.420   4.169   0.307  1.1018  1.7978  0.8541
   43GLOH   H03 8769   4.320   3.019   2.461  0.1645  0.8014 -1.0847
   43GLOH    O1 8770   4.241   3.063   2.424 -0.3189  0.3675 -0.5725
   43GLOH    C1 8771   4.254   3.203   2.453  0.2535  0.4044 -0.1609
   43GLOH   H02 8772   4.245   3.259   2.360 -1.4251 -1.6654 -1.3018
   43GLOH   H08 8773   4.354   3.230   2.488  0.9005  0.3100 -1.8676
   43GLOH    C2 8774   4.143   3.269   2.538 -0.2671 -0.3007  0.9695
   43GLOH   H04 8775   4.143   3.222   2.638 -0.9674 -1.5780  0.3737
   43GLOH    O2 8776   4.162   3.409   2.555  0.1764 -0.2549 -0.1773
   43GLOH   H05 8777   4.249   3.435   2.521  0.2813 -1.5828 -0.9606
   43GLOH    C3 8778   4.010   3.230   2.480 -0.2106  0.5221 -0.2850
   43GLOH   H06 8779   3.994   3.272   2.381  0.3933 -0.3057 -0.7488
   43GLOH   H07 8780   3.947   3.284   2.550 -2.5764 -1.6254 -0.7011
   43GLOH    O3 8781   3.985   3.087   2.474 -0.5330 -0.0052 -0.1900
   43GLOH   H01 8782   4.075   3.050   2.467 -0.2161  0.6991  0.1433
   44GLOH   H03 8783   3.697   4.859   0.242 -0.0987  0.7008  0.0366
   44GLOH    O1 8784   3.780   4.832   0.285 -0.0403 -0.0154 -0.5002
   44GLOH    C1 8785   3.871   4.765   0.199 -1.0669 -0.2572  0.0113
   44GLOH   H02 8786   3.904   4.822   0.112  1.3015  0.4215  1.3208
   44GLOH   H08 8787   3.827   4.669   0.171  0.8046 -1.2153  0.2653
   44GLOH    C2 8788   4.011   4.747   0.264  0.2790  0.0032 -0.3758
   44GLOH   H04 8789   3.997   4.677   0.348 -1.1761 -0.8495 -1.3050
   44GLOH    O2 8790   4.110   4.692   0.179  0.4622  0.4766  0.3824
   44GLOH   H05 8791   4.177   4.638   0.223 -0.5031 -1.5967 -0.6016
   44GLOH    C3 8792   4.059   4.883   0.324  0.5547  0.2767 -0.0826
   44GLOH   H06 8793   4.084   4.958   0.249 -2.2320  3.6421  2.1606
   44GLOH   H07 8794   4.151   4.864   0.379  1.5934  0.6440 -1.6463
   44GLOH    O3 8795   3.964   4.949   0.412  0.2019  0.4517 -0.0212
   44GLOH   H01 8796   3.884   4.914   0.370 -0.6908  2.7425 -0.3171
   45GLOH   H03 8797   2.667  -0.008   2.172  0.1011  0.2400 -0.8615
   45GLOH    O1 8798   2.726   0.026   2.241 -0.3900 -0.3019 -0.1645
   45GLOH    C1 8799   2.756   0.159   2.214 -0.6842 -0.4672  0.3690
   45GLOH   H02 8800   2.694   0.195   2.132 -0.7409  0.6421  0.8842
   45GLOH   H08 8801   2.857   0.180   2.178 -0.3417  0.7203  1.9479
   45GLOH    C2 8802   2.744   0.247   2.339 -0.1362  0.7037  0.1151
   45GLOH   H04 8803   2.804   0.196   2.416  0.2083 -0.9372 -1.1979
   45GLOH    O2 8804   2.787   0.381   2.319  0.1092 -0.5843  0.7017
   45GLOH   H05 8805   2.871   0.385   2.270 -1.2364 -2.5165 -1.8661
   45GLOH    C3 8806   2.608   0.242   2.401 -0.0375  0.5033  0.4340
   45GLOH   H06 8807   2.560   0.144   2.398 -0.5422  0.7701 -1.4482
   45GLOH   H07 8808   2.548   0.297   2.328 -0.6474 -0.1121  0.4681
   45GLOH    O3 8809   2.599   0.302   2.532  0.0025  0.1736 -0.4962
   45GLOH   H01 8810   2.565   0.243   2.602  0.7792 -1.1593 -1.2284
   46GLOH   H03 8811   3.779   7.841   1.188 -0.2695  0.4220 -0.6918
   46GLOH    O1 8812   3.733   7.869   1.270 -0.2937 -0.4938 -0.3824
   46GLOH    C1 8813   3.608   7.785   1.267 -0.0232  0.4006  0.0796
   46GLOH   H02 8814   3.519   7.847   1.255  0.6679  1.1045 -1.5302
   46GLOH   H08 8815   3.587   7.732   1.360  2.9848  0.8287  1.0463
   46GLOH    C2 8816   3.601   7.673   1.158 -0.3062 -0.3190  0.8583
   46GLOH   H04 8817   3.677   7.594   1.177  0.3949  0.6345  2.1456
   46GLOH    O2 8818   3.475   7.610   1.143  0.0762  0.0152 -0.3903
   46GLOH   H05 8819   3.468   7.591   1.048  1.6069  0.6212 -0.6319
   46GLOH    C3 8820   3.652   7.745   1.032 -0.0688 -0.3048  0.1700
   46GLOH   H06 8821   3.574   7.817   1.008 -1.6148 -2.3301 -1.1146
   46GLOH   H07 8822   3.650   7.674   0.949  3.5404 -1.1738  0.7696
   46GLOH    O3 8823   3.785   7.795   1.043 -0.6655 -0.0934 -0.6295
   46GLOH   H01 8824   3.810   7.817   0.951  1.6681 -0.1712 -0.0354
   47GLOH   H03 8825   3.082  -0.217   1.813  1.9975 -1.8814  1.2054
   47GLOH    O1 8826   3.151  -0.153   1.787  0.1164 -0.2135  0.1755
   47GLOH    C1 8827   3.109  -0.017   1.811  1.0102 -0.4527 -0.3542
   47GLOH   H02 8828   3.009   0.005   1.775  0.9310 -0.9830 -0.4588
   47GLOH   H08 8829   3.182   0.049   1.765  0.8115  0.6537  0.8939
   47GLOH    C2 8830   3.101   0.035   1.952 -0.6795 -0.6336 -0.7474
   47GLOH   H04 8831   3.012  -0.011   1.997  0.6244 -0.9333  1.6260
   47GLOH    O2 8832   3.211   0.007   2.043 -0.1288  0.0863 -0.0010
   47GLOH   H05 8833   3.222  -0.089   2.047 -0.3828  0.0600  0.0786
   47GLOH    C3 8834   3.075   0.186   1.950 -0.0612 -0.5983  0.2205
   47GLOH   H06 8835   3.169   0.236   1.929  0.9277 -1.3590  2.6662
   47GLOH   H07 8836   3.052   0.207   2.054  0.2575 -0.5229  0.2743
   47GLOH    O3 8837   2.967   0.231   1.864 -0.5166 -0.0896 -0.2357
   47GLOH   H01 8838   2.884   0.193   1.897  0.3363 -0.2351  1.8437
   48GLOH   H03 8839   2.570   6.066   1.297  1.9510 -0.2077 -1.7235
   48GLOH    O1 8840   2.611   6.012   1.367  0.1095  0.9007  0.2837
   48GLOH    C1 8841   2.638   5.876   1.329  0.0705 -0.4207 -0.2150
   48GLOH   H02 8842   2.650   5.816   1.419 -1.3263  0.7004  0.7409
   48GLOH   H08 8843   2.730   5.871   1.272  0.8391  0.6541  0.9228
   48GLOH    C2 8844   2.527   5.810   1.239 -0.1717  0.5059  0.0468
   48GLOH   H04 8845   2.503   5.889   1.167 -0.7188  0.1827 -0.1223
   48GLOH    O2 8846   2.596   5.705   1.163  0.0123 -0.3890 -0.0668
   48GLOH   H05 8847   2.609   5.624   1.216  1.5695 -0.8239 -1.0839
   48GLOH    C3 8848   2.405   5.758   1.309 -0.1902  0.2867  0.0609
   48GLOH   H06 8849   2.322   5.748   1.239  0.2989 -1.3001 -0.3030
   48GLOH   H07 8850   2.371   5.833   1.381  0.6169  1.3986 -0.6948
   48GLOH    O3 8851   2.430   5.635   1.385  0.1176 -0.3133 -0.1865
   48GLOH   H01 8852   2.485   5.569   1.338  1.6038 -1.3197  2.8724
   49GLOH   H03 8853   4.497   2.500   2.389 -0.0327 -2.2922 -0.6677
   49GLOH    O1 8854   4.554   2.478   2.465 -0.0573 -0.2700 -0.0350
   49GLOH    C1 8855   4.554   2.345   2.507 -0.2045  0.3327  0.0651
   49GLOH   H02 8856   4.624   2.330   2.589 -2.5806 -1.9672  1.7690
   49GLOH   H08 8857   4.592   2.282   2.427 -1.1729  1.0789 -0.9946
   49GLOH    C2 8858   4.421   2.293   2.569  0.2592  0.2670  0.0107
   49GLOH   H04 8859   4.329   2.319   2.514 -0.7652  0.2029  1.6565
   49GLOH    O2 8860   4.421   2.143   2.573 -0.4741 -0.3273  0.4046
   49GLOH   H05 8861   4.508   2.115   2.538 -0.2639 -0.7735  1.2855
   49GLOH    C3 8862   4.407   2.353   2.712 -0.3134 -0.0006 -0.3304
   49GLOH   H06 8863   4.491   2.312   2.769 -0.7472 -1.1764 -0.5149
   49GLOH   H07 8864   4.316   2.319   2.761  1.8352  0.4922  4.2298
   49GLOH    O3 8865   4.405   2.491   2.710 -0.1317  0.4533 -0.5600
   49GLOH   H01 8866   4.489   2.540   2.709 -0.3578  0.8515 -0.2524
   50GLOH   H03 8867   2.943   4.811   1.956  0.5632 -3.9507  1.2994
   50GLOH    O1 8868   2.862   4.822   2.009 -0.0673  0.3082 -0.2949
   50GLOH    C1 8869   2.821   4.687   2.045  0.0322  0.4528 -0.2405
   50GLOH   H02 8870   2.884   4.648   2.125 -2.8231  0.7524  2.2635
   50GLOH   H08 8871   2.824   4.618   1.961  1.7207 -0.7220  0.7577
   50GLOH    C2 8872   2.681   4.684   2.096  0.0303 -0.8274  0.5828
   50GLOH   H04 8873   2.601   4.721   2.030 -0.8336 -0.0523  2.0327
   50GLOH    O2 8874   2.640   4.558   2.147 -0.2125 -0.0449 -0.3165
   50GLOH   H05 8875   2.666   4.486   2.087  1.6786  0.3398  0.0125
   50GLOH    C3 8876   2.665   4.782   2.214  0.2736  0.5875 -0.0159
   50GLOH   H06 8877   2.735   4.758   2.294  0.8874  3.2277  0.2963
   50GLOH   H07 8878   2.567   4.774   2.260  0.0825  2.9451  0.0832
   50GLOH    O3 8879   2.668   4.925   2.180  0.3699  0.7450  0.4340
   50GLOH   H01 8880   2.708   4.929   2.091 -1.3365  0.5940 -0.3654
   51GLOH   H03 8881   3.036   7.283   1.138  1.2836  0.2016  2.5494
   51GLOH    O1 8882   3.063   7.374   1.116 -0.2064 -0.1076 -0.8049
   51GLOH    C1 8883   3.147   7.429   1.220  0.7534  0.2415  0.1546
   51GLOH   H02 8884   3.091   7.448   1.313 -1.1963 -2.3777 -0.4244
   51GLOH   H08 8885   3.183   7.523   1.178  0.7840 -0.6253 -1.7652
   51GLOH    C2 8886   3.282   7.367   1.246  0.6599  0.0039 -0.4252
   51GLOH   H04 8887   3.333   7.356   1.149  0.5447  0.3725 -0.5297
   51GLOH    O2 8888   3.368   7.451   1.332 -0.5973  0.1469 -0.4181
   51GLOH   H05 8889   3.442   7.497   1.289  0.3061  1.0723  2.0802
   51GLOH    C3 8890   3.269   7.219   1.300  0.6085 -0.7449 -0.2880
   51GLOH   H06 8891   3.223   7.220   1.399  0.2909  0.2420 -0.4446
   51GLOH   H07 8892   3.363   7.167   1.317  1.0471 -0.1710 -0.9615
   51GLOH    O3 8893   3.195   7.131   1.211 -0.6130  0.3853 -0.1577
   51GLOH   H01 8894   3.235   7.133   1.122 -1.4566  1.5857 -0.5108
   52GLOH   H03 8895   4.024   3.631   1.342 -0.6550 -0.9243  1.0581
   52GLOH    O1 8896   3.940   3.644   1.294  0.0700  0.0252  0.0294
   52GLOH    C1 8897   3.826   3.659   1.376  0.5153 -0.2090  0.5697
   52GLOH   H02 8898   3.836   3.751   1.433 -1.1754  1.0524 -1.1136
   52GLOH   H08 8899   3.808   3.566   1.430 -1.6014 -1.0238 -1.4530
   52GLOH    C2 8900   3.687   3.685   1.301 -0.7542 -0.3290 -0.4333
   52GLOH   H04 8901   3.613   3.692   1.383 -1.4441  0.3052 -1.1104
   52GLOH    O2 8902   3.693   3.811   1.232  0.0370  0.4292  0.2474
   52GLOH   H05 8903   3.688   3.878   1.302 -0.1597 -1.7465  2.4206
   52GLOH    C3 8904   3.645   3.577   1.206 -0.7866 -0.1462 -0.0050
   52GLOH   H06 8905   3.726   3.579   1.133  1.7062  0.1562  2.6528
   52GLOH   H07 8906   3.551   3.602   1.157  0.4699  4.8985 -0.1132
   52GLOH    O3 8907   3.635   3.447   1.263  0.0613 -0.4726 -0.0081
   52GLOH   H01 8908   3.562   3.437   1.327 -0.1416  0.1652 -0.1365
   53GLOH   H03 8909   3.302   1.796   0.204  0.5080 -0.9371  0.3506
   53GLOH    O1 8910   3.239   1.763   0.270 -0.7570  0.3203 -0.1796
   53GLOH    C1 8911   3.186   1.640   0.222  0.1279  0.5996  0.2446
   53GLOH   H02 8912   3.165   1.648   0.116  1.4618  2.5305  0.0856
   53GLOH   H08 8913   3.088   1.632   0.269 -0.4363 -2.5091 -1.3245
   53GLOH    C2 8914   3.252   1.510   0.266 -0.1677  0.2674 -0.0249
   53GLOH   H04 8915   3.358   1.507   0.240 -0.2297 -0.0586 -0.2431
   53GLOH    O2 8916   3.247   1.480   0.411  0.0250  0.0209 -0.1159
   53GLOH   H05 8917   3.308   1.542   0.455 -1.8996  1.0232  1.2272
   53GLOH    C3 8918   3.193   1.398   0.174  0.0066 -0.5130  0.4334
   53GLOH   H06 8919   3.095   1.365   0.209 -0.1315  0.4572  1.0168
   53GLOH   H07 8920   3.248   1.305   0.187 -2.1328 -2.3079 -2.8160
   53GLOH    O3 8921   3.194   1.430   0.034 -0.2136  0.0757 -0.3367
   53GLOH   H01 8922   3.282   1.409  -0.002 -0.3691 -1.1212 -0.0497
   54GLOH   H03 8923   4.639   2.029   0.107  0.3109 -1.7937  1.2756
   54GLOH    O1 8924   4.728   2.062   0.085 -0.5843 -0.3616 -0.2484
   54GLOH    C1 8925   4.822   2.024   0.185  0.0527  0.1664 -0.3599
   54GLOH   H02 8926   4.912   2.085   0.181  1.4027 -1.4599  3.1256
   54GLOH   H08 8927   4.837   1.917   0.175 -1.7652 -0.0149 -1.2658
   54GLOH    C2 8928   4.778   2.059   0.329  0.7388  0.2970  0.4724
   54GLOH   H04 8929   4.680   2.011   0.344  0.6969  0.1906 -0.1323
   54GLOH    O2 8930   4.878   2.008   0.420  0.3712  0.1690 -0.1453
   54GLOH   H05 8931   4.864   1.912   0.410 -1.3082  0.2716  0.9721
   54GLOH    C3 8932   4.764   2.210   0.346  0.4469  0.0169  0.8234
   54GLOH   H06 8933   4.689   2.243   0.275  1.6952 -0.3347 -0.6947
   54GLOH   H07 8934   4.857   2.266   0.333 -2.3776  4.7701 -0.0454
   54GLOH    O3 8935   4.700   2.243   0.474 -0.0629 -0.8769  0.2152
   54GLOH   H01 8936   4.618   2.192   0.487  0.4954 -1.3525  2.0778
   55GLOH   H03 8937   2.851   0.581   1.019  2.1282 -0.3969 -1.5797
   55GLOH    O1 8938   2.907   0.570   1.098 -0.0025  0.0004  0.0404
   55GLOH    C1 8939   2.902   0.438   1.153 -0.2578 -0.1730  0.0153
   55GLOH   H02 8940   2.802   0.403   1.177 -0.9788  4.4084  4.7825
   55GLOH   H08 8941   2.946   0.438   1.253 -1.3243 -1.6575  0.4983
   55GLOH    C2 8942   2.987   0.339   1.069  0.0978 -0.3661  0.9152
   55GLOH   H04 8943   3.086   0.388   1.065 -0.4121  0.5006 -1.9206
   55GLOH    O2 8944   2.996   0.211   1.131 -0.3069 -0.6572 -0.0742
   55GLOH   H05 8945   3.086   0.176   1.145 -0.5633 -0.8342  1.1274
   55GLOH    C3 8946   2.936   0.318   0.924  0.2300 -0.7300 -0.1508
   55GLOH   H06 8947   2.947   0.413   0.872  1.6797 -0.0208  1.4025
   55GLOH   H07 8948   2.830   0.297   0.914 -0.1920  1.3002 -0.1329
   55GLOH    O3 8949   3.013   0.216   0.850 -0.2411 -0.1892  0.2493
   55GLOH   H01 8950   3.026   0.141   0.912  1.9389 -0.5897 -0.6435
   56GLOH   H03 8951   4.298   2.471   2.275 -0.1726  1.3862 -1.4801
   56GLOH    O1 8952   4.395   2.482   2.281 -0.0348 -0.2996 -0.2441
   56GLOH    C1 8953   4.461   2.508   2.155  0.5687  0.4005 -0.2464
   56GLOH   H02 8954   4.439   2.429   2.083  0.0898  1.6153 -1.4489
   56GLOH   H08 8955   4.569   2.506   2.164  0.8013  3.4936 -1.7654
   56GLOH    C2 8956   4.414   2.641   2.087 -0.3866  0.6795  0.1886
   56GLOH   H04 8957   4.308   2.624   2.067 -0.1035  0.1328 -0.8712
   56GLOH    O2 8958   4.432   2.754   2.177  0.0488  0.1110 -0.0266
   56GLOH   H05 8959   4.427   2.840   2.134 -0.7155 -1.7012 -3.7732
   56GLOH    C3 8960   4.493   2.660   1.958  0.1329 -0.9088 -0.1157
   56GLOH   H06 8961   4.597   2.684   1.981  0.2094 -1.7033  0.4001
   56GLOH   H07 8962   4.446   2.742   1.903  1.4096 -0.1320 -0.0729
   56GLOH    O3 8963   4.490   2.550   1.870  0.3290  0.3903  0.1782
   56GLOH   H01 8964   4.560   2.495   1.908 -0.2142 -0.3259  0.1542
   57GLOH   H03 8965   2.702   6.164   1.765  0.0060  1.3692 -1.5612
   57GLOH    O1 8966   2.764   6.219   1.817 -0.2116  0.6481 -0.5092
   57GLOH    C1 8967   2.675   6.282   1.909 -0.2214 -0.6276  0.6455
   57GLOH   H02 8968   2.730   6.303   2.000  0.4229 -2.3682  0.6771
   57GLOH   H08 8969   2.598   6.211   1.939  0.1257 -2.4060 -2.4257
   57GLOH    C2 8970   2.615   6.417   1.854  0.7504  0.5497 -0.5777
   57GLOH   H04 8971   2.566   6.392   1.758  0.2329  0.1588 -0.2106
   57GLOH    O2 8972   2.516   6.476   1.945  0.3513  0.1039  0.5952
   57GLOH   H05 8973   2.502   6.568   1.915  2.3204  0.6720  1.3304
   57GLOH    C3 8974   2.732   6.515   1.839  0.0252  0.1141  0.3666
   57GLOH   H06 8975   2.784   6.528   1.934  0.3262  2.4381 -0.0965
   57GLOH   H07 8976   2.707   6.615   1.803  0.4613 -0.6297 -2.0831
   57GLOH    O3 8977   2.822   6.463   1.743 -0.5588  0.1611 -0.6754
   57GLOH   H01 8978   2.855   6.378   1.777  0.6405 -0.4771 -3.3469
   58GLOH   H03 8979   2.759   5.963   2.054 -0.0603 -0.0902 -0.5250
   58GLOH    O1 8980   2.856   5.967   2.064 -0.0293 -0.2722 -0.7452
   58GLOH    C1 8981   2.896   5.890   2.184 -0.2678  0.2044  0.0767
   58GLOH   H02 8982   2.813   5.864   2.249 -0.3077  1.5239  0.5533
   58GLOH   H08 8983   2.962   5.950   2.246  0.0094 -1.5422  1.5223
   58GLOH    C2 8984   2.968   5.762   2.151  0.5874  0.1974 -0.1859
   58GLOH   H04 8985   3.054   5.770   2.083  2.2628  0.1786  1.8940
   58GLOH    O2 8986   3.010   5.685   2.269  0.2080 -0.6779  0.0772
   58GLOH   H05 8987   2.929   5.640   2.297  0.1828 -0.4587  0.3574
   58GLOH    C3 8988   2.867   5.676   2.070 -0.3505 -0.6703 -0.0037
   58GLOH   H06 8989   2.917   5.581   2.050  0.3673 -0.5682  1.2257
   58GLOH   H07 8990   2.863   5.720   1.971  1.4064 -0.5920 -0.0625
   58GLOH    O3 8991   2.735   5.660   2.137  0.3749  0.0726  0.4694
   58GLOH   H01 8992   2.747   5.610   2.220 -0.0545 -2.8048 -1.1065
   59GLOH   H03 8993   3.750   8.662   1.678  0.7027 -1.4955  1.7622
   59GLOH    O1 8994   3.780   8.735   1.736  0.5500 -0.3495  0.4414
   59GLOH    C1 8995   3.745   8.860   1.682  0.2125  0.1307 -0.4712
   59GLOH   H02 8996   3.654   8.853   1.622 -0.4103  3.2176  0.0295
   59GLOH   H08 8997   3.831   8.884   1.619  0.8799  1.1917  0.8109
   59GLOH    C2 8998   3.736   8.977   1.779 -0.6372  0.0052 -0.1077
   59GLOH   H04 8999   3.838   8.985   1.821 -0.9209  0.4655  0.5035
   59GLOH    O2 9000   3.695   9.102   1.712  0.5368 -0.3713 -0.2505
   59GLOH   H05 9001   3.601   9.098   1.686  0.4294  0.2115  0.0274
   59GLOH    C3 9002   3.647   8.946   1.902 -0.1769  0.8313 -0.6313
   59GLOH   H06 9003   3.550   8.932   1.854 -0.6853  0.1929  0.5369
   59GLOH   H07 9004   3.635   9.038   1.959  1.3959  1.4045 -1.2003
   59GLOH    O3 9005   3.686   8.837   1.993  0.4645 -0.4953  0.2729
   59GLOH   H01 9006   3.740   8.774   1.943  2.3007  0.5272  0.9025
   60GLOH   H03 9007   3.018   5.439   1.071  0.8241 -0.4931  0.3250
   60GLOH    O1 9008   3.068   5.520   1.046 -0.2308  0.0388 -0.0903
   60GLOH    C1 9009   2.993   5.636   1.083 -0.3261  0.2118  0.2895
   60GLOH   H02 9010   3.055   5.720   1.054 -0.2883 -0.1693 -0.7367
   60GLOH   H08 9011   2.979   5.649   1.191 -2.2990 -0.8285  0.1881
   60GLOH    C2 9012   2.863   5.660   1.003 -0.1834  0.5769 -0.1296
   60GLOH   H04 9013   2.796   5.578   1.033  2.1676 -0.4727  2.4498
   60GLOH    O2 9014   2.804   5.781   1.046 -0.3562 -0.1788 -0.2255
   60GLOH   H05 9015   2.716   5.758   1.081  0.2271 -0.0419  1.3776
   60GLOH    C3 9016   2.896   5.648   0.851 -0.4853  0.8081 -0.0849
   60GLOH   H06 9017   2.921   5.542   0.845 -0.3115  0.7491  1.5267
   60GLOH   H07 9018   2.983   5.711   0.833 -0.0292  0.0116 -0.7253
   60GLOH    O3 9019   2.788   5.670   0.759 -1.0833  0.1180 -0.0614
   60GLOH   H01 9020   2.777   5.593   0.700  0.1263  1.1245 -1.6618
   61GLOH   H03 9021   3.889   4.833   1.231 -0.5983 -0.2670  0.7066
   61GLOH    O1 9022   3.973   4.784   1.231 -0.4390  0.0035  0.6094
   61GLOH    C1 9023   4.056   4.830   1.118 -0.6213  0.9413  0.0427
   61GLOH   H02 9024   4.162   4.821   1.144 -1.1229 -0.1260  1.8175
   61GLOH   H08 9025   4.037   4.935   1.097 -2.6529  0.6877  0.4648
   61GLOH    C2 9026   4.026   4.749   0.996 -0.0562 -0.2085 -0.8067
   61GLOH   H04 9027   3.920   4.771   0.980 -0.2675 -1.0419 -0.5639
   61GLOH    O2 9028   4.111   4.802   0.891  0.1060  0.5557 -0.2217
   61GLOH   H05 9029   4.063   4.826   0.810 -0.2892 -0.5537 -0.3161
   61GLOH    C3 9030   4.073   4.607   1.002  0.5542 -0.2126 -0.6553
   61GLOH   H06 9031   4.170   4.607   1.052  0.3444 -0.2856 -0.2452
   61GLOH   H07 9032   4.090   4.567   0.903 -1.1140 -1.1668 -0.5755
   61GLOH    O3 9033   3.984   4.530   1.081 -0.2145 -0.0679  0.3888
   61GLOH   H01 9034   4.022   4.441   1.075 -0.7817 -0.2532 -0.4967
   62GLOH   H03 9035   2.903   2.111   1.815 -0.4483 -0.4286 -1.4974
   62GLOH    O1 9036   2.954   2.192   1.795 -0.5054  0.0273  0.1442
   62GLOH    C1 9037   2.864   2.303   1.790 -0.1745 -0.5797 -0.0353
   62GLOH   H02 9038   2.827   2.336   1.887 -2.0898  1.6321 -1.4839
   62GLOH   H08 9039   2.776   2.281   1.730  0.4230  0.2002 -1.2110
   62GLOH    C2 9040   2.930   2.428   1.727 -0.4367 -0.0421  0.0536
   62GLOH   H04 9041   2.865   2.517   1.723  2.2575  1.9003 -3.2455
   62GLOH    O2 9042   3.041   2.465   1.805  0.0114  0.5592  0.3128
   62GLOH   H05 9043   3.104   2.392   1.795 -0.6061  0.2506 -1.5947
   62GLOH    C3 9044   2.969   2.391   1.582 -0.7534  0.1869  0.1402
   62GLOH   H06 9045   3.035   2.305   1.582 -0.6787  0.2282 -1.5448
   62GLOH   H07 9046   3.043   2.464   1.550  1.1399 -1.0481  1.6222
   62GLOH    O3 9047   2.854   2.382   1.491 -0.9121  0.1211 -0.2091
   62GLOH   H01 9048   2.889   2.389   1.401 -0.1584 -1.5074 -0.0670
   63GLOH   H03 9049   2.641   1.797   0.245  0.7785  0.9914 -1.0940
   63GLOH    O1 9050   2.647   1.720   0.186  0.5668 -0.2364  0.4667
   63GLOH    C1 9051   2.729   1.622   0.247  0.1382  1.6509  0.4110
   63GLOH   H02 9052   2.684   1.606   0.345 -0.5468 -0.3961 -0.2074
   63GLOH   H08 9053   2.834   1.652   0.254  0.8752 -0.6539 -0.3437
   63GLOH    C2 9054   2.745   1.487   0.171 -0.6372 -0.1084 -0.6140
   63GLOH   H04 9055   2.785   1.508   0.071  1.1739  2.2730  0.5520
   63GLOH    O2 9056   2.831   1.398   0.243 -0.1065 -0.0694  0.0999
   63GLOH   H05 9057   2.831   1.310   0.203  1.9409 -0.0577  0.0190
   63GLOH    C3 9058   2.609   1.421   0.151 -0.3189 -0.0949  0.1437
   63GLOH   H06 9059   2.536   1.498   0.127 -0.1398  0.1007  0.2258
   63GLOH   H07 9060   2.572   1.366   0.238 -0.1846 -0.5069 -0.0571
   63GLOH    O3 9061   2.618   1.319   0.042 -0.0218  0.2284  0.3931
   63GLOH   H01 9062   2.593   1.357  -0.045  0.3191  0.4727  0.3968
   64GLOH   H03 9063   4.058   3.938   1.065 -0.6592 -0.1235  0.4620
   64GLOH    O1 9064   4.072   4.031   1.091 -0.1684  0.0145 -0.2564
   64GLOH    C1 9065   4.210   4.043   1.139  0.2882 -0.0242 -0.5423
   64GLOH   H02 9066   4.218   4.026   1.246  0.7446  1.2251 -0.3687
   64GLOH   H08 9067   4.232   4.149   1.128  0.9748 -0.1917 -0.7780
   64GLOH    C2 9068   4.322   3.971   1.058  0.2843  0.1201  0.0264
   64GLOH   H04 9069   4.296   3.864   1.053  0.1835  0.2412 -3.5666
   64GLOH    O2 9070   4.338   4.027   0.926 -0.1920  0.4804 -0.3688
   64GLOH   H05 9071   4.415   3.981   0.886 -0.8768  0.5619 -1.8304
   64GLOH    C3 9072   4.454   3.974   1.140  0.0846  0.5978 -0.0970
   64GLOH   H06 9073   4.501   4.072   1.143  0.3325  0.4518  1.1067
   64GLOH   H07 9074   4.521   3.917   1.075 -0.2765  0.9573 -0.7818
   64GLOH    O3 9075   4.457   3.913   1.272  0.3452 -0.3048 -0.0995
   64GLOH   H01 9076   4.439   3.817   1.261 -0.1615 -0.6713  3.4285
   65GLOH   H03 9077   3.928   9.307   2.084 -1.3661 -0.5051  1.7956
   65GLOH    O1 9078   3.872   9.372   2.038  0.4476  0.1104  0.3971
   65GLOH    C1 9079   3.881   9.368   1.899  0.2569  0.0573 -0.0207
   65GLOH   H02 9080   3.918   9.268   1.875  1.2365 -0.0475  1.8644
   65GLOH   H08 9081   3.958   9.441   1.875  2.4084 -2.2045 -0.2444
   65GLOH    C2 9082   3.757   9.417   1.824  0.0739 -0.8113  0.1251
   65GLOH   H04 9083   3.759   9.527   1.822 -1.9739 -0.7546 -1.9467
   65GLOH    O2 9084   3.764   9.362   1.697 -0.2462  0.7310 -0.3790
   65GLOH   H05 9085   3.755   9.265   1.698  0.5764  0.6387  1.6389
   65GLOH    C3 9086   3.619   9.381   1.893  0.1685 -0.0180  0.9028
   65GLOH   H06 9087   3.610   9.272   1.890  0.5969 -0.1201  2.4801
   65GLOH   H07 9088   3.537   9.421   1.833  0.1372 -0.2170  0.8101
   65GLOH    O3 9089   3.601   9.420   2.032 -0.4832 -0.0715 -0.1786
   65GLOH   H01 9090   3.689   9.394   2.064 -1.1021 -0.9578  0.8852
   66GLOH   H03 9091   2.970   8.230   1.198  1.9468 -0.2877 -1.1349
   66GLOH    O1 9092   3.008   8.152   1.243  0.4092  0.0658  0.8167
   66GLOH    C1 9093   3.150   8.164   1.221  0.1657  0.1416 -0.5330
   66GLOH   H02 9094   3.201   8.222   1.298  2.1071 -0.4726 -1.3302
   66GLOH   H08 9095   3.174   8.218   1.130  0.9270 -0.3816 -0.6457
   66GLOH    C2 9096   3.215   8.024   1.208 -0.0562 -0.7429 -0.1730
   66GLOH   H04 9097   3.176   7.979   1.116 -0.6977 -0.2770 -0.1281
   66GLOH    O2 9098   3.359   8.046   1.199 -0.4895  0.0123  0.0305
   66GLOH   H05 9099   3.391   8.079   1.284 -3.4330  1.7376  0.5163
   66GLOH    C3 9100   3.189   7.938   1.336 -0.0511 -0.1409 -0.0392
   66GLOH   H06 9101   3.253   7.851   1.324  2.5793  1.6475  0.3975
   66GLOH   H07 9102   3.085   7.906   1.342 -0.0249 -0.7267 -2.2612
   66GLOH    O3 9103   3.214   8.011   1.453  0.1856  0.5296 -0.6117
   66GLOH   H01 9104   3.140   8.072   1.472  0.9711  1.7903 -1.5718
   67GLOH   H03 9105   3.574   1.683   2.170 -0.5372  1.5388 -1.0743
   67GLOH    O1 9106   3.671   1.693   2.163 -0.3843  0.6582 -0.2776
   67GLOH    C1 9107   3.705   1.735   2.031 -0.8186 -0.2131 -0.2475
   67GLOH   H02 9108   3.679   1.837   2.004  1.3979  0.1803 -1.0356
   67GLOH   H08 9109   3.673   1.656   1.963 -2.2862 -0.2476  0.4636
   67GLOH    C2 9110   3.861   1.734   2.021 -0.5224  0.5421 -0.6884
   67GLOH   H04 9111   3.892   1.633   2.051  0.5258  1.2133  0.4996
   67GLOH    O2 9112   3.905   1.767   1.891  0.2513 -0.1879  0.4082
   67GLOH   H05 9113   3.979   1.715   1.857 -0.0273 -0.0947 -0.3425
   67GLOH    C3 9114   3.928   1.827   2.124 -0.3537  0.3044 -0.5630
   67GLOH   H06 9115   3.920   1.785   2.225  1.2022  0.0744 -0.5230
   67GLOH   H07 9116   3.868   1.918   2.122 -0.5401  0.2170  0.6559
   67GLOH    O3 9117   4.066   1.870   2.099 -0.3357 -0.5229 -0.6167
   67GLOH   H01 9118   4.135   1.802   2.085  0.9265  0.6595 -0.2253
   68GLOH   H03 9119   2.968   7.078   0.418 -1.8630 -0.6301  1.5477
   68GLOH    O1 9120   2.933   6.990   0.395 -0.8972 -0.3256 -1.2598
   68GLOH    C1 9121   2.802   6.963   0.450 -0.0701  0.1888 -0.6123
   68GLOH   H02 9122   2.727   7.017   0.393 -1.0322 -1.4423 -0.9400
   68GLOH   H08 9123   2.796   6.996   0.553 -3.7031  2.3166 -1.4100
   68GLOH    C2 9124   2.757   6.818   0.420 -0.4430  0.1963  0.3515
   68GLOH   H04 9125   2.647   6.817   0.429 -0.4607  0.5668  0.2028
   68GLOH    O2 9126   2.785   6.784   0.283 -0.4186 -0.6155 -0.2107
   68GLOH   H05 9127   2.794   6.688   0.271  0.9656 -0.8844  2.6902
   68GLOH    C3 9128   2.823   6.714   0.514  0.7741 -0.8200 -0.8528
   68GLOH   H06 9129   2.931   6.729   0.505  0.9361  0.5554  2.6650
   68GLOH   H07 9130   2.805   6.609   0.490 -1.2088 -0.2669 -1.8538
   68GLOH    O3 9131   2.785   6.749   0.650  0.1804 -0.1385  0.2195
   68GLOH   H01 9132   2.708   6.690   0.661  1.1756 -1.5664 -0.3207
   69GLOH   H03 9133   3.507   4.243   2.787 -1.5709  1.6974  0.7824
   69GLOH    O1 9134   3.585   4.296   2.760 -0.5833 -0.2580 -0.3125
   69GLOH    C1 9135   3.602   4.274   2.616 -0.3543  0.1973  0.0529
   69GLOH   H02 9136   3.598   4.170   2.584 -0.8403  0.1325  0.3175
   69GLOH   H08 9137   3.702   4.313   2.601 -0.3240  0.1239  0.0678
   69GLOH    C2 9138   3.521   4.357   2.522 -0.7079 -0.2805  0.3045
   69GLOH   H04 9139   3.417   4.334   2.549 -0.7283 -2.1525 -1.2222
   69GLOH    O2 9140   3.538   4.499   2.537  0.0601  0.0163 -0.3104
   69GLOH   H05 9141   3.634   4.517   2.540  0.3556 -0.2422 -4.8057
   69GLOH    C3 9142   3.532   4.301   2.378  0.0816 -0.1678  0.3618
   69GLOH   H06 9143   3.441   4.336   2.328  0.0341 -1.0619 -0.1802
   69GLOH   H07 9144   3.533   4.193   2.385  0.5184 -0.1543  0.4683
   69GLOH    O3 9145   3.651   4.344   2.302  0.4287  0.2807  0.3402
   69GLOH   H01 9146   3.639   4.351   2.206  3.0142 -0.1399 -0.0672
   70GLOH   H03 9147   2.675   7.728   1.814 -1.5371  0.3587  1.2865
   70GLOH    O1 9148   2.728   7.807   1.834 -0.2927  0.1086 -0.8156
   70GLOH    C1 9149   2.804   7.828   1.716  0.0155 -0.2552 -0.1583
   70GLOH   H02 9150   2.752   7.784   1.632 -1.3601 -0.6131  0.8691
   70GLOH   H08 9151   2.904   7.783   1.721 -1.2666 -3.2760 -0.6534
   70GLOH    C2 9152   2.829   7.977   1.684 -0.0735 -0.0790 -0.2873
   70GLOH   H04 9153   2.882   8.010   1.775  2.3268  0.2435 -1.7617
   70GLOH    O2 9154   2.912   7.998   1.568 -0.3781 -0.3774  0.1781
   70GLOH   H05 9155   2.917   8.095   1.558  0.1493 -0.3862  0.3839
   70GLOH    C3 9156   2.694   8.043   1.671 -0.0960  0.4876 -0.9687
   70GLOH   H06 9157   2.630   8.010   1.753  2.7167  0.7564  1.4178
   70GLOH   H07 9158   2.647   8.028   1.574 -0.6704 -1.9313 -0.3696
   70GLOH    O3 9159   2.706   8.183   1.690  0.9416 -0.0639  0.2386
   70GLOH   H01 9160   2.718   8.200   1.786 -0.7817 -0.0109  0.4697
   71GLOH   H03 9161   3.826   1.532   0.743 -0.5264 -0.2118  0.8805
   71GLOH    O1 9162   3.842   1.627   0.757  0.0463 -0.2676  0.6302
   71GLOH    C1 9163   3.880   1.654   0.893 -0.3498 -0.3296 -0.4254
   71GLOH   H02 9164   3.941   1.744   0.896 -0.1075 -0.5429  1.4121
   71GLOH   H08 9165   3.939   1.572   0.933  0.0964  0.7225  1.1162
   71GLOH    C2 9166   3.759   1.678   0.990 -1.1592  0.2492  0.3182
   71GLOH   H04 9167   3.689   1.751   0.945 -0.9672  0.0782 -0.2532
   71GLOH    O2 9168   3.688   1.551   1.013 -0.6420  0.4025  0.0808
   71GLOH   H05 9169   3.607   1.554   0.959  0.2545 -1.2482 -1.3964
   71GLOH    C3 9170   3.815   1.736   1.122 -0.6185  0.3969 -0.1853
   71GLOH   H06 9171   3.734   1.750   1.194  1.5286  1.2025  2.1565
   71GLOH   H07 9172   3.855   1.835   1.102 -1.6264  0.7158 -0.6866
   71GLOH    O3 9173   3.922   1.662   1.179 -0.0152  0.0031 -0.0033
   71GLOH   H01 9174   3.888   1.577   1.214  1.4495 -0.0992  1.2135
   72GLOH   H03 9175   3.831   8.962   2.557  0.1975 -0.8854 -0.4200
   72GLOH    O1 9176   3.821   8.935   2.650 -0.5214 -0.2856 -0.3191
   72GLOH    C1 9177   3.719   8.834   2.678 -0.8262 -0.3602 -0.1964
   72GLOH   H02 9178   3.736   8.798   2.780 -0.9220  0.1924  0.0147
   72GLOH   H08 9179   3.741   8.749   2.612  1.6512 -1.1984  1.6234
   72GLOH    C2 9180   3.572   8.878   2.663  0.3217  0.2335  0.5677
   72GLOH   H04 9181   3.509   8.795   2.698  1.3898 -0.9621 -0.2468
   72GLOH    O2 9182   3.546   8.984   2.752 -0.3412  0.2432  0.3560
   72GLOH   H05 9183   3.628   9.029   2.780 -0.7918  0.7146  0.9131
   72GLOH    C3 9184   3.542   8.907   2.515  0.1137 -0.6360  0.7136
   72GLOH   H06 9185   3.589   9.003   2.494 -0.9071 -0.6530 -1.7460
   72GLOH   H07 9186   3.435   8.923   2.509  0.4718  1.6329 -0.0248
   72GLOH    O3 9187   3.582   8.803   2.428  0.0201  0.3427 -0.0502
   72GLOH   H01 9188   3.538   8.809   2.342 -1.1608  0.2040  0.5336
   73GLOH   H03 9189   3.510   8.089   2.167  2.0804 -3.4240  1.0378
   73GLOH    O1 9190   3.466   8.092   2.254  0.5486  0.0945  0.2543
   73GLOH    C1 9191   3.387   8.209   2.268 -0.0577  0.0481 -0.2479
   73GLOH   H02 9192   3.432   8.302   2.235 -1.0312  0.6333  0.0460
   73GLOH   H08 9193   3.375   8.222   2.376  0.4440 -0.2223 -0.1605
   73GLOH    C2 9194   3.241   8.183   2.214 -0.4880 -0.1260  0.2256
   73GLOH   H04 9195   3.209   8.095   2.272  1.5590 -1.1228 -0.1161
   73GLOH    O2 9196   3.155   8.285   2.253  0.3141  0.5361 -0.3702
   73GLOH   H05 9197   3.155   8.301   2.349  0.2203  0.3287 -0.3365
   73GLOH    C3 9198   3.238   8.146   2.064 -0.1193 -0.0081 -0.1919
   73GLOH   H06 9199   3.135   8.142   2.028 -0.9195  0.7120  1.9177
   73GLOH   H07 9200   3.275   8.044   2.062  1.4930  0.5633 -0.5903
   73GLOH    O3 9201   3.315   8.231   1.975 -0.5456 -0.0486 -0.0853
   73GLOH   H01 9202   3.399   8.182   1.966 -0.8165 -0.3662 -0.9179
   74GLOH   H03 9203   4.898   1.835   2.474 -0.6397  0.0682  0.4524
   74GLOH    O1 9204   4.892   1.764   2.541 -0.0155 -0.5142 -0.1123
   74GLOH    C1 9205   4.863   1.642   2.468  0.2722  0.8839  1.1847
   74GLOH   H02 9206   4.950   1.577   2.458  0.3268  1.3150 -1.2971
   74GLOH   H08 9207   4.823   1.658   2.368 -0.3763  1.2922  1.5052
   74GLOH    C2 9208   4.760   1.550   2.541  0.0674  0.4083  0.0828
   74GLOH   H04 9209   4.666   1.606   2.542 -0.6901 -0.8125 -0.8053
   74GLOH    O2 9210   4.735   1.427   2.469 -0.0593 -0.2161  0.2587
   74GLOH   H05 9211   4.663   1.444   2.406 -0.8644 -0.8843  0.9965
   74GLOH    C3 9212   4.805   1.534   2.686  0.6342  0.2601  0.0312
   74GLOH   H06 9213   4.899   1.481   2.671  0.4704  0.7582 -3.0190
   74GLOH   H07 9214   4.729   1.469   2.731  1.3175 -0.2337  0.4834
   74GLOH    O3 9215   4.817   1.660   2.754  0.0344  0.3860 -0.2634
   74GLOH   H01 9216   4.857   1.720   2.689 -0.0091  2.3051  1.4154
   75GLOH   H03 9217   2.876   4.686   1.241  1.1183  0.6684 -0.0054
   75GLOH    O1 9218   2.886   4.769   1.191 -0.1804  0.5549 -0.4777
   75GLOH    C1 9219   3.007   4.829   1.247 -0.1967  0.6080  0.0449
   75GLOH   H02 9220   3.093   4.810   1.183 -1.2420 -2.4104 -0.5796
   75GLOH   H08 9221   3.029   4.789   1.346  2.7005 -0.0497 -0.8277
   75GLOH    C2 9222   3.003   4.982   1.271 -0.0146  0.8504 -0.5224
   75GLOH   H04 9223   3.094   5.012   1.325  0.5155 -0.7190 -0.4873
   75GLOH    O2 9224   3.001   5.055   1.145 -0.3370 -0.2778  0.5702
   75GLOH   H05 9225   3.049   5.000   1.081 -1.9811  1.5511 -2.3487
   75GLOH    C3 9226   2.887   5.023   1.359  0.4431  0.1338 -0.0297
   75GLOH   H06 9227   2.795   4.991   1.311  0.4766 -0.3652  0.2348
   75GLOH   H07 9228   2.882   5.131   1.370 -0.8114  0.2347 -1.5180
   75GLOH    O3 9229   2.902   4.965   1.493 -0.4352  0.0323  0.1021
   75GLOH   H01 9230   2.843   4.889   1.506  0.6742 -0.7448  0.7257
   76GLOH   H03 9231   4.509   3.597   1.213  0.5909  0.8379 -1.0039
   76GLOH    O1 9232   4.447   3.672   1.224  0.0007  0.2488 -0.2778
   76GLOH    C1 9233   4.326   3.613   1.260  1.0228 -0.4242  0.1990
   76GLOH   H02 9234   4.336   3.507   1.283  0.2022 -0.7421 -0.8513
   76GLOH   H08 9235   4.259   3.619   1.175 -0.5244 -0.6104  1.3864
   76GLOH    C2 9236   4.262   3.676   1.382  0.1129  0.1951  0.6365
   76GLOH   H04 9237   4.227   3.779   1.365  1.5255  0.3897 -1.2660
   76GLOH    O2 9238   4.146   3.609   1.418  0.0009  0.2985 -0.7004
   76GLOH   H05 9239   4.170   3.527   1.466 -1.2669  1.3007  1.6887
   76GLOH    C3 9240   4.367   3.698   1.494 -0.1313 -0.1680 -0.3017
   76GLOH   H06 9241   4.300   3.740   1.569 -3.0216 -0.1905 -2.7910
   76GLOH   H07 9242   4.449   3.757   1.453  0.0966 -0.0013  0.3771
   76GLOH    O3 9243   4.412   3.570   1.542 -0.2121  0.2197 -0.2534
   76GLOH   H01 9244   4.354   3.497   1.514 -1.9637  0.9515  1.3236
   77GLOH   H03 9245   3.297   8.511   2.165  0.7986  2.2803 -1.2657
   77GLOH    O1 9246   3.261   8.559   2.243  0.6631 -0.3076  0.3299
   77GLOH    C1 9247   3.127   8.597   2.239  0.3780  0.5586  0.0976
   77GLOH   H02 9248   3.076   8.585   2.335  1.5462  0.9100  0.7841
   77GLOH   H08 9249   3.072   8.534   2.170 -0.2296  0.4189  0.7147
   77GLOH    C2 9250   3.108   8.733   2.176 -0.2156 -0.5810  0.3200
   77GLOH   H04 9251   3.169   8.795   2.243  1.0256 -1.8326  0.3700
   77GLOH    O2 9252   3.160   8.738   2.038  0.6668  0.3016  0.4976
   77GLOH   H05 9253   3.129   8.658   1.993  0.6227  1.0244 -0.7878
   77GLOH    C3 9254   2.963   8.783   2.191  1.0283 -0.1463  0.4352
   77GLOH   H06 9255   2.952   8.879   2.140  0.3152 -0.4583  0.0009
   77GLOH   H07 9256   2.947   8.816   2.294 -2.9058 -1.0596  0.2210
   77GLOH    O3 9257   2.855   8.699   2.141  0.4240  0.0324  0.1960
   77GLOH   H01 9258   2.844   8.702   2.044  0.5806 -1.4066  0.1183
   78GLOH   H03 9259   4.034   4.290   1.486  0.9536  0.5648 -0.2659
   78GLOH    O1 9260   3.976   4.362   1.455  0.7797  0.4607 -0.1787
   78GLOH    C1 9261   3.949   4.358   1.316  0.4412 -0.2570 -0.1622
   78GLOH   H02 9262   4.049   4.364   1.271  1.1429  0.1996  1.4273
   78GLOH   H08 9263   3.887   4.441   1.283 -0.0911 -0.8011 -0.5254
   78GLOH    C2 9264   3.870   4.238   1.272  0.5161  0.2728  0.1142
   78GLOH   H04 9265   3.933   4.148   1.280  1.3312  0.8196 -0.0634
   78GLOH    O2 9266   3.740   4.235   1.331  0.2160  0.0352  0.2606
   78GLOH   H05 9267   3.730   4.286   1.414  0.2327  1.4452 -0.5903
   78GLOH    C3 9268   3.863   4.248   1.119  0.6724  0.1469  0.7091
   78GLOH   H06 9269   3.794   4.328   1.092  0.3608 -0.8582 -1.5951
   78GLOH   H07 9270   3.820   4.158   1.074 -0.1565  0.5895  0.5991
   78GLOH    O3 9271   3.993   4.270   1.064  0.0765 -0.2500 -0.1050
   78GLOH   H01 9272   4.039   4.185   1.076 -2.5407 -2.1165 -2.4542
   79GLOH   H03 9273   2.721   2.319   1.495  0.2255  0.1759 -2.5257
   79GLOH    O1 9274   2.651   2.256   1.471 -0.0858 -0.4052 -0.1836
   79GLOH    C1 9275   2.713   2.157   1.383  0.6159 -0.9269  0.5824
   79GLOH   H02 9276   2.818   2.143   1.409 -0.1122 -2.7543  2.8148
   79GLOH   H08 9277   2.716   2.198   1.282  1.0652  1.7410  1.6434
   79GLOH    C2 9278   2.632   2.025   1.373  0.1033  0.0009 -0.0352
   79GLOH   H04 9279   2.536   2.044   1.324 -1.1019 -1.1959  1.7586
   79GLOH    O2 9280   2.699   1.919   1.294  0.1900 -0.1492 -1.0991
   79GLOH   H05 9281   2.638   1.846   1.277 -3.2089  1.9930  1.3041
   79GLOH    C3 9282   2.599   1.967   1.512  0.1383  0.5121 -0.4432
   79GLOH   H06 9283   2.697   1.950   1.557  0.2155  2.9664  0.4140
   79GLOH   H07 9284   2.547   1.871   1.502 -0.9621  1.1143 -0.6378
   79GLOH    O3 9285   2.517   2.050   1.592  0.0810 -0.1863  0.5658
   79GLOH   H01 9286   2.553   2.140   1.577 -0.6385  0.4809  2.6717
   80GLOH   H03 9287   3.520   9.509   0.094 -0.6678  1.5701  1.7373
   80GLOH    O1 9288   3.611   9.543   0.086 -0.1336 -0.1786 -0.1549
   80GLOH    C1 9289   3.681   9.518   0.207 -0.1946  0.2206  0.1686
   80GLOH   H02 9290   3.617   9.540   0.292  0.8491  1.9316  0.5430
   80GLOH   H08 9291   3.753   9.599   0.219 -1.0790  0.6449  3.0281
   80GLOH    C2 9292   3.737   9.375   0.223  0.8416 -0.2296  0.0048
   80GLOH   H04 9293   3.653   9.306   0.211  0.3102  0.5433 -0.7818
   80GLOH    O2 9294   3.847   9.334   0.141  0.1640  0.2094  0.4314
   80GLOH   H05 9295   3.810   9.316   0.052  0.6965 -3.0381  0.8143
   80GLOH    C3 9296   3.773   9.358   0.372  0.4171  0.2602  0.5337
   80GLOH   H06 9297   3.837   9.443   0.398 -0.7751  0.8443  1.5991
   80GLOH   H07 9298   3.832   9.268   0.386  0.8031  0.4458  0.1027
   80GLOH    O3 9299   3.660   9.372   0.462  0.4759  0.6843  0.8027
   80GLOH   H01 9300   3.671   9.291   0.515  0.5138 -0.1097 -0.4033
   81GLOH   H03 9301   4.481   3.006   0.903 -1.3468  1.4583  4.2480
   81GLOH    O1 9302   4.551   3.067   0.874 -0.9122 -0.7724  0.2210
   81GLOH    C1 9303   4.498   3.151   0.770 -0.7374  0.3881 -0.8327
   81GLOH   H02 9304   4.452   3.085   0.697 -1.2943 -0.0570 -0.0881
   81GLOH   H08 9305   4.580   3.209   0.726  0.9785 -0.7148  0.8300
   81GLOH    C2 9306   4.388   3.241   0.830  0.2316 -0.0376 -0.8103
   81GLOH   H04 9307   4.363   3.318   0.755 -3.3967  1.4662  1.7940
   81GLOH    O2 9308   4.273   3.159   0.857 -0.3287 -0.2010  0.4452
   81GLOH   H05 9309   4.299   3.067   0.876 -2.1433 -0.8218  0.0241
   81GLOH    C3 9310   4.432   3.321   0.953  0.2171  0.0942 -0.4916
   81GLOH   H06 9311   4.346   3.373   0.995 -0.3493 -1.0831 -0.1888
   81GLOH   H07 9312   4.487   3.407   0.914 -2.1304  1.0315 -1.7769
   81GLOH    O3 9313   4.497   3.246   1.057 -0.3196 -0.4286 -0.4713
   81GLOH   H01 9314   4.539   3.168   1.018  1.8030  0.2427  0.4358
   82GLOH   H03 9315   3.366   0.125   0.781  0.8612  1.2038 -3.0968
   82GLOH    O1 9316   3.398   0.204   0.828 -0.0734 -0.1737  0.0642
   82GLOH    C1 9317   3.351   0.212   0.962  0.6710  0.1784 -0.1973
   82GLOH   H02 9318   3.251   0.173   0.978  1.7808 -2.5357  0.4127
   82GLOH   H08 9319   3.337   0.315   0.994  4.3892  0.5421  0.5400
   82GLOH    C2 9320   3.436   0.136   1.066 -0.3002 -0.2280 -0.3218
   82GLOH   H04 9321   3.440   0.030   1.037  1.5044 -0.0208 -0.8659
   82GLOH    O2 9322   3.571   0.186   1.060  0.3499  0.3943  0.1984
   82GLOH   H05 9323   3.627   0.134   1.000 -1.2450 -1.0892 -0.0695
   82GLOH    C3 9324   3.382   0.175   1.201  0.1629  0.4912  0.3574
   82GLOH   H06 9325   3.403   0.280   1.223  3.3990  0.0015 -0.1599
   82GLOH   H07 9326   3.440   0.130   1.282  1.5975  0.7222 -0.5269
   82GLOH    O3 9327   3.242   0.156   1.211  0.3815 -0.1413  0.2238
   82GLOH   H01 9328   3.227   0.129   1.304  0.3538 -3.3987 -0.6708
   83GLOH   H03 9329   2.947   2.224   1.242  0.0118 -0.6887 -0.2843
   83GLOH    O1 9330   2.929   2.320   1.235 -0.0351 -0.7003 -0.3149
   83GLOH    C1 9331   3.039   2.387   1.187 -0.1103 -0.0011 -0.4354
   83GLOH   H02 9332   3.126   2.387   1.252  1.6161 -2.3006 -2.6128
   83GLOH   H08 9333   3.015   2.493   1.181 -1.4960 -0.2542  0.4991
   83GLOH    C2 9334   3.086   2.324   1.055 -1.0090  0.3173  0.8533
   83GLOH   H04 9335   3.127   2.227   1.087  0.3018 -0.2363 -2.3096
   83GLOH    O2 9336   2.982   2.300   0.960  0.0831  0.7021  0.9463
   83GLOH   H05 9337   2.970   2.207   0.936  1.7805  1.1451 -1.8219
   83GLOH    C3 9338   3.200   2.404   0.989 -0.1807 -0.0862 -0.5033
   83GLOH   H06 9339   3.157   2.504   0.986  0.6147  0.3424  1.7756
   83GLOH   H07 9340   3.203   2.367   0.886 -1.2669  1.2572 -1.0504
   83GLOH    O3 9341   3.317   2.400   1.069  0.3646 -0.6989 -0.2025
   83GLOH   H01 9342   3.367   2.482   1.057 -0.4955 -0.2909 -1.0427
   84GLOH   H03 9343   3.665   1.641   1.391 -1.8692  1.3154 -0.7928
   84GLOH    O1 9344   3.654   1.684   1.478  0.3677  0.4422 -0.0469
   84GLOH    C1 9345   3.760   1.781   1.486 -0.2235  0.3661  0.2726
   84GLOH   H02 9346   3.824   1.775   1.398  1.9257  1.3755  1.7283
   84GLOH   H08 9347   3.827   1.768   1.571 -1.0000  1.9191  1.1370
   84GLOH    C2 9348   3.712   1.925   1.491  0.4437 -0.2437 -0.6359
   84GLOH   H04 9349   3.629   1.921   1.563  0.1644  0.5210 -0.9028
   84GLOH    O2 9350   3.821   2.018   1.523  0.5098  0.0057 -0.3965
   84GLOH   H05 9351   3.855   2.053   1.439  0.2403 -0.1317 -0.5632
   84GLOH    C3 9352   3.652   1.969   1.353  0.4487  0.6430 -0.5193
   84GLOH   H06 9353   3.733   1.942   1.286 -0.4229  0.4748 -1.5168
   84GLOH   H07 9354   3.637   2.077   1.350 -0.7364  0.4545 -1.5256
   84GLOH    O3 9355   3.526   1.911   1.315  1.1555  0.0229 -0.0470
   84GLOH   H01 9356   3.452   1.957   1.358  0.5363 -0.6484 -0.3758
   85GLOH   H03 9357   4.247   1.838   0.024  0.3952  1.0644 -1.6677
   85GLOH    O1 9358   4.252   1.922   0.074  0.0454 -0.0038  0.2159
   85GLOH    C1 9359   4.123   1.974   0.106 -0.0721  0.4459 -0.1719
   85GLOH   H02 9360   4.120   2.013   0.208 -2.4906 -1.3378  0.4828
   85GLOH   H08 9361   4.056   1.888   0.107  1.4519 -0.7586  2.0082
   85GLOH    C2 9362   4.051   2.075   0.006 -0.5183  0.2273  0.1773
   85GLOH   H04 9363   3.988   2.143   0.065 -1.8613  1.3185 -2.4298
   85GLOH    O2 9364   4.147   2.165  -0.063 -0.0643  0.5913  0.0626
   85GLOH   H05 9365   4.231   2.116  -0.062 -0.8762 -0.8001  1.3981
   85GLOH    C3 9366   3.953   2.013  -0.092  0.6340  0.5571 -0.1425
   85GLOH   H06 9367   4.005   1.933  -0.145  0.1177  0.1537 -0.0351
   85GLOH   H07 9368   3.923   2.089  -0.165  0.3094  0.2319 -0.3486
   85GLOH    O3 9369   3.838   1.959  -0.023  0.4062 -0.2759 -0.3779
   85GLOH   H01 9370   3.854   1.866  -0.001 -0.6868 -0.6183 -1.0145
   86GLOH   H03 9371   3.130   5.795   2.342  0.7941 -0.2878  0.5870
   86GLOH    O1 9372   3.143   5.872   2.401  0.0841 -0.2868  0.7468
   86GLOH    C1 9373   3.181   5.822   2.525 -0.1595 -0.0233  0.8650
   86GLOH   H02 9374   3.252   5.890   2.572 -0.3642 -0.2961  1.5688
   86GLOH   H08 9375   3.232   5.726   2.514 -0.8372 -0.1705 -1.3265
   86GLOH    C2 9376   3.055   5.810   2.615 -0.1305  0.2110 -0.1992
   86GLOH   H04 9377   2.978   5.753   2.561 -0.0751  2.4374 -2.7547
   86GLOH    O2 9378   3.083   5.745   2.732 -0.0716  0.2119  0.0994
   86GLOH   H05 9379   3.040   5.659   2.728  2.6738 -1.4057  2.7513
   86GLOH    C3 9380   2.992   5.952   2.635  0.5304  0.2149  0.5384
   86GLOH   H06 9381   3.071   6.015   2.676  0.8045 -0.1401  0.5619
   86GLOH   H07 9382   2.911   5.950   2.708 -0.1658 -0.8415 -0.2394
   86GLOH    O3 9383   2.952   6.005   2.507  0.3448 -0.3296 -0.2177
   86GLOH   H01 9384   3.008   5.952   2.447 -0.8234  1.4336 -2.9680
   87GLOH   H03 9385   5.317   3.824   0.125  0.3245 -0.5935 -0.3153
   87GLOH    O1 9386   5.242   3.803   0.067  0.1983 -0.3113 -0.2533
   87GLOH    C1 9387   5.118   3.816   0.133  0.3856  0.4279 -0.2425
   87GLOH   H02 9388   5.043   3.862   0.069  0.7609 -0.4413 -1.3217
   87GLOH   H08 9389   5.116   3.859   0.233 -0.2557  1.6212 -0.7638
   87GLOH    C2 9390   5.062   3.674   0.163 -0.4677  0.1726  0.1282
   87GLOH   H04 9391   4.971   3.690   0.224 -1.7077 -0.5977 -1.4813
   87GLOH    O2 9392   5.038   3.590   0.046  0.0383 -0.0756 -0.2734
   87GLOH   H05 9393   5.104   3.610  -0.022  0.2619  0.1112 -0.0023
   87GLOH    C3 9394   5.149   3.596   0.264  0.3181 -0.2029  0.6401
   87GLOH   H06 9395   5.252   3.594   0.228  0.2666  0.6423  0.4359
   87GLOH   H07 9396   5.113   3.494   0.275  1.8304 -0.8861 -0.6012
   87GLOH    O3 9397   5.145   3.642   0.396  0.1011 -0.5144 -0.1072
   87GLOH   H01 9398   5.120   3.565   0.450  2.1094 -1.3509 -0.3394
   88GLOH   H03 9399   4.923   3.408   1.140  0.1654 -1.8075 -1.8825
   88GLOH    O1 9400   4.938   3.458   1.057 -0.3216  0.6785 -0.5106
   88GLOH    C1 9401   5.029   3.390   0.974 -0.9323  0.3775  0.6797
   88GLOH   H02 9402   5.112   3.339   1.022 -0.2261  0.1319 -0.7888
   88GLOH   H08 9403   5.078   3.472   0.921 -2.1233  1.2689  0.9294
   88GLOH    C2 9404   4.970   3.295   0.870  0.1287 -0.2936  0.4481
   88GLOH   H04 9405   4.918   3.366   0.803 -1.0383 -0.3188  1.3139
   88GLOH    O2 9406   5.075   3.228   0.798  0.1337 -0.1778 -0.2883
   88GLOH   H05 9407   5.038   3.148   0.758 -0.3467  0.1807 -0.5616
   88GLOH    C3 9408   4.874   3.189   0.926  0.6918 -0.1674 -0.1345
   88GLOH   H06 9409   4.812   3.237   1.001  1.3028  2.2392 -1.1286
   88GLOH   H07 9410   4.941   3.118   0.975  2.9164  1.4666 -0.7252
   88GLOH    O3 9411   4.799   3.114   0.828 -0.0433 -0.9722 -0.4354
   88GLOH   H01 9412   4.706   3.100   0.854 -0.0045 -1.9590 -0.8011
   89GLOH   H03 9413   3.800   8.852   0.712  0.6486 -0.3999  0.9251
   89GLOH    O1 9414   3.730   8.915   0.733  0.2983 -0.2405 -0.6589
   89GLOH    C1 9415   3.784   9.047   0.775  0.6110 -0.7315  0.1288
   89GLOH   H02 9416   3.880   9.073   0.731 -0.2418  0.4324 -1.0791
   89GLOH   H08 9417   3.800   9.066   0.881 -2.6556 -2.7935  1.0552
   89GLOH    C2 9418   3.693   9.166   0.729 -0.1063  0.5518  0.6598
   89GLOH   H04 9419   3.744   9.262   0.746  0.7298  0.6170 -1.9632
   89GLOH    O2 9420   3.675   9.162   0.588  0.2903 -0.3050 -0.4706
   89GLOH   H05 9421   3.664   9.066   0.575  0.6040 -0.2582 -1.1281
   89GLOH    C3 9422   3.565   9.166   0.812 -0.1469  0.4371 -0.0431
   89GLOH   H06 9423   3.516   9.069   0.803  0.8081 -0.1202  0.6456
   89GLOH   H07 9424   3.500   9.234   0.758  1.0042 -0.1270 -2.1693
   89GLOH    O3 9425   3.585   9.213   0.949 -0.2156  0.2434 -0.3451
   89GLOH   H01 9426   3.518   9.283   0.962  0.4014  0.4102  1.9770
   90GLOH   H03 9427   3.450   7.808   1.595 -0.4842  0.3363  1.9409
   90GLOH    O1 9428   3.460   7.905   1.599 -0.2154  0.4201 -0.2433
   90GLOH    C1 9429   3.597   7.949   1.573  0.0178 -0.9604 -1.1999
   90GLOH   H02 9430   3.632   7.921   1.474  1.7372  0.8699 -1.1447
   90GLOH   H08 9431   3.654   7.897   1.649  0.8844  0.0240 -1.1655
   90GLOH    C2 9432   3.622   8.096   1.585 -0.2182  0.0279 -0.4771
   90GLOH   H04 9433   3.577   8.131   1.679 -0.6279  2.9338 -1.6836
   90GLOH    O2 9434   3.769   8.120   1.598 -0.0194 -0.2916  0.4856
   90GLOH   H05 9435   3.810   8.102   1.511 -1.3791 -2.4792  0.2485
   90GLOH    C3 9436   3.553   8.184   1.477  0.1609 -0.4366 -0.2883
   90GLOH   H06 9437   3.620   8.211   1.396 -0.3878  0.0563 -0.5865
   90GLOH   H07 9438   3.534   8.276   1.532 -0.1839 -1.5520  1.4961
   90GLOH    O3 9439   3.429   8.140   1.422 -0.0043 -0.0246 -0.1045
   90GLOH   H01 9440   3.376   8.091   1.487  0.2599  0.2408  0.3138
   91GLOH   H03 9441   3.589   0.983   1.787  1.0060  0.6516 -2.2151
   91GLOH    O1 9442   3.667   1.017   1.835  0.1131 -0.1237 -0.1550
   91GLOH    C1 9443   3.787   0.942   1.810 -0.2903  0.4659 -0.1491
   91GLOH   H02 9444   3.877   1.004   1.806  0.8232 -1.1197  0.1837
   91GLOH   H08 9445   3.769   0.900   1.711  0.8812  0.2746 -0.2793
   91GLOH    C2 9446   3.804   0.835   1.915  0.5855  0.4585  0.0574
   91GLOH   H04 9447   3.714   0.771   1.920  0.7517  0.4265  3.7809
   91GLOH    O2 9448   3.912   0.743   1.879 -0.4770  0.4769  0.6151
   91GLOH   H05 9449   3.898   0.654   1.916 -1.8667 -0.5103 -2.0683
   91GLOH    C3 9450   3.812   0.888   2.055 -0.0065 -0.2281 -0.3032
   91GLOH   H06 9451   3.898   0.955   2.062  0.7637 -0.9974 -2.0575
   91GLOH   H07 9452   3.827   0.805   2.124 -1.0246 -0.5056 -0.4002
   91GLOH    O3 9453   3.689   0.968   2.082 -0.0438  0.3952  0.1400
   91GLOH   H01 9454   3.672   1.016   1.999 -1.9055  2.1457  1.4874
   92GLOH   H03 9455   3.177   9.481   1.828 -0.1581 -0.6519 -0.0959
   92GLOH    O1 9456   3.140   9.422   1.896 -0.3178 -0.2127  0.1978
   92GLOH    C1 9457   3.119   9.296   1.835 -0.4330 -0.6079 -0.2565
   92GLOH   H02 9458   3.084   9.228   1.913  0.8244  1.8561  2.5694
   92GLOH   H08 9459   3.210   9.261   1.787  0.9094 -0.4945  2.1016
   92GLOH    C2 9460   3.004   9.303   1.734 -0.1302  0.2625  0.0453
   92GLOH   H04 9461   3.035   9.367   1.650 -0.5591  0.0835 -0.2564
   92GLOH    O2 9462   2.966   9.173   1.684  0.0051  0.4730 -0.1950
   92GLOH   H05 9463   2.923   9.120   1.753 -1.9631 -1.7478 -3.0223
   92GLOH    C3 9464   2.884   9.383   1.790 -0.3432 -0.0244  0.6270
   92GLOH   H06 9465   2.923   9.483   1.810  0.0131  0.1284 -0.7798
   92GLOH   H07 9466   2.847   9.334   1.880 -3.2350  2.0961  0.6629
   92GLOH    O3 9467   2.775   9.391   1.693  0.5710  0.3397  0.1401
   92GLOH   H01 9468   2.783   9.313   1.636  0.5975  0.9442 -0.6962
   93GLOH   H03 9469   2.682   6.015   0.200 -1.0026  0.7299  0.5332
   93GLOH    O1 9470   2.728   6.030   0.286 -0.3140 -0.3126  0.3592
   93GLOH    C1 9471   2.723   6.167   0.313  0.1280  0.0113  0.5116
   93GLOH   H02 9472   2.631   6.202   0.266  0.6011 -0.7637 -1.0162
   93GLOH   H08 9473   2.801   6.223   0.263  1.7243 -1.7886  0.9320
   93GLOH    C2 9474   2.724   6.216   0.456 -0.6367 -0.0430 -0.0213
   93GLOH   H04 9475   2.815   6.176   0.502 -1.2358  1.7530  2.8142
   93GLOH    O2 9476   2.746   6.359   0.455  0.0168  0.3284 -0.5724
   93GLOH   H05 9477   2.658   6.399   0.454  0.7338  1.8819 -1.4759
   93GLOH    C3 9478   2.590   6.182   0.526  0.5226 -0.7761  0.7098
   93GLOH   H06 9479   2.505   6.232   0.477  0.8950 -1.1995 -0.3891
   93GLOH   H07 9480   2.601   6.221   0.627 -3.8229 -1.8284  1.7236
   93GLOH    O3 9481   2.569   6.045   0.529  0.8963  0.3210  0.4155
   93GLOH   H01 9482   2.645   5.999   0.569  0.7280  0.0497  0.4241
   94GLOH   H03 9483   3.068   0.833   1.456  1.3650  1.0552 -0.5698
   94GLOH    O1 9484   3.064   0.764   1.387  0.4390  0.8854 -0.3554
   94GLOH    C1 9485   3.199   0.713   1.363  1.0537  0.4098 -0.5020
   94GLOH   H02 9486   3.239   0.678   1.458  0.9011  2.7213  0.4531
   94GLOH   H08 9487   3.256   0.797   1.322 -0.4326  1.2865 -0.8073
   94GLOH    C2 9488   3.205   0.606   1.249 -0.0593 -0.2163  0.1464
   94GLOH   H04 9489   3.146   0.519   1.283 -0.7101 -0.9462 -2.6896
   94GLOH    O2 9490   3.148   0.661   1.128  0.1668 -0.3316  0.1655
   94GLOH   H05 9491   3.053   0.641   1.135  0.0088  0.3923  0.1138
   94GLOH    C3 9492   3.355   0.571   1.230 -0.2494 -0.2409  0.0386
   94GLOH   H06 9493   3.416   0.655   1.197  0.4594 -1.9083 -3.0857
   94GLOH   H07 9494   3.353   0.502   1.147  0.6659  0.7227 -0.7950
   94GLOH    O3 9495   3.413   0.516   1.346  0.7753 -0.0697 -0.0889
   94GLOH   H01 9496   3.359   0.446   1.387 -1.7043  1.7400 -0.1882
   95GLOH   H03 9497   4.539   3.900   0.529  1.1077 -1.0490  1.6350
   95GLOH    O1 9498   4.590   3.854   0.459 -0.0776  0.1243 -0.0475
   95GLOH    C1 9499   4.544   3.884   0.327 -0.2273  0.2164  0.2388
   95GLOH   H02 9500   4.452   3.942   0.323  1.3156  2.6338 -1.4611
   95GLOH   H08 9501   4.525   3.786   0.281 -1.2546  0.7611 -0.5297
   95GLOH    C2 9502   4.640   3.954   0.232 -0.7328  0.1060 -0.0283
   95GLOH   H04 9503   4.693   4.027   0.295 -2.5953  2.0639 -0.6702
   95GLOH    O2 9504   4.739   3.866   0.178 -0.0933 -0.0545  0.5483
   95GLOH   H05 9505   4.780   3.801   0.237  0.7798  0.2275  0.2614
   95GLOH    C3 9506   4.568   4.026   0.120  0.5287  0.4383 -0.2521
   95GLOH   H06 9507   4.502   3.950   0.079  0.7364 -0.2394  0.6784
   95GLOH   H07 9508   4.634   4.041   0.035  1.4929 -0.9199  0.2614
   95GLOH    O3 9509   4.481   4.140   0.146 -0.5959 -0.0097  0.5431
   95GLOH   H01 9510   4.409   4.145   0.081 -1.5738  0.7124  1.6405
   96GLOH   H03 9511   3.195   6.885   0.379 -1.5230  0.7027 -0.4583
   96GLOH    O1 9512   3.235   6.963   0.421 -0.2183 -0.0174 -0.3594
   96GLOH    C1 9513   3.363   6.969   0.364 -0.0422 -0.2912 -0.6665
   96GLOH   H02 9514   3.426   6.886   0.396  0.0972  0.2402  0.4381
   96GLOH   H08 9515   3.407   7.060   0.404 -0.5934  0.0853 -0.9024
   96GLOH    C2 9516   3.359   6.977   0.207 -0.0175 -0.3165 -0.3524
   96GLOH   H04 9517   3.466   6.970   0.182  0.3273 -3.2930  1.6785
   96GLOH    O2 9518   3.285   6.873   0.142 -0.2344 -0.1190  0.6744
   96GLOH   H05 9519   3.207   6.854   0.197  0.2950  0.1124  1.5173
   96GLOH    C3 9520   3.306   7.107   0.149  0.6468  0.3789 -0.3617
   96GLOH   H06 9521   3.203   7.119   0.183  1.3016  0.6993  1.5997
   96GLOH   H07 9522   3.299   7.104   0.040 -1.0362  0.7988 -0.2734
   96GLOH    O3 9523   3.385   7.222   0.187  0.0152 -0.3043  0.4246
   96GLOH   H01 9524   3.363   7.298   0.131  1.5101  0.1907  0.4961
   97GLOH   H03 9525   4.907   3.013   0.765 -0.0860 -0.4560 -0.2564
   97GLOH    O1 9526   4.966   3.015   0.688 -0.0023  0.3275 -0.1767
   97GLOH    C1 9527   5.031   2.889   0.695  0.6350  0.2344  0.6640
   97GLOH   H02 9528   5.132   2.895   0.737  1.9825 -0.1915 -2.3422
   97GLOH   H08 9529   5.046   2.847   0.596 -0.6828  0.7992  0.2218
   97GLOH    C2 9530   4.967   2.783   0.784  0.3512  0.0256  0.1766
   97GLOH   H04 9531   5.045   2.706   0.791 -0.7620 -1.3410 -2.0205
   97GLOH    O2 9532   4.958   2.832   0.920  0.4708 -0.6016  0.4866
   97GLOH   H05 9533   5.046   2.840   0.961 -0.1620  4.0109  1.2665
   97GLOH    C3 9534   4.840   2.720   0.728 -0.6144  0.1260  0.2238
   97GLOH   H06 9535   4.774   2.794   0.684 -1.1116  0.7498  1.9871
   97GLOH   H07 9536   4.785   2.664   0.804  0.3538  0.5246  1.2320
   97GLOH    O3 9537   4.884   2.629   0.623 -0.0879 -0.5262 -0.0395
   97GLOH   H01 9538   4.932   2.557   0.668 -0.7382 -1.1103 -0.2687
   98GLOH   H03 9539   3.462   2.660   0.311  2.3702  1.2866 -1.3277
   98GLOH    O1 9540   3.508   2.579   0.339 -0.3231  0.3192  0.5886
   98GLOH    C1 9541   3.563   2.520   0.223  0.4161 -0.0484  0.0789
   98GLOH   H02 9542   3.647   2.578   0.185  0.9287 -0.8319  0.0099
   98GLOH   H08 9543   3.488   2.531   0.144  0.7884 -2.4610 -0.6574
   98GLOH    C2 9544   3.612   2.377   0.242 -0.7915 -0.0314  1.1436
   98GLOH   H04 9545   3.645   2.363   0.346  1.4472 -3.4364  0.0594
   98GLOH    O2 9546   3.511   2.284   0.210  0.3554  0.4378 -0.2556
   98GLOH   H05 9547   3.436   2.294   0.272 -0.2900  0.4659 -1.0379
   98GLOH    C3 9548   3.741   2.353   0.157  0.3881 -0.2343  0.1121
   98GLOH   H06 9549   3.728   2.363   0.049  0.9240 -0.2905  0.0375
   98GLOH   H07 9550   3.753   2.244   0.159  1.2993 -0.1783 -1.1802
   98GLOH    O3 9551   3.863   2.409   0.205 -0.0743 -0.2715 -0.6330
   98GLOH   H01 9552   3.919   2.445   0.134  1.4736 -0.1969  0.5901
   99GLOH   H03 9553   4.103   0.550   0.348  3.0088 -0.7249 -0.2195
   99GLOH    O1 9554   4.092   0.498   0.429 -0.1380  0.0111 -0.1208
   99GLOH    C1 9555   4.209   0.511   0.511 -0.1651  0.1696 -0.1419
   99GLOH   H02 9556   4.238   0.613   0.538  0.8644 -0.6408  1.9916
   99GLOH   H08 9557   4.295   0.467   0.460  0.1897 -1.0954  1.5019
   99GLOH    C2 9558   4.187   0.447   0.651  0.4878  0.1712 -0.5526
   99GLOH   H04 9559   4.107   0.499   0.706  0.1408  0.7186 -1.5566
   99GLOH    O2 9560   4.147   0.311   0.633  0.7474  0.0500 -0.4163
   99GLOH   H05 9561   4.122   0.275   0.719  0.9061 -2.2353 -1.2882
   99GLOH    C3 9562   4.313   0.457   0.735 -0.3259  1.3482 -0.5336
   99GLOH   H06 9563   4.401   0.416   0.687 -0.0044 -0.4398  1.5157
   99GLOH   H07 9564   4.299   0.407   0.831  0.9004  0.2367 -0.9155
   99GLOH    O3 9565   4.341   0.593   0.756 -0.0958 -0.4128  0.1379
   99GLOH   H01 9566   4.396   0.610   0.835 -2.0809 -0.5899  1.6048
  100GLOH   H03 9567   3.706   8.256   2.454  2.3785  1.8240  0.9692
  100GLOH    O1 9568   3.698   8.200   2.533 -0.0022 -0.1265 -0.5560
  100GLOH    C1 9569   3.669   8.284   2.640  0.4567 -0.2787 -0.1308
  100GLOH   H02 9570   3.766   8.300   2.687 -0.6875 -1.3891  2.7195
  100GLOH   H08 9571   3.607   8.230   2.711 -1.4550  1.7252 -0.2166
  100GLOH    C2 9572   3.606   8.425   2.598 -0.0203 -0.3469 -0.7086
  100GLOH   H04 9573   3.504   8.393   2.570 -0.3746  0.9910 -0.9517
  100GLOH    O2 9574   3.603   8.517   2.711 -0.2796  0.1976  0.4504
  100GLOH   H05 9575   3.527   8.577   2.709  1.4165  2.3978 -1.3453
  100GLOH    C3 9576   3.694   8.472   2.486  0.0115 -0.3440  0.3179
  100GLOH   H06 9577   3.796   8.478   2.523  0.4663 -1.6469 -0.6799
  100GLOH   H07 9578   3.669   8.576   2.465 -2.0132 -0.7701  0.5637
  100GLOH    O3 9579   3.697   8.389   2.372  0.6690  0.2824 -0.3016
  100GLOH   H01 9580   3.684   8.452   2.299  1.0053  0.1992 -0.4325
  101GLOH   H03 9581   2.856   7.380   1.858  0.1144 -0.5655  0.0339
  101GLOH    O1 9582   2.947   7.412   1.871 -0.1102  0.0687  0.0630
  101GLOH    C1 9583   3.012   7.422   1.743 -0.2274  0.4338  0.9918
  101GLOH   H02 9584   3.077   7.337   1.724 -1.3245 -0.5304  1.5046
  101GLOH   H08 9585   3.072   7.513   1.742  1.0894 -0.4226  0.9763
  101GLOH    C2 9586   2.910   7.434   1.628 -0.3722  0.3346 -0.5035
  101GLOH   H04 9587   2.857   7.529   1.645 -0.2414  0.2992  0.1302
  101GLOH    O2 9588   2.968   7.429   1.498 -0.2552 -0.0572 -0.0530
  101GLOH   H05 9589   2.932   7.348   1.458 -1.9811  0.6294  0.0725
  101GLOH    C3 9590   2.802   7.328   1.637 -0.4131  0.1519 -0.5336
  101GLOH   H06 9591   2.849   7.230   1.635 -0.7852 -0.0455  0.1788
  101GLOH   H07 9592   2.731   7.334   1.554 -0.9152  0.4089 -0.0926
  101GLOH    O3 9593   2.728   7.338   1.764 -0.5609  0.2186  0.3741
  101GLOH   H01 9594   2.652   7.278   1.754  1.1459 -2.0351  0.4002
  102GLOH   H03 9595   2.908   5.204   0.748  0.6814  1.1742 -0.2672
  102GLOH    O1 9596   2.987   5.166   0.707 -0.4525 -0.7769 -0.6897
  102GLOH    C1 9597   3.092   5.262   0.701  0.7140  0.5234 -0.0478
  102GLOH   H02 9598   3.057   5.365   0.692 -0.2571  0.0537 -1.8920
  102GLOH   H08 9599   3.145   5.249   0.607  0.4400  1.8620 -0.3945
  102GLOH    C2 9600   3.192   5.259   0.818  0.2848  0.6924 -0.1267
  102GLOH   H04 9601   3.128   5.260   0.907  0.0736  1.7398 -0.2812
  102GLOH    O2 9602   3.277   5.143   0.814 -0.0713 -0.5538  0.0488
  102GLOH   H05 9603   3.308   5.115   0.726 -1.2359  0.6620 -0.7474
  102GLOH    C3 9604   3.289   5.385   0.811  0.5824  0.1970  0.8242
  102GLOH   H06 9605   3.346   5.370   0.719  0.1054  0.7167  0.4394
  102GLOH   H07 9606   3.355   5.391   0.897  1.2893 -1.3807  0.4251
  102GLOH    O3 9607   3.206   5.502   0.805 -0.3346 -0.7513  0.2179
  102GLOH   H01 9608   3.167   5.521   0.893 -2.2219  1.2473 -1.0070
  103GLOH   H03 9609   3.341   2.054   1.076 -1.1160  0.8922 -0.4104
  103GLOH    O1 9610   3.286   1.987   1.121  0.6210 -0.1350  0.2347
  103GLOH    C1 9611   3.253   1.865   1.054  0.1169  0.5421 -0.3614
  103GLOH   H02 9612   3.229   1.876   0.948  1.4018 -0.4101 -0.7635
  103GLOH   H08 9613   3.161   1.824   1.096  0.9262 -1.6235 -0.6193
  103GLOH    C2 9614   3.372   1.768   1.059 -0.9206  0.7591  0.3019
  103GLOH   H04 9615   3.453   1.826   1.013 -0.9413  0.4026 -0.1898
  103GLOH    O2 9616   3.399   1.734   1.196  0.0420  0.4831 -0.2757
  103GLOH   H05 9617   3.436   1.811   1.242  1.9458 -0.3985 -0.2725
  103GLOH    C3 9618   3.334   1.648   0.969  0.7034  0.0664 -0.3202
  103GLOH   H06 9619   3.317   1.690   0.870 -1.5609 -0.5561 -0.2350
  103GLOH   H07 9620   3.238   1.611   1.006  0.3733  0.9887 -0.2308
  103GLOH    O3 9621   3.430   1.549   0.971  0.6700 -0.3980  0.5915
  103GLOH   H01 9622   3.393   1.464   0.941  0.2906 -0.0254 -0.0088
  104GLOH   H03 9623   4.723   3.234   1.831 -0.5019  0.5191 -0.4866
  104GLOH    O1 9624   4.654   3.167   1.814  0.1537 -0.1790 -0.4381
  104GLOH    C1 9625   4.595   3.148   1.944 -0.6292 -0.0341  1.1428
  104GLOH   H02 9626   4.540   3.240   1.963  0.2549  1.0359 -1.3180
  104GLOH   H08 9627   4.671   3.139   2.022  0.4233  2.6888  0.4920
  104GLOH    C2 9628   4.511   3.023   1.943 -0.6527  0.0459  0.2887
  104GLOH   H04 9629   4.582   2.940   1.930 -1.7982 -0.8330 -0.4329
  104GLOH    O2 9630   4.456   3.003   2.077  0.3277 -0.0977  0.6867
  104GLOH   H05 9631   4.359   3.015   2.080  0.0638 -1.6328 -0.8700
  104GLOH    C3 9632   4.395   3.021   1.841 -0.2439  0.6976  0.0863
  104GLOH   H06 9633   4.373   2.915   1.826 -1.2251  0.9216 -0.0537
  104GLOH   H07 9634   4.427   3.059   1.744 -0.3828  3.5874  1.1092
  104GLOH    O3 9635   4.280   3.104   1.888 -0.2342 -0.2084  0.3005
  104GLOH   H01 9636   4.209   3.047   1.923 -0.4094  0.7070  1.4714
  105GLOH   H03 9637   2.800   3.439   1.052  1.0187  2.5115  0.0623
  105GLOH    O1 9638   2.867   3.372   1.027 -1.0666  0.3279  0.2176
  105GLOH    C1 9639   2.989   3.387   1.094  0.2381  1.0629 -0.4791
  105GLOH   H02 9640   2.971   3.409   1.199 -0.0594  0.3137 -0.3701
  105GLOH   H08 9641   3.051   3.472   1.064  2.0583  0.4398  1.4105
  105GLOH    C2 9642   3.079   3.258   1.088  0.8127 -0.0341  0.2260
  105GLOH   H04 9643   3.035   3.165   1.126 -1.7147  0.9358 -0.2347
  105GLOH    O2 9644   3.104   3.237   0.951 -0.0792  0.3413  0.0017
  105GLOH   H05 9645   3.197   3.260   0.934  0.2174 -0.1741  0.9198
  105GLOH    C3 9646   3.217   3.262   1.163 -0.3320 -0.6826  0.2874
  105GLOH   H06 9647   3.205   3.281   1.269 -2.7942 -1.3628  0.1609
  105GLOH   H07 9648   3.258   3.351   1.115 -1.8526 -1.2654 -2.2099
  105GLOH    O3 9649   3.287   3.138   1.159 -0.1608 -0.5964 -0.2093
  105GLOH   H01 9650   3.383   3.152   1.151 -0.2397 -0.6875 -1.3976
  106GLOH   H03 9651   3.203   0.353   2.808 -1.2436  0.1087 -0.6218
  106GLOH    O1 9652   3.286   0.301   2.806 -0.9662  0.4879  0.5614
  106GLOH    C1 9653   3.308   0.238   2.677 -0.0835 -0.3835 -0.0947
  106GLOH   H02 9654   3.215   0.225   2.622  0.3225  0.9471 -1.1285
  106GLOH   H08 9655   3.350   0.139   2.697 -1.2087 -0.6704  0.9388
  106GLOH    C2 9656   3.401   0.311   2.581  0.5578 -0.0483  0.2970
  106GLOH   H04 9657   3.496   0.314   2.636 -0.1882 -2.2174  1.7994
  106GLOH    O2 9658   3.417   0.243   2.452  0.2613 -0.0743 -0.3442
  106GLOH   H05 9659   3.341   0.196   2.414  0.0425 -0.4993  0.5999
  106GLOH    C3 9660   3.351   0.449   2.565  0.1280 -0.2784  0.1740
  106GLOH   H06 9661   3.421   0.511   2.509 -0.2981 -0.9285 -1.0838
  106GLOH   H07 9662   3.342   0.492   2.665 -0.3012  0.9932 -0.4027
  106GLOH    O3 9663   3.225   0.448   2.500 -0.1438 -0.0995  0.1934
  106GLOH   H01 9664   3.224   0.409   2.411  1.3594  0.9439 -0.2903
  107GLOH   H03 9665   3.735   4.739   2.003  0.2395 -0.1510 -1.2030
  107GLOH    O1 9666   3.666   4.766   1.939 -0.3897  0.4621 -0.2938
  107GLOH    C1 9667   3.546   4.794   2.009  0.5028 -0.6485  0.0393
  107GLOH   H02 9668   3.566   4.836   2.108  0.5428 -2.8368  0.9945
  107GLOH   H08 9669   3.492   4.702   2.032  0.6210 -0.1810  2.2468
  107GLOH    C2 9670   3.455   4.896   1.933 -0.8720 -0.4159  0.0345
  107GLOH   H04 9671   3.446   4.867   1.828  1.5511  1.6631 -0.7947
  107GLOH    O2 9672   3.329   4.894   2.000 -0.5960  0.1571  0.6904
  107GLOH   H05 9673   3.272   4.972   1.986  1.7578  2.2984  2.5854
  107GLOH    C3 9674   3.510   5.037   1.959  0.0642  0.4999 -0.2405
  107GLOH   H06 9675   3.614   5.037   1.924 -0.2852  0.9036 -1.3140
  107GLOH   H07 9676   3.507   5.048   2.067 -2.5974 -0.7243 -0.1481
  107GLOH    O3 9677   3.434   5.139   1.894 -0.3866 -0.4096  0.2371
  107GLOH   H01 9678   3.338   5.124   1.899 -0.8560  2.3021  0.2270
  108GLOH   H03 9679   3.246   4.606   0.797 -0.3877  0.9840  1.6422
  108GLOH    O1 9680   3.306   4.676   0.765 -0.3839  0.3589  0.2488
  108GLOH    C1 9681   3.288   4.792   0.849 -0.3622 -0.1154  0.0344
  108GLOH   H02 9682   3.354   4.872   0.816 -0.8774  0.4615  0.4112
  108GLOH   H08 9683   3.326   4.773   0.950 -0.3812 -0.9175 -0.1062
  108GLOH    C2 9684   3.146   4.844   0.857 -0.7399  0.1614  0.7111
  108GLOH   H04 9685   3.084   4.763   0.898 -2.3159  1.6524  1.3373
  108GLOH    O2 9686   3.135   4.958   0.950  0.2544  0.0689 -0.1384
  108GLOH   H05 9687   3.173   5.032   0.901  0.6169  3.1800  4.5677
  108GLOH    C3 9688   3.097   4.873   0.708 -0.8490 -0.4107 -0.7734
  108GLOH   H06 9689   3.102   4.787   0.640  0.8913  1.1197 -2.6656
  108GLOH   H07 9690   3.161   4.953   0.670 -1.0402  0.2943  0.3739
  108GLOH    O3 9691   2.963   4.915   0.718  0.0522 -0.9658 -0.4842
  108GLOH   H01 9692   2.969   5.012   0.704  1.0565 -1.1086 -1.1717
  109GLOH   H03 9693   2.998   4.405   0.294  2.3925  0.6513  0.0312
  109GLOH    O1 9694   3.009   4.377   0.387 -0.0377 -0.3162  0.0759
  109GLOH    C1 9695   2.903   4.447   0.446  0.0183 -0.2991  0.0414
  109GLOH   H02 9696   2.821   4.461   0.375  0.4742  0.9291 -0.2601
  109GLOH   H08 9697   2.935   4.547   0.475 -1.2369  0.1516 -0.0893
  109GLOH    C2 9698   2.855   4.375   0.573 -0.6162 -0.4042 -0.2792
  109GLOH   H04 9699   2.934   4.396   0.646 -1.8367  0.0320  0.9428
  109GLOH    O2 9700   2.730   4.437   0.618 -0.4331 -0.4299  0.3014
  109GLOH   H05 9701   2.750   4.532   0.628 -1.1775 -0.0239 -1.7157
  109GLOH    C3 9702   2.844   4.224   0.561  0.0087  0.3920 -0.4197
  109GLOH   H06 9703   2.763   4.193   0.496 -2.2800  0.5494  2.2377
  109GLOH   H07 9704   2.813   4.186   0.659  1.1989  0.7913  0.1214
  109GLOH    O3 9705   2.972   4.170   0.534 -0.1357  0.4362 -0.2755
  109GLOH   H01 9706   3.010   4.239   0.477 -1.4263  0.5202 -1.0480
  110GLOH   H03 9707   4.072   0.312   1.912 -0.3391 -0.1072 -0.2318
  110GLOH    O1 9708   4.084   0.354   1.825  0.1651 -0.2793 -0.2446
  110GLOH    C1 9709   3.991   0.299   1.729 -0.0138 -0.4053 -0.0440
  110GLOH   H02 9710   3.946   0.210   1.771 -0.2779  0.2902  1.1795
  110GLOH   H08 9711   4.056   0.283   1.643  1.4026 -1.1648  1.1493
  110GLOH    C2 9712   3.892   0.414   1.695 -0.4065  1.2884 -0.3483
  110GLOH   H04 9713   3.954   0.504   1.686  0.2972  0.9498  1.0415
  110GLOH    O2 9714   3.821   0.382   1.578 -0.0604  0.0135 -0.6885
  110GLOH   H05 9715   3.871   0.314   1.530 -0.0906  0.0353 -0.7506
  110GLOH    C3 9716   3.782   0.438   1.809 -0.0473  0.7744  0.4251
  110GLOH   H06 9717   3.725   0.346   1.814  1.0240  0.0105 -1.0490
  110GLOH   H07 9718   3.712   0.516   1.779 -1.3177  0.9568  3.6836
  110GLOH    O3 9719   3.848   0.470   1.933 -1.0809 -0.6164  0.4963
  110GLOH   H01 9720   3.917   0.409   1.964 -0.1505  0.5409  0.7279
  111GLOH   H03 9721   4.606   2.805   2.842  1.0650  0.1526  1.7261
  111GLOH    O1 9722   4.674   2.858   2.797 -0.0340  0.3756  0.3033
  111GLOH    C1 9723   4.631   2.859   2.660  0.0704  0.5138  0.2030
  111GLOH   H02 9724   4.595   2.759   2.634  0.6508  0.5947 -0.9721
  111GLOH   H08 9725   4.711   2.880   2.588 -0.6152 -2.0341 -1.3968
  111GLOH    C2 9726   4.518   2.960   2.631  0.3041 -0.1145  0.1704
  111GLOH   H04 9727   4.558   3.062   2.633  0.5564 -0.1785 -1.1533
  111GLOH    O2 9728   4.464   2.935   2.497  0.7083 -0.4078  0.2927
  111GLOH   H05 9729   4.432   2.845   2.485 -1.2356  0.3517 -0.4266
  111GLOH    C3 9730   4.404   2.953   2.733 -0.8869 -0.0252 -0.1754
  111GLOH   H06 9731   4.447   2.936   2.832 -1.4349 -2.0663 -0.2547
  111GLOH   H07 9732   4.353   2.858   2.717 -0.8500  0.3125 -2.3381
  111GLOH    O3 9733   4.324   3.069   2.734  0.7981  0.2084 -0.5326
  111GLOH   H01 9734   4.235   3.041   2.763  1.0887 -0.1234  0.0518
  112GLOH   H03 9735   3.288   8.377   1.988 -0.6227  0.5808 -2.6128
  112GLOH    O1 9736   3.296   8.474   1.992 -0.3026  0.4636  0.2612
  112GLOH    C1 9737   3.380   8.523   1.878 -0.2738  0.1473  0.3769
  112GLOH   H02 9738   3.472   8.465   1.868  0.3732  1.2640 -0.2634
  112GLOH   H08 9739   3.418   8.623   1.898  0.3832 -0.2660  1.2060
  112GLOH    C2 9740   3.294   8.542   1.744 -0.2479 -0.1831  0.4866
  112GLOH   H04 9741   3.206   8.603   1.767  0.6949  1.0181  1.0174
  112GLOH    O2 9742   3.380   8.614   1.650  0.4230  0.5983  0.1588
  112GLOH   H05 9743   3.348   8.695   1.607 -0.9431  0.4883  0.9306
  112GLOH    C3 9744   3.261   8.398   1.684  0.2897  0.0769 -0.5150
  112GLOH   H06 9745   3.355   8.350   1.657 -0.8220 -1.2441 -2.1051
  112GLOH   H07 9746   3.209   8.429   1.593  0.8632  1.3735 -0.4232
  112GLOH    O3 9747   3.168   8.324   1.768  0.1182  0.3705 -0.1469
  112GLOH   H01 9748   3.217   8.305   1.850  0.6251  3.4182  0.3391
  113GLOH   H03 9749   3.219   9.563   0.635  3.8541  0.4517  1.4413
  113GLOH    O1 9750   3.225   9.466   0.631 -0.0874  0.1988  0.0582
  113GLOH    C1 9751   3.097   9.410   0.663  0.1565  0.7076  0.0000
  113GLOH   H02 9752   3.038   9.483   0.718  0.9541  0.5158  1.1375
  113GLOH   H08 9753   3.101   9.325   0.732  5.2305 -0.0206 -1.0110
  113GLOH    C2 9754   3.010   9.380   0.538 -0.4773 -0.2953 -0.3044
  113GLOH   H04 9755   3.072   9.305   0.486  0.6614 -0.3633  1.1287
  113GLOH    O2 9756   2.891   9.317   0.588  0.4672 -0.2675  0.2705
  113GLOH   H05 9757   2.816   9.366   0.550  0.9720 -0.1905 -0.6400
  113GLOH    C3 9758   2.978   9.502   0.453  0.5873 -0.0689 -0.1239
  113GLOH   H06 9759   2.954   9.584   0.521 -0.5086  0.2591 -0.8878
  113GLOH   H07 9760   2.886   9.496   0.395  0.5734  0.7425 -0.1964
  113GLOH    O3 9761   3.080   9.522   0.354 -0.3349 -0.4560  0.3741
  113GLOH   H01 9762   3.165   9.542   0.397 -0.3009  0.2364 -0.0115
  114GLOH   H03 9763   4.327   1.475   2.791  0.7161  0.0771  2.2850
  114GLOH    O1 9764   4.405   1.511   2.745 -0.8546  0.4650 -0.1254
  114GLOH    C1 9765   4.443   1.402   2.661  0.3522 -0.2432  0.6252
  114GLOH   H02 9766   4.469   1.320   2.728  0.9083 -0.2381  0.4217
  114GLOH   H08 9767   4.537   1.420   2.608 -0.6274 -0.3962 -1.2163
  114GLOH    C2 9768   4.336   1.367   2.556 -0.8733  0.5344  0.1455
  114GLOH   H04 9769   4.238   1.367   2.606 -0.7479  2.9573  0.4775
  114GLOH    O2 9770   4.322   1.457   2.441 -0.1687  0.2558 -0.3716
  114GLOH   H05 9771   4.405   1.498   2.413 -0.4900  1.7952  0.8551
  114GLOH    C3 9772   4.370   1.228   2.496 -0.6533 -0.4394 -0.2555
  114GLOH   H06 9773   4.470   1.239   2.456 -1.1273  1.4085 -0.9879
  114GLOH   H07 9774   4.298   1.205   2.416 -1.2344  0.6404 -0.0520
  114GLOH    O3 9775   4.355   1.138   2.608  0.3241  0.0850 -0.4536
  114GLOH   H01 9776   4.283   1.078   2.582  0.7848 -0.1801 -1.1443
  115GLOH   H03 9777   4.199   3.769   2.208 -1.5835 -0.7088  0.2459
  115GLOH    O1 9778   4.220   3.760   2.113  0.4480 -0.0763  0.6171
  115GLOH    C1 9779   4.316   3.654   2.097 -0.2274  0.2064 -0.0960
  115GLOH   H02 9780   4.389   3.651   2.177 -0.0383 -1.9060 -0.2963
  115GLOH   H08 9781   4.376   3.678   2.009  1.4454 -0.5314  0.8260
  115GLOH    C2 9782   4.254   3.522   2.063  0.4522  0.1208  1.2877
  115GLOH   H04 9783   4.198   3.540   1.970 -1.0025 -1.0620  1.9055
  115GLOH    O2 9784   4.352   3.414   2.041 -0.0656 -0.3939  0.1829
  115GLOH   H05 9785   4.286   3.344   2.054 -2.0937  1.2166 -0.9539
  115GLOH    C3 9786   4.156   3.463   2.166 -0.0598  0.3025  0.0117
  115GLOH   H06 9787   4.063   3.522   2.165 -0.4841 -0.3600  0.1400
  115GLOH   H07 9788   4.191   3.467   2.269 -0.3821  0.0120  0.1356
  115GLOH    O3 9789   4.130   3.326   2.132  0.0245  0.0740 -0.6511
  115GLOH   H01 9790   4.037   3.322   2.102 -0.4075  0.0635  0.6419
  116GLOH   H03 9791   4.000   8.573   2.265  2.7643 -0.9660 -1.3421
  116GLOH    O1 9792   4.002   8.664   2.230 -0.1492 -0.2559  0.1516
  116GLOH    C1 9793   3.895   8.745   2.287  0.1033  0.7653 -0.4466
  116GLOH   H02 9794   3.836   8.688   2.360  1.3442  0.2445  0.1673
  116GLOH   H08 9795   3.824   8.783   2.213 -0.0665  0.1681 -0.5998
  116GLOH    C2 9796   3.956   8.866   2.357  0.0144  0.3920  0.7891
  116GLOH   H04 9797   4.008   8.925   2.280  1.7810 -2.8436 -0.5757
  116GLOH    O2 9798   3.845   8.949   2.404 -0.0006 -0.1346  0.9905
  116GLOH   H05 9799   3.787   8.981   2.332 -0.1201 -0.6275  0.8676
  116GLOH    C3 9800   4.061   8.814   2.469  0.0942 -0.2249  0.1348
  116GLOH   H06 9801   4.098   8.902   2.521 -0.1880 -0.4360  0.6988
  116GLOH   H07 9802   4.145   8.766   2.419 -0.5343 -0.5215 -0.6406
  116GLOH    O3 9803   4.004   8.738   2.575  0.1249  0.1431  0.1554
  116GLOH   H01 9804   3.949   8.802   2.624 -2.6532  0.9734 -3.8082
  117GLOH   H03 9805   4.197   1.637   1.479  1.1494 -1.5142  1.0020
  117GLOH    O1 9806   4.187   1.699   1.554  0.7103 -0.2156 -0.1016
  117GLOH    C1 9807   4.234   1.832   1.522 -0.2017 -0.3233 -0.1791
  117GLOH   H02 9808   4.328   1.857   1.571  1.0936 -0.2677 -2.6204
  117GLOH   H08 9809   4.168   1.910   1.557 -0.3433 -0.2826 -0.5406
  117GLOH    C2 9810   4.271   1.867   1.379 -0.0135 -0.8612 -0.1075
  117GLOH   H04 9811   4.186   1.860   1.310 -1.1731  1.5500  0.9953
  117GLOH    O2 9812   4.317   2.007   1.370 -0.4057  0.4598 -0.3593
  117GLOH   H05 9813   4.310   2.050   1.283  1.3407  2.3829  0.4300
  117GLOH    C3 9814   4.375   1.770   1.316  0.2094  0.9066 -0.4548
  117GLOH   H06 9815   4.456   1.770   1.390 -0.4955 -0.5169  0.3593
  117GLOH   H07 9816   4.407   1.807   1.219  2.3066 -1.1541 -0.6015
  117GLOH    O3 9817   4.330   1.637   1.312 -0.1898  0.0570 -0.0710
  117GLOH   H01 9818   4.266   1.629   1.238  1.3565  1.3727 -1.6029
  118GLOH   H03 9819   3.394   9.465   1.052  0.6866  1.1481 -0.3633
  118GLOH    O1 9820   3.435   9.411   0.982 -0.7020 -0.0964 -0.2474
  118GLOH    C1 9821   3.486   9.500   0.878  0.0759  0.3762  0.4109
  118GLOH   H02 9822   3.410   9.569   0.844 -0.0934  0.7458  1.5046
  118GLOH   H08 9823   3.521   9.438   0.796 -0.9806  1.7905 -1.1203
  118GLOH    C2 9824   3.611   9.583   0.915  0.4032 -0.2639 -0.0026
  118GLOH   H04 9825   3.702   9.522   0.903  0.7734  0.3192 -0.1461
  118GLOH    O2 9826   3.629   9.688   0.818 -0.1193  0.4807  0.3365
  118GLOH   H05 9827   3.607   9.766   0.872  0.3008  0.3407  0.7129
  118GLOH    C3 9828   3.619   9.646   1.057 -0.5543 -0.2140 -0.1093
  118GLOH   H06 9829   3.720   9.685   1.070 -0.3898 -1.3225  2.1939
  118GLOH   H07 9830   3.624   9.569   1.134  0.5341  1.1693  1.2345
  118GLOH    O3 9831   3.520   9.747   1.076 -0.0563  0.0378  0.3776
  118GLOH   H01 9832   3.557   9.799   1.151  2.3298  0.0167 -0.7340
  119GLOH   H03 9833   4.302   1.160   0.311 -1.7314 -2.0337 -0.2432
  119GLOH    O1 9834   4.240   1.160   0.385 -0.5886 -0.1097  0.7448
  119GLOH    C1 9835   4.317   1.213   0.497 -0.4026 -0.2509 -0.1028
  119GLOH   H02 9836   4.418   1.235   0.463 -0.5857  0.0688 -0.4463
  119GLOH   H08 9837   4.318   1.146   0.583 -0.4687 -0.6231 -0.3928
  119GLOH    C2 9838   4.250   1.344   0.554 -0.0164  0.1690  0.1700
  119GLOH   H04 9839   4.251   1.418   0.473  1.8535  0.3385  0.3239
  119GLOH    O2 9840   4.120   1.311   0.605  0.9002 -0.6560 -0.5428
  119GLOH   H05 9841   4.055   1.294   0.535  1.9498  1.4233 -2.1033
  119GLOH    C3 9842   4.350   1.397   0.657 -0.0921 -0.5989  0.1402
  119GLOH   H06 9843   4.338   1.334   0.745  0.5075 -1.6498 -0.5174
  119GLOH   H07 9844   4.316   1.499   0.673 -1.3309 -1.6207  4.6538
  119GLOH    O3 9845   4.488   1.401   0.610  0.2739 -0.4282  0.6291
  119GLOH   H01 9846   4.547   1.358   0.675  0.0286 -0.3242  0.9223
  120GLOH   H03 9847   4.372   1.832   0.325 -0.8501  0.8056 -0.2929
  120GLOH    O1 9848   4.355   1.860   0.416 -0.2924  0.0543  0.0476
  120GLOH    C1 9849   4.415   1.769   0.508  0.4867 -0.3073 -0.0751
  120GLOH   H02 9850   4.351   1.681   0.516 -0.1038  0.2376  1.2359
  120GLOH   H08 9851   4.441   1.822   0.599  1.3996  0.1499 -0.5906
  120GLOH    C2 9852   4.541   1.707   0.448 -0.6100 -0.6417  0.1781
  120GLOH   H04 9853   4.609   1.792   0.431 -0.8800 -0.4834 -0.1056
  120GLOH    O2 9854   4.620   1.624   0.533  0.8687  0.1982 -0.2190
  120GLOH   H05 9855   4.579   1.546   0.572  3.0506 -0.1448  1.5032
  120GLOH    C3 9856   4.505   1.633   0.323  0.1263 -0.5523 -0.1449
  120GLOH   H06 9857   4.433   1.556   0.352 -3.3108  3.0114  1.1726
  120GLOH   H07 9858   4.583   1.568   0.284  1.4779  0.2358  1.2205
  120GLOH    O3 9859   4.445   1.709   0.218 -0.0484  0.2718 -0.2508
  120GLOH   H01 9860   4.435   1.640   0.150  0.2164  1.8347 -1.9001
  121ACOH    H4 9861   4.018   8.364   2.572 -1.4957  0.1866 -1.0820
  121ACOH    O2 9862   4.009   8.279   2.526 -0.5574 -0.5063 -0.0180
  121ACOH    C2 9863   3.988   8.302   2.391 -0.4316 -0.0892  0.6707
  121ACOH    O1 9864   4.014   8.406   2.327 -0.0303 -0.3190  0.2402
  121ACOH    C1 9865   3.960   8.174   2.313 -0.1683  0.1143 -0.4699
  121ACOH    H1 9866   3.884   8.188   2.236 -1.8933  0.4141  1.2425
  121ACOH    H2 9867   3.925   8.096   2.381 -0.2837 -0.7090 -1.4562
  121ACOH    H3 9868   4.053   8.143   2.266 -0.9608 -0.7685 -1.4896
  122ACOH    H4 9869   4.988   0.941   0.166  1.5871  0.5470  1.7926
  122ACOH    O2 9870   5.047   0.873   0.130 -0.4117  0.1392 -0.8966
  122ACOH    C2 9871   5.070   0.924   0.007 -1.1108  0.0302 -0.2229
  122ACOH    O1 9872   5.010   1.004  -0.055 -0.5620 -0.9161  0.2697
  122ACOH    C1 9873   5.164   0.835  -0.056 -0.8603  0.4502  0.1895
  122ACOH    H1 9874   5.119   0.806  -0.151  0.2260  0.3323 -0.2959
  122ACOH    H2 9875   5.174   0.739  -0.007  1.9201  0.7670  0.3133
  122ACOH    H3 9876   5.264   0.873  -0.080 -0.2966 -1.7790 -1.1185
  123ACOH    H4 9877   3.734   7.543   0.422 -2.5919 -0.6363  0.7623
  123ACOH    O2 9878   3.785   7.463   0.404 -0.8525  0.6208  0.0110
  123ACOH    C2 9879   3.708   7.354   0.434 -0.6184 -0.1647  0.2258
  123ACOH    O1 9880   3.606   7.346   0.500 -0.5326  0.3190 -0.2149
  123ACOH    C1 9881   3.770   7.238   0.372  0.2907  0.2103  0.5576
  123ACOH    H1 9882   3.709   7.182   0.301  0.3163 -0.4416  1.0404
  123ACOH    H2 9883   3.807   7.176   0.454  0.3530 -1.5940 -0.8047
  123ACOH    H3 9884   3.860   7.270   0.320 -0.6421 -2.2620 -2.7588
  124ACOH    H4 9885   4.210   0.456   1.815  0.6787 -0.3974  1.9699
  124ACOH    O2 9886   4.281   0.522   1.809  0.3209 -0.1958 -0.2962
  124ACOH    C2 9887   4.231   0.630   1.873 -0.4125 -0.1612 -0.2053
  124ACOH    O1 9888   4.183   0.631   1.984  0.8350 -0.0754 -0.2992
  124ACOH    C1 9889   4.310   0.746   1.815  0.2642  0.5011  0.6184
  124ACOH    H1 9890   4.392   0.712   1.751 -1.2034 -0.2043 -0.9377
  124ACOH    H2 9891   4.357   0.798   1.899  2.3286 -1.6107  0.8353
  124ACOH    H3 9892   4.240   0.806   1.756 -1.8760 -1.2386  1.3622
  125ACOH    H4 9893   4.664   2.571   2.487  0.6480  0.7609 -2.2309
  125ACOH    O2 9894   4.737   2.626   2.519 -0.1834  0.4633  0.2120
  125ACOH    C2 9895   4.784   2.592   2.634 -0.8311 -0.6290  0.4158
  125ACOH    O1 9896   4.742   2.506   2.710  0.2247 -0.2916 -0.2076
  125ACOH    C1 9897   4.920   2.656   2.646 -0.0651  0.2531  0.1422
  125ACOH    H1 9898   4.998   2.580   2.638  1.3147  1.8006 -1.6485
  125ACOH    H2 9899   4.930   2.706   2.742  0.4029  0.3660  0.0374
  125ACOH    H3 9900   4.935   2.724   2.562 -0.4163  0.4239  0.2157
  126ACOH    H4 9901   5.560   9.158   1.467  0.2974  1.0821 -0.0817
  126ACOH    O2 9902   5.464   9.153   1.455  0.3398 -0.3124  0.0604
  126ACOH    C2 9903   5.429   9.035   1.401  0.2446 -0.1256  0.3306
  126ACOH    O1 9904   5.516   8.960   1.354  0.1613  0.0563  0.2402
  126ACOH    C1 9905   5.283   9.019   1.377 -0.4679  0.8357  0.1202
  126ACOH    H1 9906   5.261   8.913   1.390 -2.8044  1.0508 -1.8345
  126ACOH    H2 9907   5.260   9.050   1.276 -1.0739 -0.7635 -0.2513
  126ACOH    H3 9908   5.221   9.066   1.454  0.2844 -1.2735  2.0976
  127ACOH    H4 9909   4.193   0.249   0.504 -0.1961  0.4445 -0.3387
  127ACOH    O2 9910   4.203   0.197   0.423  0.1658 -0.0425  0.0089
  127ACOH    C2 9911   4.093   0.187   0.345 -0.5293  0.3647 -0.3354
  127ACOH    O1 9912   3.979   0.208   0.372  0.5076 -0.8769  0.4942
  127ACOH    C1 9913   4.131   0.140   0.213 -0.5060  0.4228  0.4691
  127ACOH    H1 9914   4.041   0.115   0.157 -0.6408 -1.3072  1.4390
  127ACOH    H2 9915   4.202   0.057   0.213  1.4027  1.9823  3.0208
  127ACOH    H3 9916   4.183   0.218   0.157  1.3471 -0.3786  1.0473
  128ACOH    H4 9917   3.161   2.145   2.671  0.3541 -4.0646 -1.4922
  128ACOH    O2 9918   3.210   2.178   2.593  0.3014 -0.5029 -0.1059
  128ACOH    C2 9919   3.261   2.293   2.630 -0.3815 -0.6932 -0.5700
  128ACOH    O1 9920   3.227   2.359   2.727  0.3991  0.0220  0.3433
  128ACOH    C1 9921   3.366   2.343   2.536 -0.5050 -0.2407  0.7342
  128ACOH    H1 9922   3.317   2.325   2.441  0.0707  2.9800 -0.2564
  128ACOH    H2 9923   3.463   2.299   2.562 -1.3493 -1.6110  1.5965
  128ACOH    H3 9924   3.379   2.450   2.555 -1.1850  0.5938 -3.1312
  129ACOH    H4 9925   2.568   4.449   1.398  0.9801 -0.5894  0.0004
  129ACOH    O2 9926   2.554   4.508   1.473  0.5966 -0.3831 -0.2310
  129ACOH    C2 9927   2.569   4.425   1.581  0.4198  0.1101 -0.2280
  129ACOH    O1 9928   2.574   4.307   1.581 -0.3015  0.3684  0.0907
  129ACOH    C1 9929   2.575   4.506   1.704  0.0532  0.3055 -0.6279
  129ACOH    H1 9930   2.503   4.588   1.704  1.3016  1.4141 -0.9356
  129ACOH    H2 9931   2.671   4.559   1.699  0.4023 -0.1416  0.9012
  129ACOH    H3 9932   2.563   4.451   1.797  0.1416  0.1468 -0.7114
  130ACOH    H4 9933   2.615   1.024   0.526 -1.7931 -2.1600  0.5598
  130ACOH    O2 9934   2.578   1.075   0.452  0.3276 -0.7193  0.4512
  130ACOH    C2 9935   2.444   1.038   0.447 -0.1830  0.7471  0.2057
  130ACOH    O1 9936   2.376   0.994   0.539 -0.6076 -0.2569 -0.0493
  130ACOH    C1 9937   2.382   1.081   0.322  0.8309 -0.1715  0.3971
  130ACOH    H1 9938   2.276   1.054   0.323  0.9261 -0.5331  0.6693
  130ACOH    H2 9939   2.428   1.030   0.238 -0.7101  0.4296 -0.8441
  130ACOH    H3 9940   2.390   1.189   0.306 -1.4368 -0.3435 -2.2618
  131ACOH    H4 9941   4.749   3.868   0.475 -0.2732 -0.8446  1.6608
  131ACOH    O2 9942   4.846   3.877   0.472 -0.3520 -0.3782 -0.1933
  131ACOH    C2 9943   4.885   3.896   0.600 -0.0607  1.0653 -0.0423
  131ACOH    O1 9944   4.808   3.934   0.685 -0.1245 -0.1459  0.4544
  131ACOH    C1 9945   5.032   3.916   0.606  0.2994 -0.1384 -0.1685
  131ACOH    H1 9946   5.054   3.945   0.709  0.0103 -1.8322  0.3859
  131ACOH    H2 9947   5.065   3.983   0.527 -0.1125 -1.2213 -1.2817
  131ACOH    H3 9948   5.084   3.821   0.596  0.4545  0.1419 -2.0466
  132ACOH    H4 9949   5.258   3.201   0.773  0.0716 -0.5987  0.1946
  132ACOH    O2 9950   5.348   3.195   0.737  0.0886  0.0713  0.1337
  132ACOH    C2 9951   5.405   3.092   0.799  0.3889  0.5000  0.5242
  132ACOH    O1 9952   5.349   3.003   0.866  0.1455  0.2432 -0.4269
  132ACOH    C1 9953   5.553   3.094   0.784 -0.3771  0.0814  0.2321
  132ACOH    H1 9954   5.576   3.152   0.694  3.3283  1.4070  1.9532
  132ACOH    H2 9955   5.586   2.990   0.779 -2.9725 -0.7459 -0.7989
  132ACOH    H3 9956   5.599   3.133   0.874  0.1144 -2.2247  1.0207
  133ACOH    H4 9957   4.835   1.603   0.211 -1.4664 -1.2152 -0.3179
  133ACOH    O2 9958   4.851   1.540   0.284  0.0302 -0.4064  0.0701
  133ACOH    C2 9959   4.887   1.612   0.396  0.3674  0.2577 -0.3148
  133ACOH    O1 9960   4.918   1.731   0.411  0.9333 -0.3749 -0.2094
  133ACOH    C1 9961   4.942   1.504   0.494  0.6785  0.7730 -0.2765
  133ACOH    H1 9962   5.047   1.487   0.469  0.3356 -2.2820  0.1045
  133ACOH    H2 9963   4.885   1.412   0.482 -0.2537  0.8074  3.2948
  133ACOH    H3 9964   4.939   1.529   0.600 -2.6564  0.4765 -0.2563
  134ACOH    H4 9965   2.498   1.826   2.542 -0.3426  0.6799 -0.6643
  134ACOH    O2 9966   2.404   1.842   2.523 -0.5917  0.0119 -0.0361
  134ACOH    C2 9967   2.384   1.826   2.391 -0.4780 -0.7003  0.6020
  134ACOH    O1 9968   2.477   1.822   2.310 -0.1925 -0.4483  0.1475
  134ACOH    C1 9969   2.247   1.842   2.357  0.3471 -0.4222  0.2360
  134ACOH    H1 9970   2.207   1.748   2.319 -2.0023  0.5501  0.1952
  134ACOH    H2 9971   2.230   1.923   2.286  1.9231  0.0577  0.3725
  134ACOH    H3 9972   2.178   1.866   2.438 -2.2304 -1.2515 -1.6321
  135ACOH    H4 9973   5.197   3.779   2.591 -0.1846  0.4541  0.4660
  135ACOH    O2 9974   5.159   3.732   2.515 -0.0718  0.1176  0.6161
  135ACOH    C2 9975   5.082   3.826   2.448 -0.1823  0.2044 -0.1348
  135ACOH    O1 9976   5.041   3.933   2.484 -0.0730  0.5477 -0.1146
  135ACOH    C1 9977   5.020   3.774   2.324 -0.6802  0.5707 -0.1887
  135ACOH    H1 9978   4.945   3.700   2.351  0.3693 -0.0590  1.0761
  135ACOH    H2 9979   5.097   3.726   2.264  0.9215 -0.2729  2.4375
  135ACOH    H3 9980   4.962   3.850   2.271 -1.1179  0.5288  0.2256
  136ACOH    H4 9981   4.262   4.799   0.909  0.1435 -3.7511  1.5894
  136ACOH    O2 9982   4.359   4.791   0.910  0.5432 -0.2152 -0.5275
  136ACOH    C2 9983   4.404   4.777   0.780 -0.3042 -0.7159  0.1668
  136ACOH    O1 9984   4.349   4.742   0.678  0.4087 -0.1310  0.0188
  136ACOH    C1 9985   4.553   4.795   0.775  0.0498 -0.4764  0.4442
  136ACOH    H1 9986   4.580   4.899   0.758 -3.8923  0.5279 -0.2052
  136ACOH    H2 9987   4.592   4.736   0.692  1.3011  0.4425  0.3662
  136ACOH    H3 9988   4.593   4.759   0.870  0.4333  0.2699  0.5684
  137ACOH    H4 9989   3.151   5.638   1.601  0.2052  2.4337  0.3425
  137ACOH    O2 9990   3.168   5.624   1.696 -0.1396  0.0710  0.1049
  137ACOH    C2 9991   3.120   5.507   1.739  0.6210 -0.5664 -0.5851
  137ACOH    O1 9992   3.018   5.451   1.703  0.0410 -0.2112  0.3256
  137ACOH    C1 9993   3.216   5.458   1.844  0.0552  0.7413 -0.5077
  137ACOH    H1 9994   3.228   5.545   1.908  3.1474  0.7107 -0.9798
  137ACOH    H2 9995   3.311   5.448   1.792  0.6439  0.3850  0.6283
  137ACOH    H3 9996   3.189   5.368   1.899  3.2765  0.4157  0.6252
  138ACOH    H4 9997   2.943   6.086   1.254 -0.9303 -2.7728  1.8211
  138ACOH    O2 9998   2.927   6.136   1.336  0.3037 -0.2491  0.5989
  138ACOH    C2 9999   2.873   6.256   1.313  0.8514 -0.1371 -0.3472
  138ACOH    O110000   2.879   6.323   1.213 -0.3877  0.3200 -0.0285
  138ACOH    C110001   2.813   6.315   1.436  0.7755  0.0792 -0.3209
  138ACOH    H110002   2.869   6.292   1.527  1.1965  3.6082  0.4146
  138ACOH    H210003   2.713   6.273   1.445  1.0557 -0.6665 -0.7000
  138ACOH    H310004   2.808   6.424   1.430  3.3137  0.2762  0.3189
  139ACOH    H410005   4.474   4.086   1.841 -0.0570  0.2804 -0.7423
  139ACOH    O210006   4.568   4.062   1.839 -0.1919 -0.2701 -0.5222
  139ACOH    C210007   4.574   3.988   1.953  0.7002  0.2394 -0.4560
  139ACOH    O110008   4.489   3.976   2.037 -0.0952 -0.0708 -0.1705
  139ACOH    C110009   4.704   3.927   1.965  0.2330 -0.0357  0.1794
  139ACOH    H110010   4.726   3.886   1.866  1.0357  2.4262 -0.6993
  139ACOH    H210011   4.691   3.844   2.033 -0.1693 -0.9203 -0.9568
  139ACOH    H310012   4.769   4.002   2.010  1.7857 -1.3212  0.1458
  140ACOH    H410013   2.784   9.808   0.239 -0.4131 -0.1926  0.1152
  140ACOH    O210014   2.698   9.853   0.243 -0.2911  0.0204  0.3397
  140ACOH    C210015   2.599   9.767   0.241  0.1272  0.5965  0.0956
  140ACOH    O110016   2.611   9.656   0.298  0.5259 -0.1485  0.0394
  140ACOH    C110017   2.471   9.836   0.247 -0.2203 -0.4843  0.7321
  140ACOH    H110018   2.421   9.821   0.151  2.7697  2.4418 -1.3762
  140ACOH    H210019   2.470   9.944   0.261  0.4973 -0.6190  1.8973
  140ACOH    H310020   2.409   9.796   0.327  0.4154 -0.5640  1.1805
  141ACOH    H410021   4.181   0.788   0.329  0.1252 -0.5078  1.4634
  141ACOH    O210022   4.201   0.704   0.285 -0.6205  0.0034  0.1153
  141ACOH    C210023   4.169   0.713   0.154 -0.5488  0.8314 -0.1503
  141ACOH    O110024   4.139   0.815   0.097  0.3553  0.2900  0.7455
  141ACOH    C110025   4.200   0.580   0.087  0.4069 -0.4198 -0.2446
  141ACOH    H110026   4.189   0.595  -0.020  0.5078  0.7412 -0.0965
  141ACOH    H210027   4.135   0.497   0.116  0.1921  0.0199  0.5573
  141ACOH    H310028   4.304   0.567   0.117  0.7118  1.3385 -0.5101
  142ACOH    H410029   4.051   8.680   2.079  0.0954  0.2254  0.4974
  142ACOH    O210030   4.079   8.676   1.986 -0.3425 -0.0538  0.3776
  142ACOH    C210031   4.118   8.804   1.971 -0.0033  0.1255  0.0032
  142ACOH    O110032   4.112   8.891   2.055 -0.3051  0.3506  0.8223
  142ACOH    C110033   4.149   8.828   1.833  0.2966  0.2457 -0.0731
  142ACOH    H110034   4.147   8.936   1.819  0.9975  0.2610 -0.1087
  142ACOH    H210035   4.083   8.791   1.754  1.2946  0.1020 -0.8653
  142ACOH    H310036   4.253   8.798   1.814  0.7672  1.9841 -0.3430
  143ACOH    H410037   3.535   5.266   1.808  2.8263  0.8681  0.2945
  143ACOH    O210038   3.539   5.318   1.726 -0.0198  0.1434 -0.3406
  143ACOH    C210039   3.618   5.234   1.648  0.6291  0.5817 -0.0593
  143ACOH    O110040   3.677   5.132   1.672  0.0478  0.1363 -0.2168
  143ACOH    C110041   3.633   5.303   1.521  0.3936 -0.1025  0.1535
  143ACOH    H110042   3.546   5.279   1.460  0.2743 -1.9922  1.0076
  143ACOH    H210043   3.727   5.286   1.469  0.9890 -0.6766  1.3798
  143ACOH    H310044   3.635   5.410   1.541 -1.1756 -0.1988  0.8955
  144ACOH    H410045   4.729   1.207   0.089 -2.5697 -2.7249 -1.4785
  144ACOH    O210046   4.694   1.190   0.179 -0.5288  0.0378 -0.1006
  144ACOH    C210047   4.791   1.121   0.252 -0.0941  0.3602  0.0026
  144ACOH    O110048   4.878   1.057   0.205  1.0384  0.1723 -0.4238
  144ACOH    C110049   4.751   1.133   0.390 -0.1772 -0.1372 -0.1922
  144ACOH    H110050   4.805   1.065   0.456 -1.2218 -1.3746 -0.5911
  144ACOH    H210051   4.646   1.106   0.396  0.1955 -1.5648  0.0127
  144ACOH    H310052   4.770   1.234   0.427 -1.3912 -0.2200  0.6609
  145ACOH    H410053   3.688   9.524   2.604 -0.7506 -3.2245 -0.1297
  145ACOH    O210054   3.692   9.510   2.508  0.8060  0.2504 -0.6506
  145ACOH    C210055   3.713   9.377   2.492  0.0630  0.2243  0.7894
  145ACOH    O110056   3.724   9.299   2.582 -0.7203  0.1426 -0.0115
  145ACOH    C110057   3.733   9.339   2.348  0.2774 -0.7897 -0.4132
  145ACOH    H110058   3.749   9.233   2.325 -2.6409 -1.1476 -0.9752
  145ACOH    H210059   3.824   9.390   2.316  0.7809 -1.6726 -0.4090
  145ACOH    H310060   3.652   9.369   2.282 -0.1558  1.5697  1.1693
  146ACOH    H410061   4.972   2.307   2.534 -0.9993  1.7482  1.2128
  146ACOH    O210062   4.977   2.366   2.457 -0.1864 -0.0061 -0.0874
  146ACOH    C210063   4.902   2.318   2.359  0.3570 -0.4804 -0.5640
  146ACOH    O110064   4.856   2.204   2.354 -0.1032  0.2360  0.2878
  146ACOH    C110065   4.859   2.425   2.264 -0.2562  0.2168  0.6938
  146ACOH    H110066   4.777   2.481   2.309  1.7689  1.3499  3.0828
  146ACOH    H210067   4.825   2.384   2.169 -1.4079 -0.9339  1.5807
  146ACOH    H310068   4.941   2.495   2.247  1.6008 -1.8503  0.8236
  147ACOH    H410069   3.945   0.306   2.503  0.0232 -0.2295  1.2988
  147ACOH    O210070   3.982   0.394   2.488 -0.4346 -0.3266 -0.6588
  147ACOH    C210071   3.952   0.453   2.375 -0.8538 -0.4703 -0.1340
  147ACOH    O110072   3.889   0.402   2.286  0.1774 -0.0763 -0.4983
  147ACOH    C110073   3.954   0.603   2.395  0.3925 -0.3938  0.0681
  147ACOH    H110074   4.010   0.651   2.315  2.5081 -2.4418  0.2686
  147ACOH    H210075   3.995   0.632   2.491  0.3953 -0.9980  0.2508
  147ACOH    H310076   3.850   0.630   2.379  0.7391  0.1244 -1.3467
  148ACOH    H410077   3.930   9.842   1.767 -0.9026  1.3497 -0.6723
  148ACOH    O210078   4.008   9.861   1.820 -0.7158 -0.1213 -0.3802
  148ACOH    C210079   4.070   9.956   1.739  0.0064 -0.1458 -0.1564
  148ACOH    O110080   4.040   9.990   1.624  0.4849 -0.0527  0.3797
  148ACOH    C110081   4.192  10.010   1.802 -0.0878  0.2166  0.5738
  148ACOH    H110082   4.153  10.060   1.891 -0.9868 -1.7724  1.3135
  148ACOH    H210083   4.239  10.085   1.739  1.0702 -1.0300 -0.0542
  148ACOH    H310084   4.260   9.931   1.833  0.3222  1.6511  3.6420
  149ACOH    H410085   2.448   6.017   0.407  0.0678 -0.3766  0.7915
  149ACOH    O210086   2.415   5.947   0.348  0.0973  0.3675 -0.1147
  149ACOH    C210087   2.350   6.000   0.242  0.1818 -0.6322 -0.0742
  149ACOH    O110088   2.359   6.120   0.221  0.5226 -0.1318 -0.2757
  149ACOH    C110089   2.296   5.907   0.146 -0.2698  0.7751 -1.0137
  149ACOH    H110090   2.205   5.860   0.183  0.8127 -2.1983 -2.0063
  149ACOH    H210091   2.368   5.831   0.116 -0.5740  0.2163 -0.3290
  149ACOH    H310092   2.269   5.965   0.057  2.0179  0.0378 -2.2245
  150ACOH    H410093   4.787   3.618   1.736 -0.2942  1.4637 -0.5739
  150ACOH    O210094   4.874   3.633   1.776 -0.1088  0.5590 -0.6281
  150ACOH    C210095   4.933   3.512   1.786  0.5080  0.4920  0.2168
  150ACOH    O110096   4.899   3.406   1.739 -0.3964 -0.5060 -0.6409
  150ACOH    C110097   5.060   3.533   1.860 -0.4154 -0.0479 -0.5474
  150ACOH    H110098   5.068   3.463   1.944 -1.1816  0.4275 -0.0784
  150ACOH    H210099   5.068   3.634   1.901 -1.0713 -0.9285  1.8627
  150ACOH    H310100   5.141   3.502   1.794 -0.7857 -0.6303 -0.7339
  151ACOH    H410101   3.893   4.541   2.645  0.8765  2.1519  0.3289
  151ACOH    O210102   3.818   4.584   2.602 -0.2844 -0.0250  0.1201
  151ACOH    C210103   3.855   4.665   2.501 -0.9098 -0.1560 -0.0667
  151ACOH    O110104   3.784   4.688   2.407  0.2416  0.1050 -0.0564
  151ACOH    C110105   4.006   4.672   2.489 -0.5150 -0.6262 -0.1400
  151ACOH    H110106   4.043   4.756   2.431  0.3141 -0.3627  0.7583
  151ACOH    H210107   4.037   4.586   2.430  1.6656  1.5001 -2.1651
  151ACOH    H310108   4.048   4.680   2.590 -1.2916  0.8764  0.0806
  152ACOH    H410109   3.661   3.569   2.409  0.7430  3.0449 -1.2194
  152ACOH    O210110   3.629   3.546   2.320  0.0581  0.5653 -0.3825
  152ACOH    C210111   3.729   3.474   2.263  0.2665  0.2862 -0.1153
  152ACOH    O110112   3.841   3.469   2.314  0.0504  0.2927 -0.0361
  152ACOH    C110113   3.679   3.416   2.135  0.1471 -0.3326  0.0626
  152ACOH    H110114   3.737   3.457   2.052  0.9446  0.2489  0.9011
  152ACOH    H210115   3.573   3.437   2.120 -0.0142  0.8668  2.6044
  152ACOH    H310116   3.686   3.309   2.152  0.8506 -0.1238  1.1422
  153ACOH    H410117   4.034   8.113  -0.053  0.9057 -0.7613 -1.3891
  153ACOH    O210118   3.992   8.031  -0.022  0.6047 -0.0425  0.1806
  153ACOH    C210119   3.978   8.015   0.104  0.3677 -0.8947 -1.0782
  153ACOH    O110120   4.009   8.108   0.183 -0.4494  0.0765  0.3330
  153ACOH    C110121   3.919   7.889   0.152 -0.3755 -0.3408  0.1180
  153ACOH    H110122   3.976   7.808   0.106 -0.0210 -0.5800  0.9603
  153ACOH    H210123   3.817   7.885   0.114 -0.8912  1.1591  1.2952
  153ACOH    H310124   3.922   7.876   0.260  0.3740  1.0390  0.2807
  154ACOH    H410125   4.338   4.180   0.924 -2.1918  1.1944 -1.2543
  154ACOH    O210126   4.360   4.273   0.944  0.0048  0.4006  0.1461
  154ACOH    C210127   4.423   4.316   0.834 -0.8717 -0.4092  0.0448
  154ACOH    O110128   4.470   4.248   0.744  0.0302  0.3815  0.3755
  154ACOH    C110129   4.459   4.458   0.844  0.3563 -0.1676  0.4758
  154ACOH    H110130   4.373   4.522   0.823 -0.7486 -1.6464  0.4317
  154ACOH    H210131   4.540   4.482   0.776  0.7923 -0.3811  0.9161
  154ACOH    H310132   4.497   4.471   0.945 -1.7989 -1.6722  1.5297
  155ACOH    H410133   3.917   8.234   0.923 -0.8646  2.6609 -1.2382
  155ACOH    O210134   4.009   8.261   0.903  0.3029 -0.0046  0.3114
  155ACOH    C210135   4.085   8.243   1.010  0.6107  0.9739  0.0299
  155ACOH    O110136   4.039   8.211   1.114 -0.1123  0.3043  0.4060
  155ACOH    C110137   4.226   8.278   0.976 -0.2407 -0.2388  0.2350
  155ACOH    H110138   4.237   8.378   0.935  0.2010  0.0848  1.1326
  155ACOH    H210139   4.275   8.206   0.911  2.7096  1.5142  0.4373
  155ACOH    H310140   4.287   8.274   1.066  1.1617  0.7600 -0.6474
  156ACOH    H410141   5.440   2.899   1.247  2.8275 -1.1626  3.6194
  156ACOH    O210142   5.507   2.965   1.221  0.2331  0.2695  0.1247
  156ACOH    C210143   5.496   3.084   1.285 -0.2387  0.0750  0.8442
  156ACOH    O110144   5.407   3.113   1.363  0.2092  0.8726  0.2539
  156ACOH    C110145   5.606   3.180   1.253  0.0486  0.0245  0.2790
  156ACOH    H110146   5.674   3.138   1.179  2.0130  3.6572 -0.0843
  156ACOH    H210147   5.661   3.215   1.340 -1.1702  0.8290  0.7485
  156ACOH    H310148   5.560   3.272   1.217 -0.9180 -0.5287  0.0654
  157ACOH    H410149   5.240   3.744   0.467 -1.0236  0.4763  2.4880
  157ACOH    O210150   5.315   3.788   0.512 -0.0353  0.3034  1.0427
  157ACOH    C210151   5.398   3.834   0.420  0.2606  0.6836  0.1798
  157ACOH    O110152   5.386   3.838   0.299 -0.2845  0.9367  0.4420
  157ACOH    C110153   5.522   3.894   0.478  0.2257  0.4552  0.1217
  157ACOH    H110154   5.488   3.934   0.574 -0.7277 -2.2321  0.9376
  157ACOH    H210155   5.569   3.980   0.430 -1.5708  2.0212  1.0805
  157ACOH    H310156   5.590   3.813   0.506  0.5765  0.0683 -1.7763
  158ACOH    H410157   2.996   5.963   1.928  0.7557  0.1965  1.5862
  158ACOH    O210158   3.067   6.006   1.878 -0.2764  0.0137 -0.0761
  158ACOH    C210159   3.028   6.013   1.748 -0.3002 -0.2577  0.6916
  158ACOH    O110160   2.923   5.974   1.697 -0.0058  0.2574 -0.1604
  158ACOH    C110161   3.142   6.043   1.663 -0.5299 -0.3757 -0.4382
  158ACOH    H110162   3.231   5.983   1.682  0.1598  0.6581 -0.3690
  158ACOH    H210163   3.166   6.147   1.685 -1.6151 -0.9267  3.7854
  158ACOH    H310164   3.126   6.041   1.555  0.2556 -0.0956 -0.5601
  159ACOH    H410165   3.176   5.282   2.456  1.9185  1.5897 -2.9060
  159ACOH    O210166   3.231   5.202   2.449 -0.1032 -0.1438 -0.1614
  159ACOH    C210167   3.157   5.101   2.401 -0.4392  0.4784  0.0260
  159ACOH    O110168   3.051   5.101   2.349  0.2510  0.2109 -0.1242
  159ACOH    C110169   3.239   4.980   2.386 -0.0728 -0.0847 -0.3490
  159ACOH    H110170   3.321   5.005   2.318 -0.8688 -1.8981 -2.0360
  159ACOH    H210171   3.182   4.896   2.346  0.2754 -0.7477  0.5396
  159ACOH    H310172   3.282   4.953   2.482  0.7779  0.0846 -0.6775
  160ACOH    H410173   2.552   4.884   0.334  0.0019  0.6389 -1.6410
  160ACOH    O210174   2.492   4.876   0.258 -0.7667 -0.5671 -0.9006
  160ACOH    C210175   2.465   4.752   0.227  1.0033  0.7810 -0.3756
  160ACOH    O110176   2.506   4.658   0.296 -0.5932  0.7571  0.0189
  160ACOH    C110177   2.411   4.734   0.092  0.0121 -0.6075 -0.3767
  160ACOH    H110178   2.328   4.664   0.102 -0.7566  0.0397 -1.9831
  160ACOH    H210179   2.494   4.704   0.028  1.2477  1.2368  0.3267
  160ACOH    H310180   2.372   4.828   0.053  1.5827 -0.0595 -0.6576
  161ACOH    H410181   2.592   0.721   0.265  0.1969 -1.3588 -0.6655
  161ACOH    O210182   2.535   0.699   0.341  0.4137 -0.6777 -0.3016
  161ACOH    C210183   2.415   0.687   0.286 -0.2012 -0.3649 -0.1659
  161ACOH    O110184   2.379   0.660   0.172  0.0916 -0.2733  0.0966
  161ACOH    C110185   2.320   0.684   0.396  0.1591  0.4791  0.0575
  161ACOH    H110186   2.269   0.779   0.412 -1.2512 -0.0996 -0.8955
  161ACOH    H210187   2.357   0.652   0.493  0.5101  1.9937  0.4413
  161ACOH    H310188   2.243   0.610   0.374 -0.9738  1.7565 -0.3708
  162ACOH    H410189   5.241   2.635   1.000  0.9981 -0.3952 -0.0275
  162ACOH    O210190   5.195   2.550   0.992  0.6885 -0.2363  0.0382
  162ACOH    C210191   5.170   2.489   1.118 -0.0255  0.1381 -0.2193
  162ACOH    O110192   5.186   2.536   1.231 -0.7082  0.3458  0.2566
  162ACOH    C110193   5.115   2.353   1.089 -0.2038  0.1132  0.5712
  162ACOH    H110194   5.027   2.340   1.151 -1.0410  0.8730 -0.4373
  162ACOH    H210195   5.201   2.296   1.124  1.1666  1.6925 -0.1045
  162ACOH    H310196   5.093   2.330   0.985 -3.7698 -1.4413  1.6073
  163ACOH    H410197   3.616   0.791   0.894  0.4655  1.1312 -0.6063
  163ACOH    O210198   3.570   0.860   0.945  0.1204  0.1705  0.3983
  163ACOH    C210199   3.549   0.961   0.858 -0.2444 -0.0634  0.1694
  163ACOH    O110200   3.609   0.977   0.749  0.2497  0.9025 -0.5130
  163ACOH    C110201   3.455   1.062   0.908 -0.0157 -0.3444  0.0832
  163ACOH    H110202   3.360   1.014   0.932 -0.4240  0.4338  0.0301
  163ACOH    H210203   3.440   1.139   0.833 -1.6190 -1.7448 -1.0954
  163ACOH    H310204   3.493   1.105   1.001  0.4278  0.4700 -0.4802
  164ACOH    H410205   2.922   6.553   1.663 -0.6626  0.8476 -0.2201
  164ACOH    O210206   2.971   6.604   1.596  0.3892  0.4003  0.1873
  164ACOH    C210207   3.081   6.535   1.565 -0.6414  0.2026 -0.1828
  164ACOH    O110208   3.113   6.425   1.607 -0.3005 -0.7919  0.1427
  164ACOH    C110209   3.170   6.605   1.470  0.2618  0.5843 -0.4312
  164ACOH    H110210   3.154   6.549   1.378  1.1576 -0.3964 -0.0005
  164ACOH    H210211   3.272   6.604   1.507 -0.5321  0.4413  1.8605
  164ACOH    H310212   3.132   6.705   1.448  0.4020  1.1703  1.8817
  165ACOH    H410213   3.222   7.041   2.546 -0.0448  0.2386 -0.8773
  165ACOH    O210214   3.284   6.967   2.541 -0.1371  0.0554  0.6508
  165ACOH    C210215   3.224   6.846   2.530 -0.1783  0.0406  0.6419
  165ACOH    O110216   3.109   6.819   2.505  0.3483 -0.2904 -0.6209
  165ACOH    C110217   3.317   6.733   2.541 -0.3559 -0.2034  0.3289
  165ACOH    H110218   3.332   6.709   2.646  2.6145 -3.4250 -0.7544
  165ACOH    H210219   3.417   6.768   2.514 -1.4377  2.5724 -0.2605
  165ACOH    H310220   3.300   6.645   2.479  1.6156 -0.6779  0.4464
  166ACOH    H410221   4.184   0.766   2.110 -1.1876  0.4641 -0.1286
  166ACOH    O210222   4.177   0.824   2.188 -0.7207  0.0501  0.2279
  166ACOH    C210223   4.163   0.943   2.128  0.1498 -0.0688 -0.5347
  166ACOH    O110224   4.157   0.976   2.014  0.7197 -0.4755 -0.5197
  166ACOH    C110225   4.151   1.042   2.241 -0.2413  0.3301  0.1677
  166ACOH    H110226   4.148   1.144   2.204 -0.5029 -0.1151 -1.0481
  166ACOH    H210227   4.238   1.032   2.306  0.4459  1.8730 -0.4919
  166ACOH    H310228   4.062   1.022   2.300  0.5454  1.1422  1.6739
  167ACOH    H410229   4.736   2.838   1.590 -0.5353 -0.2376  0.4404
  167ACOH    O210230   4.761   2.745   1.603 -0.2035 -0.1825  0.1999
  167ACOH    C210231   4.857   2.711   1.519 -0.1504  0.6763  0.7009
  167ACOH    O110232   4.876   2.755   1.406  0.3383  0.6635 -0.2999
  167ACOH    C110233   4.906   2.580   1.556  0.2700 -0.2090 -0.0655
  167ACOH    H110234   4.970   2.534   1.481 -0.8875  1.6214 -2.2272
  167ACOH    H210235   4.824   2.508   1.562  1.6493 -1.7356  1.0569
  167ACOH    H310236   4.960   2.588   1.651 -0.9416  0.5150  0.5707
  168ACOH    H410237   2.608   2.876   2.426  1.0523 -0.2756  1.6386
  168ACOH    O210238   2.575   2.963   2.454 -0.2060 -0.1585 -0.1709
  168ACOH    C210239   2.510   2.943   2.567  0.3436 -0.0884 -0.2546
  168ACOH    O110240   2.474   2.834   2.607 -0.2059 -0.3310  0.5440
  168ACOH    C110241   2.455   3.075   2.610 -0.7849  0.8253 -0.3965
  168ACOH    H110242   2.374   3.060   2.681 -1.2333 -0.3093 -1.1391
  168ACOH    H210243   2.420   3.129   2.522 -2.0776 -0.5650 -0.7461
  168ACOH    H310244   2.530   3.128   2.670 -2.3068  1.0243  1.3656
  169ACOH    H410245   3.333   5.198   1.262  0.1028 -1.4439 -0.0776
  169ACOH    O210246   3.352   5.179   1.355  0.3820 -0.5461  0.0563
  169ACOH    C210247   3.275   5.256   1.436  0.0360  0.4802  0.4537
  169ACOH    O110248   3.192   5.339   1.403  0.5660  0.2411 -0.6499
  169ACOH    C110249   3.287   5.199   1.569 -0.1602  0.3957 -0.0999
  169ACOH    H110250   3.317   5.275   1.641 -1.0471 -1.0625  1.8319
  169ACOH    H210251   3.354   5.114   1.583 -0.4461  0.3475  0.9578
  169ACOH    H310252   3.188   5.168   1.601 -0.5770  1.0668 -0.7215
  170ACOH    H410253   2.462   0.197   0.677  2.5502 -0.5615 -0.2213
  170ACOH    O210254   2.467   0.116   0.624 -0.0947 -0.4853 -0.6523
  170ACOH    C210255   2.404   0.015   0.686  0.2181 -0.0529 -0.0793
  170ACOH    O110256   2.394  -0.004   0.807 -0.2548 -0.5500  0.5881
  170ACOH    C110257   2.371  -0.100   0.594 -0.1614 -0.4520 -0.3826
  170ACOH    H110258   2.468  -0.139   0.563  0.4087  1.9477 -1.6929
  170ACOH    H210259   2.318  -0.066   0.506 -3.9765 -0.2037  1.8741
  170ACOH    H310260   2.319  -0.175   0.654 -0.9020  0.1694 -0.2456
  171ACOH    H410261   3.093   6.446   0.751  0.2398 -0.2001  0.8105
  171ACOH    O210262   3.175   6.498   0.752 -0.4658  0.9211  0.7840
  171ACOH    C210263   3.201   6.509   0.883 -0.8273  0.2752 -0.1237
  171ACOH    O110264   3.173   6.430   0.973  0.6142  0.0580  0.4246
  171ACOH    C110265   3.318   6.600   0.899  0.2699 -0.1780 -0.0382
  171ACOH    H110266   3.391   6.537   0.950  0.9144  0.4923 -0.1247
  171ACOH    H210267   3.294   6.692   0.953  1.2334 -0.4531  0.8872
  171ACOH    H310268   3.356   6.622   0.799  0.8506 -2.3524 -0.3343
  172ACOH    H410269   3.555   5.605   0.408  0.0473  0.2764  2.2503
  172ACOH    O210270   3.649   5.630   0.399  0.0086 -0.2695  0.2379
  172ACOH    C210271   3.725   5.515   0.404 -0.2780  0.0325  0.1052
  172ACOH    O110272   3.687   5.402   0.401  0.0019  0.3560 -0.3507
  172ACOH    C110273   3.865   5.563   0.410 -0.2083 -0.6754  0.7470
  172ACOH    H110274   3.872   5.666   0.376 -1.4653 -1.1451 -0.9793
  172ACOH    H210275   3.933   5.508   0.344  0.2112 -0.9109  1.3704
  172ACOH    H310276   3.910   5.552   0.509  1.2734  3.1749  0.5554
  173ACOH    H410277   3.928   7.890   0.799  0.3843 -2.1559 -1.4721
  173ACOH    O210278   4.016   7.888   0.841 -0.0629  0.6479 -0.2680
  173ACOH    C210279   4.107   7.908   0.743  0.2296 -0.0362  0.5059
  173ACOH    O110280   4.086   7.944   0.627 -0.1401  0.2331 -0.4266
  173ACOH    C110281   4.245   7.899   0.789 -0.2090  0.0849 -0.6665
  173ACOH    H110282   4.296   7.817   0.738  0.4549  0.3548 -0.4413
  173ACOH    H210283   4.260   7.868   0.893  2.6652 -1.2741 -1.4231
  173ACOH    H310284   4.298   7.994   0.781 -0.2044  0.1345 -0.1125
  174SOL     OW10285   2.555   4.978   0.860  0.0996 -0.0115 -0.3637
  174SOL    HW110286   2.499   4.962   0.942 -1.5326 -1.2934 -1.6939
  174SOL    HW210287   2.650   4.958   0.881 -0.0723  1.0838  1.6227
  175SOL     OW10288   2.706   9.172   1.534 -0.5703 -0.2296  0.3167
  175SOL    HW110289   2.720   9.129   1.444  0.3137 -0.5438  0.5984
  175SOL    HW210290   2.743   9.112   1.605  0.5891  0.9368  0.7186
  176SOL     OW10291   4.025   2.493   0.021 -0.1177  0.1802 -0.3568
  176SOL    HW110292   4.025   2.433  -0.059  0.4911  0.3949 -0.5206
  176SOL    HW210293   4.040   2.587  -0.007  3.0443 -0.1008  0.2392
  177SOL     OW10294   3.564   8.972   0.397 -0.1162  0.1197 -0.1785
  177SOL    HW110295   3.482   9.018   0.364 -0.1494  0.6915  0.6833
  177SOL    HW210296   3.642   8.997   0.339 -0.2098  0.9740  0.0574
  178SOL     OW10297   2.387   6.783   0.721 -0.2884  0.2187 -0.5581
  178SOL    HW110298   2.370   6.817   0.814 -0.1145 -0.0535 -0.4244
  178SOL    HW210299   2.409   6.860   0.661  0.7072  0.2858 -0.1199
  179SOL     OW10300   3.650   8.568   1.576  0.0828 -0.1123  0.3273
  179SOL    HW110301   3.685   8.482   1.539  0.2203 -0.2800  0.8430
  179SOL    HW210302   3.569   8.549   1.631 -0.2517  0.1614 -0.0730
  180SOL     OW10303   2.432   3.597   1.304  0.2916 -0.4081  0.2959
  180SOL    HW110304   2.427   3.500   1.277  0.5817  0.4008 -2.8708
  180SOL    HW210305   2.427   3.654   1.222  2.3761  2.2177  1.9433
  181SOL     OW10306   2.913   5.856   1.437  0.1323 -0.2352 -0.2747
  181SOL    HW110307   2.924   5.892   1.530  3.3240  1.9895 -1.4348
  181SOL    HW210308   2.858   5.920   1.383 -2.4917 -1.9588  0.2354
  182SOL     OW10309   3.695   2.439   0.866 -0.2443  0.0554 -0.2461
  182SOL    HW110310   3.652   2.367   0.812  1.2864 -0.4239 -0.8343
  182SOL    HW210311   3.690   2.526   0.816 -1.7247  0.2881  0.2847
  183SOL     OW10312   3.771   2.825   0.271  0.2626  0.2689 -0.5111
  183SOL    HW110313   3.690   2.859   0.320  0.2358 -0.0592 -0.3241
  183SOL    HW210314   3.768   2.856   0.176 -0.7429 -0.8209 -0.8344
  184SOL     OW10315   2.488   6.123   2.511 -0.5826 -0.1263 -0.2937
  184SOL    HW110316   2.439   6.208   2.531  0.1141  0.1686  0.2061
  184SOL    HW210317   2.534   6.131   2.422  0.5533  0.5265  0.3360
  185SOL     OW10318   3.786   2.766   2.312 -0.9523  0.0941 -0.0415
  185SOL    HW110319   3.802   2.738   2.217 -0.8904  1.7221 -0.5229
  185SOL    HW210320   3.697   2.731   2.342 -0.4485 -1.4497 -0.2829
  186SOL     OW10321   3.151   2.284   2.130  0.8688 -0.2682  0.0556
  186SOL    HW110322   3.065   2.240   2.159  1.3423 -2.3450 -1.5907
  186SOL    HW210323   3.138   2.383   2.128 -1.1957 -0.4914  0.8068
  187SOL     OW10324   3.830   2.897   1.460 -0.3657  0.4242  0.0338
  187SOL    HW110325   3.817   2.799   1.446  2.3250  0.1076 -0.4313
  187SOL    HW210326   3.757   2.947   1.412 -2.2241 -1.3313  0.9388
  188SOL     OW10327   2.578   0.147   0.984 -0.0459  0.4681 -0.2467
  188SOL    HW110328   2.501   0.101   0.940  0.5048 -0.0732 -0.6535
  188SOL    HW210329   2.568   0.246   0.975 -0.2664  0.3780 -1.0321
  189SOL     OW10330   3.873   1.366   1.703  0.4383 -0.4789 -0.7333
  189SOL    HW110331   3.775   1.362   1.683  0.3235 -1.1166 -0.0488
  189SOL    HW210332   3.914   1.440   1.651 -0.1733 -1.0276 -2.0055
  190SOL     OW10333   2.938   3.358   0.783  0.0451 -0.4771  0.0302
  190SOL    HW110334   2.892   3.360   0.872 -0.4605  0.8642 -0.2471
  190SOL    HW210335   3.037   3.358   0.796 -0.0274  0.7279  0.5845
  191SOL     OW10336   2.627   5.346   2.317 -0.4931 -0.5857 -0.2728
  191SOL    HW110337   2.623   5.292   2.402 -1.6094  0.3582  0.2892
  191SOL    HW210338   2.552   5.318   2.257 -0.7668 -0.0178 -0.1968
  192SOL     OW10339   3.444   7.243   0.758  0.5006 -0.6971  0.2731
  192SOL    HW110340   3.487   7.287   0.680 -1.4094  0.0698 -0.3775
  192SOL    HW210341   3.412   7.152   0.732 -0.5372 -0.2680  0.0086
  193SOL     OW10342   2.766   5.154   0.526 -0.3896  0.2167 -0.4601
  193SOL    HW110343   2.802   5.208   0.602  1.4555 -0.7492 -0.6146
  193SOL    HW210344   2.727   5.215   0.457  2.1634  1.4017 -0.8909
  194SOL     OW10345   3.168   3.899   0.389 -0.1639 -0.0495  0.3226
  194SOL    HW110346   3.147   3.804   0.366 -1.3074  0.3800 -0.4500
  194SOL    HW210347   3.232   3.901   0.466  0.0535 -1.4434  0.1963
  195SOL     OW10348   3.557   4.258   1.568  0.3256  0.0353 -0.0915
  195SOL    HW110349   3.569   4.338   1.510  0.6683  0.5206  0.6448
  195SOL    HW210350   3.489   4.277   1.639  1.3268  0.1082  0.8635
  196SOL     OW10351   2.596   4.751   0.654  0.1190 -0.2266  0.1664
  196SOL    HW110352   2.542   4.832   0.679 -0.5090 -0.3822 -0.6589
  196SOL    HW210353   2.630   4.708   0.737  1.1416  1.3322  0.5810
  197SOL     OW10354   3.720   1.322   2.113 -0.1590 -0.5416  0.4643
  197SOL    HW110355   3.626   1.354   2.098  0.2647  0.9216  0.9319
  197SOL    HW210356   3.749   1.345   2.205  1.1224  0.1496 -0.1054
  198SOL     OW10357   2.276   8.687   1.923 -0.1799 -0.1985  0.0503
  198SOL    HW110358   2.184   8.719   1.902 -0.0009  1.1624  1.2762
  198SOL    HW210359   2.271   8.599   1.971 -0.8493 -0.0609  0.2308
  199SOL     OW10360   3.101   2.545   2.120 -0.7015 -0.1782 -0.1470
  199SOL    HW110361   3.037   2.542   2.197 -0.4095  0.4476  0.1270
  199SOL    HW210362   3.065   2.603   2.048 -0.2462  0.5309  0.1922
  200SOL     OW10363   3.122   9.633   1.551  0.4812 -0.2274  0.1053
  200SOL    HW110364   3.165   9.718   1.580  1.7373 -0.9977  0.5345
  200SOL    HW210365   3.180   9.556   1.577 -1.2179 -1.2985  0.7948
  201SOL     OW10366   3.738   4.854   1.672  0.0006 -0.5853  0.2496
  201SOL    HW110367   3.703   4.941   1.709  1.0324  0.7357 -1.8261
  201SOL    HW210368   3.824   4.831   1.718  0.0632 -0.1682  0.3464
  202SOL     OW10369   3.244   2.584   1.483  0.0155  0.7098  0.2411
  202SOL    HW110370   3.275   2.492   1.461 -0.6094  0.2612  1.2410
  202SOL    HW210371   3.323   2.646   1.485  0.3127  0.4053 -1.4098
  203SOL     OW10372   3.304   2.890   1.782 -0.2906 -0.2656 -0.1181
  203SOL    HW110373   3.312   2.974   1.836 -3.3833 -0.1816  0.3218
  203SOL    HW210374   3.332   2.908   1.688  2.2875  0.3538  0.7158
  204SOL     OW10375   3.306   9.784   0.024  0.4141  0.2525 -0.5044
  204SOL    HW110376   3.272   9.693  -0.002  0.3517  0.0412  0.3168
  204SOL    HW210377   3.233   9.835   0.070  0.9347  0.1208  0.4799
  205SOL     OW10378   2.674   7.836   2.471  0.4574  0.4458 -0.3595
  205SOL    HW110379   2.636   7.847   2.562  1.1203 -1.2014  0.1288
  205SOL    HW210380   2.651   7.745   2.436  1.7061  0.4175 -1.1183
  206SOL     OW10381   3.843   4.133   0.730 -0.3961  0.2739 -0.6579
  206SOL    HW110382   3.856   4.044   0.774 -2.6482  0.2612  0.0625
  206SOL    HW210383   3.796   4.120   0.643 -2.4613  0.8876  0.3356
  207SOL     OW10384   2.926   9.734   1.804 -0.2033 -0.2260 -0.2355
  207SOL    HW110385   2.882   9.647   1.827  0.9862 -0.7389  0.1797
  207SOL    HW210386   2.884   9.773   1.722 -1.6709 -0.4986  0.3861
  208SOL     OW10387   3.629   0.016   2.521  0.0870  0.8277 -0.0223
  208SOL    HW110388   3.543   0.058   2.548 -0.3608  0.1473 -0.3986
  208SOL    HW210389   3.656  -0.053   2.588 -0.2679  0.1986 -0.5211
  209SOL     OW10390   2.882   9.129   0.992 -0.6215  0.0447 -1.6994
  209SOL    HW110391   2.885   9.054   0.926 -2.0391 -0.9259 -0.6788
  209SOL    HW210392   2.828   9.101   1.072  1.4134  1.0386  0.0758
  210SOL     OW10393   3.084   3.632   0.345 -0.3463 -0.0921  0.2520
  210SOL    HW110394   3.061   3.542   0.384 -2.7043  0.2058 -0.3484
  210SOL    HW210395   3.017   3.699   0.376  0.2344  1.0404 -0.9155
  211SOL     OW10396   3.557   1.066   2.522  0.4458 -0.3649  0.4916
  211SOL    HW110397   3.520   0.974   2.508  1.2021 -0.1475 -3.7859
  211SOL    HW210398   3.653   1.068   2.494  0.7348  1.4616  1.5469
  212SOL     OW10399   4.541   3.656   0.770 -0.4794  0.0950  0.2900
  212SOL    HW110400   4.611   3.606   0.821  0.4200  1.0269  0.0117
  212SOL    HW210401   4.562   3.651   0.672 -1.4160 -0.5343  0.1257
  213SOL     OW10402   4.351   2.408   1.460  0.0580 -0.7740 -0.0592
  213SOL    HW110403   4.332   2.322   1.508 -1.3652 -0.3435  0.1665
  213SOL    HW210404   4.328   2.485   1.520  0.9206 -0.2281 -0.4197
  214SOL     OW10405   3.158   4.421   2.411 -0.0491 -0.3112  0.1402
  214SOL    HW110406   3.172   4.325   2.434  0.6386  0.0499  1.2832
  214SOL    HW210407   3.205   4.478   2.479 -1.0771  0.8359 -0.1120
  215SOL     OW10408   2.978   8.255   1.542 -0.6234  0.1664  0.2049
  215SOL    HW110409   3.020   8.271   1.631  0.5919  1.0993 -0.5353
  215SOL    HW210410   3.024   8.309   1.472 -2.1290  0.1121 -0.8629
  216SOL     OW10411   2.510   9.513   2.319  0.4273 -0.2337  0.3951
  216SOL    HW110412   2.516   9.413   2.329 -1.2210 -0.3341  0.6056
  216SOL    HW210413   2.602   9.552   2.319  1.1807 -1.9187 -1.5860
  217SOL     OW10414   4.662   1.997   0.835  0.8601 -0.1677 -0.6560
  217SOL    HW110415   4.711   2.083   0.838 -0.0572  0.3465 -0.1784
  217SOL    HW210416   4.621   1.978   0.924 -1.7514  0.5742 -1.6489
  218SOL     OW10417   4.711   3.613   0.251 -0.5672 -0.2857  0.3538
  218SOL    HW110418   4.652   3.633   0.174 -1.3158 -0.7316  0.8030
  218SOL    HW210419   4.730   3.514   0.253 -3.2364 -0.7988  2.6261
  219SOL     OW10420   3.462   7.925   1.875  0.4283 -0.2707 -0.3704
  219SOL    HW110421   3.403   7.861   1.924 -1.4427  1.5260 -0.1953
  219SOL    HW210422   3.434   7.931   1.780 -0.0173  0.9584 -0.1789
  220SOL     OW10423   4.268   1.838   0.930  0.0238  0.0119  0.4300
  220SOL    HW110424   4.243   1.774   1.002 -0.5860  0.8638  0.9747
  220SOL    HW210425   4.191   1.898   0.910  0.3012  0.0093 -0.6940
  221SOL     OW10426   2.514   8.570   0.813 -0.4970  0.2004  1.1113
  221SOL    HW110427   2.556   8.566   0.722 -2.2921  1.0453  0.2235
  221SOL    HW210428   2.488   8.478   0.841 -1.0164  0.0792  0.2442
  222SOL     OW10429   3.766   1.067   1.173 -0.8765  0.2544 -0.0858
  222SOL    HW110430   3.793   0.984   1.123 -1.8185  0.8353 -1.5661
  222SOL    HW210431   3.727   1.041   1.261  0.9675 -0.7712  0.4551
  223SOL     OW10432   3.519   9.137   2.230 -0.3222 -0.0140 -0.0653
  223SOL    HW110433   3.469   9.167   2.311  0.3414  1.4546 -0.1846
  223SOL    HW210434   3.462   9.150   2.149 -0.0019  1.0704 -0.1286
  224SOL     OW10435   3.741   2.107   0.523 -0.5898 -0.0559  0.1914
  224SOL    HW110436   3.764   2.018   0.561 -1.0271 -0.5877 -0.7852
  224SOL    HW210437   3.708   2.167   0.596 -0.0635 -0.6114  0.8856
  225SOL     OW10438   3.697   9.786   0.015  0.1263 -0.0524 -0.2715
  225SOL    HW110439   3.670   9.690   0.027  0.1758 -0.0151  0.1588
  225SOL    HW210440   3.704   9.829   0.105  1.2068  0.0601 -0.4056
  226SOL     OW10441   3.636   8.563   2.186  0.2560  0.1233  0.1803
  226SOL    HW110442   3.677   8.549   2.096  1.6765  2.7685  0.3885
  226SOL    HW210443   3.554   8.619   2.177 -0.0743 -0.3085  0.4578
  227SOL     OW10444   4.480   3.317   0.055  0.2580  0.3064 -0.2411
  227SOL    HW110445   4.539   3.298  -0.023 -0.0281 -2.8930  0.2527
  227SOL    HW210446   4.408   3.248   0.060 -1.1899  1.8694  1.4739
  228SOL     OW10447   3.143   2.967   1.307  0.4290  0.5542  0.1775
  228SOL    HW110448   3.196   3.017   1.239  1.3856 -0.5467  0.0827
  228SOL    HW210449   3.064   3.021   1.335 -0.0077  1.0016 -1.8409
  229SOL     OW10450   3.287   0.426   2.235  0.0509 -0.0836  0.1254
  229SOL    HW110451   3.336   0.350   2.191 -1.3256 -0.5700 -0.5987
  229SOL    HW210452   3.353   0.492   2.269  1.2089 -0.4716 -1.2850
  230SOL     OW10453   2.638   2.350   0.009  0.5907 -0.1999  0.3702
  230SOL    HW110454   2.667   2.291   0.084 -0.9053 -0.7065  0.5608
  230SOL    HW210455   2.665   2.444   0.028 -2.8279  0.2845  3.2620
  231SOL     OW10456   3.939   1.127   1.578  0.4991  0.1538  0.5144
  231SOL    HW110457   4.014   1.085   1.629  0.5591  0.2384  0.4952
  231SOL    HW210458   3.936   1.225   1.597 -1.2027 -0.2472  2.5461
  232SOL     OW10459   2.309   1.888   1.660  0.1337 -0.1145  0.5054
  232SOL    HW110460   2.375   1.955   1.624 -2.6785  2.7788  0.5074
  232SOL    HW210461   2.255   1.851   1.585 -1.4272  1.1425  0.9686
  233SOL     OW10462   2.411   3.611   2.636 -0.3022 -0.1207 -0.2059
  233SOL    HW110463   2.387   3.687   2.697  0.2509  0.6379 -0.9291
  233SOL    HW210464   2.441   3.647   2.548  0.7480 -1.1511 -0.2791
  234SOL     OW10465   3.378   3.275   2.571 -0.2722 -0.0602  0.0197
  234SOL    HW110466   3.350   3.206   2.504 -2.4410  1.0402 -0.2447
  234SOL    HW210467   3.357   3.366   2.536  0.2694  0.6197  1.4279
  235SOL     OW10468   2.462   2.910   1.405  0.1068 -0.3618 -0.2461
  235SOL    HW110469   2.382   2.919   1.464  0.1873 -1.3247  0.0209
  235SOL    HW210470   2.508   2.823   1.424  0.1382 -0.6888 -1.7151
  236SOL     OW10471   2.707   1.124   0.195  0.7616 -0.1706 -0.2496
  236SOL    HW110472   2.649   1.127   0.277  0.2052 -2.5829 -0.5339
  236SOL    HW210473   2.681   1.199   0.134 -1.6663 -0.8517 -0.1011
  237SOL     OW10474   2.551   8.989   0.512  0.3897  0.0927  0.1466
  237SOL    HW110475   2.579   9.049   0.587 -1.4150  3.0907 -1.4460
  237SOL    HW210476   2.463   8.947   0.534  0.1995  0.4240  0.0345
  238SOL     OW10477   3.888   0.824   0.416 -0.0373 -0.6334 -0.4796
  238SOL    HW110478   3.873   0.762   0.493  0.3707 -0.0087  0.0985
  238SOL    HW210479   3.978   0.865   0.423  0.3226 -1.1784 -1.7226
  239SOL     OW10480   4.523   3.606   0.041  0.1193  0.1701  0.2696
  239SOL    HW110481   4.531   3.509   0.020  0.7311  0.0589  0.9973
  239SOL    HW210482   4.437   3.624   0.088  0.0154 -0.0244  0.1493
  240SOL     OW10483   2.467   7.512   2.069 -0.4541  0.1900 -0.1069
  240SOL    HW110484   2.440   7.590   2.012  2.3576  0.1913 -1.5231
  240SOL    HW210485   2.501   7.547   2.157 -0.1073  0.5292 -0.3689
  241SOL     OW10486   2.924   5.823   0.351  0.4782  0.0836 -0.0264
  241SOL    HW110487   3.014   5.838   0.310  0.0806  3.6165  0.2563
  241SOL    HW210488   2.856   5.876   0.300 -1.0129 -0.4242  1.4177
  242SOL     OW10489   3.779   1.374   0.741  0.5802  0.1014  0.0511
  242SOL    HW110490   3.777   1.291   0.685 -0.7516 -1.0610  1.7889
  242SOL    HW210491   3.790   1.349   0.837  0.5221  1.9694  0.5502
  243SOL     OW10492   3.631   2.588   2.592  0.0349 -0.4305  0.0284
  243SOL    HW110493   3.642   2.602   2.690 -0.5795 -0.4842  0.1019
  243SOL    HW210494   3.561   2.650   2.556  1.2793  0.6205 -0.6406
  244SOL     OW10495   3.295   7.743   2.211  0.0850 -0.5921  0.3326
  244SOL    HW110496   3.231   7.666   2.218  0.1649 -0.6865  0.0190
  244SOL    HW210497   3.304   7.770   2.115  0.3961 -0.4747  0.3966
  245SOL     OW10498   2.778   7.090   0.820  0.1866 -0.1556  0.1118
  245SOL    HW110499   2.828   7.004   0.817  0.2769 -0.0997 -0.0069
  245SOL    HW210500   2.839   7.165   0.792 -0.1268 -0.1608 -0.6021
  246SOL     OW10501   4.715   3.432   1.451  0.6375 -0.3941 -0.2928
  246SOL    HW110502   4.792   3.375   1.480 -0.2204 -2.0913 -1.2759
  246SOL    HW210503   4.684   3.488   1.527  2.4555 -0.1253  0.2820
  247SOL     OW10504   2.674   3.214   1.888 -0.2570 -0.6293 -0.3826
  247SOL    HW110505   2.681   3.117   1.911  0.3792 -0.4989 -0.0108
  247SOL    HW210506   2.680   3.269   1.972  2.4789 -0.1331 -0.8686
  248SOL     OW10507   3.716   8.325   1.184 -0.6324 -0.9483 -0.4142
  248SOL    HW110508   3.730   8.423   1.196  2.2751 -1.1933 -1.3639
  248SOL    HW210509   3.620   8.307   1.165 -1.7183  1.4224  2.3486
  249SOL     OW10510   2.541   3.175   2.223  0.6629  0.3783  0.0122
  249SOL    HW110511   2.511   3.095   2.275 -0.1281  0.6104 -0.0841
  249SOL    HW210512   2.639   3.167   2.203  0.6705 -0.3749  0.3410
  250SOL     OW10513   4.168   2.474   1.786 -0.0605  0.2291  0.0640
  250SOL    HW110514   4.106   2.434   1.719  0.8212 -0.8622 -0.0983
  250SOL    HW210515   4.201   2.562   1.752 -0.0511 -0.0625 -0.6822
  251SOL     OW10516   2.776   4.102   0.931  0.0262 -0.1787 -0.0548
  251SOL    HW110517   2.738   4.025   0.880  1.3372  1.1149 -3.1100
  251SOL    HW210518   2.728   4.186   0.906  1.3377  0.6282  0.0682
  252SOL     OW10519   3.080   8.993   0.262  0.0313 -0.0774 -0.1830
  252SOL    HW110520   3.054   8.952   0.174  0.4678  0.5434 -0.6035
  252SOL    HW210521   3.088   9.092   0.252 -0.0710  0.0099  0.5995
  253SOL     OW10522   3.365   8.115   0.372  0.3919  0.1387  0.3445
  253SOL    HW110523   3.449   8.147   0.417 -0.1004  1.7802  0.1042
  253SOL    HW210524   3.299   8.087   0.442  0.1108  1.4751  0.6345
  254SOL     OW10525   3.504   1.968   2.111 -0.4501 -0.0578  0.3727
  254SOL    HW110526   3.547   1.991   2.198 -0.4832  0.8740  0.1486
  254SOL    HW210527   3.478   1.872   2.111  0.1663 -0.2287  1.1314
  255SOL     OW10528   3.868   4.385   2.066 -0.4616 -0.4776  0.1828
  255SOL    HW110529   3.805   4.313   2.039 -1.2947  0.2974  0.0217
  255SOL    HW210530   3.914   4.360   2.151 -0.3063 -1.4518 -0.1890
  256SOL     OW10531   2.646   6.763   2.055  0.1949  0.2010  0.4985
  256SOL    HW110532   2.702   6.840   2.025  1.3013 -0.3046  1.2112
  256SOL    HW210533   2.574   6.746   1.988  1.3923  0.3632 -0.8645
  257SOL     OW10534   3.591   4.333   0.725 -0.0507 -0.6218 -0.0838
  257SOL    HW110535   3.688   4.315   0.708 -0.0922 -0.2632 -0.7115
  257SOL    HW210536   3.540   4.328   0.638 -0.2752  1.1970 -0.0794
  258SOL     OW10537   3.209   2.263   1.855 -0.0573  0.0765 -0.4905
  258SOL    HW110538   3.210   2.254   1.954  1.1249  0.9505 -0.4074
  258SOL    HW210539   3.148   2.194   1.815 -0.3706 -0.4121  0.8172
  259SOL     OW10540   2.669   7.331   0.565  0.0340  0.2831  0.1098
  259SOL    HW110541   2.677   7.325   0.465  0.3939 -0.5460  0.1861
  259SOL    HW210542   2.760   7.336   0.605 -0.0557 -0.8926  0.4819
  260SOL     OW10543   3.100   7.559   2.270 -0.7749 -0.1494 -0.6724
  260SOL    HW110544   3.064   7.613   2.346  1.1066  0.7666 -0.4026
  260SOL    HW210545   3.085   7.462   2.288 -0.3546  0.0524  0.8822
  261SOL     OW10546   3.148   9.099   1.507  0.3497  0.2523  0.3039
  261SOL    HW110547   3.068   9.120   1.563 -0.6989 -1.3183 -0.5811
  261SOL    HW210548   3.207   9.035   1.557  0.2986  0.2220  0.3259
  262SOL     OW10549   3.559   4.434   2.052 -0.0858  0.3454  0.2043
  262SOL    HW110550   3.461   4.455   2.061 -0.2377 -0.1215 -0.3031
  262SOL    HW210551   3.591   4.467   1.964 -0.0997 -0.6683 -0.1910
  263SOL     OW10552   2.487   7.953   0.047 -0.0871  0.1441  0.0398
  263SOL    HW110553   2.529   7.972   0.136 -0.9289  0.6325  0.3488
  263SOL    HW210554   2.460   8.040   0.004 -0.1956 -0.1222 -0.4299
  264SOL     OW10555   2.534   5.717   0.870 -0.1075 -0.1341  0.0555
  264SOL    HW110556   2.618   5.698   0.819 -0.9225 -0.4787 -1.1837
  264SOL    HW210557   2.541   5.677   0.962  1.2256  0.1723  0.1009
  265SOL     OW10558   2.956   8.085   2.569  0.1540  0.0088 -0.5147
  265SOL    HW110559   3.051   8.062   2.546  0.5317 -0.3420  1.3006
  265SOL    HW210560   2.898   8.069   2.490  1.6362  0.3589 -1.6959
  266SOL     OW10561   2.516   8.331   1.600  0.8769  0.5379  0.8768
  266SOL    HW110562   2.474   8.275   1.528  0.8311 -0.6287  1.7841
  266SOL    HW210563   2.602   8.289   1.629  1.4959  1.6484  0.6737
  267SOL     OW10564   3.180   2.672   2.664 -0.0235  0.1439  0.0070
  267SOL    HW110565   3.238   2.726   2.725 -1.1866 -1.4779  2.6445
  267SOL    HW210566   3.229   2.588   2.639  0.0863  0.3740 -0.5579
  268SOL     OW10567   3.024   0.716   0.750  0.0428  0.1714  0.0533
  268SOL    HW110568   3.078   0.641   0.711  0.3460 -0.3314  1.3851
  268SOL    HW210569   3.001   0.693   0.845 -0.5493  1.4194  0.2141
  269SOL     OW10570   2.951   9.899   2.302 -0.3530 -0.1064 -0.2869
  269SOL    HW110571   2.976   9.835   2.230  0.4229  0.7116 -0.7591
  269SOL    HW210572   2.865   9.945   2.278 -0.5824 -0.5140 -0.2439
  270SOL     OW10573   2.914   3.226   2.391 -0.0767  0.0738  0.4090
  270SOL    HW110574   2.959   3.203   2.477  1.2482 -2.0108 -0.7790
  270SOL    HW210575   2.970   3.292   2.341 -1.2396  1.8840  1.4874
  271SOL     OW10576   4.112   2.992   1.137 -0.3128 -0.4173 -0.5867
  271SOL    HW110577   4.021   2.985   1.097  0.2282 -0.5036 -1.8157
  271SOL    HW210578   4.126   2.916   1.200 -1.4376  0.1179  0.3330
  272SOL     OW10579   2.861   9.403   2.388  0.2249  0.0331  0.0015
  272SOL    HW110580   2.830   9.492   2.356 -2.7241 -1.4616 -1.4845
  272SOL    HW210581   2.848   9.395   2.487 -2.0793  0.2786 -0.2670
  273SOL     OW10582   2.840   6.225   2.401  0.2522  0.1334  0.0040
  273SOL    HW110583   2.893   6.147   2.433 -0.7569  0.2874  2.1577
  273SOL    HW210584   2.769   6.194   2.338 -0.3726 -0.7600  1.1278
  274SOL     OW10585   2.757   7.891   1.378 -0.3005 -0.1721 -0.0925
  274SOL    HW110586   2.780   7.794   1.375 -1.9809 -0.5513 -1.2147
  274SOL    HW210587   2.818   7.938   1.441  2.4907 -1.4117 -1.7825
  275SOL     OW10588   4.137   0.992   2.542  0.1265 -0.2144 -0.1329
  275SOL    HW110589   4.045   0.981   2.506  0.4073 -0.0914 -0.9051
  275SOL    HW210590   4.155   0.922   2.611 -0.3942 -0.4889 -0.2753
  276SOL     OW10591   2.471   3.344   1.260  0.0973 -0.5198 -0.0852
  276SOL    HW110592   2.481   3.278   1.186 -1.5968  1.9386 -2.5648
  276SOL    HW210593   2.502   3.302   1.346 -0.1663 -4.2314 -1.7113
  277SOL     OW10594   3.296   2.411   0.610 -0.1399 -0.0027 -0.2396
  277SOL    HW110595   3.283   2.385   0.514 -2.0693  1.3452 -0.3824
  277SOL    HW210596   3.233   2.485   0.633  2.0722  1.4442  1.3748
  278SOL     OW10597   2.493   3.601   2.117  0.7449 -0.0030 -0.4445
  278SOL    HW110598   2.487   3.681   2.057  0.1467 -0.0839 -0.4927
  278SOL    HW210599   2.422   3.535   2.093  0.2855  0.1084  0.5490
  279SOL     OW10600   3.734   1.165   0.582  0.4672 -0.5008  0.1381
  279SOL    HW110601   3.664   1.198   0.518 -0.1115 -0.9855  0.5144
  279SOL    HW210602   3.704   1.079   0.622  1.0355 -0.4311  0.7145
  280SOL     OW10603   4.003   4.364   0.807 -0.2908  0.0009  0.0164
  280SOL    HW110604   3.926   4.316   0.765 -2.1279  1.4405  1.6708
  280SOL    HW210605   4.014   4.333   0.901  0.4200  0.6600  0.1501
  281SOL     OW10606   3.057   7.292   2.292  0.3530  0.3258 -0.5752
  281SOL    HW110607   3.134   7.233   2.315  1.2547  2.1865  1.3377
  281SOL    HW210608   3.005   7.251   2.217  1.5112 -2.3851  0.0475
  282SOL     OW10609   2.559   0.103   0.031 -0.2624  0.1766  0.5516
  282SOL    HW110610   2.604   0.087   0.119  1.1233 -0.7342 -0.3088
  282SOL    HW210611   2.496   0.028   0.011  0.8881 -0.6323 -0.1279
  283SOL     OW10612   4.312   2.336   0.934 -0.1637  0.1382 -0.1185
  283SOL    HW110613   4.284   2.411   0.873  1.3539  1.2416  0.5016
  283SOL    HW210614   4.356   2.264   0.880  3.2144  2.1090 -0.1560
  284SOL     OW10615   3.469   0.937   1.690  0.2359 -0.2695 -0.2999
  284SOL    HW110616   3.385   0.888   1.715  1.7959 -2.7333  0.2876
  284SOL    HW210617   3.501   0.905   1.601  1.9710 -1.3174  0.6702
  285SOL     OW10618   2.772   8.610   2.388  0.0784  0.3877 -0.4293
  285SOL    HW110619   2.777   8.659   2.302 -0.5390 -1.2764 -1.4519
  285SOL    HW210620   2.743   8.515   2.371  0.2366 -0.0549  1.5663
  286SOL     OW10621   2.484   4.050   2.593 -0.5372  0.4503 -0.1371
  286SOL    HW110622   2.552   4.116   2.625 -0.5352  0.0772  0.6353
  286SOL    HW210623   2.474   4.059   2.494  0.6735  0.4770 -0.2693
  287SOL     OW10624   4.031   1.167   0.802  0.6968  0.4366  0.0293
  287SOL    HW110625   4.074   1.185   0.714  0.5029 -1.4791 -0.4885
  287SOL    HW210626   3.951   1.108   0.788 -0.3298  1.4933  1.3069
  288SOL     OW10627   3.585   1.546   1.253  0.3424 -0.3423  0.1904
  288SOL    HW110628   3.505   1.597   1.223  0.4351  0.3464  1.0786
  288SOL    HW210629   3.641   1.521   1.174  0.2500  0.8560 -0.2632
  289SOL     OW10630   2.786   2.256   0.426 -0.6291 -0.1218 -0.2840
  289SOL    HW110631   2.729   2.334   0.402  0.7932  0.9317 -0.3225
  289SOL    HW210632   2.816   2.264   0.521  0.5391  0.0553 -0.6514
  290SOL     OW10633   3.938   1.237   1.987 -0.2867  0.0706 -0.4626
  290SOL    HW110634   3.847   1.265   2.017 -0.6893 -0.0410 -1.5420
  290SOL    HW210635   3.940   1.232   1.887 -0.2095 -3.7386 -0.3286
  291SOL     OW10636   3.286   1.347   0.936 -0.2561 -0.2612  0.0969
  291SOL    HW110637   3.199   1.331   0.890 -0.1216 -0.5713 -0.0482
  291SOL    HW210638   3.273   1.342   1.035 -0.1230 -1.7648  0.0533
  292SOL     OW10639   3.998   1.115   0.222 -0.1832 -0.3478 -0.4842
  292SOL    HW110640   4.072   1.049   0.232 -0.3881 -0.2200  2.1686
  292SOL    HW210641   3.911   1.070   0.242 -0.7282 -0.1903 -2.3984
  293SOL     OW10642   4.034   3.812   2.524 -0.0199 -0.2851 -0.0069
  293SOL    HW110643   4.017   3.722   2.565 -2.6436  0.4829  0.6870
  293SOL    HW210644   4.052   3.878   2.596  0.6411  0.0110 -0.4427
  294SOL     OW10645   2.451   5.585   0.621  0.0027  0.4683  0.7223
  294SOL    HW110646   2.428   5.656   0.688 -1.2409  0.1265  0.6824
  294SOL    HW210647   2.371   5.525   0.608  0.3281  0.3523 -0.8325
  295SOL     OW10648   3.764   2.426   2.402  0.1036 -0.0973  0.6016
  295SOL    HW110649   3.726   2.479   2.478  0.5348 -1.8847  2.0945
  295SOL    HW210650   3.856   2.396   2.424  0.4286 -0.2104 -0.8459
  296SOL     OW10651   2.721   7.652   2.161  0.4031 -0.3048  0.4530
  296SOL    HW110652   2.784   7.637   2.086  1.0913  0.4289  0.8771
  296SOL    HW210653   2.740   7.586   2.234  0.2755 -0.4827  0.3251
  297SOL     OW10654   4.972   2.400   0.727  0.1413  0.1247  0.0791
  297SOL    HW110655   4.977   2.383   0.825 -2.0530  2.4876  0.6631
  297SOL    HW210656   4.989   2.315   0.677  0.6387 -1.2391  2.5011
  298SOL     OW10657   3.740   8.503   0.640  0.0704 -0.1896 -0.5401
  298SOL    HW110658   3.708   8.415   0.673  0.0432 -0.1893 -0.5667
  298SOL    HW210659   3.705   8.519   0.548 -1.2569  0.5531  0.0707
  299SOL     OW10660   2.762   0.597   0.881 -0.2087  0.5080  0.2591
  299SOL    HW110661   2.747   0.622   0.785  1.1995 -0.9124 -0.3552
  299SOL    HW210662   2.697   0.526   0.908  1.8356 -1.8576 -0.8274
  300SOL     OW10663   2.781   5.742   1.680  0.5082 -0.2784 -0.4088
  300SOL    HW110664   2.849   5.686   1.634  0.3085 -1.0577  0.2236
  300SOL    HW210665   2.807   5.838   1.674  3.3976 -0.7931  2.6006
  301SOL     OW10666   2.510   8.284   0.610  0.0825  0.2345  0.6621
  301SOL    HW110667   2.507   8.367   0.554 -4.0786  1.1818  2.0918
  301SOL    HW210668   2.520   8.204   0.550 -0.1040  1.5060 -1.1070
  302SOL     OW10669   3.495   0.930   1.203 -0.1002 -0.0480  0.2187
  302SOL    HW110670   3.532   0.897   1.116  0.0529  0.6137  0.0248
  302SOL    HW210671   3.468   1.026   1.193 -2.0467 -0.5668  0.3166
  303SOL     OW10672   2.523   3.770   1.085 -0.4137  0.3220 -0.2304
  303SOL    HW110673   2.537   3.864   1.115 -1.6812  0.3623  0.2888
  303SOL    HW210674   2.510   3.768   0.986  2.9038  0.2921 -0.7137
  304SOL     OW10675   2.772   5.012   2.397 -0.3213 -0.0673 -0.4749
  304SOL    HW110676   2.871   5.016   2.381 -0.4503 -0.5518 -1.4090
  304SOL    HW210677   2.726   4.987   2.312 -1.4258  2.3691 -0.6224
  305SOL     OW10678   2.979   8.551   1.890  0.1810  0.3353 -0.3110
  305SOL    HW110679   2.958   8.543   1.792  1.1725  1.2172 -0.6028
  305SOL    HW210680   2.965   8.463   1.935 -0.0064 -0.1423 -1.3009
  306SOL     OW10681   3.701   4.913   0.797 -0.4905 -0.3621 -0.2298
  306SOL    HW110682   3.669   4.819   0.808 -1.2184  0.1837  2.5751
  306SOL    HW210683   3.795   4.912   0.763 -0.3482 -2.1055  0.1599
  307SOL     OW10684   2.475   4.168   0.293 -1.1219 -0.5250 -0.6500
  307SOL    HW110685   2.492   4.215   0.380  0.3696 -0.9570 -0.7048
  307SOL    HW210686   2.512   4.223   0.218  0.0895 -1.4744 -0.7668
  308SOL     OW10687   3.576   3.458   0.880  0.3240  0.6079 -0.0166
  308SOL    HW110688   3.670   3.487   0.862  0.0866  2.1109  1.0917
  308SOL    HW210689   3.515   3.497   0.812  0.3166  0.8187  0.1098
  309SOL     OW10690   3.832   0.186   2.572 -0.3904 -0.5553  0.6031
  309SOL    HW110691   3.799   0.208   2.664 -1.6657  0.7222 -0.1295
  309SOL    HW210692   3.772   0.117   2.531  0.6374 -1.7145  0.9972
  310SOL     OW10693   2.486   2.693   0.352  0.4849 -0.1390  0.4234
  310SOL    HW110694   2.474   2.743   0.438  1.3412  0.6728  0.0775
  310SOL    HW210695   2.404   2.703   0.296  1.1837  2.0926 -0.2530
  311SOL     OW10696   2.632   9.294   0.989 -0.3420 -0.1927  0.4151
  311SOL    HW110697   2.638   9.354   1.068 -1.3706  0.9286 -0.3374
  311SOL    HW210698   2.714   9.305   0.932 -0.3329  0.1794  0.4987
  312SOL     OW10699   3.803   1.506   2.578  0.4120  0.2183 -0.1440
  312SOL    HW110700   3.879   1.450   2.610  0.3468 -1.0486 -2.1022
  312SOL    HW210701   3.787   1.488   2.481 -2.9234 -0.1887  0.4054
  313SOL     OW10702   3.540   2.436   1.297 -0.1981  0.3267 -0.4650
  313SOL    HW110703   3.475   2.375   1.344 -0.8026  1.4497  0.1842
  313SOL    HW210704   3.493   2.485   1.224  0.5069 -0.6579 -1.5984
  314SOL     OW10705   4.311   2.381   0.445  0.3893 -0.3652  0.5594
  314SOL    HW110706   4.273   2.430   0.366  0.4303  0.2719  0.9330
  314SOL    HW210707   4.286   2.429   0.529  1.5157 -0.2785  0.8481
  315SOL     OW10708   4.697   3.133   1.270 -0.8841  0.1579 -0.1623
  315SOL    HW110709   4.633   3.112   1.344 -1.6076 -0.7115 -1.0210
  315SOL    HW210710   4.732   3.048   1.231  1.7306  0.6253  1.0669
  316SOL     OW10711   2.103   7.405   1.840 -0.2677  0.6036  0.1415
  316SOL    HW110712   2.190   7.364   1.869 -0.3404  0.2683 -0.0971
  316SOL    HW210713   2.097   7.499   1.873  1.1529  1.3648 -1.6574
  317SOL     OW10714   2.543   7.897   1.023 -0.5286  0.6620 -0.5143
  317SOL    HW110715   2.611   7.970   1.026 -0.9100  0.9494  2.3387
  317SOL    HW210716   2.456   7.930   1.061 -0.9022 -1.0739  0.1778
  318SOL     OW10717   3.051   0.077   0.633  0.4600  0.4362 -0.2367
  318SOL    HW110718   3.009  -0.008   0.603  2.4006 -0.3725 -0.7731
  318SOL    HW210719   3.004   0.112   0.714  0.6828 -2.0267  0.9837
  319SOL     OW10720   3.375   9.896   1.572 -0.7659  0.2065  0.4195
  319SOL    HW110721   3.430   9.979   1.585 -2.2541  1.1796  0.6395
  319SOL    HW210722   3.394   9.832   1.646  1.2516 -0.1501 -0.3731
  320SOL     OW10723   2.474   7.993   0.520  0.3762  0.0930 -0.8451
  320SOL    HW110724   2.374   7.988   0.523  0.3403 -0.2328 -2.0876
  320SOL    HW210725   2.513   7.922   0.577 -0.0891  1.3265  1.0581
  321SOL     OW10726   3.623   9.677   1.952 -0.2074  0.2131  0.4800
  321SOL    HW110727   3.624   9.582   1.984  1.5967  0.1094  0.1877
  321SOL    HW210728   3.607   9.738   2.029 -1.5378 -0.3300  0.6439
  322SOL     OW10729   2.769   8.054   2.324 -0.0535  0.6615 -0.1069
  322SOL    HW110730   2.746   7.967   2.367 -1.1630  1.2546  0.5186
  322SOL    HW210731   2.820   8.037   2.240  1.3751 -0.5325  0.9708
  323SOL     OW10732   3.935   2.112   1.301 -0.1455  0.1537 -0.4233
  323SOL    HW110733   4.010   2.177   1.296 -1.4764  1.6839 -0.7938
  323SOL    HW210734   3.894   2.100   1.211  1.5346 -2.9868 -0.8557
  324SOL     OW10735   3.853   3.214   0.531 -0.0331 -0.2142 -0.1779
  324SOL    HW110736   3.944   3.182   0.556  1.3093  2.1108 -1.9081
  324SOL    HW210737   3.832   3.186   0.437 -0.9160 -0.3264  0.0475
  325SOL     OW10738   2.569   4.611   1.174 -0.8116  0.2126  0.1830
  325SOL    HW110739   2.516   4.658   1.244  0.7586  2.6682 -0.2135
  325SOL    HW210740   2.605   4.525   1.211  1.6021  2.3653  3.0333
  326SOL     OW10741   2.831   1.439   2.449 -0.1085  0.2803 -0.1181
  326SOL    HW110742   2.872   1.437   2.357 -1.3110  0.4137 -0.6699
  326SOL    HW210743   2.732   1.449   2.440 -0.3574 -0.9243  1.1692
  327SOL     OW10744   2.684   7.208   2.243 -0.4732 -0.1074 -0.0715
  327SOL    HW110745   2.607   7.228   2.183  0.6019  1.4819 -0.9552
  327SOL    HW210746   2.701   7.109   2.244 -1.7424 -0.3454 -0.8125
  328SOL     OW10747   3.027   8.790   1.624 -0.5077  0.2450  0.1671
  328SOL    HW110748   2.977   8.705   1.611 -1.6777  0.5030  2.6499
  328SOL    HW210749   2.963   8.867   1.624 -0.0623  0.6451  2.7087
  329SOL     OW10750   2.598   5.978   2.052 -0.1975  0.2739  0.2609
  329SOL    HW110751   2.509   6.023   2.044 -0.1126  0.6706  1.4295
  329SOL    HW210752   2.597   5.894   1.999 -0.9854  0.7049 -0.4320
  330SOL     OW10753   2.773   3.449   1.758 -0.2177  0.3036  0.2781
  330SOL    HW110754   2.708   3.382   1.794 -0.9866  0.8167 -0.1482
  330SOL    HW210755   2.733   3.497   1.680  0.3167  1.2639  0.5818
  331SOL     OW10756   3.235   7.649   2.603  0.6795  0.6775 -0.3026
  331SOL    HW110757   3.157   7.707   2.578  1.0342  0.9426 -0.7997
  331SOL    HW210758   3.317   7.681   2.556  0.7416 -0.6358 -1.1382
  332SOL     OW10759   2.773   4.609   0.103 -0.0755 -0.2337 -0.5253
  332SOL    HW110760   2.753   4.598   0.006 -0.0224  2.5003 -0.8856
  332SOL    HW210761   2.689   4.596   0.156 -1.1031  2.7440 -1.3362
  333SOL     OW10762   3.980   2.153   0.426  0.0923  0.1741 -0.0934
  333SOL    HW110763   3.890   2.121   0.459 -0.6974  0.8328 -1.5474
  333SOL    HW210764   3.978   2.252   0.415  0.7350  0.1031 -0.8938
  334SOL     OW10765   4.457   2.153   0.482 -0.5066 -0.3707 -0.7333
  334SOL    HW110766   4.405   2.236   0.458  0.3429 -0.3529 -2.5701
  334SOL    HW210767   4.408   2.073   0.449 -2.0339 -0.7499  2.2632
  335SOL     OW10768   2.814   3.752   0.321 -0.9427 -0.0299 -0.0384
  335SOL    HW110769   2.748   3.815   0.280  0.6015  1.0433 -0.9302
  335SOL    HW210770   2.836   3.679   0.256 -0.8096 -0.0568  0.0359
  336SOL     OW10771   2.497   0.803   0.733 -0.6132  0.0087 -0.1753
  336SOL    HW110772   2.428   0.842   0.672  0.1490  0.5807 -0.6896
  336SOL    HW210773   2.580   0.859   0.729 -0.1647 -0.5929  0.5409
  337SOL     OW10774   3.122   6.824   2.148 -0.0685  0.0688 -0.3446
  337SOL    HW110775   3.121   6.823   2.248  0.3931  2.2541 -0.3067
  337SOL    HW210776   3.170   6.742   2.115  0.7172 -0.1324  1.2371
  338SOL     OW10777   3.876   2.611   0.413 -0.2370 -0.2284  0.1464
  338SOL    HW110778   3.831   2.692   0.376 -0.6582 -0.6993 -0.3770
  338SOL    HW210779   3.841   2.529   0.367 -0.3092 -0.7642  1.1330
  339SOL     OW10780   3.183   5.745   0.304 -0.2874  0.1641 -0.1405
  339SOL    HW110781   3.273   5.718   0.339 -0.3927 -0.3406 -0.2546
  339SOL    HW210782   3.177   5.725   0.207 -0.1727  1.1173 -0.3504
  340SOL     OW10783   3.794   3.185   1.634  0.6220 -0.2608  0.6947
  340SOL    HW110784   3.888   3.210   1.611  0.1565  0.6328 -0.2653
  340SOL    HW210785   3.765   3.108   1.577  0.5839 -0.1770  0.6010
  341SOL     OW10786   3.888   3.504   0.241 -0.5264 -0.1100  0.2064
  341SOL    HW110787   3.880   3.597   0.277 -0.4130 -0.6443  1.6235
  341SOL    HW210788   3.979   3.468   0.263  0.1985  0.1739 -2.1182
  342SOL     OW10789   2.514   6.501   0.430 -0.2855 -0.2398 -0.1942
  342SOL    HW110790   2.535   6.550   0.515  1.9455  0.7863 -1.2817
  342SOL    HW210791   2.415   6.497   0.417 -0.5763  2.0677  1.0570
  343SOL     OW10792   3.054   1.883   0.388 -0.5510 -0.1448 -0.0151
  343SOL    HW110793   2.989   1.884   0.311 -1.7814  0.1684  1.0168
  343SOL    HW210794   3.138   1.837   0.359 -0.8220  0.3607 -1.6944
  344SOL     OW10795   2.456   4.107   2.328  0.2023  0.2563  0.4354
  344SOL    HW110796   2.440   4.044   2.251 -0.3396  0.3436  0.4759
  344SOL    HW210797   2.414   4.195   2.308 -1.8898 -0.4080  1.7906
  345SOL     OW10798   2.511   5.734   1.931 -0.3158  0.2431 -0.3960
  345SOL    HW110799   2.580   5.678   1.978 -0.0413  0.5775 -0.3981
  345SOL    HW210800   2.488   5.692   1.844 -1.8014 -1.0955  0.6016
  346SOL     OW10801   4.307   2.152   1.596 -0.3264 -0.3189 -0.6665
  346SOL    HW110802   4.211   2.131   1.612 -0.5470  0.9565 -0.2308
  346SOL    HW210803   4.336   2.113   1.509 -0.0982 -4.2854  1.0762
  347SOL     OW10804   3.463   0.402   1.955  0.1611  0.5773 -0.4838
  347SOL    HW110805   3.490   0.361   2.042  1.0655  1.4190 -0.3516
  347SOL    HW210806   3.446   0.500   1.969 -0.3895  0.5763 -1.1155
  348SOL     OW10807   3.542   4.822   0.187 -0.5649  0.4543 -0.2238
  348SOL    HW110808   3.580   4.729   0.187 -1.5309  0.0519 -0.0081
  348SOL    HW210809   3.456   4.823   0.136 -0.3701  1.3094 -0.5327
  349SOL     OW10810   2.510   1.910   2.036 -0.2083  0.0674 -0.3186
  349SOL    HW110811   2.453   1.840   1.994 -0.0564 -0.4249  0.2996
  349SOL    HW210812   2.469   1.940   2.121 -0.5365  1.0986 -0.8307
  350SOL     OW10813   2.400   3.843   1.417 -0.1646  0.0563 -0.2068
  350SOL    HW110814   2.474   3.891   1.370  1.7280 -0.5265  2.0694
  350SOL    HW210815   2.392   3.750   1.382  2.2965 -0.8983  1.6250
  351SOL     OW10816   3.127   2.618   0.744 -0.1137 -0.3864 -0.3641
  351SOL    HW110817   3.067   2.654   0.815  0.8401 -1.7480  1.1778
  351SOL    HW210818   3.072   2.585   0.667 -1.3506 -1.3209  0.8892
  352SOL     OW10819   2.528   5.970   0.792 -0.0708  0.5836 -0.3783
  352SOL    HW110820   2.524   5.978   0.693 -1.1457 -1.3642 -0.5019
  352SOL    HW210821   2.511   5.876   0.819  1.2036  0.8987  1.6152
  353SOL     OW10822   2.594   2.702   1.498 -0.4253 -0.0226 -0.2666
  353SOL    HW110823   2.686   2.715   1.534 -0.6832  0.7080  0.1580
  353SOL    HW210824   2.592   2.623   1.438  0.7579  0.7017 -1.2833
  354SOL     OW10825   2.763   1.642   0.584  0.0945  0.4528 -0.1342
  354SOL    HW110826   2.787   1.619   0.678 -0.6319 -1.1085 -0.3230
  354SOL    HW210827   2.827   1.598   0.521 -1.6160 -1.5626 -0.5173
  355SOL     OW10828   3.272   4.517   0.223  0.1126 -0.7241  0.0452
  355SOL    HW110829   3.263   4.597   0.164 -0.7256 -0.7823  0.0955
  355SOL    HW210830   3.186   4.467   0.225  0.0836 -0.6286  1.4728
  356SOL     OW10831   2.347   0.588   1.199 -0.2823  0.7358 -0.4576
  356SOL    HW110832   2.289   0.569   1.278  1.1511  0.3171  0.5282
  356SOL    HW210833   2.442   0.566   1.222  0.4840  2.8068 -1.5152
  357SOL     OW10834   2.433   8.087   2.282  0.2867  0.5070 -0.5184
  357SOL    HW110835   2.434   8.104   2.380 -0.8272 -0.9453 -0.2440
  357SOL    HW210836   2.449   7.990   2.264 -0.4779  0.5886 -1.7185
  358SOL     OW10837   3.098   1.946   2.089 -0.5574 -0.1438  0.0526
  358SOL    HW110838   3.042   2.027   2.106 -1.2605 -0.4910 -0.5598
  358SOL    HW210839   3.159   1.930   2.166  0.3128  1.5589 -0.2587
  359SOL     OW10840   2.787   5.911   0.594 -0.3063  0.2181  0.0158
  359SOL    HW110841   2.839   5.894   0.510  0.6791 -0.9570  0.8507
  359SOL    HW210842   2.780   5.827   0.647 -0.2075  1.1319  1.5206
  360SOL     OW10843   3.026   0.412   2.208  0.2517  0.1471 -0.0834
  360SOL    HW110844   3.005   0.441   2.115  0.6555 -1.7701 -0.7839
  360SOL    HW210845   3.125   0.411   2.222  0.1953  0.3555  0.3380
  361SOL     OW10846   3.137   3.948   1.601 -0.0221  0.5608  0.0706
  361SOL    HW110847   3.231   3.916   1.603 -0.5776 -1.1798 -0.7178
  361SOL    HW210848   3.088   3.913   1.682 -0.2788  0.5370 -0.0937
  362SOL     OW10849   4.517   3.126   2.317 -0.1767  0.4991 -0.0807
  362SOL    HW110850   4.508   3.097   2.222  0.0128 -0.7423  0.2638
  362SOL    HW210851   4.493   3.050   2.377  1.1075  0.8153  0.8607
  363SOL     OW10852   2.428   0.569   0.898 -0.0727 -0.2196 -0.0571
  363SOL    HW110853   2.467   0.650   0.853 -1.0035  0.4006  0.2349
  363SOL    HW210854   2.377   0.597   0.979  2.4124 -1.4403  1.9729
  364SOL     OW10855   2.661   9.429   0.463  0.0868  0.0224  0.0866
  364SOL    HW110856   2.639   9.503   0.398  0.6989  1.1149  1.1000
  364SOL    HW210857   2.666   9.467   0.555 -0.7507 -1.5236  0.7742
  365SOL     OW10858   4.154   1.351   0.973 -0.5257 -0.2844 -0.6813
  365SOL    HW110859   4.252   1.333   0.977 -0.0559  0.6555 -5.1813
  365SOL    HW210860   4.112   1.293   0.903 -2.8443  0.6363 -0.1107
  366SOL     OW10861   4.113   3.166   0.555  0.8594 -0.4621 -0.2281
  366SOL    HW110862   4.149   3.183   0.647  0.1610 -0.1189 -0.0192
  366SOL    HW210863   4.129   3.070   0.531 -0.2304 -0.9173  0.8155
  367SOL     OW10864   3.799   3.466   0.563  0.2484  0.0186  0.0166
  367SOL    HW110865   3.826   3.476   0.659  1.6918 -1.4041 -0.2195
  367SOL    HW210866   3.834   3.380   0.528 -0.5156  0.4078 -1.7183
  368SOL     OW10867   3.992   2.347   0.885  0.0864  0.6233  0.0926
  368SOL    HW110868   3.895   2.364   0.870  0.4450  2.4872 -0.2183
  368SOL    HW210869   4.024   2.277   0.821 -1.6090 -1.8911  1.9367
  369SOL     OW10870   3.579   8.133   2.001 -0.1771 -0.4046  0.0377
  369SOL    HW110871   3.676   8.160   1.998 -0.9405  2.3745 -2.0534
  369SOL    HW210872   3.563   8.060   1.936  0.3649 -0.2726 -0.2480
  370SOL     OW10873   4.890   2.126   0.902  0.1769 -0.2714 -0.1226
  370SOL    HW110874   4.910   2.147   0.807 -1.0471  0.5863 -0.1897
  370SOL    HW210875   4.835   2.199   0.942 -2.4307 -2.3472  0.2131
  371SOL     OW10876   3.404   8.083   0.122 -0.2256 -0.1897  0.2721
  371SOL    HW110877   3.392   8.083   0.221 -1.6531 -1.1944  0.1213
  371SOL    HW210878   3.474   8.017   0.096  0.1100  0.0359  0.5931
  372SOL     OW10879   2.670   4.598   2.537 -0.0642 -0.0191 -0.4226
  372SOL    HW110880   2.598   4.563   2.477 -0.7848 -0.8020  0.8779
  372SOL    HW210881   2.656   4.696   2.553 -0.0387  0.1290 -1.2819
  373SOL     OW10882   2.581   9.030   1.018  0.8404 -0.4376  0.7754
  373SOL    HW110883   2.581   9.130   1.004  0.8087 -0.2533  2.0840
  373SOL    HW210884   2.632   8.987   0.944 -0.3077  0.4432 -0.5686
  374SOL     OW10885   3.978   9.137   2.116 -0.2439 -0.0935 -0.1743
  374SOL    HW110886   4.061   9.080   2.112 -0.3944 -0.2638 -0.8714
  374SOL    HW210887   3.900   9.080   2.140 -0.3454 -0.1324 -0.5922
  375SOL     OW10888   2.866   1.923   0.191 -0.2643 -0.5664 -0.1681
  375SOL    HW110889   2.821   2.011   0.172 -2.4746 -1.7378 -0.5829
  375SOL    HW210890   2.887   1.878   0.104 -1.7335 -1.6951  0.0417
  376SOL     OW10891   3.395   2.493   2.191  0.2486 -0.3114 -0.3632
  376SOL    HW110892   3.336   2.495   2.111  0.1605 -0.5965 -0.3048
  376SOL    HW210893   3.442   2.406   2.196  2.4301  0.7522 -1.6807
  377SOL     OW10894   4.270   1.728   2.039  0.0425 -0.3843  0.3599
  377SOL    HW110895   4.291   1.630   2.035  0.2891 -0.2926 -0.5283
  377SOL    HW210896   4.352   1.778   2.066 -0.5849 -0.6038  2.7967
  378SOL     OW10897   2.691   9.797   0.668 -0.1480  0.4115 -0.2368
  378SOL    HW110898   2.629   9.725   0.699 -0.4252  0.8721  0.2937
  378SOL    HW210899   2.734   9.840   0.747  0.8225  0.1221 -0.6044
  379SOL     OW10900   2.848   2.332   2.459 -0.3569  0.3191 -0.2277
  379SOL    HW110901   2.800   2.399   2.516  0.0182  0.4677 -0.0887
  379SOL    HW210902   2.852   2.245   2.508  0.1050  0.4904  0.0423
  380SOL     OW10903   3.669   2.780   1.187  0.1704  0.2195 -0.2439
  380SOL    HW110904   3.736   2.832   1.133 -0.8016  1.2061 -0.5163
  380SOL    HW210905   3.617   2.843   1.244 -0.9880 -0.4799 -0.5265
  381SOL     OW10906   2.903   8.944   0.785  0.4057 -0.6933  0.0960
  381SOL    HW110907   2.945   8.925   0.696 -2.6675 -1.5794 -1.2189
  381SOL    HW210908   2.841   8.870   0.809 -0.3975  0.5659  1.9911
  382SOL     OW10909   3.246   1.157   0.624 -0.2115 -0.3673 -0.0561
  382SOL    HW110910   3.341   1.187   0.616 -0.6351  1.3244  0.9235
  382SOL    HW210911   3.195   1.224   0.677 -2.1559 -0.8378 -1.2836
  383SOL     OW10912   4.116   3.917   1.913  0.0637  1.0041 -0.0981
  383SOL    HW110913   4.145   3.848   1.978  2.2267  1.5479 -0.4461
  383SOL    HW210914   4.048   3.878   1.850  0.4675 -0.4722  0.3799
  384SOL     OW10915   2.658   7.635   0.299 -0.2377 -0.4070 -0.6882
  384SOL    HW110916   2.698   7.720   0.335 -2.5066  0.0674  0.7885
  384SOL    HW210917   2.576   7.658   0.246 -0.7595 -1.6648 -0.4297
  385SOL     OW10918   2.953   7.634   2.026  0.9726  0.3002 -0.4118
  385SOL    HW110919   2.968   7.554   1.968  0.0729 -0.4940  0.4253
  385SOL    HW210920   2.992   7.617   2.117  3.2383  1.9069 -1.0347
  386SOL     OW10921   3.357   3.011   0.852  0.1456 -0.7155 -0.0050
  386SOL    HW110922   3.312   3.060   0.778 -1.8514 -1.1769  0.8778
  386SOL    HW210923   3.430   3.068   0.890 -1.6212  1.2513  0.5019
  387SOL     OW10924   3.023   2.714   1.363  0.2582  0.0060 -0.1903
  387SOL    HW110925   3.051   2.807   1.343 -0.3704  0.2831  0.2019
  387SOL    HW210926   3.100   2.664   1.403  0.2491  0.7141  0.7314
  388SOL     OW10927   3.603   1.304   1.713 -0.3545  0.5460 -0.4089
  388SOL    HW110928   3.624   1.226   1.772 -0.0301  1.4174  0.6438
  388SOL    HW210929   3.569   1.271   1.625 -0.9439 -0.7697  0.2967
  389SOL     OW10930   2.902   5.207   1.661 -0.8589 -1.1970 -0.0973
  389SOL    HW110931   2.937   5.153   1.585  0.4074 -1.3404  0.5772
  389SOL    HW210932   2.959   5.290   1.671 -1.3358 -0.9267  0.3670
  390SOL     OW10933   3.236   4.050   2.195 -0.0699 -0.0342 -0.2992
  390SOL    HW110934   3.331   4.079   2.186  0.1328 -0.7632 -0.5708
  390SOL    HW210935   3.212   3.992   2.118 -0.7242  0.1105 -0.2048
  391SOL     OW10936   3.092   7.850   0.302  0.7947 -0.2773 -0.0140
  391SOL    HW110937   3.031   7.873   0.378  0.7459  0.5578 -0.3037
  391SOL    HW210938   3.099   7.928   0.240 -1.4899 -1.9195 -2.4500
  392SOL     OW10939   2.921   8.543   1.618  0.0190 -0.2749  0.8701
  392SOL    HW110940   2.825   8.515   1.616 -0.2606  0.7003  0.5323
  392SOL    HW210941   2.972   8.488   1.551 -0.5960  0.2369 -0.0399
  393SOL     OW10942   2.979   1.576   0.755 -0.2049 -0.5853  0.4268
  393SOL    HW110943   3.031   1.650   0.714 -1.5896 -0.0256 -0.3442
  393SOL    HW210944   2.998   1.491   0.706  0.3670 -0.4872  0.4762
  394SOL     OW10945   4.716   3.537   0.919 -0.2665  0.5371  0.3451
  394SOL    HW110946   4.680   3.540   1.012 -1.1280 -0.6600  0.0678
  394SOL    HW210947   4.816   3.542   0.921 -0.2774  0.5183  1.3221
  395SOL     OW10948   3.333   9.794   2.351 -0.3889 -0.2464 -0.2292
  395SOL    HW110949   3.425   9.809   2.316 -0.7013  0.7639 -0.6235
  395SOL    HW210950   3.326   9.831   2.444 -0.4003 -0.3309 -0.1959
  396SOL     OW10951   2.437   5.296   2.131 -0.5959 -0.3367  0.1012
  396SOL    HW110952   2.453   5.256   2.041 -0.7641 -1.9100  0.7565
  396SOL    HW210953   2.357   5.356   2.127  0.8238  1.4901 -1.3545
  397SOL     OW10954   2.548   6.894   2.397 -0.2197  0.3355 -0.5535
  397SOL    HW110955   2.636   6.916   2.438 -0.9528 -1.1802  1.8796
  397SOL    HW210956   2.558   6.816   2.335  0.0445 -0.1773  0.1352
  398SOL     OW10957   3.206   0.840   2.093  0.1617 -0.1281 -0.0348
  398SOL    HW110958   3.130   0.788   2.133 -0.9480  1.1046 -0.5195
  398SOL    HW210959   3.262   0.880   2.165 -0.5416  0.2371  0.3068
  399SOL     OW10960   2.829   8.420   0.913  0.2418  0.3655 -0.2277
  399SOL    HW110961   2.883   8.465   0.841  0.9601  0.0281  0.0868
  399SOL    HW210962   2.763   8.357   0.871  1.3251 -0.5654 -0.5802
  400SOL     OW10963   2.846   1.164   1.899  0.3820  0.1431  0.1018
  400SOL    HW110964   2.821   1.108   1.820 -0.1107  0.4909  0.0078
  400SOL    HW210965   2.899   1.109   1.963  0.4945 -0.2373 -0.3095
  401SOL     OW10966   4.552   2.301   1.251 -0.6874  0.3186 -0.2907
  401SOL    HW110967   4.609   2.285   1.331 -0.8740 -0.0276 -0.2302
  401SOL    HW210968   4.472   2.355   1.277 -0.5804  0.4871 -0.3072
  402SOL     OW10969   3.132   4.239   1.998 -0.5148 -0.3367  0.3759
  402SOL    HW110970   3.150   4.162   2.059 -3.1861 -1.1086  0.2716
  402SOL    HW210971   3.127   4.324   2.051  1.1083 -0.4107  0.6675
  403SOL     OW10972   2.812   5.554   2.367 -0.0984 -0.9254 -0.6101
  403SOL    HW110973   2.793   5.458   2.346 -1.2210 -0.6123 -1.0933
  403SOL    HW210974   2.747   5.587   2.435 -0.5396 -0.1734 -1.3737
  404SOL     OW10975   3.111   9.883   1.258 -0.5024  0.0900  0.0306
  404SOL    HW110976   3.019   9.852   1.280 -1.3514  1.7438 -1.0917
  404SOL    HW210977   3.153   9.922   1.340 -0.9747 -0.2534  0.4375
  405SOL     OW10978   3.870   8.066   1.372 -0.1944 -0.2748 -0.3305
  405SOL    HW110979   3.819   7.990   1.331  1.2841 -2.1094  1.1387
  405SOL    HW210980   3.938   8.099   1.306  0.5478 -1.6123 -0.2537
  406SOL     OW10981   4.482   3.123   1.461  0.1836  0.3597  0.0044
  406SOL    HW110982   4.395   3.169   1.442  0.1963 -0.0411 -1.0666
  406SOL    HW210983   4.546   3.187   1.503  0.6776  1.7210 -2.6848
  407SOL     OW10984   2.938   3.103   1.388  0.5391  0.0815 -0.1274
  407SOL    HW110985   2.862   3.039   1.378  1.4629 -1.3010  1.5826
  407SOL    HW210986   2.904   3.197   1.379 -1.4001 -0.5057  0.9221
  408SOL     OW10987   3.244   8.095   0.605 -0.7305  0.6535  0.1084
  408SOL    HW110988   3.169   8.106   0.670  1.9436 -1.6915  3.7893
  408SOL    HW210989   3.298   8.179   0.601 -0.4059  0.5242  1.6042
  409SOL     OW10990   3.747   4.571   1.121  0.1621 -0.5739  0.0399
  409SOL    HW110991   3.843   4.546   1.111  0.6606  1.3285  0.0283
  409SOL    HW210992   3.738   4.648   1.183 -1.2637 -0.0734 -0.7576
  410SOL     OW10993   2.705   1.596   1.414  0.6801 -0.4711  0.5607
  410SOL    HW110994   2.661   1.507   1.423  3.1723 -1.7170  0.9822
  410SOL    HW210995   2.764   1.612   1.493  3.5088 -0.3594 -1.5029
  411SOL     OW10996   3.872   0.414   0.586 -0.4752  0.1162  0.6703
  411SOL    HW110997   3.895   0.341   0.650  0.1983  0.1613  0.4794
  411SOL    HW210998   3.937   0.414   0.510 -0.2912  1.1022  0.8216
  412SOL     OW10999   3.225   6.556   2.149 -0.1196  0.4020  0.0329
  412SOL    HW111000   3.262   6.470   2.182 -1.2536  0.5739  1.8493
  412SOL    HW211001   3.191   6.544   2.056  1.8421 -0.4856 -0.5882
  413SOL     OW11002   2.721   8.695   0.944  0.5839  0.2435 -0.8097
  413SOL    HW111003   2.631   8.682   0.901  0.0690 -0.1789  0.3591
  413SOL    HW211004   2.776   8.612   0.932 -0.4875 -0.8399  1.4803
  414SOL     OW11005   3.558   1.176   1.491  0.0073  0.1410  0.2406
  414SOL    HW111006   3.620   1.098   1.493  1.3599  1.1879 -0.4486
  414SOL    HW211007   3.531   1.196   1.397  0.2098  0.9162  0.3359
  415SOL     OW11008   3.072   1.572   1.231 -0.4579 -0.2766  0.6850
  415SOL    HW111009   3.051   1.667   1.255 -0.6665 -0.1678  0.0858
  415SOL    HW211010   2.988   1.518   1.231 -0.5618 -0.1253 -0.4514
  416SOL     OW11011   2.793   2.766   2.531 -0.2194  0.1850 -0.6031
  416SOL    HW111012   2.747   2.713   2.603 -0.8450 -0.6204 -1.5905
  416SOL    HW211013   2.835   2.704   2.465  0.6027  0.9260 -0.7880
  417SOL     OW11014   2.784   9.841   1.583 -0.5955  0.5334 -0.4134
  417SOL    HW111015   2.727   9.920   1.562 -0.4639  0.2959 -1.6941
  417SOL    HW211016   2.726   9.759   1.592 -0.5703  0.4916 -0.6331
  418SOL     OW11017   2.578   3.115   1.136  0.2500  0.0187  0.2684
  418SOL    HW111018   2.627   3.115   1.049 -0.1569  0.0474  0.0408
  418SOL    HW211019   2.613   3.041   1.194 -0.3728 -0.8104 -0.4160
  419SOL     OW11020   2.511   9.981   1.569  0.5221 -0.5364  0.2665
  419SOL    HW111021   2.463   9.911   1.623 -0.3760 -0.6349 -0.6447
  419SOL    HW211022   2.509   9.955   1.473 -1.6708  1.7768 -0.3698
  420SOL     OW11023   4.669   2.538   0.443  0.5317 -0.4157  0.2645
  420SOL    HW111024   4.667   2.441   0.468  1.4834 -0.4084  0.3744
  420SOL    HW211025   4.744   2.583   0.490 -0.4672  0.5864  0.9257
  421SOL     OW11026   3.619   5.066   1.022 -0.5774 -0.2008  0.4769
  421SOL    HW111027   3.644   5.001   0.950  1.2540  0.0557  0.8481
  421SOL    HW211028   3.594   5.153   0.980 -0.1577 -0.2489  0.1214
  422SOL     OW11029   4.735   2.221   1.438  0.3669 -0.2779  0.1693
  422SOL    HW111030   4.715   2.189   1.531 -0.0582 -0.6339 -0.0393
  422SOL    HW211031   4.726   2.144   1.375 -1.7832  0.4813 -0.5075
  423SOL     OW11032   2.878   6.397   0.705  0.1913  0.6473 -0.6235
  423SOL    HW111033   2.835   6.387   0.615  1.4190 -1.8430 -0.9692
  423SOL    HW211034   2.808   6.389   0.776  0.0007 -3.3925 -1.1777
  424SOL     OW11035   3.533   4.562   0.161  0.4345  0.2355 -0.2700
  424SOL    HW111036   3.573   4.480   0.120  0.8839 -0.8794  2.3287
  424SOL    HW211037   3.437   4.545   0.181  0.3193  0.6466 -0.4656
  425SOL     OW11038   2.928   3.578   1.930  0.0123  0.3204 -0.1871
  425SOL    HW111039   2.846   3.550   1.880 -0.8150  2.5373 -0.1616
  425SOL    HW211040   2.934   3.527   2.015 -2.2617  1.2287  0.5695
  426SOL     OW11041   3.565   7.589   0.115 -0.7736  0.1023  0.5523
  426SOL    HW111042   3.480   7.537   0.131 -1.2651  0.3859 -1.0225
  426SOL    HW211043   3.619   7.542   0.045 -0.0497  0.4017  0.9109
  427SOL     OW11044   2.907   4.524   1.321  0.9432  0.4668 -0.3359
  427SOL    HW111045   2.977   4.452   1.324 -0.8309 -1.3397 -1.0982
  427SOL    HW211046   2.844   4.511   1.398 -0.2109  0.3235 -1.2944
  428SOL     OW11047   3.966   3.571   2.656  0.2766 -0.0206 -0.2388
  428SOL    HW111048   4.042   3.529   2.607  0.9996  0.8373  0.1393
  428SOL    HW211049   3.966   3.541   2.751 -1.5191 -2.2062 -0.8876
  429SOL     OW11050   2.761   9.207   0.275 -0.4015 -0.1399  0.5375
  429SOL    HW111051   2.727   9.114   0.262  2.2404 -0.8623 -1.6976
  429SOL    HW211052   2.728   9.243   0.362 -2.5410 -2.6609  0.8215
  430SOL     OW11053   4.175   1.612   1.083 -0.6307 -0.0178 -0.0690
  430SOL    HW111054   4.079   1.640   1.093 -0.8576 -0.6709 -0.3448
  430SOL    HW211055   4.178   1.524   1.034  0.1556  0.4311 -0.8211
  431SOL     OW11056   3.222   0.818   1.804  0.1999 -0.0565 -0.4363
  431SOL    HW111057   3.160   0.748   1.769 -0.9107  0.2001  0.9501
  431SOL    HW211058   3.226   0.811   1.904 -0.0512  1.9508 -0.2709
  432SOL     OW11059   2.619   7.962   0.284  0.2114 -0.4021 -0.3596
  432SOL    HW111060   2.559   7.956   0.364 -0.1068  1.8922 -0.4150
  432SOL    HW211061   2.709   7.927   0.308  0.3271  0.9408  1.2318
  433SOL     OW11062   2.557   5.691   0.383  0.3638 -0.4075  0.0376
  433SOL    HW111063   2.521   5.650   0.467  0.9416  0.9675  0.9794
  433SOL    HW211064   2.509   5.776   0.365  1.0528 -0.0994 -0.3696
  434SOL     OW11065   2.851   9.353  -0.003 -0.4451  0.2742 -0.5319
  434SOL    HW111066   2.774   9.317   0.049  0.3107 -1.0199 -0.2782
  434SOL    HW211067   2.934   9.351   0.054  0.5177 -1.7210 -1.9624
  435SOL     OW11068   3.369   0.611   0.252 -0.4274 -0.1275  0.0879
  435SOL    HW111069   3.303   0.548   0.294 -0.6201 -0.4977 -0.7550
  435SOL    HW211070   3.321   0.675   0.193  0.0057 -0.7413 -0.9531
  436SOL     OW11071   3.310   4.773   0.051 -0.2719  0.4816 -0.1856
  436SOL    HW111072   3.283   4.699  -0.010 -0.3869  0.9461 -0.7073
  436SOL    HW211073   3.247   4.850   0.039  0.4094  1.0195 -0.3462
  437SOL     OW11074   2.916   9.729   1.370  0.1470 -0.1320 -0.2176
  437SOL    HW111075   2.996   9.685   1.411  0.2031 -0.1223 -0.3158
  437SOL    HW211076   2.852   9.756   1.442  0.9338  1.2528 -0.0387
  438SOL     OW11077   2.480   6.161   1.195 -0.1077  0.2721 -0.4056
  438SOL    HW111078   2.466   6.256   1.222 -0.4831  0.0678  0.1280
  438SOL    HW211079   2.542   6.157   1.117  0.0668  0.9402 -0.3002
  439SOL     OW11080   2.953   7.772   0.912  0.2738 -0.1182  0.5186
  439SOL    HW111081   2.906   7.762   0.825  0.2428  1.5006  0.3334
  439SOL    HW211082   2.922   7.856   0.957  0.7730 -0.5970  1.7827
  440SOL     OW11083   3.407   4.003   1.625  0.2784 -0.0890 -0.4208
  440SOL    HW111084   3.495   4.009   1.578  1.5265 -0.2988  1.8109
  440SOL    HW211085   3.423   3.998   1.724 -2.3110  1.1825  0.0776
  441SOL     OW11086   2.833   2.701   1.176 -0.1324 -0.7186  0.1213
  441SOL    HW111087   2.805   2.614   1.136  1.0659 -1.4994  0.9394
  441SOL    HW211088   2.907   2.685   1.242 -1.5797  0.5913  2.1357
  442SOL     OW11089   4.672   2.372   1.940  0.0699 -0.3956  0.1604
  442SOL    HW111090   4.659   2.346   2.035  1.1903 -0.4613  0.3043
  442SOL    HW211091   4.710   2.295   1.889 -2.4151 -1.0192 -0.8092
  443SOL     OW11092   3.308   0.009   0.688 -0.0812  0.1472 -0.1916
  443SOL    HW111093   3.233   0.046   0.633  0.7835  1.2183 -0.6527
  443SOL    HW211094   3.395   0.026   0.642  0.5348 -0.2600  0.8028
  444SOL     OW11095   4.197   0.598   1.538 -0.6173  0.1797 -0.0085
  444SOL    HW111096   4.264   0.591   1.613 -1.1868 -0.4576  0.4509
  444SOL    HW211097   4.121   0.655   1.567 -1.3701 -0.9666  0.3105
  445SOL     OW11098   2.584   6.472   1.239  0.0552  0.0452 -0.4633
  445SOL    HW111099   2.650   6.542   1.266  2.0075 -1.6365 -0.7321
  445SOL    HW211100   2.554   6.488   1.145 -2.5155  2.7128  0.7164
  446SOL     OW11101   3.674   0.610   2.120 -0.3107 -0.2222  0.2539
  446SOL    HW111102   3.731   0.578   2.197 -0.4089  0.0725  0.4492
  446SOL    HW211103   3.709   0.570   2.035  0.5201  0.3747  0.3064
  447SOL     OW11104   3.166   1.391   1.546  0.1860 -0.0548  0.4499
  447SOL    HW111105   3.081   1.386   1.598  0.3307 -0.1124  0.6845
  447SOL    HW211106   3.188   1.487   1.527 -1.6424 -0.1696 -2.4652
  448SOL     OW11107   4.376   3.509   2.452 -0.1851 -0.2142  0.2538
  448SOL    HW111108   4.357   3.604   2.480  0.1165  0.0702 -0.4823
  448SOL    HW211109   4.467   3.504   2.411 -0.3308 -0.7598 -0.0082
  449SOL     OW11110   4.286   2.240   1.853 -0.3414 -0.2638  0.1031
  449SOL    HW111111   4.257   2.331   1.826  0.0700  0.1006  0.8766
  449SOL    HW211112   4.339   2.198   1.779  0.0251  0.3765  0.0055
  450SOL     OW11113   3.925   0.426   0.932  0.4354  0.2985  0.0339
  450SOL    HW111114   3.830   0.395   0.943  0.5198  0.3251  0.8988
  450SOL    HW211115   3.933   0.521   0.964  0.9237  0.0240  0.7379
  451SOL     OW11116   2.510   3.366   0.071  0.1028  0.2865 -0.1196
  451SOL    HW111117   2.554   3.328  -0.010  0.2173  0.0559  0.0514
  451SOL    HW211118   2.485   3.461   0.054  1.1542  0.5835 -0.0282
  452SOL     OW11119   4.089   1.453   2.054 -0.2970 -0.3467  1.0227
  452SOL    HW111120   4.041   1.366   2.043 -0.2827 -0.2866  0.4732
  452SOL    HW211121   4.073   1.511   1.974 -0.3542  0.1808  1.4093
  453SOL     OW11122   3.959   1.538   0.310 -0.2770 -0.3434 -0.5271
  453SOL    HW111123   3.951   1.456   0.367  0.5147 -0.3615 -0.4429
  453SOL    HW211124   3.916   1.615   0.358 -3.0779 -1.1777 -1.5987
  454SOL     OW11125   3.521   4.658   0.624  0.1996 -0.6032 -0.1294
  454SOL    HW111126   3.443   4.679   0.683  0.1281  3.8335 -1.6077
  454SOL    HW211127   3.600   4.637   0.681 -0.6000  0.7385  1.5374
  455SOL     OW11128   3.899   1.886   0.695  0.3561 -0.0868  0.3274
  455SOL    HW111129   3.990   1.869   0.657  0.5689  1.3536  0.1487
  455SOL    HW211130   3.861   1.801   0.731  1.3525 -0.8979 -0.5084
  456SOL     OW11131   4.476   1.829   2.424 -0.5318  0.5033  0.2867
  456SOL    HW111132   4.538   1.885   2.480 -0.4350 -0.4913  1.1957
  456SOL    HW211133   4.405   1.791   2.483 -0.1339 -0.9676 -0.1733
  457SOL     OW11134   3.367   5.175   1.068  0.0372 -0.6224  0.0168
  457SOL    HW111135   3.454   5.125   1.069  0.2383 -0.3553 -1.7200
  457SOL    HW211136   3.330   5.174   0.975 -1.3585  0.0728  0.5554
  458SOL     OW11137   4.232   3.218   1.285 -0.1661  0.1087 -0.2799
  458SOL    HW111138   4.167   3.148   1.257 -1.3180  1.4787 -1.1026
  458SOL    HW211139   4.317   3.208   1.233  0.1285 -1.3962  0.4671
  459SOL     OW11140   2.368   2.609   0.887  0.8076 -0.2983 -0.4809
  459SOL    HW111141   2.319   2.523   0.870  0.1345 -0.0354  0.1176
  459SOL    HW211142   2.379   2.623   0.985  0.5065  0.5373 -0.5631
  460SOL     OW11143   3.898   2.182   2.086  0.3143 -0.0903  0.0642
  460SOL    HW111144   3.933   2.273   2.064  1.4452 -0.6144 -0.3651
  460SOL    HW211145   3.950   2.113   2.036  1.1991 -1.1514  2.3555
  461SOL     OW11146   2.770   0.955  -0.000  0.5491 -0.0905 -0.2795
  461SOL    HW111147   2.786   1.024  -0.071  1.4616 -0.5567 -0.5336
  461SOL    HW211148   2.742   1.001   0.084  2.4671  0.7307 -0.0494
  462SOL     OW11149   3.102   9.559   0.941  0.5760  0.1333  0.2477
  462SOL    HW111150   3.163   9.629   0.978  0.0365  0.6409  0.1834
  462SOL    HW211151   3.149   9.471   0.941  1.3003  0.5128  0.2288
  463SOL     OW11152   3.431   3.087   2.332 -0.5192  0.4328  0.3225
  463SOL    HW111153   3.528   3.082   2.354 -0.3621  1.7057 -0.0713
  463SOL    HW211154   3.405   3.009   2.275  0.4584  0.5460 -0.2808
  464SOL     OW11155   2.748   7.149   1.105 -0.0214  0.1829 -0.4338
  464SOL    HW111156   2.687   7.227   1.096 -0.4314 -0.3380 -2.3779
  464SOL    HW211157   2.789   7.128   1.016  1.0665 -1.0276  0.3321
  465SOL     OW11158   3.369   1.943   0.528  1.0616 -0.1136  0.8400
  465SOL    HW111159   3.432   1.983   0.461 -0.6410  0.2346 -0.5867
  465SOL    HW211160   3.350   1.848   0.503 -0.7686  0.4734 -0.0629
  466SOL     OW11161   2.324   3.110   0.549 -0.3343  0.0575  0.0274
  466SOL    HW111162   2.352   3.125   0.455  1.2031 -0.2026  0.4265
  466SOL    HW211163   2.364   3.180   0.608 -2.1951  0.8813  0.3454
  467SOL     OW11164   2.593   8.544   0.546 -0.5869  0.5058 -0.2880
  467SOL    HW111165   2.544   8.523   0.462  0.6524 -0.0580 -0.8947
  467SOL    HW211166   2.639   8.632   0.537  1.3090 -0.5368 -1.0343
  468SOL     OW11167   2.354   7.320   1.926  0.3104 -0.3303  0.6737
  468SOL    HW111168   2.414   7.240   1.920 -0.7629 -1.1841  1.1102
  468SOL    HW211169   2.389   7.382   1.996  1.3225 -0.2768  0.1206
  469SOL     OW11170   2.354   6.241   1.710 -0.4275 -0.3388 -0.0714
  469SOL    HW111171   2.362   6.303   1.632  0.7953 -0.5167 -0.1000
  469SOL    HW211172   2.428   6.173   1.706 -0.7654 -0.7656  0.8695
  470SOL     OW11173   2.284   9.535   1.863  0.7872  0.3054  0.4804
  470SOL    HW111174   2.193   9.505   1.890  0.6437  0.8597  0.6103
  470SOL    HW211175   2.307   9.497   1.773  1.1045 -1.2290  1.1894
  471SOL     OW11176   3.006   8.841   0.548  0.1244 -0.2454 -0.8010
  471SOL    HW111177   3.094   8.851   0.595 -0.6319  1.4182  0.3123
  471SOL    HW211178   3.013   8.878   0.456  0.2781  0.9196 -0.3221
  472SOL     OW11179   2.640   2.646   0.071 -0.2069 -0.0853 -0.0141
  472SOL    HW111180   2.665   2.658   0.167 -1.5247  0.1398  0.3179
  472SOL    HW211181   2.563   2.706   0.049 -0.7309 -1.0564 -0.8675
  473SOL     OW11182   3.655   0.415   1.195 -0.1302  0.0002  0.0335
  473SOL    HW111183   3.600   0.347   1.146 -0.1742  1.1345 -1.5621
  473SOL    HW211184   3.600   0.456   1.267 -1.5469  1.3619 -1.7679
  474SOL     OW11185   2.695   1.210   0.860  0.5248  0.3855 -0.6420
  474SOL    HW111186   2.711   1.309   0.858  1.7500  0.1825 -1.4589
  474SOL    HW211187   2.718   1.175   0.951  0.0669  0.8473 -0.3428
  475SOL     OW11188   3.936   0.866   0.781  0.3135 -0.2800  0.0301
  475SOL    HW111189   3.870   0.832   0.713  1.0023 -2.5321  0.4290
  475SOL    HW211190   4.029   0.846   0.749  0.6453 -1.2170  1.5535
  476SOL     OW11191   2.746   0.103   1.220  0.0646  0.2240 -0.2289
  476SOL    HW111192   2.839   0.124   1.190 -0.0452 -0.5645 -1.1793
  476SOL    HW211193   2.683   0.116   1.143 -0.2784 -1.4912 -0.2628
  477SOL     OW11194   3.705   2.107   2.282 -0.7267 -0.3244 -0.2149
  477SOL    HW111195   3.775   2.110   2.211 -0.5478 -0.7347 -0.0543
  477SOL    HW211196   3.689   2.200   2.317 -0.9324 -0.0947 -0.9001
  478SOL     OW11197   2.989   1.182   1.024  0.2887  0.2363  0.5295
  478SOL    HW111198   2.958   1.232   1.105 -1.6110  0.1180 -0.0985
  478SOL    HW211199   3.016   1.089   1.050 -1.7709 -0.3020  0.8122
  479SOL     OW11200   3.732   4.159   1.984 -0.0588  0.0534 -0.4133
  479SOL    HW111201   3.813   4.116   2.026 -1.1826 -3.9574 -2.1882
  479SOL    HW211202   3.745   4.165   1.885 -1.2030  1.0994 -0.5078
  480SOL     OW11203   3.499   1.104   0.214  0.2691  0.1340 -0.0971
  480SOL    HW111204   3.447   1.037   0.268  1.5183 -1.5096 -0.8708
  480SOL    HW211205   3.436   1.158   0.158 -0.7113 -1.0609 -0.1811
  481SOL     OW11206   3.702   3.061   2.365  0.5107 -0.2658 -0.4034
  481SOL    HW111207   3.710   2.965   2.394 -0.8189 -0.7772 -1.6381
  481SOL    HW211208   3.792   3.103   2.362  0.9142 -0.8334  2.2739
  482SOL     OW11209   2.769   0.759   1.364  0.1096  0.5939  0.2794
  482SOL    HW111210   2.756   0.853   1.333  1.0572  1.1031  1.3629
  482SOL    HW211211   2.864   0.731   1.346  0.3079  0.4500  1.5167
  483SOL     OW11212   4.611   3.472   1.209 -0.1687 -0.3512  0.1278
  483SOL    HW111213   4.660   3.463   1.295 -2.2625 -1.2299  1.2717
  483SOL    HW211214   4.595   3.381   1.170 -1.9289 -0.1879  0.4130
  484SOL     OW11215   3.643   3.864   2.554 -0.5364  0.1824  0.2132
  484SOL    HW111216   3.669   3.767   2.561  0.7026  0.4539 -0.4523
  484SOL    HW211217   3.689   3.916   2.626  0.6623  0.6421 -0.8687
  485SOL     OW11218   3.380   4.140   0.122 -0.6469  0.2341  0.5347
  485SOL    HW111219   3.374   4.103   0.029 -1.4095  1.1574  0.2226
  485SOL    HW211220   3.289   4.146   0.162 -0.5880  2.2316  0.4117
  486SOL     OW11221   3.510   0.149   1.572  0.7364 -0.2693  0.1479
  486SOL    HW111222   3.459   0.230   1.545  0.8584  0.2863  1.5483
  486SOL    HW211223   3.591   0.140   1.514  0.6034  0.4709 -0.1561
  487SOL     OW11224   4.740   1.765   0.710  0.5784 -0.2981  0.0713
  487SOL    HW111225   4.697   1.735   0.625  0.1972 -2.5999  1.0378
  487SOL    HW211226   4.707   1.856   0.734  0.5862  0.3281 -2.1523
  488SOL     OW11227   3.187   0.763   0.452 -0.2646  0.2727  0.6629
  488SOL    HW111228   3.094   0.736   0.424 -0.6198  0.1766  1.8777
  488SOL    HW211229   3.228   0.821   0.382 -0.8898 -0.4566 -0.3132
  489SOL     OW11230   3.625   7.912   0.336 -0.0582 -0.0593  0.3760
  489SOL    HW111231   3.593   8.003   0.362 -1.7939 -0.9542  1.5032
  489SOL    HW211232   3.628   7.905   0.236 -1.8664  0.6044  0.2477
  490SOL     OW11233   3.333   2.761   0.236  0.4108 -0.2398  1.1788
  490SOL    HW111234   3.350   2.830   0.166  0.1081  0.7189  2.0505
  490SOL    HW211235   3.306   2.805   0.321  0.6071 -1.4152  1.8579
  491SOL     OW11236   3.908   0.019   2.040  0.2099 -0.4265 -0.1101
  491SOL    HW111237   3.927  -0.063   1.986  0.0117 -0.2209 -0.4889
  491SOL    HW211238   3.892  -0.007   2.135 -0.6548 -0.8991 -0.3889
  492SOL     OW11239   3.020   4.172   0.821  0.4835  0.0177  1.1086
  492SOL    HW111240   2.995   4.151   0.727  1.0558  3.4707  0.1205
  492SOL    HW211241   2.941   4.159   0.881 -1.4197  2.8742 -0.6864
  493SOL     OW11242   4.132   2.458   2.246  0.4330  0.2377  0.5993
  493SOL    HW111243   4.109   2.551   2.274  0.3219  0.3708  0.0754
  493SOL    HW211244   4.100   2.443   2.152 -0.0556 -0.5118  0.8789
  494SOL     OW11245   2.810   0.671   1.631  0.3717  0.1519 -0.8147
  494SOL    HW111246   2.766   0.708   1.549 -0.7644  1.8100  0.5139
  494SOL    HW211247   2.779   0.577   1.646 -0.0212  0.1124 -1.8175
  495SOL     OW11248   2.800   7.432   2.312 -0.8444 -0.3153  0.2206
  495SOL    HW111249   2.896   7.418   2.334 -0.3623  0.8166 -1.0672
  495SOL    HW211250   2.759   7.346   2.283  0.1689 -0.4973 -0.6888
  496SOL     OW11251   5.285   2.834   1.288  0.2499 -0.2997 -0.1888
  496SOL    HW111252   5.262   2.739   1.306 -1.4273  0.1597  0.2108
  496SOL    HW211253   5.203   2.890   1.295  1.0126  1.0320 -1.4740
  497SOL     OW11254   3.022   2.034   0.874  0.3547  0.5551 -0.4241
  497SOL    HW111255   3.013   2.017   0.776  1.9159 -1.8582 -0.2031
  497SOL    HW211256   3.111   2.076   0.892  0.4339  0.1813  0.0502
  498SOL     OW11257   3.561   1.999   2.619 -0.1584 -0.4922 -0.4180
  498SOL    HW111258   3.627   2.053   2.670 -0.6400 -1.6598  1.4764
  498SOL    HW211259   3.607   1.952   2.544  1.5177 -2.6234  1.8782
  499SOL     OW11260   3.146   9.127   1.063 -0.3673 -0.1123  0.5046
  499SOL    HW111261   3.216   9.060   1.037  0.7313  1.3889 -0.4949
  499SOL    HW211262   3.059   9.101   1.022  0.2156 -0.5690 -0.4913
  500SOL     OW11263   4.271   1.157   1.309 -0.1226  0.4719  0.7106
  500SOL    HW111264   4.299   1.103   1.230  1.2183  1.0085  0.8097
  500SOL    HW211265   4.174   1.182   1.300 -0.5528 -1.2838  0.3050
  501SOL     OW11266   2.721   2.992   1.674  0.1747  0.3065  0.6532
  501SOL    HW111267   2.681   3.064   1.618 -0.4227 -0.6504 -0.1611
  501SOL    HW211268   2.760   2.921   1.615 -0.8151 -0.8999  1.4191
  502SOL     OW11269   2.912   2.926   2.343  0.4027 -0.1810 -0.2633
  502SOL    HW111270   2.885   3.000   2.283 -0.4718  0.2528  0.6482
  502SOL    HW211271   2.842   2.913   2.414 -0.6615 -3.4568 -1.8288
  503SOL     OW11272   3.902   3.905   0.377 -0.2232  0.1620 -0.0451
  503SOL    HW111273   3.927   3.809   0.388 -1.4022  0.2084  3.5613
  503SOL    HW211274   3.982   3.962   0.393 -0.2967 -0.0951  1.2621
  504SOL     OW11275   2.642   9.005   1.975 -0.3114 -0.1660 -0.2498
  504SOL    HW111276   2.564   9.066   1.959  1.0490  1.8009  0.4977
  504SOL    HW211277   2.608   8.918   2.012 -2.0260  1.3408  1.8916
  505SOL     OW11278   3.893   0.838   1.046  0.3212  0.0847 -0.0717
  505SOL    HW111279   3.919   0.827   0.950  2.3366 -0.8775  0.5629
  505SOL    HW211280   3.850   0.754   1.079  2.3669 -0.6786  0.6915
  506SOL     OW11281   3.479   1.353   2.652  0.2065 -0.1960 -0.0336
  506SOL    HW111282   3.543   1.332   2.726  1.1923  1.2684 -0.4677
  506SOL    HW211283   3.483   1.281   2.583  1.0516 -0.3402  0.1610
  507SOL     OW11284   2.502   5.395   0.841  0.9684 -0.4176 -0.0180
  507SOL    HW111285   2.431   5.335   0.805  1.9536 -1.0088 -1.0117
  507SOL    HW211286   2.519   5.469   0.776  1.3510 -0.3506  0.1574
  508SOL     OW11287   4.728   2.305   1.051  0.2828  0.2150 -0.2280
  508SOL    HW111288   4.798   2.367   1.087 -1.1699  2.4912 -1.2230
  508SOL    HW211289   4.649   2.304   1.112 -0.0110 -0.0602 -0.6081
  509SOL     OW11290   3.606   3.160   0.894 -0.3266  0.1804  0.0031
  509SOL    HW111291   3.597   3.191   0.799  0.3630  0.2410 -0.0412
  509SOL    HW211292   3.675   3.215   0.941 -0.6332  0.1196  0.5279
  510SOL     OW11293   2.576   1.332   1.180 -0.3639 -0.0421  0.0042
  510SOL    HW111294   2.574   1.234   1.159  1.0063  0.3639 -2.1474
  510SOL    HW211295   2.509   1.380   1.124 -0.7399  0.3129  0.7548
  511SOL     OW11296   3.954   8.459   1.789  0.0081 -0.6949  0.0148
  511SOL    HW111297   3.988   8.520   1.860 -0.7530 -1.4945  1.0946
  511SOL    HW211298   4.030   8.427   1.733  0.5054  0.6204 -0.0759
  512SOL     OW11299   3.604   0.271   0.473  0.2126  0.3404  0.3730
  512SOL    HW111300   3.583   0.309   0.382  2.0318  0.0479 -0.1915
  512SOL    HW211301   3.693   0.306   0.503  0.1465 -0.4834  1.5278
  513SOL     OW11302   3.454   3.808   0.882  0.1458 -0.0767 -0.1933
  513SOL    HW111303   3.424   3.736   0.945  0.9397 -0.2164  0.0321
  513SOL    HW211304   3.552   3.821   0.891 -0.0543  1.3483  0.0810
  514SOL     OW11305   2.364   3.160   0.284  0.0076 -0.6751 -0.7133
  514SOL    HW111306   2.402   3.231   0.225  0.4748  0.4661  0.9123
  514SOL    HW211307   2.266   3.150   0.265 -0.8152  2.7391  1.2388
  515SOL     OW11308   3.481   9.060   1.159 -0.2100 -0.2274 -1.3133
  515SOL    HW111309   3.464   9.135   1.223 -2.4279 -0.1844 -1.9276
  515SOL    HW211310   3.544   9.091   1.087 -0.5798  0.8334 -1.1876
  516SOL     OW11311   2.459   2.170   2.581  0.3413  0.4543  0.2112
  516SOL    HW111312   2.502   2.253   2.616 -0.0556  0.2891  1.1211
  516SOL    HW211313   2.365   2.165   2.615  0.6751 -0.8468  0.9813
  517SOL     OW11314   3.948   4.825   0.658  0.1750 -0.1718  0.3041
  517SOL    HW111315   3.976   4.875   0.576  2.1625 -0.4001  0.8282
  517SOL    HW211316   3.916   4.734   0.631 -1.0871  0.4694 -0.4022
  518SOL     OW11317   2.565   2.411   0.703 -0.0613 -0.3372  0.0539
  518SOL    HW111318   2.597   2.338   0.763 -0.2736  1.0048  1.8391
  518SOL    HW211319   2.616   2.495   0.723 -2.0220  0.8322  0.2729
  519SOL     OW11320   4.893   3.226   1.534  0.1740 -0.4075 -0.2437
  519SOL    HW111321   4.984   3.200   1.504  0.0941 -0.8015 -0.1430
  519SOL    HW211322   4.900   3.291   1.610  0.3704 -0.0249 -0.5880
  520SOL     OW11323   4.260   3.782   2.374 -0.2659 -0.2807 -0.0856
  520SOL    HW111324   4.344   3.800   2.426  0.3086 -1.0370 -0.7487
  520SOL    HW211325   4.181   3.789   2.435  0.3582 -0.5918  0.7689
  521SOL     OW11326   4.099   1.892   0.480  0.2924 -0.1519  0.4982
  521SOL    HW111327   4.060   1.982   0.462  0.8424 -0.4939 -2.6218
  521SOL    HW211328   4.192   1.887   0.443 -0.0975 -2.3149 -0.2477
  522SOL     OW11329   2.657   3.381   0.307  0.1375 -0.3104 -0.6509
  522SOL    HW111330   2.630   3.375   0.211  3.5461 -1.1013 -1.6269
  522SOL    HW211331   2.655   3.291   0.349 -1.4953  0.0570  0.0713
  523SOL     OW11332   4.269   1.722   2.615 -0.2243 -0.7980  0.5532
  523SOL    HW111333   4.263   1.623   2.617 -0.5287 -0.8247 -0.9357
  523SOL    HW211334   4.205   1.758   2.546  0.8321  0.3388  0.1491
  524SOL     OW11335   2.750   3.805   1.613  0.1680  0.0153  0.2192
  524SOL    HW111336   2.695   3.742   1.557 -1.3254 -0.5924  2.3224
  524SOL    HW211337   2.715   3.898   1.601  1.6188  0.3135 -1.9666
  525SOL     OW11338   2.897   7.220   1.348  0.1091 -0.3692 -0.1616
  525SOL    HW111339   2.814   7.221   1.292 -0.6012 -1.1266  0.8543
  525SOL    HW211340   2.918   7.126   1.375  1.0928 -0.1397 -0.1158
  526SOL     OW11341   4.367   2.707   2.460  0.0470 -0.1073  0.1039
  526SOL    HW111342   4.376   2.704   2.361  1.0154 -0.7909  0.2056
  526SOL    HW211343   4.356   2.614   2.496 -0.2667  0.1315  0.6444
  527SOL     OW11344   3.377   9.150   1.978  0.0189 -0.2845  0.1315
  527SOL    HW111345   3.299   9.087   1.977  0.2727 -0.6236  0.9335
  527SOL    HW211346   3.360   9.225   1.914 -1.7428  0.5525  1.5101
  528SOL     OW11347   2.932   3.655   0.062  0.4406  0.2037  0.3083
  528SOL    HW111348   2.900   3.668  -0.032  0.8543  0.9915  0.2741
  528SOL    HW211349   2.949   3.558   0.079  0.8828  0.1239 -0.6009
  529SOL     OW11350   3.440   3.966   1.926  0.0228 -0.4960  0.1874
  529SOL    HW111351   3.477   4.045   1.975  0.7796 -0.4065 -0.5179
  529SOL    HW211352   3.341   3.975   1.918  0.0059 -0.0505  0.8811
  530SOL     OW11353   2.528   8.236   2.093 -0.3740 -0.2995 -1.2002
  530SOL    HW111354   2.470   8.197   2.164 -0.7262  4.8525  1.6355
  530SOL    HW211355   2.472   8.263   2.014 -1.1797  0.6044 -0.3308
  531SOL     OW11356   3.652   2.483   1.715 -0.0028  0.1018 -0.2422
  531SOL    HW111357   3.554   2.462   1.718  0.0070  0.0698 -0.1467
  531SOL    HW211358   3.698   2.440   1.793 -0.1220  1.2213  0.4443
  532SOL     OW11359   3.489   4.148   2.130  0.0983  0.0290  0.6480
  532SOL    HW111360   3.560   4.209   2.095 -0.4723 -0.0623 -0.6807
  532SOL    HW211361   3.532   4.068   2.172  0.8423  1.1913  2.1615
  533SOL     OW11362   3.422   7.765   2.460  0.5610  0.4749 -0.2646
  533SOL    HW111363   3.492   7.835   2.469  0.2563  0.7579 -0.0663
  533SOL    HW211364   3.403   7.749   2.363  1.4342 -0.1424 -0.3345
  534SOL     OW11365   2.678   0.462   1.719  0.5881 -0.0013 -0.2792
  534SOL    HW111366   2.671   0.367   1.750 -0.3155 -0.2267 -1.1755
  534SOL    HW211367   2.664   0.523   1.797 -1.4559 -0.5661 -0.1667
  535SOL     OW11368   2.368   5.032   0.467  0.3987  0.2168  0.7719
  535SOL    HW111369   2.355   5.114   0.412  0.4474 -0.2752  0.0212
  535SOL    HW211370   2.355   4.951   0.410  1.9404 -0.2978  1.1385
  536SOL     OW11371   3.309   9.476   1.680  0.2451 -0.1176 -0.1249
  536SOL    HW111372   3.386   9.439   1.629 -0.2517  0.2008 -1.1232
  536SOL    HW211373   3.339   9.554   1.735  0.9146 -0.8607  0.5679
  537SOL     OW11374   4.635   3.280   2.514  0.5197 -0.4484  0.1607
  537SOL    HW111375   4.658   3.368   2.471  1.0228 -1.5421 -1.8671
  537SOL    HW211376   4.594   3.220   2.446 -1.3330 -1.2383  1.9197
  538SOL     OW11377   3.521   8.821   0.615  0.2193 -0.3864 -0.0083
  538SOL    HW111378   3.585   8.849   0.686 -0.6682  1.6435  0.0041
  538SOL    HW211379   3.541   8.870   0.531 -0.3013 -0.9605 -0.4699
  539SOL     OW11380   2.716   4.771   1.535 -0.3657 -0.4339 -0.2675
  539SOL    HW111381   2.666   4.810   1.612 -1.2221 -0.8470 -0.5942
  539SOL    HW211382   2.745   4.678   1.557 -0.2677 -0.4083 -0.2914
  540SOL     OW11383   3.110   2.908   2.532 -0.3549 -0.1762  0.0167
  540SOL    HW111384   3.133   2.813   2.552  0.5087 -0.5871 -2.7074
  540SOL    HW211385   3.041   2.911   2.459  1.0934  1.2701 -1.3462
  541SOL     OW11386   3.117   1.166   1.301 -0.1588 -0.3616  0.3928
  541SOL    HW111387   3.168   1.177   1.386  1.7796  1.0611 -0.8955
  541SOL    HW211388   3.107   1.069   1.280 -0.4303 -0.7197  2.0825
  542SOL     OW11389   3.665   3.922   2.265  0.4675 -0.3722 -0.4223
  542SOL    HW111390   3.647   3.874   2.351 -0.7808  1.5049  0.3975
  542SOL    HW211391   3.760   3.952   2.261  0.1075  1.0159  1.0830
  543SOL     OW11392   4.235   4.080   2.256  0.8020 -0.1923 -0.1805
  543SOL    HW111393   4.236   4.175   2.224  0.1633  0.3529  1.3949
  543SOL    HW211394   4.318   4.034   2.226  0.7492  0.6294 -1.6485
  544SOL     OW11395   2.567   9.574   2.636  0.3278  0.2269 -0.2271
  544SOL    HW111396   2.559   9.515   2.717  1.1093  1.6060  0.8746
  544SOL    HW211397   2.566   9.517   2.553  0.2578 -1.2632  0.7804
  545SOL     OW11398   3.957   1.555   1.519 -0.1904  0.3277 -0.4570
  545SOL    HW111399   3.960   1.519   1.426 -0.4259 -1.9611  0.3832
  545SOL    HW211400   4.005   1.643   1.523  0.1934  0.2311 -2.6392
  546SOL     OW11401   3.808   8.363   1.494  0.3201 -0.4375 -0.1692
  546SOL    HW111402   3.838   8.340   1.401  1.8107 -2.1918  0.7183
  546SOL    HW211403   3.793   8.279   1.546 -1.2058  0.5262  0.9755
  547SOL     OW11404   3.249   9.762   1.053  0.0607  0.0620  0.0053
  547SOL    HW111405   3.343   9.764   1.018  0.1616  2.0670  0.3218
  547SOL    HW211406   3.243   9.820   1.135 -1.5721  0.3971 -0.3390
  548SOL     OW11407   2.431   3.941   2.127  0.1767 -0.0389  0.2689
  548SOL    HW111408   2.370   3.983   2.060  0.4014  0.6035  0.4621
  548SOL    HW211409   2.503   3.889   2.080  0.6733  0.8836 -0.0115
  549SOL     OW11410   3.731   3.736   0.602  0.2592 -0.3110  0.3495
  549SOL    HW111411   3.750   3.637   0.608  1.9301 -0.2082 -2.3282
  549SOL    HW211412   3.779   3.783   0.676  0.7431 -1.3598  0.7228
  550SOL     OW11413   3.819   1.506   2.308  0.1235  0.5710 -0.6176
  550SOL    HW111414   3.789   1.563   2.232  0.1221 -0.7326 -1.6075
  550SOL    HW211415   3.918   1.515   2.320  0.0687  1.0725 -0.5106
  551SOL     OW11416   3.881   3.061   0.814 -0.0944 -0.6410 -0.0590
  551SOL    HW111417   3.848   3.091   0.724 -0.1554 -1.1696 -0.2161
  551SOL    HW211418   3.930   2.975   0.804 -1.5731 -1.5839  0.6468
  552SOL     OW11419   2.984   0.491   1.936  0.0437  0.1651 -0.0268
  552SOL    HW111420   3.011   0.552   1.861  0.9445 -0.0167  0.1390
  552SOL    HW211421   2.998   0.396   1.908  1.4746  0.1294  0.7704
  553SOL     OW11422   3.983   2.398   1.593  1.1268  0.2045 -0.2842
  553SOL    HW111423   3.888   2.426   1.578  1.0583  1.2834  1.9297
  553SOL    HW211424   3.985   2.305   1.629  0.9367 -0.0106 -0.8306
  554SOL     OW11425   2.982   4.457   0.136  0.6179 -0.2239 -0.6454
  554SOL    HW111426   2.901   4.514   0.121  2.6575  3.0324  0.1969
  554SOL    HW211427   3.019   4.428   0.048 -0.5367 -0.4039 -1.0829
  555SOL     OW11428   2.738   6.955   1.299 -0.1867 -0.8390  0.0793
  555SOL    HW111429   2.835   6.960   1.320  0.0150 -1.6184 -0.6206
  555SOL    HW211430   2.717   7.016   1.223 -0.2348 -0.7081  0.1973
  556SOL     OW11431   2.519   5.672   1.663 -0.2304 -0.2915 -0.2986
  556SOL    HW111432   2.614   5.700   1.670 -0.6211  1.2093 -0.7391
  556SOL    HW211433   2.487   5.682   1.569 -0.8010 -0.8792 -0.1787
  557SOL     OW11434   3.555   3.485   0.405  0.0026  0.3380  0.3480
  557SOL    HW111435   3.562   3.585   0.401 -0.0420  0.3837  1.3373
  557SOL    HW211436   3.639   3.448   0.444 -0.2087  0.0227  0.5039
  558SOL     OW11437   3.825   3.587   0.868 -0.6060  0.1676  0.0375
  558SOL    HW111438   3.916   3.547   0.874 -1.7487 -2.4813  0.5831
  558SOL    HW211439   3.828   3.682   0.898  1.7859 -0.2108  1.0976
  559SOL     OW11440   3.486   1.622   2.575  0.0319 -0.9993 -0.6728
  559SOL    HW111441   3.486   1.532   2.618  0.6762 -1.0312 -0.7362
  559SOL    HW211442   3.578   1.644   2.545 -0.3893 -0.9395 -1.9543
  560SOL     OW11443   3.228   1.920   2.334  0.2122 -0.1623 -0.1470
  560SOL    HW111444   3.271   1.974   2.406  1.1744 -1.7628  0.5094
  560SOL    HW211445   3.219   1.825   2.364  0.0913 -0.7330 -1.9101
  561SOL     OW11446   3.303   3.671   0.160 -0.6745  0.1275 -0.0574
  561SOL    HW111447   3.227   3.636   0.215 -0.2588 -2.9920 -1.3324
  561SOL    HW211448   3.271   3.746   0.102 -2.5585 -0.5397  0.0961
  562SOL     OW11449   2.550   2.803   0.808 -0.1000 -0.2259 -0.4241
  562SOL    HW111450   2.631   2.745   0.797 -0.0296 -0.1215 -0.4569
  562SOL    HW211451   2.474   2.748   0.843  0.5090  0.0426  1.3946
  563SOL     OW11452   2.602   2.995   0.207 -0.1133 -0.0989 -0.5453
  563SOL    HW111453   2.510   2.955   0.204 -0.5590  0.8120  0.6249
  563SOL    HW211454   2.607   3.062   0.281  1.6542 -0.5305 -0.2437
  564SOL     OW11455   3.306   1.439   2.249 -0.3369 -0.0810  0.4108
  564SOL    HW111456   3.268   1.515   2.302  1.6596 -0.1976  2.0713
  564SOL    HW211457   3.333   1.366   2.311  3.5557  0.4403 -0.5887
  565SOL     OW11458   2.265   6.791   2.044  0.2926 -0.3499 -0.3345
  565SOL    HW111459   2.175   6.819   2.011 -0.3175  2.5056  3.4698
  565SOL    HW211460   2.260   6.766   2.140  3.3860 -1.2275 -0.3231
  566SOL     OW11461   4.586   2.468   0.822  0.6171 -0.1585 -0.3906
  566SOL    HW111462   4.618   2.405   0.893 -0.5588  0.3364  0.5982
  566SOL    HW211463   4.550   2.415   0.745  1.3853 -0.6987 -0.3895
  567SOL     OW11464   2.543   2.698   2.301 -0.2067 -0.2949  0.5056
  567SOL    HW111465   2.569   2.670   2.208  0.0939  0.3207  0.4027
  567SOL    HW211466   2.485   2.628   2.341  0.7493 -1.2035  0.3397
  568SOL     OW11467   2.788   8.808   1.188 -0.3618 -0.1108  0.1427
  568SOL    HW111468   2.756   8.754   1.110 -1.1247 -1.2245  1.1951
  568SOL    HW211469   2.879   8.844   1.168  0.0010 -1.4677 -0.7501
  569SOL     OW11470   5.036   3.458   0.534 -0.6156 -0.7161  0.4755
  569SOL    HW111471   5.037   3.360   0.513 -0.2388 -0.6144  0.0212
  569SOL    HW211472   5.018   3.471   0.632 -0.8388 -1.2334  0.5015
  570SOL     OW11473   4.455   2.836   1.452 -0.3526  0.0556 -0.1037
  570SOL    HW111474   4.369   2.842   1.403  0.9684  0.5048 -2.4573
  570SOL    HW211475   4.490   2.928   1.471  0.5116 -0.1029 -0.8589
  571SOL     OW11476   3.038   2.066   1.271  0.0142 -0.1568  0.3457
  571SOL    HW111477   3.128   2.067   1.226 -0.6725  2.1611 -1.1048
  571SOL    HW211478   3.050   2.052   1.369  2.0444  0.9541  0.2942
  572SOL     OW11479   2.582   6.589   0.724 -0.0794  0.0445  0.9562
  572SOL    HW111480   2.489   6.626   0.730  0.2327  0.8321  0.9985
  572SOL    HW211481   2.599   6.528   0.801 -0.3957  0.2687  1.2035
  573SOL     OW11482   4.430   2.154   0.784  0.5155  0.5668  0.1211
  573SOL    HW111483   4.420   2.133   0.686 -1.7193 -1.6631  0.7697
  573SOL    HW211484   4.485   2.083   0.828 -1.0861 -0.1681  1.0098
  574SOL     OW11485   3.635   3.779   1.967  0.4187 -0.4729 -0.6301
  574SOL    HW111486   3.558   3.843   1.958 -0.6338 -1.6731 -0.2736
  574SOL    HW211487   3.658   3.769   2.064 -1.0730 -2.5434 -0.4626
  575SOL     OW11488   2.525   1.576   1.969 -0.3735  0.2958 -0.8597
  575SOL    HW111489   2.466   1.650   1.936 -1.1855 -0.6625 -1.5983
  575SOL    HW211490   2.518   1.498   1.907 -0.5733 -0.9099  0.6485
  576SOL     OW11491   3.392   2.753   0.786  0.2841 -0.5675  0.1744
  576SOL    HW111492   3.366   2.849   0.794  0.0152 -0.6782  0.6026
  576SOL    HW211493   3.319   2.695   0.822 -0.4974 -1.0189 -2.0137
  577SOL     OW11494   3.657   2.299   1.991  0.2098  0.4924  0.2063
  577SOL    HW111495   3.725   2.232   2.021  0.1532  0.5974  0.5721
  577SOL    HW211496   3.566   2.271   2.021  0.3149  1.2772  1.3094
  578SOL     OW11497   3.960   1.305   0.009  0.1245 -0.2256  0.4538
  578SOL    HW111498   4.041   1.336   0.059 -0.1051 -0.3447  0.8960
  578SOL    HW211499   3.946   1.208   0.025  0.4569 -0.4129 -0.4038
  579SOL     OW11500   4.018   2.017   0.972 -0.6432 -0.5895  0.4712
  579SOL    HW111501   4.035   2.081   0.897  0.7100 -0.3656  0.9595
  579SOL    HW211502   3.934   2.044   1.020 -0.8300  0.0053 -0.1743
  580SOL     OW11503   4.240   2.079   1.118 -0.0586 -0.0241  0.1880
  580SOL    HW111504   4.250   2.178   1.128 -1.8956 -0.0290  2.4826
  580SOL    HW211505   4.156   2.059   1.068 -0.2818 -0.4490  0.7304
  581SOL     OW11506   3.203   3.968   0.915 -0.3248 -0.4148 -0.3552
  581SOL    HW111507   3.151   4.050   0.892 -2.7234 -1.2906  1.7707
  581SOL    HW211508   3.245   3.980   1.005 -1.1887 -1.7247  0.2374
  582SOL     OW11509   2.843   9.908   2.558  0.5899  1.0236  0.4495
  582SOL    HW111510   2.879   9.892   2.467 -0.3236  1.9735 -0.0929
  582SOL    HW211511   2.866  10.001   2.588  1.1734  0.6049  1.3244
  583SOL     OW11512   2.927   6.550   0.282  0.6204  0.7441 -0.7512
  583SOL    HW111513   2.904   6.457   0.311 -0.1217  1.1170 -0.1382
  583SOL    HW211514   2.945   6.550   0.183 -1.7011  0.3655 -1.2128
  584SOL     OW11515   3.340   9.658   0.412  0.3954  0.1803 -0.5325
  584SOL    HW111516   3.344   9.732   0.345  0.7425  0.4915 -0.1718
  584SOL    HW211517   3.431   9.642   0.449  0.2006  0.0351 -0.1094
  585SOL     OW11518   2.274   5.471   1.999 -0.6613  0.2601  0.2911
  585SOL    HW111519   2.317   5.553   1.963 -1.8163  1.1557  0.9159
  585SOL    HW211520   2.244   5.412   1.924  0.0535  0.4730 -0.1555
  586SOL     OW11521   2.471   0.345   0.736  0.3219  0.2568 -0.0885
  586SOL    HW111522   2.448   0.430   0.783 -0.1212  1.1842 -1.9605
  586SOL    HW211523   2.546   0.362   0.671 -1.8260 -0.0589 -2.7166
  587SOL     OW11524   2.853   4.653   0.711  0.4728 -0.5663 -0.4962
  587SOL    HW111525   2.918   4.592   0.756 -0.3686 -0.5094  0.8059
  587SOL    HW211526   2.878   4.748   0.729 -1.7238 -0.5204  2.6466
  588SOL     OW11527   3.764   9.812   1.739 -0.0558 -0.1498 -0.5683
  588SOL    HW111528   3.709   9.767   1.810 -0.5329 -0.3359 -1.0487
  588SOL    HW211529   3.727   9.789   1.649 -0.4850  1.4283 -0.8114
  589SOL     OW11530   3.776   2.622   1.415  0.1350 -0.0322 -0.5342
  589SOL    HW111531   3.818   2.614   1.325  1.6952  0.4358  0.1426
  589SOL    HW211532   3.715   2.544   1.430 -0.1401 -0.1152 -1.9784
  590SOL     OW11533   4.608   3.556   1.714  0.0080 -0.0808 -0.4973
  590SOL    HW111534   4.530   3.572   1.653  0.4319  2.5832 -0.4180
  590SOL    HW211535   4.577   3.559   1.809 -0.0173 -0.3570 -0.4972
  591SOL     OW11536   4.265   3.581   0.748  0.2836 -0.2625  0.3199
  591SOL    HW111537   4.226   3.665   0.709 -0.7817 -0.3133  1.2375
  591SOL    HW211538   4.364   3.592   0.760  0.0247  1.1772  1.2124
  592SOL     OW11539   4.185   3.829   0.606 -0.2445 -0.4681  1.0158
  592SOL    HW111540   4.264   3.879   0.570 -1.4234 -0.3712 -1.5296
  592SOL    HW211541   4.127   3.891   0.659 -0.1826  0.1699  0.3389
  593SOL     OW11542   3.135   8.804   1.094 -0.6993  0.5692 -0.3479
  593SOL    HW111543   3.222   8.827   1.051 -0.8737  0.4584 -0.7583
  593SOL    HW211544   3.110   8.710   1.071 -0.0463 -0.0174  1.2211
  594SOL     OW11545   2.691   0.725   0.118  0.1439  0.5063  0.0808
  594SOL    HW111546   2.729   0.638   0.085  2.8076  1.5109  0.4124
  594SOL    HW211547   2.706   0.796   0.049 -0.0427  1.1837  0.7328
  595SOL     OW11548   3.186   5.090   1.893  0.1166  0.3392 -0.1367
  595SOL    HW111549   3.136   5.046   1.817  0.1601  1.7720 -1.0183
  595SOL    HW211550   3.120   5.136   1.953  0.1498 -0.1295  0.2601
  596SOL     OW11551   2.590   1.490   2.233 -0.1344 -0.2927 -0.1878
  596SOL    HW111552   2.556   1.567   2.181  2.2196  0.7428 -0.2879
  596SOL    HW211553   2.626   1.421   2.171 -0.1426 -0.4340 -0.0359
  597SOL     OW11554   4.111   2.755   2.650 -0.2556 -0.0742  0.0352
  597SOL    HW111555   4.209   2.748   2.633 -0.4038 -0.7729 -0.5719
  597SOL    HW211556   4.094   2.822   2.722  0.7505 -0.8921  1.0459
  598SOL     OW11557   2.530   8.786   2.067 -0.3435 -0.3736  0.0721
  598SOL    HW111558   2.438   8.764   2.033 -1.2716  3.0729  0.1802
  598SOL    HW211559   2.539   8.753   2.161 -1.2570 -1.2401 -0.1294
  599SOL     OW11560   2.869   6.854   1.708  0.2089  0.3608 -0.5603
  599SOL    HW111561   2.870   6.804   1.621  0.4734  0.5616 -0.6734
  599SOL    HW211562   2.930   6.810   1.773 -1.5477 -1.0000  0.2108
  600SOL     OW11563   3.265   1.653   1.453  0.5149 -0.9458 -0.0600
  600SOL    HW111564   3.240   1.630   1.359 -0.8796  1.3115 -0.2888
  600SOL    HW211565   3.363   1.674   1.458  0.2053  0.9341 -1.4481
  601SOL     OW11566   4.835   2.534   1.189 -0.4004 -0.1146 -0.4540
  601SOL    HW111567   4.743   2.546   1.228 -0.2127  1.0057 -0.3518
  601SOL    HW211568   4.881   2.622   1.185  0.2461 -0.5025 -1.5933
  602SOL     OW11569   2.839   6.132   0.794  0.2185 -0.7358  0.7798
  602SOL    HW111570   2.885   6.215   0.762 -1.4919 -0.1459 -0.2240
  602SOL    HW211571   2.826   6.070   0.716 -1.0423 -0.7049  0.9552
  603SOL     OW11572   3.337   3.978   1.171 -0.0691  0.0706  0.6760
  603SOL    HW111573   3.407   4.049   1.165  1.6774 -1.6713 -0.4853
  603SOL    HW211574   3.372   3.902   1.226 -0.6447 -1.2660 -0.7695
  604SOL     OW11575   2.966   7.051   2.143 -0.3855 -0.1358  0.2183
  604SOL    HW111576   3.023   6.971   2.122 -0.5838  0.1207 -1.3222
  604SOL    HW211577   2.888   7.054   2.081 -0.4724  1.1638  0.3680
  605SOL     OW11578   4.012   4.049   2.407  0.0621 -0.2005  0.0465
  605SOL    HW111579   3.992   3.958   2.443  0.4989  0.3917  1.8462
  605SOL    HW211580   4.106   4.052   2.375 -0.6344 -1.0310 -2.1567
  606SOL     OW11581   2.338   6.084   1.986  0.4041  0.0048  0.6410
  606SOL    HW111582   2.369   6.173   2.018  0.5929  0.3681 -0.5217
  606SOL    HW211583   2.306   6.091   1.891  0.4383 -1.1619  0.5266
  607SOL     OW11584   2.372   1.535   1.167  0.2033  0.2491 -0.3321
  607SOL    HW111585   2.331   1.482   1.092 -1.2780  0.4353  0.3343
  607SOL    HW211586   2.360   1.486   1.253  0.5029  0.7778  0.0144
  608SOL     OW11587   4.003   2.118   0.718 -0.1720 -0.3603  0.1541
  608SOL    HW111588   3.942   2.039   0.718 -0.4012 -0.1898 -0.9473
  608SOL    HW211589   4.003   2.161   0.627  0.7617  0.2758  0.4434
  609SOL     OW11590   3.724   0.150   1.320  0.0050 -0.0163 -0.0037
  609SOL    HW111591   3.694   0.232   1.272  0.8594  0.9127  1.0255
  609SOL    HW211592   3.817   0.164   1.354 -0.2638 -0.9935  1.1510
  610SOL     OW11593   3.079   3.440   1.707 -0.2619 -0.5967 -0.0803
  610SOL    HW111594   2.999   3.474   1.757 -1.1086 -2.9650  0.2605
  610SOL    HW211595   3.081   3.340   1.712  2.5624 -0.5870 -0.3716
  611SOL     OW11596   2.517   7.682   0.047  0.2878 -0.0903 -0.5673
  611SOL    HW111597   2.497   7.779   0.037 -0.6812 -0.1858  0.3174
  611SOL    HW211598   2.539   7.642  -0.042  1.0168  1.0087 -0.8820
  612SOL     OW11599   3.707   4.631   0.813  0.2733 -0.3198  0.1695
  612SOL    HW111600   3.739   4.604   0.904 -0.3371  1.3375  0.9144
  612SOL    HW211601   3.767   4.593   0.743  0.7851 -1.5761  1.2642
  613SOL     OW11602   2.705   6.398   2.671 -0.9438 -0.2608  0.1106
  613SOL    HW111603   2.775   6.469   2.675 -0.9899 -0.2319  0.3895
  613SOL    HW211604   2.747   6.310   2.647 -0.8647 -0.1685 -0.0858
  614SOL     OW11605   3.710   4.859   1.226 -0.4856 -0.6152 -0.3627
  614SOL    HW111606   3.658   4.847   1.310  0.6649  0.2488  0.5000
  614SOL    HW211607   3.686   4.947   1.184 -0.2280 -0.5223 -0.3205
  615SOL     OW11608   4.925   2.168   0.629 -0.2010  0.1451 -0.5168
  615SOL    HW111609   4.958   2.093   0.571 -0.4931 -0.1941 -0.2447
  615SOL    HW211610   4.841   2.206   0.589 -0.1339  0.2305 -0.5761
  616SOL     OW11611   3.660   9.896   1.256  0.2569 -0.0992 -0.4688
  616SOL    HW111612   3.671   9.829   1.330  1.5927 -0.4213 -0.9420
  616SOL    HW211613   3.665   9.988   1.293 -0.9999 -0.2488  0.1056
  617SOL     OW11614   3.552   1.856   0.717  0.2260  0.0556  0.0929
  617SOL    HW111615   3.553   1.756   0.715  0.6940  0.0258  1.5843
  617SOL    HW211616   3.483   1.890   0.652 -1.1160 -1.2670  0.8050
  618SOL     OW11617   2.666   3.067   0.875  0.4433 -0.4535  0.1492
  618SOL    HW111618   2.629   2.980   0.842 -0.2491 -0.3277  0.5891
  618SOL    HW211619   2.766   3.061   0.878  0.4911 -0.6449 -1.4441
  619SOL     OW11620   3.396   3.982   2.572  0.8031  0.3738  0.1266
  619SOL    HW111621   3.486   3.939   2.567  0.2513 -0.9163  1.0383
  619SOL    HW211622   3.327   3.918   2.540  0.2077  1.4159 -0.7174
  620SOL     OW11623   3.193   0.538   0.594 -0.3504  0.2917  0.4055
  620SOL    HW111624   3.255   0.612   0.568  0.2364 -0.2818  0.1712
  620SOL    HW211625   3.235   0.450   0.573 -1.1636 -0.1047  0.4294
  621SOL     OW11626   3.785   8.234   1.835 -0.3329 -0.6861  0.5037
  621SOL    HW111627   3.766   8.183   1.751  1.5581  0.3530 -0.5731
  621SOL    HW211628   3.838   8.316   1.814 -0.6953  0.1177  2.5962
  622SOL     OW11629   3.135   8.345   2.500  0.0507  0.0200 -0.1892
  622SOL    HW111630   3.112   8.440   2.518 -3.5168 -0.8723  0.2990
  622SOL    HW211631   3.169   8.302   2.584  0.4924  0.5089 -0.1118
  623SOL     OW11632   3.569   7.873   0.054  0.1958  0.3287 -0.4928
  623SOL    HW111633   3.555   7.775   0.071 -0.0962  0.5294  0.4492
  623SOL    HW211634   3.624   7.885  -0.029  1.6011 -0.6624  0.2917
  624SOL     OW11635   4.229   2.516   0.233  0.1392 -0.2526 -0.2191
  624SOL    HW111636   4.139   2.501   0.193  0.3500 -0.6076 -0.5715
  624SOL    HW211637   4.297   2.526   0.160  0.5905 -1.3133  0.0335
  625SOL     OW11638   3.356   0.296   0.576  0.0374 -0.7938 -0.0555
  625SOL    HW111639   3.380   0.288   0.673  1.1972  1.0038 -0.1804
  625SOL    HW211640   3.438   0.315   0.523 -1.1702  2.2915 -0.9010
  626SOL     OW11641   3.028   1.021   0.174  0.0491 -0.2022  0.6398
  626SOL    HW111642   2.984   1.080   0.106 -1.0667 -1.4794  0.2307
  626SOL    HW211643   3.036   1.070   0.260 -0.7169  0.6130  0.2557
  627SOL     OW11644   2.994   7.606   0.574 -0.7215  0.4638 -0.9359
  627SOL    HW111645   3.059   7.680   0.593  1.3118 -1.5116 -0.0060
  627SOL    HW211646   3.018   7.562   0.488 -0.7203 -0.3886 -0.5011
  628SOL     OW11647   3.345   9.113   0.336  0.0145  0.5406 -0.0316
  628SOL    HW111648   3.353   9.206   0.373 -1.6841 -0.3530  2.7394
  628SOL    HW211649   3.250   9.083   0.345  1.2344 -2.7996  2.4252
  629SOL     OW11650   3.451   2.633   1.098  0.4127  0.0260  0.4979
  629SOL    HW111651   3.547   2.660   1.094  0.4937 -0.2023  0.8120
  629SOL    HW211652   3.393   2.713   1.084  0.6492  0.1705  0.3424
  630SOL     OW11653   2.698   2.555   2.086  1.0133 -0.0585  0.5924
  630SOL    HW111654   2.658   2.481   2.032  0.2205  0.4972  0.4114
  630SOL    HW211655   2.708   2.636   2.030  0.8053  0.3224  1.1016
  631SOL     OW11656   2.579   2.108   1.874  0.1741 -0.4675 -0.3709
  631SOL    HW111657   2.553   2.078   1.783 -1.7689  1.2286 -0.3961
  631SOL    HW211658   2.540   2.046   1.942 -2.1442  0.7886 -0.5116
  632SOL     OW11659   2.276   6.510   0.608 -0.0527 -0.4776 -0.0266
  632SOL    HW111660   2.239   6.598   0.639  0.9655 -0.3644  0.8951
  632SOL    HW211661   2.208   6.438   0.623 -0.0809 -0.1948  1.2165
  633SOL     OW11662   2.666   8.540   1.502  0.5635  0.0877  0.1788
  633SOL    HW111663   2.618   8.463   1.543  1.0487  0.2650  1.0986
  633SOL    HW211664   2.601   8.611   1.477  0.3456  0.3331  1.4304
  634SOL     OW11665   2.381   1.580   0.786 -0.3419 -0.1315 -0.0275
  634SOL    HW111666   2.380   1.670   0.830  0.5442 -0.5022  0.7708
  634SOL    HW211667   2.404   1.591   0.689 -1.9576  0.6604 -0.3272
  635SOL     OW11668   2.811   7.939   2.046  0.2725  0.5505 -0.4420
  635SOL    HW111669   2.787   7.874   1.974  1.6592  0.7412 -1.1073
  635SOL    HW211670   2.800   8.033   2.011 -1.2722  0.6779  0.3589
  636SOL     OW11671   3.424   9.537   2.190 -0.1548 -0.3722 -0.1040
  636SOL    HW111672   3.470   9.467   2.136  0.8305  1.6891 -2.0068
  636SOL    HW211673   3.493   9.593   2.236 -0.8579  0.6628 -0.3038
  637SOL     OW11674   3.462   5.069   0.618  0.5765 -0.6591 -0.2034
  637SOL    HW111675   3.514   4.990   0.651  0.6389 -0.2824  0.6206
  637SOL    HW211676   3.479   5.082   0.521 -0.2454 -2.2941 -0.5933
  638SOL     OW11677   2.755   1.117   2.448  0.0399 -0.6311  0.0229
  638SOL    HW111678   2.825   1.066   2.398 -0.9030 -2.8177  0.8236
  638SOL    HW211679   2.688   1.153   2.384  0.7080 -0.4485 -0.5712
  639SOL     OW11680   2.414   5.155   0.710 -0.1499  0.2497  0.1862
  639SOL    HW111681   2.382   5.111   0.626 -0.4149  1.0958 -0.1601
  639SOL    HW211682   2.478   5.094   0.757 -0.0984 -0.2795 -0.5589
  640SOL     OW11683   2.777   3.638   2.534 -0.2658  0.0691 -0.5035
  640SOL    HW111684   2.750   3.545   2.558  0.3283 -0.0723 -0.3823
  640SOL    HW211685   2.699   3.685   2.493 -0.1028 -1.0041 -2.0855
  641SOL     OW11686   2.293   4.319   2.227  0.1396 -0.4789 -0.3503
  641SOL    HW111687   2.322   4.328   2.132  0.5371  1.5342 -0.0460
  641SOL    HW211688   2.193   4.314   2.231  0.1630 -1.5667 -0.9390
  642SOL     OW11689   2.796   7.394   0.304  0.0909 -0.0511 -0.6263
  642SOL    HW111690   2.781   7.328   0.229 -0.3540 -2.0828  1.1948
  642SOL    HW211691   2.727   7.467   0.297 -3.0332 -2.7487  0.4876
  643SOL     OW11692   2.301   6.915   1.720 -0.3298 -0.5191  0.1230
  643SOL    HW111693   2.212   6.940   1.757  0.4681  1.0857  1.0319
  643SOL    HW211694   2.299   6.925   1.620 -0.8077  0.7551  0.2442
  644SOL     OW11695   2.452   3.563   1.763 -0.0175 -0.1311  0.2908
  644SOL    HW111696   2.439   3.467   1.737  0.4274  0.2269 -1.2545
  644SOL    HW211697   2.499   3.567   1.851 -0.3371 -1.3377  0.5262
  645SOL     OW11698   3.356   1.155   1.991 -0.0837  0.2025  0.0187
  645SOL    HW111699   3.372   1.250   2.014  0.8454  0.0488  0.0227
  645SOL    HW211700   3.395   1.135   1.901 -2.8465  0.5617 -1.3068
  646SOL     OW11701   4.477   2.644   0.611  0.3343  0.0381  0.8739
  646SOL    HW111702   4.524   2.608   0.531  0.5516  1.7422  0.2024
  646SOL    HW211703   4.541   2.651   0.687  0.9331  1.3338  0.2730
  647SOL     OW11704   2.755   8.939   1.689 -0.1205  0.2623  0.2881
  647SOL    HW111705   2.730   8.865   1.626  1.4777  0.1521 -0.2697
  647SOL    HW211706   2.693   8.940   1.767 -1.6812 -0.0838 -0.9182
  648SOL     OW11707   3.697   4.357   0.466 -0.1286  0.7302  0.1777
  648SOL    HW111708   3.612   4.409   0.460 -1.7123 -1.5977  1.6342
  648SOL    HW211709   3.689   4.271   0.416  1.0267  0.0617  1.0915
  649SOL     OW11710   4.207   3.065   2.162 -0.8061  0.3830  0.6158
  649SOL    HW111711   4.228   3.072   2.260  3.0781  2.8251 -0.2501
  649SOL    HW211712   4.186   3.156   2.126  0.6912  0.0013 -1.3174
  650SOL     OW11713   2.699   5.474   0.589  0.1823  0.4706 -0.3392
  650SOL    HW111714   2.601   5.491   0.577  0.5270  3.2278  0.4747
  650SOL    HW211715   2.747   5.493   0.503  0.2908  1.4838 -0.0591
  651SOL     OW11716   2.850   3.610   0.871  0.2949  0.1756  0.1410
  651SOL    HW111717   2.786   3.574   0.939 -0.2540  0.0172 -0.4524
  651SOL    HW211718   2.882   3.535   0.813  0.6392  0.3375  0.1167
  652SOL     OW11719   3.744   3.146   1.905  0.5578  0.0029  0.5112
  652SOL    HW111720   3.756   3.051   1.934  1.0217 -0.0023  0.3054
  652SOL    HW211721   3.766   3.155   1.808  0.1194  0.2436  0.4333
  653SOL     OW11722   3.415   3.148   1.836  0.7297  0.4687 -0.2530
  653SOL    HW111723   3.346   3.211   1.872  1.6222  1.0451  0.4890
  653SOL    HW211724   3.506   3.181   1.862  1.2612 -0.4936 -0.8818
  654SOL     OW11725   2.870   4.240   1.860  0.4947 -0.3372 -0.1970
  654SOL    HW111726   2.891   4.245   1.762  0.6788 -0.7485 -0.1822
  654SOL    HW211727   2.947   4.197   1.908  0.5495  0.1859  0.1773
  655SOL     OW11728   2.491   7.819   2.150  0.3721 -0.7111 -0.1499
  655SOL    HW111729   2.577   7.767   2.144  1.0581  0.5125 -1.2842
  655SOL    HW211730   2.459   7.841   2.058  0.1673  0.9715  0.3034
  656SOL     OW11731   2.697   4.198   2.272 -0.1484  0.5156 -0.2783
  656SOL    HW111732   2.610   4.160   2.302 -0.6601  1.9759  0.1316
  656SOL    HW211733   2.745   4.236   2.351  0.9092 -0.3622 -0.4851
  657SOL     OW11734   3.805   8.553   0.946  0.8013 -0.4829  0.7262
  657SOL    HW111735   3.889   8.604   0.968  0.2484  0.4415  0.7117
  657SOL    HW211736   3.817   8.504   0.860  1.2791 -0.2645  0.6684
  658SOL     OW11737   2.986   0.816   2.545  0.4642 -0.0021 -0.5390
  658SOL    HW111738   2.925   0.870   2.602  0.2492 -3.1530  2.3507
  658SOL    HW211739   2.932   0.755   2.486  0.7555 -1.7620  0.9854
  659SOL     OW11740   2.970   5.119   0.325  0.0111  0.0569 -0.7787
  659SOL    HW111741   2.904   5.114   0.400  0.5398  0.3693 -0.2822
  659SOL    HW211742   3.044   5.053   0.342 -0.2592 -0.4227 -1.4232
  660SOL     OW11743   2.987   6.282   1.982 -0.3166  0.1151  0.3283
  660SOL    HW111744   2.936   6.203   1.949 -0.0614  0.2049 -0.2731
  660SOL    HW211745   2.952   6.308   2.072 -0.0469 -1.0032  0.7634
  661SOL     OW11746   4.905   2.265   0.005 -0.2797 -0.1210  0.5810
  661SOL    HW111747   4.853   2.188   0.043 -1.6887  1.0700  1.0880
  661SOL    HW211748   4.849   2.348   0.008  1.0670  0.8365 -0.3791
  662SOL     OW11749   2.877   2.812   0.409 -0.6124 -0.3475 -0.4993
  662SOL    HW111750   2.870   2.874   0.331 -0.9619  0.8314  0.4537
  662SOL    HW211751   2.836   2.854   0.490 -2.7199 -2.6767 -0.3029
  663SOL     OW11752   3.394   9.913   0.254 -0.0380 -0.0086 -0.0494
  663SOL    HW111753   3.332   9.981   0.293  1.6961  1.2383  0.5622
  663SOL    HW211754   3.373   9.901   0.156  0.1112  1.9319 -0.3363
  664SOL     OW11755   2.825   0.271   1.455  0.1520 -0.1230  0.2332
  664SOL    HW111756   2.787   0.202   1.394  0.8597  0.6097 -1.0588
  664SOL    HW211757   2.754   0.338   1.476 -0.0713 -0.3275  0.1350
  665SOL     OW11758   3.515   0.769   2.518  0.2516  0.6437 -0.2533
  665SOL    HW111759   3.418   0.779   2.540  0.0593 -1.0846 -0.2667
  665SOL    HW211760   3.569   0.784   2.600 -0.1138  0.3182  0.0518
  666SOL     OW11761   4.327   4.161   2.606  1.0092  0.7661  0.5051
  666SOL    HW111762   4.377   4.114   2.533 -0.8876 -1.1208  0.3578
  666SOL    HW211763   4.287   4.246   2.570  0.2043 -0.0821 -0.6479
  667SOL     OW11764   3.538   4.406   0.986  0.0441 -0.3711  0.0465
  667SOL    HW111765   3.612   4.450   1.037 -0.2185 -0.0597  0.1622
  667SOL    HW211766   3.568   4.386   0.893  0.4384 -0.6993  0.2426
  668SOL     OW11767   4.168   1.423   0.192  0.2899  0.4444  0.4413
  668SOL    HW111768   4.092   1.475   0.231  0.4447  0.5513  0.6008
  668SOL    HW211769   4.187   1.343   0.248 -1.4421 -1.0506 -1.0418
  669SOL     OW11770   3.610   9.748   1.478  0.7368 -0.3727 -0.1327
  669SOL    HW111771   3.597   9.649   1.477  2.4048 -0.6545  2.6512
  669SOL    HW211772   3.521   9.793   1.491 -0.6809 -1.2213 -5.4895
  670SOL     OW11773   2.540   8.789   1.495 -0.3562  0.5671 -0.4433
  670SOL    HW111774   2.500   8.803   1.585 -0.9779  0.1527 -0.6512
  670SOL    HW211775   2.498   8.851   1.429  0.4255  1.1898 -0.3570
  671SOL     OW11776   3.451   8.266   1.091 -0.1331 -0.0072  0.1235
  671SOL    HW111777   3.423   8.175   1.121 -0.4680  0.2262  0.5307
  671SOL    HW211778   3.405   8.289   1.005  1.8726 -1.2319 -1.3079
  672SOL     OW11779   2.443   7.030   1.951  0.7935 -0.4207  0.4604
  672SOL    HW111780   2.449   6.961   2.023  3.0159 -2.4056 -1.5293
  672SOL    HW211781   2.400   6.990   1.870  0.2746  1.1444 -0.0572
  673SOL     OW11782   3.497   3.913   0.246  0.0082  0.1047  0.5085
  673SOL    HW111783   3.451   3.824   0.248  0.0467  0.1001  1.4180
  673SOL    HW211784   3.440   3.979   0.198  0.2774 -0.5719 -0.7686
  674SOL     OW11785   2.404   6.317   2.123 -0.0588  0.1991 -0.4112
  674SOL    HW111786   2.426   6.371   2.041  1.2088 -0.4022 -0.4797
  674SOL    HW211787   2.390   6.379   2.200 -0.5631  0.7358 -0.9233
  675SOL     OW11788   2.836   4.214   1.219 -0.0626 -0.2763  0.3445
  675SOL    HW111789   2.835   4.192   1.122  0.0034  2.7519 -0.3890
  675SOL    HW211790   2.920   4.180   1.261  1.0864  0.6009 -1.2088
  676SOL     OW11791   2.114   3.005   0.310  0.1473 -0.2870 -0.2432
  676SOL    HW111792   2.025   3.046   0.290  0.8712  0.4260 -2.2045
  676SOL    HW211793   2.145   3.033   0.401 -1.0580  0.4839 -0.0652
  677SOL     OW11794   3.220   3.289   1.967  0.3238  0.7165 -0.0524
  677SOL    HW111795   3.121   3.273   1.970  0.1834  1.0390 -2.1044
  677SOL    HW211796   3.237   3.383   1.935  1.3126 -0.2408 -2.4471
  678SOL     OW11797   3.992   0.269   2.059  1.1096 -0.0555 -0.1107
  678SOL    HW111798   3.994   0.295   2.155 -1.0322  0.8627 -0.3005
  678SOL    HW211799   3.945   0.181   2.048 -1.2589  1.2191 -0.5799
  679SOL     OW11800   3.148   2.058   0.151 -0.0664 -0.3409  0.0501
  679SOL    HW111801   3.066   2.001   0.143 -0.2088 -0.1935  0.4198
  679SOL    HW211802   3.168   2.072   0.248  0.9534 -1.1692 -0.0336
  680SOL     OW11803   3.085   0.928   1.150  0.4461  0.0815  0.1624
  680SOL    HW111804   3.014   0.919   1.080 -0.4327  1.0742  0.9059
  680SOL    HW211805   3.134   0.842   1.159  0.6402 -0.0214 -1.7522
  681SOL     OW11806   2.535   6.689   1.526 -0.4865 -0.2547  0.4783
  681SOL    HW111807   2.569   6.621   1.592 -0.3984 -0.0715  0.6218
  681SOL    HW211808   2.559   6.659   1.434  0.1688 -0.0744  0.5835
  682SOL     OW11809   2.454   8.291   0.867  0.0451 -0.3583 -0.4313
  682SOL    HW111810   2.468   8.280   0.769 -0.4439  0.1814 -0.5642
  682SOL    HW211811   2.360   8.263   0.890  0.1222 -0.3730 -0.1341
  683SOL     OW11812   2.535   3.773   2.421  0.5995  0.6574  0.3742
  683SOL    HW111813   2.527   3.811   2.329  0.6723  1.4521  0.6905
  683SOL    HW211814   2.492   3.835   2.486  1.6628  0.7214  1.0298
  684SOL     OW11815   4.347   2.174   2.114  0.2447  0.2271  0.3323
  684SOL    HW111816   4.320   2.207   2.024  3.1646  1.4989 -0.1256
  684SOL    HW211817   4.324   2.242   2.184 -2.5047 -0.9835  0.6772
  685SOL     OW11818   3.369   4.815   0.422 -0.5494 -0.1032 -0.1075
  685SOL    HW111819   3.436   4.838   0.351 -1.8624  1.3300 -0.9172
  685SOL    HW211820   3.417   4.784   0.504  1.0360 -0.6463 -1.2180
  686SOL     OW11821   2.804   4.881   0.958 -0.2929  0.1089  0.8175
  686SOL    HW111822   2.882   4.895   0.898 -1.1451  0.0024 -0.3383
  686SOL    HW211823   2.835   4.848   1.047  1.1152  1.7583  0.9641
  687SOL     OW11824   3.784   4.177   1.722  0.6624 -0.1392 -0.1453
  687SOL    HW111825   3.838   4.260   1.743  0.2532  0.1067 -0.0654
  687SOL    HW211826   3.698   4.204   1.680  0.2384 -0.4951  0.4986
  688SOL     OW11827   3.066   1.771   1.611  0.4117  0.6067  0.9579
  688SOL    HW111828   3.132   1.731   1.547 -0.8707 -0.2762  0.1466
  688SOL    HW211829   3.115   1.817   1.685  1.9527 -1.2127  1.1364
  689SOL     OW11830   2.457   2.876   0.566 -0.2483 -0.0490 -0.2834
  689SOL    HW111831   2.487   2.848   0.658  0.4381  0.3057 -0.3925
  689SOL    HW211832   2.386   2.946   0.574  0.5401  0.7265 -0.0221
  690SOL     OW11833   2.508   5.165   1.226  0.1920  0.6140  0.1919
  690SOL    HW111834   2.561   5.175   1.310  0.4779 -0.8787  0.2082
  690SOL    HW211835   2.429   5.106   1.244  0.0450  0.5958 -0.4916
  691SOL     OW11836   3.315   0.344   1.519 -0.1790 -0.2561 -0.3414
  691SOL    HW111837   3.226   0.317   1.555  0.3831 -0.8099  0.6425
  691SOL    HW211838   3.355   0.414   1.577  0.7974 -1.2585  0.2240
  692SOL     OW11839   2.596   0.423   1.046  0.4923 -0.4796  0.0167
  692SOL    HW111840   2.589   0.458   1.139  2.2111 -1.4180  0.5353
  692SOL    HW211841   2.529   0.469   0.987  0.1093  0.8813  1.4788
  693SOL     OW11842   3.581   4.560   1.764  0.0685 -0.8326  0.6249
  693SOL    HW111843   3.626   4.640   1.803  0.1067 -0.6064  0.1269
  693SOL    HW211844   3.630   4.530   1.682 -0.3499 -0.9302  0.4048
  694SOL     OW11845   2.885   9.390   0.881  0.1185 -0.0015  0.3659
  694SOL    HW111846   2.954   9.461   0.897  1.4387 -1.5954  1.8456
  694SOL    HW211847   2.898   9.315   0.945 -1.1674 -1.6926 -1.2843
  695SOL     OW11848   4.005   2.841   2.126  0.0692 -0.2626 -0.0194
  695SOL    HW111849   4.038   2.932   2.150 -0.5906 -0.1530  0.4905
  695SOL    HW211850   4.010   2.782   2.206 -0.4296 -0.3988 -0.0864
  696SOL     OW11851   3.811   4.218   0.170 -0.1971 -0.2276  0.0120
  696SOL    HW111852   3.727   4.267   0.146 -1.0385 -1.2629  0.7900
  696SOL    HW211853   3.791   4.121   0.183  1.1447 -0.5018  0.1127
  697SOL     OW11854   2.784   3.320   1.353 -0.4655 -0.6326  0.1119
  697SOL    HW111855   2.808   3.417   1.363 -0.8835 -0.4435 -0.7151
  697SOL    HW211856   2.729   3.308   1.271  0.9235 -1.8207 -0.6613
  698SOL     OW11857   3.060   1.290   0.803  0.0552  0.2387 -0.2814
  698SOL    HW111858   2.975   1.299   0.752  0.4794 -1.5142 -1.3261
  698SOL    HW211859   3.040   1.256   0.895 -0.5156  1.5022  0.0759
  699SOL     OW11860   2.898   1.567   1.011  0.8825 -0.3982  0.2666
  699SOL    HW111861   2.939   1.577   0.921  1.4302  1.6764  0.7126
  699SOL    HW211862   2.940   1.632   1.074 -0.5595 -0.7513  1.6294
  700SOL     OW11863   3.406   0.972   0.435  0.2158  0.3469  0.2597
  700SOL    HW111864   3.448   0.883   0.452  1.0726  0.6321 -0.3265
  700SOL    HW211865   3.330   0.986   0.498  1.2242 -0.0268  1.5648
  701SOL     OW11866   3.758   8.198   0.944  0.2124 -0.3066  0.0018
  701SOL    HW111867   3.751   8.261   1.021  1.1812 -0.2340  0.0361
  701SOL    HW211868   3.715   8.111   0.969 -0.4901  0.0947  0.2082
  702SOL     OW11869   3.261   0.874   0.755 -0.1036 -0.4056  0.2456
  702SOL    HW111870   3.187   0.822   0.711 -2.0128  0.4806  2.2724
  702SOL    HW211871   3.242   0.972   0.746  0.3996 -0.1862  1.4888
  703SOL     OW11872   3.420   2.225   2.123  0.3350 -0.4860  0.3598
  703SOL    HW111873   3.324   2.246   2.139  0.6556  1.3903 -0.0597
  703SOL    HW211874   3.433   2.125   2.122 -1.5680 -0.7477  0.5266
  704SOL     OW11875   2.910   0.888   0.945 -0.2011 -0.1361  0.3087
  704SOL    HW111876   2.987   0.904   0.883 -1.1075  1.5040 -0.4296
  704SOL    HW211877   2.826   0.881   0.892 -0.4796 -2.8507  1.0216
  705SOL     OW11878   3.599   3.017   1.378 -0.4933  0.4575 -0.1303
  705SOL    HW111879   3.570   3.065   1.296  0.8586  1.6728  0.0812
  705SOL    HW211880   3.527   3.021   1.447 -0.8013  1.2647 -0.4951
  706SOL     OW11881   2.524   0.805   1.100  0.2066 -0.4159 -0.3061
  706SOL    HW111882   2.606   0.757   1.132  1.3976  1.6934 -0.0995
  706SOL    HW211883   2.443   0.755   1.131  1.3864 -1.4493  1.2199
  707SOL     OW11884   4.459   1.898   2.161  0.0853 -0.3498 -0.4580
  707SOL    HW111885   4.399   1.978   2.159  1.2902  0.5594 -1.8277
  707SOL    HW211886   4.478   1.873   2.256  0.9318  1.9789  0.0377
  708SOL     OW11887   4.119   4.528   0.580  0.8939  0.0994 -0.0502
  708SOL    HW111888   4.106   4.476   0.664  0.4177  0.4542  0.0987
  708SOL    HW211889   4.180   4.605   0.597 -0.2062  0.9188  0.2938
  709SOL     OW11890   3.897   4.425   1.792  0.1827 -0.1355  0.2144
  709SOL    HW111891   3.880   4.404   1.888  1.4996  0.3815  0.5683
  709SOL    HW211892   3.938   4.516   1.784  0.6678 -0.4354 -0.7764
  710SOL     OW11893   3.390   8.869   0.964 -0.0567  0.4959  0.1655
  710SOL    HW111894   3.462   8.800   0.959 -1.6974 -1.5190  2.6825
  710SOL    HW211895   3.427   8.953   1.003  1.4746  0.3142 -0.8722
  711SOL     OW11896   3.135   6.495   1.916  0.2141 -0.1826 -0.4495
  711SOL    HW111897   3.078   6.414   1.927 -1.5410  0.4380 -4.2181
  711SOL    HW211898   3.181   6.491   1.827  0.2075  2.8782 -0.6322
  712SOL     OW11899   2.971   1.113   2.291  0.2277  0.6042  0.0031
  712SOL    HW111900   3.033   1.102   2.213  0.5272  0.7555  0.2219
  712SOL    HW211901   2.900   1.180   2.266  0.3857  0.7345 -0.1010
  713SOL     OW11902   3.452   9.098   1.646  0.6870 -0.0241  0.3240
  713SOL    HW111903   3.458   9.081   1.548  0.6344  1.0552  0.1298
  713SOL    HW211904   3.376   9.046   1.684  0.0862  0.3274 -0.3885
  714SOL     OW11905   2.343   1.364   0.969  0.4183  0.4100 -0.5976
  714SOL    HW111906   2.330   1.275   0.924  0.4482 -0.2257  0.6417
  714SOL    HW211907   2.348   1.436   0.899  0.9622 -0.6220 -1.6422
  715SOL     OW11908   3.423   4.387   0.433 -0.1721 -0.3663 -0.3178
  715SOL    HW111909   3.365   4.430   0.502  0.5807 -1.2683  0.8940
  715SOL    HW211910   3.393   4.414   0.342 -1.6431  0.2432  0.3462
  716SOL     OW11911   2.660   1.472   0.886 -0.5431 -0.4960  0.9060
  716SOL    HW111912   2.602   1.535   0.834  1.6168 -1.1706 -2.4755
  716SOL    HW211913   2.743   1.520   0.915  0.7878 -1.5044 -1.0912
  717SOL     OW11914   2.541   9.839   2.609 -0.2248 -0.2763 -0.5591
  717SOL    HW111915   2.536   9.739   2.602 -0.2436 -0.1825 -1.8401
  717SOL    HW211916   2.630   9.870   2.575 -0.9544  0.3079 -1.9491
  718SOL     OW11917   2.457   9.637   2.084 -0.0376 -0.0554  0.5647
  718SOL    HW111918   2.381   9.605   2.028  0.6047 -0.9530  0.1984
  718SOL    HW211919   2.470   9.576   2.162  1.4906 -0.9804 -0.3944
  719SOL     OW11920   2.400   5.306   2.650  0.1074  0.2930 -0.4341
  719SOL    HW111921   2.446   5.240   2.590  0.9028  0.1172  0.3655
  719SOL    HW211922   2.360   5.379   2.595 -2.6025 -1.9417 -1.5496
  720SOL     OW11923   4.213   2.908   0.643  0.1605 -0.1934  0.7091
  720SOL    HW111924   4.139   2.877   0.702 -0.6889  0.0478 -0.2018
  720SOL    HW211925   4.299   2.865   0.670 -0.1944  0.0201  2.1862
  721SOL     OW11926   2.362   4.039   0.856  0.1587  0.7248  0.4918
  721SOL    HW111927   2.284   4.041   0.919 -0.6744  1.0577 -0.5293
  721SOL    HW211928   2.367   4.126   0.807 -0.5474 -0.3481 -1.4995
  722SOL     OW11929   3.361   1.201   2.397  0.0684 -0.3653  0.5073
  722SOL    HW111930   3.365   1.148   2.312  1.7042  0.7343 -0.1244
  722SOL    HW211931   3.434   1.170   2.459  1.7579  1.8537 -0.3182
  723SOL     OW11932   3.338   2.047   1.461  0.0443  0.0861 -0.1597
  723SOL    HW111933   3.381   2.031   1.550  0.7109  0.9827 -0.3118
  723SOL    HW211934   3.240   2.028   1.468  0.1119  0.0299  0.7387
  724SOL     OW11935   2.389   9.862   1.057 -0.4748 -0.0407 -0.3011
  724SOL    HW111936   2.391   9.769   1.022 -0.5976 -0.3089  0.3902
  724SOL    HW211937   2.337   9.921   0.995  0.9926 -0.0700 -1.5873
  725SOL     OW11938   2.427   5.127   1.894 -0.3163 -0.0131 -0.1884
  725SOL    HW111939   2.360   5.119   1.820  0.8664  0.1786 -1.3096
  725SOL    HW211940   2.506   5.181   1.862 -0.5104  1.4696  1.7465
  726SOL     OW11941   3.042   2.881   2.045 -0.2995  0.2164  0.4991
  726SOL    HW111942   3.085   2.893   1.956 -1.2109 -0.7779 -0.0820
  726SOL    HW211943   2.946   2.858   2.033 -0.2808 -0.5532  1.7371
  727SOL     OW11944   2.776   5.300   0.776 -0.1860 -0.0784 -0.0486
  727SOL    HW111945   2.704   5.290   0.844  0.4654  2.5676  1.1170
  727SOL    HW211946   2.752   5.374   0.713 -0.0448 -1.4441 -1.7196
  728SOL     OW11947   3.377   9.449   0.138  0.3801  0.2989  0.0370
  728SOL    HW111948   3.301   9.477   0.080  1.3705 -0.7238 -1.7990
  728SOL    HW211949   3.342   9.422   0.228 -1.2302  1.3295 -0.2567
  729SOL     OW11950   3.127   3.507   1.450 -0.2261 -0.2124  0.4478
  729SOL    HW111951   3.037   3.520   1.408  0.2747 -1.6578 -1.1337
  729SOL    HW211952   3.116   3.487   1.548 -1.5595  0.5150  0.4572
  730SOL     OW11953   2.711   1.969   2.230 -0.5572 -0.2462 -0.5410
  730SOL    HW111954   2.643   1.930   2.168 -0.6574 -2.0461  0.6680
  730SOL    HW211955   2.673   1.973   2.323  0.4825  0.0624 -0.1241
  731SOL     OW11956   2.423   6.487   2.344  0.1207  0.7652 -0.5347
  731SOL    HW111957   2.506   6.542   2.349 -0.0627  1.1951 -2.0459
  731SOL    HW211958   2.400   6.452   2.435  3.0043 -0.8967 -0.4038
  732SOL     OW11959   3.046   3.140   1.659 -0.0642 -0.1721 -0.5140
  732SOL    HW111960   3.138   3.132   1.622 -0.0858  0.0237 -0.6114
  732SOL    HW211961   2.979   3.118   1.588 -0.2069  3.1130 -1.4900
  733SOL     OW11962   3.841   4.556   0.602  0.1555  0.9064  0.0449
  733SOL    HW111963   3.808   4.504   0.523 -2.5859  0.7117  1.2603
  733SOL    HW211964   3.939   4.540   0.613  0.1753 -0.7351 -2.0612
  734SOL     OW11965   3.689   3.974   1.444  0.5534 -0.3644 -0.0144
  734SOL    HW111966   3.740   3.974   1.530  1.1361 -2.2037 -0.3301
  734SOL    HW211967   3.702   4.061   1.397  2.0099 -0.1733  0.7228
  735SOL     OW11968   3.300   4.529   2.632 -0.0762  0.0375  0.0373
  735SOL    HW111969   3.273   4.466   2.705  0.4847  0.8982  0.9973
  735SOL    HW211970   3.398   4.518   2.613  0.1042  0.8915  0.4759
  736SOL     OW11971   3.361   8.651   2.469 -0.0270 -0.0234  0.1912
  736SOL    HW111972   3.326   8.594   2.394  0.0562 -0.5778  0.5781
  736SOL    HW211973   3.454   8.680   2.447 -0.3392  0.5807 -0.3496
  737SOL     OW11974   2.423   9.360   0.828 -0.0421 -0.3319  0.0158
  737SOL    HW111975   2.472   9.344   0.914 -1.5875  0.2151  1.0246
  737SOL    HW211976   2.370   9.279   0.804 -0.1117 -0.2618 -0.0722
  738SOL     OW11977   3.950   3.328   1.952  0.3311 -0.0354  0.2762
  738SOL    HW111978   3.958   3.407   1.891 -0.5695 -0.6917 -0.7017
  738SOL    HW211979   3.866   3.279   1.931  0.8415 -1.2009  0.9613
  739SOL     OW11980   4.499   1.699   0.867  0.5497  0.0038 -0.1586
  739SOL    HW111981   4.576   1.762   0.856  0.5242  0.0888  0.1380
  739SOL    HW211982   4.416   1.752   0.885  0.3464 -0.0661 -0.8549
  740SOL     OW11983   2.651   8.150   1.019 -0.0567  0.0560  0.0981
  740SOL    HW111984   2.647   8.158   1.119 -1.6181  0.4148  0.0175
  740SOL    HW211985   2.587   8.215   0.977  0.5044 -0.1697 -1.1283
  741SOL     OW11986   4.297   1.038   0.855  0.7208  0.0554  0.5691
  741SOL    HW111987   4.206   1.079   0.851  0.3718 -0.4757  2.4696
  741SOL    HW211988   4.349   1.082   0.928  1.6783 -0.2598  0.0748
  742SOL     OW11989   2.536   9.919   1.306 -0.1118 -0.1780 -0.7320
  742SOL    HW111990   2.469   9.919   1.231  0.2122 -1.3905 -1.0302
  742SOL    HW211991   2.619   9.966   1.277 -0.6928  1.0161 -0.4855
  743SOL     OW11992   4.131   0.929   0.435 -0.1128  0.0011 -0.3074
  743SOL    HW111993   4.184   1.008   0.403  0.5969 -0.3514 -0.0220
  743SOL    HW211994   4.149   0.915   0.532 -2.1292  0.9614  0.2260
  744SOL     OW11995   2.855   3.571   1.417 -0.1427  0.4268  0.1644
  744SOL    HW111996   2.838   3.600   1.511  1.6225  1.4243  0.1845
  744SOL    HW211997   2.816   3.637   1.354 -1.8830 -0.5665  0.1754
  745SOL     OW11998   3.268   3.532   1.901 -0.5225 -0.5440  0.6213
  745SOL    HW111999   3.364   3.547   1.876 -0.3980 -0.2272  1.2666
  745SOL    HW212000   3.215   3.510   1.819  0.0770 -0.5914  0.2431
  746SOL     OW12001   2.769   8.199   1.970  0.2470  0.3929  0.1001
  746SOL    HW112002   2.685   8.206   2.025  0.8265 -1.8958  1.3366
  746SOL    HW212003   2.838   8.262   2.007 -0.6397  1.7172 -0.4454
  747SOL     OW12004   3.578   2.904   0.457 -0.5419 -0.4342 -0.2267
  747SOL    HW112005   3.482   2.932   0.466 -0.5467  0.5323 -3.0106
  747SOL    HW212006   3.624   2.918   0.544 -2.3269  1.4158  0.4630
  748SOL     OW12007   3.196   5.362   0.151  0.4029 -0.6585  0.7202
  748SOL    HW112008   3.133   5.295   0.189  1.3843 -1.3162  1.2116
  748SOL    HW212009   3.280   5.316   0.123 -0.1344 -0.1184 -1.8864
  749SOL     OW12010   3.791   2.107   1.083  0.0972  0.3157  1.0783
  749SOL    HW112011   3.727   2.070   1.015  1.2670 -0.0300  0.1461
  749SOL    HW212012   3.763   2.199   1.109 -0.5174  0.3471  0.3253
  750SOL     OW12013   5.033   2.943   1.245  0.3316 -0.0694  0.0305
  750SOL    HW112014   4.974   3.005   1.193  0.4899 -1.0992 -1.4201
  750SOL    HW212015   4.977   2.881   1.300 -0.0130 -1.5393 -1.9166
  751SOL     OW12016   2.756   0.074   1.903 -0.2832 -0.2176 -0.0213
  751SOL    HW112017   2.717  -0.006   1.947  0.0879 -0.7920 -0.7220
  751SOL    HW212018   2.698   0.101   1.826  0.1565 -0.4749 -0.4516
  752SOL     OW12019   2.803   8.217   0.689 -0.4261 -0.2215 -0.3547
  752SOL    HW112020   2.819   8.289   0.621  0.3107 -0.1596 -0.1177
  752SOL    HW212021   2.705   8.199   0.696 -0.4294 -0.9798 -2.2050
  753SOL     OW12022   2.390   9.052   1.485  0.0803  0.1540 -0.3277
  753SOL    HW112023   2.422   9.146   1.494 -0.7723  0.4563 -0.3548
  753SOL    HW212024   2.424   9.013   1.399  2.5723 -0.4424  0.8987
  754SOL     OW12025   2.392   9.130   1.791  0.0481  0.0000 -0.2892
  754SOL    HW112026   2.380   9.102   1.696 -0.8026  0.5261 -0.3380
  754SOL    HW212027   2.332   9.208   1.811  1.5162  1.0396  0.1760
  755SOL     OW12028   2.439   5.850   2.492  0.1455 -0.1342  0.3782
  755SOL    HW112029   2.451   5.945   2.518  2.2764 -0.4654  0.7503
  755SOL    HW212030   2.415   5.845   2.395 -0.5823  0.8044  0.5064
  756SOL     OW12031   3.056   2.731   1.779 -0.6603  0.2492 -0.2167
  756SOL    HW112032   3.046   2.632   1.785 -1.2427  0.4130  2.2122
  756SOL    HW212033   3.152   2.756   1.787 -0.4426 -0.1568 -1.5531
  757SOL     OW12034   2.593   1.162   1.625  0.2086 -0.0052  0.1442
  757SOL    HW112035   2.518   1.096   1.626  0.1753  0.0248 -0.2485
  757SOL    HW212036   2.678   1.116   1.653  0.2225 -0.2579 -0.3117
  758SOL     OW12037   3.041   9.960   0.985 -0.5676 -0.2146  0.7577
  758SOL    HW112038   3.072   9.964   1.080 -0.1335 -0.2571  0.6199
  758SOL    HW212039   3.092   9.889   0.937 -2.3681 -1.7469  1.0710
  759SOL     OW12040   4.501   3.786   2.522  0.0563 -0.0739 -0.2774
  759SOL    HW112041   4.514   3.717   2.593  3.2930  0.2308 -0.4978
  759SOL    HW212042   4.577   3.850   2.523 -1.2663  1.5984 -2.2116
  760SOL     OW12043   2.948   2.622   0.148 -0.1530 -0.1807  0.2036
  760SOL    HW112044   2.944   2.716   0.181 -0.3370  0.8155 -2.5017
  760SOL    HW212045   3.032   2.609   0.094 -0.6020 -1.2821 -0.2568
  761SOL     OW12046   3.002   6.953   1.305  0.0508  0.0057 -0.5972
  761SOL    HW112047   3.016   6.863   1.264 -0.5819  0.5327 -2.0020
  761SOL    HW212048   3.078   7.013   1.279  2.3521 -1.0998  3.2597
  762SOL     OW12049   4.185   2.839   1.349  0.2797  0.2677 -0.1163
  762SOL    HW112050   4.161   2.742   1.347  5.4465 -1.1694 -0.1810
  762SOL    HW212051   4.165   2.876   1.440  3.0346 -2.3374  1.6605
  763SOL     OW12052   3.048   0.404   0.161  0.1477  0.3262 -0.6009
  763SOL    HW112053   2.980   0.444   0.223  1.5714  1.2499  0.4007
  763SOL    HW212054   3.004   0.376   0.076 -1.5965  0.3079  0.2963
  764SOL     OW12055   3.299   2.942   0.040 -0.0932 -0.2406  0.0664
  764SOL    HW112056   3.226   2.923  -0.026  1.1893 -0.7312 -1.2491
  764SOL    HW212057   3.295   3.038   0.068 -1.1093 -0.2107 -0.1599
  765SOL     OW12058   2.751   2.628   0.770  0.2052 -0.3819 -0.4229
  765SOL    HW112059   2.813   2.668   0.837  0.1395 -0.6204 -0.2184
  765SOL    HW212060   2.798   2.620   0.682 -0.1758  1.2727 -0.7871
  766SOL     OW12061   3.452   3.802   0.604  0.2078  0.1439 -0.0196
  766SOL    HW112062   3.445   3.804   0.704  0.0004 -1.1383  0.0007
  766SOL    HW212063   3.548   3.802   0.577  0.2827 -0.8492  0.2259
  767SOL     OW12064   3.237   3.103   0.565 -0.8755  0.0785 -0.1780
  767SOL    HW112065   3.258   3.200   0.575 -0.1598 -0.0898 -0.0229
  767SOL    HW212066   3.178   3.089   0.486  2.5353  0.1586 -2.8604
  768SOL     OW12067   2.679   7.223   0.112 -0.2035 -0.1128 -0.4936
  768SOL    HW112068   2.706   7.128   0.128  0.4397 -0.0301 -1.0425
  768SOL    HW212069   2.611   7.226   0.039  0.6489 -0.0607 -1.2998
  769SOL     OW12070   3.107   5.657   1.453  0.3725  0.2754  0.4464
  769SOL    HW112071   3.048   5.733   1.425  0.9122  0.4967 -0.0864
  769SOL    HW212072   3.142   5.610   1.372 -0.9110 -1.2883  0.7706
  770SOL     OW12073   2.584   0.599   2.550  0.6300 -0.5255  0.3326
  770SOL    HW112074   2.495   0.633   2.580  0.1616 -1.0802 -0.4077
  770SOL    HW212075   2.586   0.500   2.559  1.8933 -0.3456  2.2249
  771SOL     OW12076   2.659   4.342   0.853  0.1045  0.6573  0.1924
  771SOL    HW112077   2.672   4.412   0.923  0.1122  0.2737  0.5778
  771SOL    HW212078   2.680   4.380   0.763  1.8396  0.6547  0.5743
  772SOL     OW12079   3.669   8.500   0.310  0.3486 -0.2877  0.5470
  772SOL    HW112080   3.595   8.538   0.366  0.0593 -2.5985  1.8107
  772SOL    HW212081   3.648   8.513   0.213  0.0816  2.3389  0.9401
  773SOL     OW12082   3.011   1.585   2.589 -0.0440 -0.2327 -0.1674
  773SOL    HW112083   2.950   1.527   2.535 -2.2062 -0.8788  2.8172
  773SOL    HW212084   3.069   1.527   2.647  0.6141  0.4814 -0.1087
  774SOL     OW12085   3.818   9.056   0.210  0.1384  0.1144  0.2973
  774SOL    HW112086   3.827   9.000   0.128  1.7813  0.3288  0.3152
  774SOL    HW212087   3.850   9.149   0.192 -0.3598  0.4135  0.9254
  775SOL     OW12088   2.468   3.245   0.758  0.2399 -0.0738 -0.1921
  775SOL    HW112089   2.508   3.336   0.752  0.2620 -0.1956 -2.4446
  775SOL    HW212090   2.526   3.186   0.814 -0.2467  1.5156  2.0312
  776SOL     OW12091   2.266   4.015   1.904 -0.1325 -0.2230  0.0055
  776SOL    HW112092   2.300   3.947   1.839 -0.2600 -1.2118  0.9511
  776SOL    HW212093   2.166   4.011   1.907 -0.2816  1.5240 -1.5347
  777SOL     OW12094   4.044   2.376   1.180  0.0186 -0.0150 -0.0957
  777SOL    HW112095   4.055   2.352   1.083  0.1345 -0.4163  0.0156
  777SOL    HW212096   3.956   2.420   1.193 -0.5334 -1.0817 -0.1735
  778SOL     OW12097   2.736   6.992   1.940 -0.2418  0.2437 -0.1353
  778SOL    HW112098   2.768   6.950   1.854  2.0118  0.6669  0.4588
  778SOL    HW212099   2.646   7.032   1.925  0.0462  0.1923 -2.2875
  779SOL     OW12100   4.031   3.282   0.949  0.3836  0.4902 -0.1157
  779SOL    HW112101   4.125   3.249   0.957 -0.6053 -2.6017 -0.6083
  779SOL    HW212102   3.974   3.210   0.909 -1.9708  2.7403 -0.9047
  780SOL     OW12103   2.540   1.064   1.080 -0.5486  0.3030  0.1544
  780SOL    HW112104   2.546   0.968   1.108  0.1597  0.0898 -0.7092
  780SOL    HW212105   2.482   1.072   1.000  1.0611  0.2982 -1.0510
  781SOL     OW12106   3.882   3.775   1.853 -0.2421  0.1267 -0.6550
  781SOL    HW112107   3.874   3.809   1.759 -0.6817 -0.6430 -0.9030
  781SOL    HW212108   3.791   3.758   1.890 -0.0921  0.9765  0.1226
  782SOL     OW12109   3.139   4.896   0.289  0.3547  0.0706  0.1287
  782SOL    HW112110   3.207   4.870   0.358 -0.3116  0.8354  1.0822
  782SOL    HW212111   3.063   4.832   0.290  0.4956 -0.1039 -0.1284
  783SOL     OW12112   2.538   7.213   0.809  0.2326  0.2078  0.1418
  783SOL    HW112113   2.619   7.154   0.806 -0.3676 -0.6013 -0.6159
  783SOL    HW212114   2.546   7.283   0.738 -0.4774 -0.8856 -1.0344
  784SOL     OW12115   2.554   1.363   1.444 -0.3754  0.4767 -0.1750
  784SOL    HW112116   2.578   1.290   1.507 -2.1429 -1.7325 -1.9636
  784SOL    HW212117   2.554   1.328   1.350 -1.7604  2.6292 -1.0245
  785SOL     OW12118   3.263   8.804   0.708 -0.1760  0.1003  0.2066
  785SOL    HW112119   3.356   8.814   0.673 -0.5621  1.8163 -0.3585
  785SOL    HW212120   3.260   8.831   0.804 -0.4059  1.6823 -0.2273
  786SOL     OW12121   3.702   8.500   1.932  0.2225 -0.0309 -0.5928
  786SOL    HW112122   3.658   8.410   1.933 -0.1851  0.1800  0.7833
  786SOL    HW212123   3.780   8.498   1.869  0.6589 -1.5582 -0.0278
  787SOL     OW12124   3.398   9.718   1.791 -0.4544 -0.4388  0.7627
  787SOL    HW112125   3.469   9.718   1.861 -1.8378 -0.7337  2.1745
  787SOL    HW212126   3.317   9.766   1.824 -1.8599 -2.3057  0.1582
  788SOL     OW12127   2.384   4.289   1.960  0.0017 -0.2699 -0.4089
  788SOL    HW112128   2.481   4.298   1.937  0.0021 -0.2803 -0.4122
  788SOL    HW212129   2.353   4.196   1.939  0.0864 -0.3789 -0.0562
  789SOL     OW12130   3.030   8.079   0.188  0.1161  0.0156 -0.2751
  789SOL    HW112131   3.097   8.148   0.159 -2.0151  1.8701 -0.9452
  789SOL    HW212132   2.978   8.048   0.109  0.0414 -1.2626  0.2740
  790SOL     OW12133   2.574   5.195   1.490 -0.1301  0.2475  0.4286
  790SOL    HW112134   2.539   5.255   1.562 -0.5570 -2.2625  2.4065
  790SOL    HW212135   2.661   5.156   1.519 -0.1283 -0.5223 -0.5677
  791SOL     OW12136   2.908   2.579   0.545  0.4314 -0.3714  0.4308
  791SOL    HW112137   2.821   2.549   0.506  0.8446 -0.5887 -0.3347
  791SOL    HW212138   2.940   2.661   0.497  0.5317 -0.1539  0.8653
  792SOL     OW12139   2.498   9.837   2.301  0.5814 -0.2348 -0.3767
  792SOL    HW112140   2.481   9.805   2.394 -1.4840 -0.0403 -0.6678
  792SOL    HW212141   2.456   9.774   2.236 -2.6004  2.3931 -0.9899
  793SOL     OW12142   3.489   2.748   1.475 -0.1404  0.2751 -0.4851
  793SOL    HW112143   3.524   2.676   1.416 -0.6609  1.1697 -1.9254
  793SOL    HW212144   3.548   2.759   1.555  1.0818 -0.3393 -1.3006
  794SOL     OW12145   3.283   3.304   2.226  0.3119 -0.4804 -0.3259
  794SOL    HW112146   3.353   3.245   2.265  2.3010  1.2394 -1.2397
  794SOL    HW212147   3.276   3.289   2.128  1.3535  1.2947 -0.6907
  795SOL     OW12148   2.968   3.768   2.395 -0.2492  0.5372 -0.7792
  795SOL    HW112149   2.896   3.719   2.445 -0.6295  0.9920 -0.8770
  795SOL    HW212150   2.929   3.807   2.311 -0.1963  1.9303 -0.1607
  796SOL     OW12151   2.812   2.807   1.913 -1.0468  0.3226  0.4063
  796SOL    HW112152   2.900   2.791   1.867 -0.9400 -0.0910  0.7611
  796SOL    HW212153   2.743   2.826   1.844 -1.0522 -1.0752  0.0102
  797SOL     OW12154   3.851   0.596   1.163  0.0668  0.0071 -0.2451
  797SOL    HW112155   3.865   0.618   1.260  2.1972 -1.3980 -0.2151
  797SOL    HW212156   3.774   0.532   1.155 -0.9147  1.0816  0.3860
  798SOL     OW12157   3.799   1.294   1.012  0.0299 -0.0069 -0.0989
  798SOL    HW112158   3.795   1.376   1.068  1.3392 -0.1531  0.2325
  798SOL    HW212159   3.748   1.220   1.057  0.0841  0.2114  0.3185
  799SOL     OW12160   3.293   8.265   0.874 -0.1916 -0.2856 -0.0311
  799SOL    HW112161   3.343   8.341   0.832  1.6630 -0.8635  1.0572
  799SOL    HW212162   3.207   8.251   0.826  0.4136  1.1448 -1.5809
  800SOL     OW12163   2.534   6.959   1.504  0.2856  0.4215  0.4389
  800SOL    HW112164   2.617   6.968   1.448 -1.5663  0.4818 -2.4471
  800SOL    HW212165   2.520   6.862   1.525  0.5625  0.2930  0.0596
  801SOL     OW12166   2.721   3.368   2.544  0.2598  0.1573 -0.6720
  801SOL    HW112167   2.763   3.299   2.486 -2.7554 -2.7926  0.4835
  801SOL    HW212168   2.642   3.407   2.497  0.8433  1.4913 -0.5656
  802SOL     OW12169   3.492   4.676   2.329 -0.2976 -0.1932 -0.2425
  802SOL    HW112170   3.502   4.598   2.391 -0.5632 -0.4844 -0.5618
  802SOL    HW212171   3.555   4.748   2.356 -1.5410  0.3195  1.3418
  803SOL     OW12172   2.940   7.276   0.705 -0.0892  0.2622  0.3690
  803SOL    HW112173   2.977   7.362   0.740 -0.1318  1.3143 -2.0756
  803SOL    HW212174   2.965   7.266   0.608 -1.9803 -1.4088  0.0283
  804SOL     OW12175   3.339   0.632   0.897  0.5203 -0.3072  0.5054
  804SOL    HW112176   3.319   0.708   0.835  1.1019 -1.6723 -1.4110
  804SOL    HW212177   3.267   0.625   0.965 -0.4745  0.8348 -0.4042
  805SOL     OW12178   4.497   1.984   0.150 -0.4293 -0.2976 -0.1389
  805SOL    HW112179   4.417   2.038   0.124  0.7427  1.5275 -0.0951
  805SOL    HW212180   4.475   1.887   0.145 -2.0754  0.1386 -1.8996
  806SOL     OW12181   2.496   9.314   1.447 -0.2281 -0.3136 -0.1765
  806SOL    HW112182   2.503   9.339   1.351 -0.9435  0.2764 -0.0850
  806SOL    HW212183   2.580   9.269   1.477 -0.1514 -0.8256 -1.1685
  807SOL     OW12184   3.634   1.524   0.590 -0.2389 -0.1909 -0.2244
  807SOL    HW112185   3.670   1.473   0.668 -1.0593  1.2959  1.1578
  807SOL    HW212186   3.673   1.488   0.505  0.6148 -1.8699  0.8616
  808SOL     OW12187   3.538   0.732   0.466  0.6840  0.0937 -0.0615
  808SOL    HW112188   3.503   0.673   0.393 -2.7978  1.1925  0.5837
  808SOL    HW212189   3.545   0.679   0.550 -0.1907  0.0294 -0.0243
  809SOL     OW12190   3.043   9.425   2.140 -0.1704 -0.0679 -0.7547
  809SOL    HW112191   2.973   9.354   2.152  1.9362 -2.0486  0.1209
  809SOL    HW212192   3.115   9.391   2.079  1.3306  0.9628  0.4129
  810SOL     OW12193   4.801   3.588   2.577 -0.3237 -0.6034 -0.4606
  810SOL    HW112194   4.765   3.681   2.587  0.6217 -0.0639 -1.8368
  810SOL    HW212195   4.878   3.575   2.640 -2.6165 -1.6382  2.2252
  811SOL     OW12196   2.552   7.242   2.543  0.3374  0.3594 -0.8265
  811SOL    HW112197   2.456   7.215   2.533  0.6169 -1.1809  0.4411
  811SOL    HW212198   2.605   7.204   2.467  0.7040 -2.7094  0.8700
  812SOL     OW12199   4.819   3.107   0.254  0.5791 -0.1060 -0.2509
  812SOL    HW112200   4.807   3.031   0.190 -0.9341  0.0857 -0.1996
  812SOL    HW212201   4.825   3.193   0.204 -1.7858  0.1763 -0.1004
  813SOL     OW12202   4.825   1.227   2.627  0.0447 -0.2486  0.1729
  813SOL    HW112203   4.885   1.148   2.621 -0.4013 -0.5911  0.1551
  813SOL    HW212204   4.821   1.273   2.539 -0.5867 -0.8722 -0.1297
  814SOL     OW12205   3.987   2.904   0.459 -0.5775  0.0893 -0.5243
  814SOL    HW112206   3.910   2.894   0.397 -0.0889  1.3785 -1.3818
  814SOL    HW212207   4.033   2.816   0.472 -0.8884 -0.2486 -1.7258
  815SOL     OW12208   3.507   3.506   0.064  0.1288  0.8047 -0.0877
  815SOL    HW112209   3.425   3.564   0.066 -0.2035  0.3155  0.6552
  815SOL    HW212210   3.547   3.502   0.155  0.1700 -0.1020 -0.1405
  816SOL     OW12211   2.387   9.599   0.968 -0.1214 -0.4874 -0.1311
  816SOL    HW112212   2.354   9.526   0.908 -0.0304  0.8837 -1.8911
  816SOL    HW212213   2.486   9.592   0.977  0.2415  0.9887 -2.5107
  817SOL     OW12214   2.936   1.350   1.694 -0.3121  0.3577  0.1194
  817SOL    HW112215   2.916   1.317   1.787  0.8578  2.6386  1.2201
  817SOL    HW212216   2.880   1.431   1.676  1.4648  1.5464 -0.1150
  818SOL     OW12217   2.870   0.814   0.314 -0.0190 -0.4147 -0.2907
  818SOL    HW112218   2.801   0.790   0.246 -1.9567  0.0591  1.4566
  818SOL    HW212219   2.931   0.884   0.276 -1.9403  0.8814 -1.0897
  819SOL     OW12220   2.481   4.496   2.375  0.5336  0.1216 -0.4990
  819SOL    HW112221   2.510   4.520   2.282 -0.2807  2.1466 -0.2538
  819SOL    HW212222   2.397   4.441   2.370  1.5863 -1.4839 -1.0108
  820SOL     OW12223   3.492   1.243   1.241 -0.0933  0.3559  0.1440
  820SOL    HW112224   3.578   1.294   1.233  0.5752 -0.4493  2.0038
  820SOL    HW212225   3.415   1.304   1.221  0.8258  1.4607 -0.0655
  821SOL     OW12226   3.456   8.750   2.148  0.0459 -0.5000  0.2037
  821SOL    HW112227   3.362   8.748   2.115 -0.2512  0.6680  0.9431
  821SOL    HW212228   3.512   8.805   2.086 -0.3884  1.2069  1.2820
  822SOL     OW12229   4.252   2.529   0.747 -0.1589  0.5485  0.0907
  822SOL    HW112230   4.327   2.571   0.697  0.1260 -0.6576 -0.5132
  822SOL    HW212231   4.165   2.557   0.707  0.0441  0.1953 -0.5914
  823SOL     OW12232   3.191   7.810   1.673  0.2592 -0.1400  0.3938
  823SOL    HW112233   3.242   7.877   1.619  0.4915  0.1094  0.9137
  823SOL    HW212234   3.186   7.724   1.623 -1.5912  0.7843 -1.0794
  824SOL     OW12235   2.634   4.013   1.243 -0.2473  0.2430 -0.5050
  824SOL    HW112236   2.700   3.938   1.244 -0.2479  0.2487  1.4166
  824SOL    HW212237   2.681   4.098   1.216  0.0094 -0.2048 -1.4898
  825SOL     OW12238   4.116   1.618   1.835  0.9655 -0.1831  0.3553
  825SOL    HW112239   4.142   1.613   1.739  0.8477 -1.3414  0.3808
  825SOL    HW212240   4.173   1.686   1.882  0.3957  1.0731 -0.7202
  826SOL     OW12241   2.763   1.019   1.295  0.3292 -0.2185 -0.5603
  826SOL    HW112242   2.828   1.082   1.338 -0.4138 -0.0231  0.2887
  826SOL    HW212243   2.695   1.072   1.244 -1.0368 -0.2475  1.1886
  827SOL     OW12244   2.767   2.012   1.040  0.0580  0.4177 -0.1827
  827SOL    HW112245   2.855   1.997   0.996  0.4789 -0.4739  0.9165
  827SOL    HW212246   2.766   1.964   1.128 -2.0565 -0.8518 -0.8490
  828SOL     OW12247   4.079   2.036   1.898  0.6911  0.2318 -0.1564
  828SOL    HW112248   4.081   1.973   1.976  1.2930  0.9440  0.4055
  828SOL    HW212249   4.160   2.095   1.900 -0.0332  1.2471 -0.5075
  829SOL     OW12250   2.623   9.609   1.592 -0.0912 -0.1117 -0.5132
  829SOL    HW112251   2.544   9.588   1.536 -0.1252 -0.3649 -0.3730
  829SOL    HW212252   2.659   9.524   1.632 -1.0831  0.2365  1.2005
  830SOL     OW12253   4.337   2.912   0.969  0.7172 -0.3042  0.3918
  830SOL    HW112254   4.388   2.830   0.994  1.5027  0.8488  2.6942
  830SOL    HW212255   4.246   2.908   1.010  1.0652  0.3658  1.2406
  831SOL     OW12256   3.039   4.817   2.611 -0.1285  0.3416  0.4237
  831SOL    HW112257   3.010   4.759   2.535 -1.5063  1.7092 -0.1060
  831SOL    HW212258   2.973   4.809   2.686  2.1789 -2.4733  2.3113
  832SOL     OW12259   2.850   1.610   1.667 -0.2319  0.0770  0.5946
  832SOL    HW112260   2.793   1.634   1.746  1.5341 -0.9278  2.2081
  832SOL    HW212261   2.931   1.669   1.666  0.2265 -0.5576  0.0645
  833SOL     OW12262   3.979   8.433   0.532 -0.5034 -0.4128  0.4210
  833SOL    HW112263   3.977   8.333   0.538  0.7717 -0.3525  1.8438
  833SOL    HW212264   3.908   8.472   0.591 -0.1719 -0.4432  0.8421
  834SOL     OW12265   3.355   2.623   1.834  0.1448 -0.1451 -0.3761
  834SOL    HW112266   3.352   2.723   1.831  4.4921  0.1649  1.3381
  834SOL    HW212267   3.323   2.592   1.923  0.7336 -0.1223 -0.1534
  835SOL     OW12268   2.970   1.514   2.182 -0.2260  0.4681  0.0827
  835SOL    HW112269   3.057   1.513   2.133 -0.9033  0.2922 -1.1466
  835SOL    HW212270   2.943   1.608   2.201  0.6776  0.4986  1.3079
  836SOL     OW12271   2.671   1.899   0.391 -0.1820 -0.2043  0.2546
  836SOL    HW112272   2.759   1.933   0.358  0.5387 -2.1258  0.1314
  836SOL    HW212273   2.672   1.898   0.491  0.1840 -0.7932  0.2521
  837SOL     OW12274   2.412   9.646   1.406  0.2499 -0.0282 -0.1590
  837SOL    HW112275   2.412   9.656   1.307 -2.0215 -0.8275 -0.2695
  837SOL    HW212276   2.396   9.736   1.448  2.4428  0.5230 -0.4566
  838SOL     OW12277   2.879   7.589   0.069 -0.0724 -0.7045 -0.7445
  838SOL    HW112278   2.824   7.596  -0.014 -0.3941  0.8265 -0.4156
  838SOL    HW212279   2.818   7.585   0.149  0.2754  0.1344 -0.4365
  839SOL     OW12280   2.599   0.566   1.275 -0.4182  0.1507 -0.3141
  839SOL    HW112281   2.677   0.625   1.296  0.4259 -0.4607 -1.6838
  839SOL    HW212282   2.577   0.509   1.355  1.0557 -0.2501 -0.1893
  840SOL     OW12283   2.909   9.650   2.664  0.2604 -0.3120 -0.1753
  840SOL    HW112284   2.883   9.741   2.633 -2.4374  0.1124  2.9695
  840SOL    HW212285   2.839   9.584   2.636  1.0228 -0.9908 -0.4794
  841SOL     OW12286   2.912   4.750   0.303  0.0043 -0.2720  0.3487
  841SOL    HW112287   2.860   4.690   0.241 -0.8329  0.9547 -0.1482
  841SOL    HW212288   2.849   4.806   0.356  0.8217  2.5150 -1.5362
  842SOL     OW12289   2.492   3.776   0.804 -0.2619  0.5090  0.1132
  842SOL    HW112290   2.589   3.799   0.796 -0.2185  0.1238 -0.4281
  842SOL    HW212291   2.437   3.850   0.765 -0.2614  1.5833  2.0316
  843SOL     OW12292   4.605   2.233   2.156  0.3842  0.0558  0.0455
  843SOL    HW112293   4.655   2.147   2.154  0.4320  0.0917 -0.3522
  843SOL    HW212294   4.509   2.216   2.132  0.6437  0.2776 -1.2149
  844SOL     OW12295   4.413   1.124   0.186  0.6547  0.0453  0.1346
  844SOL    HW112296   4.505   1.159   0.199 -0.3119  2.2535  1.4315
  844SOL    HW212297   4.398   1.103   0.089  1.8254  1.7753 -0.4456
  845SOL     OW12298   3.414   3.421   1.424  0.0371 -0.0065 -0.2091
  845SOL    HW112299   3.345   3.487   1.396  0.4045  1.5859  2.5027
  845SOL    HW212300   3.371   3.349   1.479  0.3561  0.4625  0.6649
  846SOL     OW12301   3.419   1.689   2.146  0.3461  0.5493  0.0590
  846SOL    HW112302   3.352   1.682   2.073  1.5308  0.7079 -1.0572
  846SOL    HW212303   3.372   1.696   2.234 -1.0964  1.0679 -0.7390
  847SOL     OW12304   2.602   0.554   2.061  0.6979  0.6790  0.6612
  847SOL    HW112305   2.609   0.467   2.109  1.2724  0.3706  0.0246
  847SOL    HW212306   2.648   0.625   2.114  1.8011  0.2333  0.3180
  848SOL     OW12307   3.052   3.155   2.613 -0.3509  0.3514 -0.3261
  848SOL    HW112308   3.077   3.065   2.578 -0.8106 -0.3269  1.0501
  848SOL    HW212309   3.124   3.187   2.675  0.1675  1.2704 -1.3930
  849SOL     OW12310   4.149   1.035   1.700  0.3041 -0.1809 -0.2433
  849SOL    HW112311   4.225   1.080   1.654  0.5717  0.1006  0.4591
  849SOL    HW212312   4.174   1.017   1.796 -0.0986 -1.0861 -0.3002
  850SOL     OW12313   2.593   3.170   1.487  0.1334 -0.2782  0.2965
  850SOL    HW112314   2.668   3.219   1.443  0.7938 -1.7629 -0.2730
  850SOL    HW212315   2.580   3.082   1.441 -2.3809  0.2306 -0.0214
  851SOL     OW12316   3.699   9.921   2.274 -0.0452 -0.1794  0.0187
  851SOL    HW112317   3.611   9.942   2.231 -0.5989 -0.7867  0.8496
  851SOL    HW212318   3.703   9.963   2.365  0.4465 -0.3109  0.0617
  852SOL     OW12319   3.380   2.396   1.688  0.4547  0.3935  0.0328
  852SOL    HW112320   3.363   2.489   1.720  2.5837  0.5561  0.7892
  852SOL    HW212321   3.344   2.330   1.755 -2.9920  0.6026 -1.5321
  853SOL     OW12322   2.959   1.801   1.284 -0.4147 -0.5329  0.4120
  853SOL    HW112323   3.003   1.890   1.270  2.0558 -1.3962  2.3261
  853SOL    HW212324   2.868   1.815   1.325 -0.6548  1.1441 -0.6222
  854SOL     OW12325   2.620   9.878   2.028  0.0088 -0.1513  0.2780
  854SOL    HW112326   2.551   9.822   2.074  0.1921 -2.4850 -2.1853
  854SOL    HW212327   2.647   9.834   1.942  1.5159  2.8182 -0.8340
  855SOL     OW12328   3.209   1.648   1.970  0.7909 -0.0952 -0.0669
  855SOL    HW112329   3.164   1.720   1.916  1.6059 -0.3751 -1.1318
  855SOL    HW212330   3.262   1.589   1.909  2.1022 -0.1397  1.1029
  856SOL     OW12331   3.029   8.085   0.781 -0.5025 -0.1493 -0.0082
  856SOL    HW112332   2.945   8.124   0.743 -0.8769 -1.1150 -0.2071
  856SOL    HW212333   3.010   8.044   0.870 -0.4797 -1.2429 -0.4915
  857SOL     OW12334   3.852   1.415   1.281  0.1117  0.2909  0.7705
  857SOL    HW112335   3.782   1.401   1.351  0.6192 -0.1824  1.1929
  857SOL    HW212336   3.902   1.330   1.266 -0.2064  0.3062 -0.4089
  858SOL     OW12337   4.721   1.903   2.127 -0.1590  0.3724  0.2411
  858SOL    HW112338   4.629   1.885   2.162 -0.8106  0.6151 -1.2975
  858SOL    HW212339   4.734   1.856   2.040  2.1375 -1.8182  1.7176
  859SOL     OW12340   3.742   1.955   1.790 -0.5094 -0.4566  0.1312
  859SOL    HW112341   3.795   1.879   1.827 -3.2711 -1.3004  2.5717
  859SOL    HW212342   3.781   1.983   1.702  3.0310 -1.9496  1.1237
  860SOL     OW12343   2.679   0.629   0.603  0.1660 -0.3624 -0.0765
  860SOL    HW112344   2.695   0.530   0.606 -0.9949 -0.5392  0.6602
  860SOL    HW212345   2.620   0.651   0.526  1.2970 -0.1010 -0.8823
  861SOL     OW12346   3.633   8.187   0.422  0.1848  0.0017  0.0775
  861SOL    HW112347   3.727   8.152   0.427 -0.1946 -1.0498  0.0127
  861SOL    HW212348   3.633   8.276   0.377  1.2578  0.4237  0.8845
  862SOL     OW12349   2.677   9.123   0.704 -0.1225  0.2043 -0.0709
  862SOL    HW112350   2.749   9.060   0.731  1.1652  1.8219  0.3369
  862SOL    HW212351   2.717   9.207   0.669 -1.8136  0.6424 -1.0382
  863SOL     OW12352   3.237   2.911   2.228  0.5778 -0.1744 -0.4458
  863SOL    HW112353   3.188   2.976   2.285  0.3836 -0.5693 -0.1622
  863SOL    HW212354   3.177   2.880   2.154 -0.0671 -1.6917  0.6883
  864SOL     OW12355   3.935   1.291   0.424  0.2732 -0.0257  0.1669
  864SOL    HW112356   3.941   1.244   0.336 -1.9432  2.1753 -1.2289
  864SOL    HW212357   3.862   1.251   0.479  0.2437 -0.0175  0.1335
  865SOL     OW12358   3.783   3.325   1.101  0.0846 -0.4430  0.4528
  865SOL    HW112359   3.738   3.401   1.146 -0.1845 -0.4321  0.1654
  865SOL    HW212360   3.881   3.344   1.093 -0.1233  0.3077 -0.4832
  866SOL     OW12361   3.306   7.844   0.862 -0.6909 -0.9443  0.1072
  866SOL    HW112362   3.253   7.834   0.947  0.0002 -2.1546  0.4032
  866SOL    HW212363   3.249   7.818   0.784 -1.4278  0.4592  0.1577
  867SOL     OW12364   3.261   3.207   0.116 -0.3989 -0.4369  0.5282
  867SOL    HW112365   3.293   3.257   0.196 -0.2407 -0.3643  0.4196
  867SOL    HW212366   3.310   3.239   0.035  0.8116 -1.8245  0.6905
  868SOL     OW12367   3.384   8.524   0.825  0.1574  0.3855 -0.0629
  868SOL    HW112368   3.460   8.567   0.872  1.1318 -0.7735 -0.5502
  868SOL    HW212369   3.377   8.561   0.732 -0.3846  1.0739  0.2479
  869SOL     OW12370   3.605   8.266   0.721  0.2265  0.2994  0.3344
  869SOL    HW112371   3.628   8.196   0.652 -0.7643 -0.0108  0.3079
  869SOL    HW212372   3.648   8.242   0.808  2.4154  1.2761 -0.4334
  870SOL     OW12373   2.095   8.055   1.743 -0.2347 -0.0874  0.6766
  870SOL    HW112374   2.171   7.996   1.718  0.1965  0.4986  0.5946
  870SOL    HW212375   2.022   8.000   1.784  1.2486 -0.3431  3.0869
  871SOL     OW12376   3.460   4.119   0.919  0.5293  0.4966 -0.2612
  871SOL    HW112377   3.480   4.175   0.838 -2.5783  1.4981 -0.4178
  871SOL    HW212378   3.389   4.052   0.897 -0.2594  0.6866  1.5871
  872SOL     OW12379   3.329   7.670   0.432  0.3766 -0.0297  0.6364
  872SOL    HW112380   3.397   7.627   0.373  0.0408  0.3190 -0.0060
  872SOL    HW212381   3.277   7.737   0.379 -1.3381 -1.2095  0.7934
  873SOL     OW12382   2.466   1.823   0.964  0.1257  0.2358  0.2652
  873SOL    HW112383   2.531   1.787   1.030 -1.9752 -1.0914  1.6643
  873SOL    HW212384   2.430   1.911   0.996  0.1686  0.2770  0.2008
  874SOL     OW12385   3.362   9.291   2.418 -0.0874 -0.2548  0.2250
  874SOL    HW112386   3.352   9.390   2.410  0.4269 -0.2254 -0.0005
  874SOL    HW212387   3.370   9.267   2.515 -2.3468 -0.2750  0.4371
  875SOL     OW12388   3.105   8.381   0.596  0.0802 -0.2873  0.4873
  875SOL    HW112389   3.065   8.385   0.505 -0.6895  0.5665  0.8602
  875SOL    HW212390   3.203   8.361   0.588  0.0981  0.1910 -0.5361
  876SOL     OW12391   2.522   7.205   1.685  0.2034  0.2741  0.0161
  876SOL    HW112392   2.520   7.130   1.618  0.7561  1.2700 -1.1347
  876SOL    HW212393   2.472   7.283   1.649 -0.3986  0.4631  1.2317
  877SOL     OW12394   2.737   7.599   0.667  0.5805  0.0876  0.0346
  877SOL    HW112395   2.675   7.539   0.616  1.1326 -2.3786  2.1825
  877SOL    HW212396   2.831   7.574   0.646  0.9711  3.3958 -2.7103
  878SOL     OW12397   3.954   0.210   1.433  0.5895  1.0210 -0.0838
  878SOL    HW112398   4.000   0.130   1.472  0.3077  0.7341 -0.3329
  878SOL    HW212399   4.021   0.269   1.389  1.1182  2.0712  2.0574
  879SOL     OW12400   3.392   5.191   0.064 -0.2137  0.7142  0.1771
  879SOL    HW112401   3.315   5.127   0.062 -0.8141  1.4064  0.4563
  879SOL    HW212402   3.422   5.210  -0.030 -0.2588  0.2835  0.0762
  880SOL     OW12403   2.267   6.696   2.322  0.5283  0.3553  0.1538
  880SOL    HW112404   2.301   6.603   2.308 -3.2659 -1.0504 -0.5408
  880SOL    HW212405   2.261   6.715   2.419 -1.4572 -1.3083  0.4025
  881SOL     OW12406   3.448   5.225   0.354 -0.0562 -0.0583 -0.3798
  881SOL    HW112407   3.545   5.243   0.372  0.0408  0.0000 -0.9416
  881SOL    HW212408   3.435   5.211   0.255 -0.0998 -3.2153  0.0081
  882SOL     OW12409   2.806   3.110   2.145  0.2617 -0.2082 -0.2027
  882SOL    HW112410   2.879   3.101   2.077  1.7388  0.5948  1.2406
  882SOL    HW212411   2.840   3.163   2.223 -1.7108 -0.2911  0.7315
  883SOL     OW12412   3.661   3.941   0.986 -0.0431 -0.2126  0.4992
  883SOL    HW112413   3.591   4.012   0.980  0.4003  0.1874  0.0068
  883SOL    HW212414   3.648   3.888   1.070  0.9323  1.8305  1.9865
  884SOL     OW12415   2.496   1.676   0.558 -0.4246 -0.0781 -0.4891
  884SOL    HW112416   2.498   1.775   0.546 -0.8523  0.0871  0.7548
  884SOL    HW212417   2.587   1.638   0.541 -0.3461  0.4709 -1.3405
  885SOL     OW12418   2.928   9.742   0.256  0.2468 -0.1987  0.3018
  885SOL    HW112419   2.998   9.767   0.190 -1.3351  0.7306 -1.0778
  885SOL    HW212420   2.924   9.642   0.266  1.5003 -0.2670  0.1379
  886SOL     OW12421   3.332   3.323   0.893 -0.5582 -0.0310 -0.0638
  886SOL    HW112422   3.282   3.406   0.870  0.4866  0.9179  1.0463
  886SOL    HW212423   3.431   3.340   0.885 -0.3464 -1.3110 -0.3175
  887SOL     OW12424   2.874   8.072   0.424  0.1216 -0.9547  0.3417
  887SOL    HW112425   2.880   8.143   0.495  0.0957 -1.8092  1.2158
  887SOL    HW212426   2.946   8.086   0.357 -1.8176  1.8173 -1.3150
  888SOL     OW12427   2.641   5.308   1.049 -0.1362 -0.1511 -0.9109
  888SOL    HW112428   2.585   5.330   0.968 -1.9399  1.7606  0.8107
  888SOL    HW212429   2.588   5.250   1.111  0.2952  0.5265  0.0977
  889SOL     OW12430   2.879   8.362   1.172 -0.1175 -0.2068  0.5418
  889SOL    HW112431   2.853   8.398   1.083  1.2804  1.6607  0.8513
  889SOL    HW212432   2.868   8.434   1.241  0.7904 -0.9882  1.5223
  890SOL     OW12433   3.733   9.007   2.181  0.3495  0.3782  0.3449
  890SOL    HW112434   3.719   8.923   2.128  1.0985 -0.3152  1.2076
  890SOL    HW212435   3.648   9.058   2.187  0.3085  0.5772 -1.7081
  891SOL     OW12436   2.846   2.770   1.589 -0.1006  0.2865  0.9481
  891SOL    HW112437   2.877   2.757   1.683 -0.4072  0.8636  1.1320
  891SOL    HW212438   2.921   2.750   1.526 -0.1781 -1.0958  1.2644
  892SOL     OW12439   4.208   0.849   0.676  0.2524  0.3272  0.0058
  892SOL    HW112440   4.252   0.888   0.756  0.6736 -0.1853  0.0274
  892SOL    HW212441   4.226   0.751   0.673 -1.1869  0.0485  0.2058
  893SOL     OW12442   3.017   5.212   2.068  0.1448 -0.3129  0.1499
  893SOL    HW112443   2.945   5.281   2.074 -1.2050 -1.6202 -0.5397
  893SOL    HW212444   3.010   5.150   2.146 -0.6668 -1.5319 -0.8651
  894SOL     OW12445   2.344   4.285   0.727  0.5481  0.2292  0.6368
  894SOL    HW112446   2.418   4.306   0.663 -0.0574 -0.6302 -0.3797
  894SOL    HW212447   2.286   4.366   0.739 -0.6098 -0.2012 -1.6708
  895SOL     OW12448   3.560   8.679   1.010  0.1934  0.5933 -0.3176
  895SOL    HW112449   3.652   8.658   0.977 -0.4341 -1.5382 -0.7637
  895SOL    HW212450   3.557   8.672   1.109 -0.0035 -1.4758 -0.4602
  896SOL     OW12451   4.321   2.514   1.150 -0.3972  0.2173 -0.0957
  896SOL    HW112452   4.313   2.468   1.238 -0.2684 -0.2612 -0.3350
  896SOL    HW212453   4.311   2.448   1.076 -0.2224  0.5717 -0.4403
  897SOL     OW12454   2.711   8.340   2.307  0.2327 -0.5856 -0.3735
  897SOL    HW112455   2.751   8.251   2.332 -0.5000 -0.4480  1.4023
  897SOL    HW212456   2.655   8.330   2.225  0.6475 -1.6414 -0.5321
  898SOL     OW12457   3.276   7.323   0.438  0.1861 -0.4230  0.6593
  898SOL    HW112458   3.328   7.285   0.362  0.5548 -1.0317  1.2051
  898SOL    HW212459   3.338   7.369   0.501 -0.2680  1.1878 -0.0445
  899SOL     OW12460   2.820   4.367   2.450  0.3486 -0.3481 -0.4618
  899SOL    HW112461   2.752   4.441   2.450  0.6377 -0.0821 -0.6429
  899SOL    HW212462   2.911   4.405   2.462  0.3502 -0.8254  1.1696
  900SOL     OW12463   3.180   3.914   1.975 -0.1016 -0.0465 -0.4154
  900SOL    HW112464   3.181   3.838   2.041  0.1696 -0.7816 -1.2492
  900SOL    HW212465   3.115   3.893   1.902 -0.8367  1.0269 -0.0823
  901SOL     OW12466   3.100   0.924   1.561 -0.1592  0.3710 -0.1301
  901SOL    HW112467   3.097   0.895   1.656 -1.1778 -0.3822 -0.3900
  901SOL    HW212468   3.158   1.006   1.553  1.2005 -0.4624  0.8910
  902SOL     OW12469   2.921   9.872   0.507  0.3566 -0.2966 -0.0833
  902SOL    HW112470   2.853   9.826   0.563 -0.9173  0.8752 -0.6333
  902SOL    HW212471   2.928   9.826   0.418  1.1951 -1.1625  0.4150
  903SOL     OW12472   3.272   2.149   0.709  0.2748 -0.0802  0.2154
  903SOL    HW112473   3.290   2.074   0.646  1.9093 -0.4543  1.0866
  903SOL    HW212474   3.283   2.236   0.662  0.9370 -0.3602 -0.1445
  904SOL     OW12475   2.607   5.308   0.301  0.9476 -0.5152  0.5947
  904SOL    HW112476   2.630   5.386   0.244  1.0253  1.0635  2.7415
  904SOL    HW212477   2.514   5.277   0.281  0.8143  0.2936 -0.0391
  905SOL     OW12478   2.651   0.173   1.682  0.6255  0.1868 -0.4097
  905SOL    HW112479   2.590   0.104   1.642 -0.0246  0.1479  0.6098
  905SOL    HW212480   2.742   0.164   1.643  0.7898 -1.8707  0.3817
  906SOL     OW12481   2.631   6.153   0.958 -0.2795  0.3717  0.0245
  906SOL    HW112482   2.726   6.149   0.929 -0.2440 -0.1066  0.1948
  906SOL    HW212483   2.578   6.085   0.907 -0.8317  1.6800 -1.1612
  907SOL     OW12484   3.573   9.604   0.568  0.2245 -0.9846 -0.2207
  907SOL    HW112485   3.601   9.640   0.657  1.5677  0.9709 -1.4044
  907SOL    HW212486   3.640   9.536   0.537  0.9172 -0.0789 -0.7162
  908SOL     OW12487   4.024   2.341   2.467 -0.6096 -0.0848  0.2358
  908SOL    HW112488   4.076   2.377   2.390  0.2828  1.3127  1.4574
  908SOL    HW212489   4.076   2.270   2.513 -0.2486  0.5254  0.7798
  909SOL     OW12490   4.151   1.810   2.362  0.3176 -0.1751 -0.6076
  909SOL    HW112491   4.105   1.861   2.289 -1.2600  0.3349  0.7073
  909SOL    HW212492   4.142   1.712   2.344 -0.4539 -0.0607 -0.8831
  910SOL     OW12493   3.337   2.969   1.489  0.4472 -0.1709 -0.5522
  910SOL    HW112494   3.396   2.888   1.483  1.3412  0.5633 -1.8954
  910SOL    HW212495   3.264   2.962   1.421  1.2107  0.6913 -1.4689
  911SOL     OW12496   2.377   3.841   1.712  0.7988  0.4756  0.0020
  911SOL    HW112497   2.388   3.742   1.708 -2.2491  0.0606  0.4701
  911SOL    HW212498   2.346   3.875   1.624 -0.1324  0.7032  0.4045
  912SOL     OW12499   3.123   4.458   2.154 -0.4140 -0.3934 -0.0357
  912SOL    HW112500   3.181   4.538   2.137 -1.5597  0.7436  1.2956
  912SOL    HW212501   3.131   4.430   2.249 -0.8346 -1.2241 -0.2386
  913SOL     OW12502   2.915   2.134   2.243 -0.2198 -0.2482 -0.4956
  913SOL    HW112503   2.894   2.211   2.303 -0.0912 -0.4398 -0.2056
  913SOL    HW212504   2.838   2.070   2.242 -0.2290 -0.2370 -0.5530
  914SOL     OW12505   2.485   5.372   1.706  0.1691 -0.1549  0.0617
  914SOL    HW112506   2.569   5.346   1.753 -0.6885 -1.1160  1.0912
  914SOL    HW212507   2.487   5.470   1.685  1.5583 -0.1873  0.0294
  915SOL     OW12508   2.868   9.523   1.205 -0.7329 -0.0992  0.0970
  915SOL    HW112509   2.924   9.444   1.228 -1.0050 -0.5480 -0.7554
  915SOL    HW212510   2.898   9.602   1.258 -0.1066 -0.6405  0.5514
  916SOL     OW12511   2.906   4.232   1.594 -0.3130 -0.3332  0.3470
  916SOL    HW112512   2.847   4.178   1.534 -1.4311  1.3085 -0.0763
  916SOL    HW212513   3.001   4.202   1.583 -0.8255 -1.7155 -0.4044
  917SOL     OW12514   2.730   4.896   0.460 -0.3666 -0.4308  0.8591
  917SOL    HW112515   2.740   4.988   0.497 -1.6880 -1.1795  3.2187
  917SOL    HW212516   2.712   4.832   0.535  0.5391 -2.6175 -0.7414
  918SOL     OW12517   4.093   1.524   2.311  0.0632 -0.2271  0.2942
  918SOL    HW112518   4.094   1.491   2.216 -2.1052 -0.4555  0.3259
  918SOL    HW212519   4.169   1.483   2.361 -0.0135 -1.7845 -0.8081
  919SOL     OW12520   3.584   9.496   1.530 -0.1547  0.6857  0.3676
  919SOL    HW112521   3.580   9.449   1.442 -0.1136 -0.1099  0.7844
  919SOL    HW212522   3.647   9.447   1.591 -1.2181  0.4392  1.2922
  920SOL     OW12523   2.686   4.338   2.024 -0.6813 -0.5071 -0.6170
  920SOL    HW112524   2.762   4.314   1.964  0.3742 -0.5231  0.7222
  920SOL    HW212525   2.683   4.275   2.101 -0.3463  1.2000  0.8065
  921SOL     OW12526   4.281   3.764   0.184  0.5447  0.7483  0.2968
  921SOL    HW112527   4.205   3.729   0.238  0.2277 -0.1291 -0.6986
  921SOL    HW212528   4.254   3.850   0.139  0.3683  0.7834  0.4693
  922SOL     OW12529   4.065   2.941   0.154 -0.5018 -0.4287 -0.2850
  922SOL    HW112530   4.085   2.938   0.252  0.8103  0.2393 -0.5220
  922SOL    HW212531   3.968   2.963   0.141 -0.3238  1.1232  0.8491
  923SOL     OW12532   4.979   3.196   0.496 -0.1576  0.1352 -0.4095
  923SOL    HW112533   4.963   3.137   0.576 -0.1990  0.4876 -0.1594
  923SOL    HW212534   5.003   3.139   0.417  0.4330 -0.1749 -0.0101
  924SOL     OW12535   2.373   7.748   1.891  0.3581  0.1009  0.0147
  924SOL    HW112536   2.400   7.708   1.803  1.3181 -0.6712  0.6522
  924SOL    HW212537   2.303   7.818   1.875  0.5853  0.0367 -1.3704
  925SOL     OW12538   2.920   6.012   1.102  0.3233  0.2918 -0.1608
  925SOL    HW112539   2.892   5.918   1.084  0.2297 -0.1145  1.9919
  925SOL    HW212540   2.961   6.052   1.020 -1.6470 -0.8974 -1.7543
  926SOL     OW12541   2.645   2.500   0.456  0.0857  0.2380 -0.2011
  926SOL    HW112542   2.591   2.564   0.401 -0.9522 -0.6078 -0.1702
  926SOL    HW212543   2.598   2.484   0.543  0.9997  0.4362  0.3368
  927SOL     OW12544   3.140   9.073   2.542  0.0785 -0.3848  0.0505
  927SOL    HW112545   3.122   9.098   2.446  1.2182  0.0092 -0.0671
  927SOL    HW212546   3.198   9.143   2.584  0.5163 -1.1377  0.6968
  928SOL     OW12547   2.791   7.610   1.350  0.0101 -0.0129  0.2992
  928SOL    HW112548   2.833   7.537   1.403 -1.8065 -2.4763 -1.5453
  928SOL    HW212549   2.815   7.599   1.253 -1.4736  0.9540 -0.2051
  929SOL     OW12550   4.747   1.995   1.274 -0.3079  0.0345  0.5309
  929SOL    HW112551   4.681   2.014   1.202  1.6811  2.3724 -0.7228
  929SOL    HW212552   4.828   1.951   1.235 -0.0429 -0.4847  1.6438
  930SOL     OW12553   4.137   2.662   1.006 -0.0268 -0.4518 -0.1883
  930SOL    HW112554   4.187   2.619   1.081 -1.1248 -0.1230  0.7614
  930SOL    HW212555   4.146   2.606   0.923  0.6291 -1.1862  0.3717
  931SOL     OW12556   3.268   1.655   2.419 -0.3770  0.2499  0.1467
  931SOL    HW112557   3.346   1.631   2.476  0.8898  0.7374 -1.3476
  931SOL    HW212558   3.183   1.646   2.472  0.7627  0.6495  2.0500
  932SOL     OW12559   4.531   2.041   1.096  0.0023 -0.0768 -0.0988
  932SOL    HW112560   4.563   2.133   1.119 -0.4760 -0.0164  0.3374
  932SOL    HW212561   4.433   2.035   1.114 -0.0587 -0.5268 -0.5825
  933SOL     OW12562   2.408   5.177   0.199 -0.1965 -0.1038 -0.5527
  933SOL    HW112563   2.384   5.230   0.118 -1.2818  0.6224  0.2173
  933SOL    HW212564   2.485   5.117   0.179  1.0415  1.7494 -1.4543
  934SOL     OW12565   3.224   7.772   1.931 -0.5891  0.3725  0.3144
  934SOL    HW112566   3.146   7.717   1.962  0.4828 -1.4984 -0.2842
  934SOL    HW212567   3.209   7.799   1.836 -0.4309 -0.1587  0.1346
  935SOL     OW12568   3.858   1.710   0.046  0.0779  0.7354  0.1742
  935SOL    HW112569   3.831   1.645  -0.025  0.5234  1.0329 -0.2712
  935SOL    HW212570   3.900   1.661   0.122 -0.5651  0.3968  0.3197
  936SOL     OW12571   5.210   2.822   1.000  0.0164  0.9160 -0.2886
  936SOL    HW112572   5.208   2.830   1.100  0.5948  0.2435 -0.2135
  936SOL    HW212573   5.266   2.895   0.962 -1.6884  2.2780 -0.2704
  937SOL     OW12574   3.047   2.039   1.525  0.0810 -0.3426 -0.1050
  937SOL    HW112575   3.025   1.946   1.553 -1.9057  0.1282  0.0449
  937SOL    HW212576   3.006   2.104   1.590  2.0704  0.6353  0.2167
  938SOL     OW12577   2.876   1.317   0.618 -0.4218  0.1649  0.4098
  938SOL    HW112578   2.895   1.375   0.539 -1.7342  0.6716  0.4687
  938SOL    HW212579   2.866   1.222   0.587 -2.9535  0.6416 -0.3255
  939SOL     OW12580   2.730   0.358   0.624 -0.3097  0.2151 -0.6698
  939SOL    HW112581   2.828   0.377   0.633 -0.1985 -0.5119 -0.3029
  939SOL    HW212582   2.717   0.267   0.586 -0.8298 -1.1787  2.6511
  940SOL     OW12583   3.230   0.711   2.570 -0.5264 -0.1440 -0.7630
  940SOL    HW112584   3.217   0.614   2.548 -1.6114 -0.7150  2.1591
  940SOL    HW212585   3.145   0.761   2.550 -0.5933 -0.1567 -0.5156
  941SOL     OW12586   3.094   3.790   0.720 -0.3425 -0.4759 -0.1226
  941SOL    HW112587   3.038   3.842   0.656  1.0993  0.2173 -0.8476
  941SOL    HW212588   3.148   3.852   0.776 -1.0931 -1.0980  1.3465
  942SOL     OW12589   3.104   4.058   0.142 -0.1272 -0.1925  0.3977
  942SOL    HW112590   3.089   4.036   0.238  0.1456  1.1418  0.7522
  942SOL    HW212591   3.121   3.973   0.091 -0.5528 -0.9342  1.4610
  943SOL     OW12592   4.651   1.261   0.762 -0.1742 -0.0173  0.6979
  943SOL    HW112593   4.640   1.308   0.850 -0.0655 -0.0834  0.7474
  943SOL    HW212594   4.675   1.165   0.779 -1.5314 -0.3795  0.6123
  944SOL     OW12595   2.572   2.385   1.904  0.2394  0.2331  0.2063
  944SOL    HW112596   2.596   2.288   1.898 -0.2299 -0.1730  3.5901
  944SOL    HW212597   2.473   2.395   1.901  0.3265  0.7063 -1.1234
  945SOL     OW12598   4.849   3.374   0.127  0.2785 -0.5271  0.2056
  945SOL    HW112599   4.924   3.434   0.102  0.3947 -0.8058 -0.1176
  945SOL    HW212600   4.807   3.337   0.044  1.3056 -2.2440  0.4271
  946SOL     OW12601   3.477   1.387   2.049  0.4012 -0.1840  0.2377
  946SOL    HW112602   3.474   1.443   1.966 -0.1413  0.2789  0.5616
  946SOL    HW212603   3.410   1.422   2.115  1.6261  0.1759  1.3209
  947SOL     OW12604   2.599   7.565   1.763  0.2128  0.2135 -0.6135
  947SOL    HW112605   2.520   7.557   1.701  0.5139  1.7113 -1.2169
  947SOL    HW212606   2.657   7.484   1.752 -0.7530 -0.4654 -0.8475
  948SOL     OW12607   2.743   0.220   0.249 -0.2916 -0.6079  0.1254
  948SOL    HW112608   2.765   0.315   0.273  1.4648 -1.0736  0.4270
  948SOL    HW212609   2.723   0.169   0.332  0.2593 -0.8580  0.1084
  949SOL     OW12610   3.023   7.892   2.232 -0.1098  0.1198  0.3735
  949SOL    HW112611   2.951   7.884   2.164  0.8395 -1.7907 -0.4295
  949SOL    HW212612   3.111   7.870   2.191  0.5016 -0.8657  2.1606
  950SOL     OW12613   3.648   1.851   2.380  0.3245 -0.1702 -0.3242
  950SOL    HW112614   3.684   1.777   2.322  0.6516 -0.1756 -0.1131
  950SOL    HW212615   3.689   1.938   2.353  0.1202 -0.1012 -0.4132
  951SOL     OW12616   3.050   8.975   1.303  0.4400 -0.5056 -0.4539
  951SOL    HW112617   3.101   9.028   1.371  0.7803 -1.6321  0.1892
  951SOL    HW212618   3.114   8.919   1.250 -0.3357 -4.7357  2.8047
  952SOL     OW12619   3.186   1.719   0.647 -0.5809  0.4541 -0.2019
  952SOL    HW112620   3.166   1.815   0.630 -1.2000  0.4981  0.7569
  952SOL    HW212621   3.266   1.692   0.593 -1.5968  0.9612 -2.0206
  953SOL     OW12622   2.599   4.878   1.743  0.1205  0.4220  0.1815
  953SOL    HW112623   2.543   4.926   1.810  0.5932 -0.0015  0.8812
  953SOL    HW212624   2.692   4.914   1.744 -0.3928  1.9017 -1.7757
  954SOL     OW12625   2.950   2.742   0.923  0.1614  0.1407  0.4188
  954SOL    HW112626   2.947   2.833   0.883  0.1641  0.4728  1.1857
  954SOL    HW212627   2.949   2.748   1.022  2.6366 -0.6053  0.5221
  955SOL     OW12628   2.785   9.082   1.294 -0.1978 -0.1682  0.7095
  955SOL    HW112629   2.727   9.000   1.291  0.5394 -0.7359  1.6058
  955SOL    HW212630   2.881   9.055   1.282  0.2191  0.3614  2.6407
  956SOL     OW12631   4.929   3.272   1.244 -0.1038  0.6428  0.8477
  956SOL    HW112632   4.840   3.230   1.258  0.3526 -0.4390  0.5325
  956SOL    HW212633   4.989   3.247   1.320 -0.1523  1.6102  1.2119
  957SOL     OW12634   2.955   4.619   2.422  0.0496 -0.3320  0.1932
  957SOL    HW112635   2.867   4.578   2.397  0.3888 -0.1139 -1.4010
  957SOL    HW212636   3.029   4.569   2.378  0.6183  0.4921  0.1961
  958SOL     OW12637   4.775   3.852   2.580 -0.5259  0.7188  1.1435
  958SOL    HW112638   4.741   3.879   2.670 -1.4632  2.2521  0.3420
  958SOL    HW212639   4.862   3.898   2.562 -1.4356  2.2092  0.3662
  959SOL     OW12640   3.111   9.935   0.111 -0.0907  0.2417  0.3107
  959SOL    HW112641   3.025   9.968   0.073  0.3538  0.9980 -0.0523
  959SOL    HW212642   3.138   9.994   0.187  1.1000  1.2023 -0.8376
  960SOL     OW12643   4.083   3.549   0.940 -0.2142  0.3293 -0.0339
  960SOL    HW112644   4.076   3.449   0.942  0.8466  0.2272  4.4076
  960SOL    HW212645   4.138   3.577   0.862  2.3526 -2.8085  0.5469
  961SOL     OW12646   3.764   0.203   0.140 -0.2926  0.2071 -0.0916
  961SOL    HW112647   3.812   0.188   0.227  0.5749  2.1753 -0.1881
  961SOL    HW212648   3.685   0.262   0.156 -0.5262  0.0095 -0.5285
  962SOL     OW12649   3.197   4.221   1.560  0.5184  0.0776 -0.2933
  962SOL    HW112650   3.239   4.132   1.545  1.0821  0.4364 -0.9181
  962SOL    HW212651   3.239   4.265   1.639  0.2512 -0.2015  0.0055
  963SOL     OW12652   2.819   1.974   1.800  0.5685  0.0553  0.0954
  963SOL    HW112653   2.727   2.005   1.825  0.4882  0.5756 -0.8004
  963SOL    HW212654   2.836   1.884   1.839  0.0719  0.4103  1.1371
  964SOL     OW12655   3.000   3.808   1.802 -0.1811  0.1523  0.3968
  964SOL    HW112656   2.947   3.803   1.717 -0.7796 -0.0831  0.7822
  964SOL    HW212657   2.977   3.730   1.860 -0.6304  0.9312  1.2724
  965SOL     OW12658   3.237   3.686   2.136  0.5689  0.1461 -0.2272
  965SOL    HW112659   3.298   3.676   2.215  1.2775  1.4351 -0.6010
  965SOL    HW212660   3.259   3.617   2.067 -2.1384 -3.1229  1.9764
  966SOL     OW12661   2.873   2.544   2.292 -0.7062  0.3744  0.6241
  966SOL    HW112662   2.850   2.463   2.346 -2.0126 -0.3197 -0.9475
  966SOL    HW212663   2.800   2.563   2.226  1.3948  0.4108 -1.8029
  967SOL     OW12664   2.474   7.822   1.414  0.1950  0.8540  0.1219
  967SOL    HW112665   2.467   7.723   1.402 -1.0042  0.8628  0.6587
  967SOL    HW212666   2.561   7.854   1.378  0.3237 -0.3110 -0.6185
  968SOL     OW12667   3.753   3.254   0.262  0.3340  0.3503  0.1328
  968SOL    HW112668   3.757   3.354   0.269  3.4824  0.2735  0.0013
  968SOL    HW212669   3.723   3.229   0.170  1.0197  1.1803 -0.3265
  969SOL     OW12670   4.484   2.678   0.991 -0.2659 -0.0574 -0.5822
  969SOL    HW112671   4.450   2.615   1.062  0.8388  0.7022  0.6525
  969SOL    HW212672   4.534   2.626   0.922 -2.0043 -0.9016 -1.2229
  970SOL     OW12673   4.573   3.908   0.837  0.1441  0.1494  0.4718
  970SOL    HW112674   4.547   3.812   0.821 -0.9390  0.3857  0.7548
  970SOL    HW212675   4.664   3.924   0.800  0.3652 -1.0118  0.4735
  971SOL     OW12676   4.592   1.450   0.978 -0.1612  0.0200  0.1158
  971SOL    HW112677   4.648   1.496   1.047  0.4790  0.1735 -0.5029
  971SOL    HW212678   4.565   1.516   0.908  0.1647 -0.3893 -0.3956
  972SOL     OW12679   3.220   8.315   0.142 -0.0821 -0.0459 -0.2535
  972SOL    HW112680   3.297   8.261   0.176 -0.3541 -0.7210 -0.7145
  972SOL    HW212681   3.255   8.390   0.085  0.2816  0.1597  0.2380
  973SOL     OW12682   3.611   7.963   2.440 -0.3295 -0.1360  0.1313
  973SOL    HW112683   3.559   8.001   2.363 -1.7224  0.7432  1.4840
  973SOL    HW212684   3.666   8.036   2.482 -0.3764 -0.3777  0.6151
  974SOL     OW12685   4.262   0.397   1.069 -0.2830 -0.0481 -0.7330
  974SOL    HW112686   4.218   0.389   1.158 -0.2180  1.7479 -0.5287
  974SOL    HW212687   4.202   0.358   0.998 -1.3600  0.6624 -0.2148
  975SOL     OW12688   3.003   7.245   0.418 -0.6315 -0.5875 -0.1115
  975SOL    HW112689   3.095   7.284   0.423 -0.1510 -1.2056 -3.3223
  975SOL    HW212690   2.945   7.304   0.364 -1.9192 -0.6553  1.1691
  976SOL     OW12691   3.894   3.867   0.860  0.1111 -0.0469 -0.0441
  976SOL    HW112692   3.824   3.904   0.921  0.1398  0.4220 -0.2899
  976SOL    HW212693   3.979   3.854   0.910 -0.0128 -0.1631  0.1398
  977SOL     OW12694   2.459   6.720   1.864 -0.5197  0.0654 -0.7529
  977SOL    HW112695   2.384   6.724   1.930  1.0900  1.0821  1.0672
  977SOL    HW212696   2.433   6.769   1.780 -2.3690 -0.7510 -0.6773
  978SOL     OW12697   2.376   5.816   2.209  0.3767  0.3946 -0.0333
  978SOL    HW112698   2.288   5.837   2.167 -0.7208  0.3401  2.1471
  978SOL    HW212699   2.439   5.782   2.140 -1.2068  0.7582 -1.6866
  979SOL     OW12700   3.089   8.436   1.375 -0.4114 -0.8265  0.0599
  979SOL    HW112701   3.026   8.510   1.354  0.9520  0.4361  0.3247
  979SOL    HW212702   3.159   8.431   1.304  0.2287 -1.0296  0.6993
  980SOL     OW12703   3.170   3.384   0.561  0.0556  0.7222 -0.2763
  980SOL    HW112704   3.192   3.448   0.636 -0.5651 -0.3908  0.8761
  980SOL    HW212705   3.078   3.403   0.527  0.3128  1.1855 -0.7196
  981SOL     OW12706   2.516   8.427   0.300  0.0546 -0.2151  0.2863
  981SOL    HW112707   2.445   8.447   0.232  1.2261  0.5062 -0.7485
  981SOL    HW212708   2.578   8.358   0.263  0.7557  0.2554  0.5923
  982SOL     OW12709   3.189   7.588   1.497 -0.0568  0.1330  0.2016
  982SOL    HW112710   3.108   7.529   1.489 -0.2184  0.3817  0.0149
  982SOL    HW212711   3.263   7.548   1.443  0.3443 -0.7817  1.4124
  983SOL     OW12712   2.703   4.058   1.520  0.3249  0.0563 -0.6478
  983SOL    HW112713   2.677   4.033   1.427  0.3261  0.7544 -0.8406
  983SOL    HW212714   2.648   4.136   1.550 -2.6971 -2.7650  1.5134
  984SOL     OW12715   3.236   8.936   1.711  0.3926 -0.3672  0.1601
  984SOL    HW112716   3.163   8.877   1.677 -1.1795  1.7220 -0.2061
  984SOL    HW212717   3.216   8.962   1.806  1.4439 -0.9745  0.5589
  985SOL     OW12718   3.562   8.620   1.308 -0.6939 -0.3948  0.4598
  985SOL    HW112719   3.594   8.611   1.402  1.7020 -1.1127 -0.3855
  985SOL    HW212720   3.471   8.580   1.300 -0.5604 -1.1386  2.2781
  986SOL     OW12721   2.529   2.460   1.298 -0.1496 -0.0688 -0.1838
  986SOL    HW112722   2.592   2.457   1.219  0.4693 -0.7450  0.3315
  986SOL    HW212723   2.519   2.369   1.336 -0.5886  0.2278  0.4188
  987SOL     OW12724   3.145   4.490   0.853 -0.2225 -0.1877 -0.3443
  987SOL    HW112725   3.097   4.402   0.850  1.8578 -1.3570 -0.4881
  987SOL    HW212726   3.197   4.496   0.938 -1.8880  1.7671  0.5664
  988SOL     OW12727   4.142   3.044   1.548  0.5184 -0.1889  0.3572
  988SOL    HW112728   4.118   2.989   1.628 -0.1742 -0.0923  0.2171
  988SOL    HW212729   4.069   3.038   1.481  0.0669  1.5462  0.6721
  989SOL     OW12730   2.591   5.970   0.082  0.4125  0.3733  0.0915
  989SOL    HW112731   2.632   5.894   0.033  1.0505  1.3174 -0.8594
  989SOL    HW212732   2.540   6.028   0.018 -1.0105  0.1493  0.9757
  990SOL     OW12733   2.990   0.382   0.561 -0.1938 -0.1010 -0.0994
  990SOL    HW112734   3.037   0.294   0.559  0.0061 -0.0440  1.4691
  990SOL    HW212735   3.057   0.455   0.572 -0.4223  0.1910 -0.6531
  991SOL     OW12736   3.603   2.627   0.672  0.6027  0.1228 -0.0925
  991SOL    HW112737   3.535   2.659   0.738 -0.3744 -1.5372 -0.2541
  991SOL    HW212738   3.576   2.655   0.580  0.3081 -0.2374 -0.1179
  992SOL     OW12739   4.341   2.683   1.686 -0.0205  0.2892  0.1313
  992SOL    HW112740   4.396   2.722   1.612  1.0633  0.7338  1.1464
  992SOL    HW212741   4.399   2.626   1.744 -1.1128 -1.0094 -0.0175
  993SOL     OW12742   2.691   9.570   1.927 -0.0087  0.6531 -0.7135
  993SOL    HW112743   2.676   9.501   1.855  0.1881  1.7269 -1.7891
  993SOL    HW212744   2.606   9.581   1.980  0.3038 -1.2675  0.2322
  994SOL     OW12745   2.583   7.639   1.096 -0.2329  0.5999  0.0320
  994SOL    HW112746   2.680   7.623   1.117 -0.4697  1.6245  1.9662
  994SOL    HW212747   2.568   7.736   1.077 -1.2644  0.8407  1.9587
  995SOL     OW12748   2.960   2.356   0.097  0.4733 -0.0292  0.1264
  995SOL    HW112749   2.936   2.450   0.123  0.6160 -0.2761  1.1393
  995SOL    HW212750   3.058   2.351   0.076  0.5985 -0.0955  0.7182
  996SOL     OW12751   2.579   3.508   0.763 -0.4968 -0.1373  0.0579
  996SOL    HW112752   2.620   3.527   0.673  0.1617  0.3539  0.4589
  996SOL    HW212753   2.515   3.581   0.787 -1.9018 -1.0807 -0.7258
  997SOL     OW12754   3.080   6.785   0.282  0.1165  0.3019 -0.7317
  997SOL    HW112755   3.049   6.690   0.280  0.1665  0.2925 -3.5578
  997SOL    HW212756   3.011   6.842   0.326  1.2093 -1.3707  3.3477
  998SOL     OW12757   3.295   4.529   1.072 -0.6234  0.8071  0.2320
  998SOL    HW112758   3.285   4.548   1.170 -1.1722  1.6319  0.0200
  998SOL    HW212759   3.388   4.497   1.054 -0.3469  1.1938  0.9373
  999SOL     OW12760   2.298   2.818   0.204  0.0989 -0.1432  0.3752
  999SOL    HW112761   2.238   2.754   0.156  1.7561 -1.0743 -0.4815
  999SOL    HW212762   2.242   2.892   0.244 -1.6350 -1.1497 -0.1229
 1000SOL     OW12763   3.372   5.515   0.403  0.4263  0.1848  0.2953
 1000SOL    HW112764   3.413   5.431   0.437  1.4314  1.9116  3.6351
 1000SOL    HW212765   3.273   5.511   0.413  0.3742 -1.0036 -0.6074
 1001SOL     OW12766   2.889   1.779   2.160 -0.0958  0.1240  0.7408
 1001SOL    HW112767   2.813   1.842   2.172 -0.3168  0.0035  0.0304
 1001SOL    HW212768   2.972   1.831   2.139  0.0145  0.2543  1.5002
 1002SOL     OW12769   2.666   4.885   2.624  0.2206  0.1859  0.4133
 1002SOL    HW112770   2.705   4.915   2.711  2.2078 -1.1078  0.0070
 1002SOL    HW212771   2.700   4.944   2.551  0.5712 -0.2789  0.1974
 1003SOL     OW12772   2.695   5.264   1.843 -0.4080 -0.8846  0.0911
 1003SOL    HW112773   2.726   5.286   1.935  0.7036 -1.3795 -0.1508
 1003SOL    HW212774   2.775   5.251   1.784 -1.0959  1.0282 -1.3304
 1004SOL     OW12775   2.673   1.004   0.688  0.5822  0.5162  0.0155
 1004SOL    HW112776   2.675   1.089   0.742  1.6043  0.0767  0.6911
 1004SOL    HW212777   2.767   0.975   0.669  0.2988 -1.6409  1.6739
 1005SOL     OW12778   4.034   3.779   1.068 -0.1568 -0.0508 -0.2930
 1005SOL    HW112779   4.047   3.685   1.037 -0.9541 -0.3273  0.1936
 1005SOL    HW212780   3.955   3.783   1.129  0.3203  0.8049  0.2699
 1006SOL     OW12781   3.818   2.554   2.142  0.1531  0.2325  0.5243
 1006SOL    HW112782   3.822   2.514   2.234  0.8281  2.2222  1.3869
 1006SOL    HW212783   3.746   2.509   2.090 -1.1582 -0.0120  2.4790
 1007SOL     OW12784   3.610   1.731   0.301  0.3704 -0.3478  0.3320
 1007SOL    HW112785   3.575   1.811   0.252 -0.4814 -1.0996 -0.3004
 1007SOL    HW212786   3.704   1.749   0.330  1.0046  0.0177 -1.8230
 1008SOL     OW12787   2.962   3.182   1.908  0.5881 -0.1968  0.1148
 1008SOL    HW112788   2.862   3.182   1.900  0.1750  1.9281  4.2430
 1008SOL    HW212789   3.002   3.154   1.820 -3.5631  0.5207 -2.1309
 1009SOL     OW12790   2.648   4.638   0.920  0.3642 -0.0928 -0.3495
 1009SOL    HW112791   2.599   4.627   1.007 -0.4296 -0.2241 -0.8068
 1009SOL    HW212792   2.719   4.707   0.930 -0.3548  0.5828  0.1485
 1010SOL     OW12793   3.424   1.657   0.504  0.1994 -0.6028  0.5793
 1010SOL    HW112794   3.484   1.607   0.565  0.5608 -0.5790  0.2479
 1010SOL    HW212795   3.478   1.695   0.428 -0.3398 -1.1522 -0.0813
 1011SOL     OW12796   3.851   4.646   2.109 -0.2150 -0.0540  0.0996
 1011SOL    HW112797   3.861   4.547   2.099 -1.9403 -0.1674 -0.6315
 1011SOL    HW212798   3.818   4.666   2.201  1.2673 -0.0530  0.6525
 1012SOL     OW12799   3.746   3.968   0.152  0.0897 -0.1861  0.4837
 1012SOL    HW112800   3.649   3.955   0.173  0.2075 -1.8292  0.0990
 1012SOL    HW212801   3.801   3.934   0.229  0.3420  2.5097  1.5346
 1013SOL     OW12802   4.734   3.015   1.621  0.2330 -0.0040 -0.4940
 1013SOL    HW112803   4.802   3.069   1.570  1.8045 -1.7356 -0.3014
 1013SOL    HW212804   4.707   3.065   1.704  1.1401  0.8018 -0.6748
 1014SOL     OW12805   3.642   0.349   0.812 -0.2328  0.0015 -0.3166
 1014SOL    HW112806   3.717   0.289   0.785 -0.2266  0.1677 -0.6729
 1014SOL    HW212807   3.561   0.294   0.833  0.3173 -0.2703  1.2113
 1015SOL     OW12808   3.537   3.192   1.159  0.2368  0.2354 -0.3125
 1015SOL    HW112809   3.557   3.184   1.061 -0.7779  1.0106 -0.5822
 1015SOL    HW212810   3.600   3.258   1.200  1.1302 -0.6110 -0.2944
 1016SOL     OW12811   4.025   2.810   0.801 -0.3770 -0.2933 -0.9165
 1016SOL    HW112812   4.038   2.782   0.896 -0.7919  1.1763 -0.4090
 1016SOL    HW212813   3.992   2.732   0.747 -0.8861 -0.9372  0.3069
 1017SOL     OW12814   2.503   7.554   1.340  0.1437 -0.0388 -0.2226
 1017SOL    HW112815   2.504   7.575   1.243 -0.7617 -1.5493 -0.5714
 1017SOL    HW212816   2.596   7.561   1.377  0.9865 -2.2328 -1.8256
 1018SOL     OW12817   2.779   3.969   1.910  0.3557  0.3334 -0.1303
 1018SOL    HW112818   2.776   4.066   1.889  1.9857  0.4506  0.1011
 1018SOL    HW212819   2.816   3.919   1.832  2.1618  0.2488  0.7479
 1019SOL     OW12820   3.222   9.278   1.288 -0.3174 -0.0447 -0.6472
 1019SOL    HW112821   3.194   9.211   1.356  1.1375 -0.2423 -0.2370
 1019SOL    HW212822   3.203   9.242   1.196 -0.7579 -0.4588 -0.3970
 1020SOL     OW12823   3.194   9.147   2.254 -0.4387  0.2066  0.1870
 1020SOL    HW112824   3.260   9.193   2.313  0.2228  0.3524 -0.6608
 1020SOL    HW212825   3.231   9.141   2.161 -2.3061  1.7635 -0.6845
 1021SOL     OW12826   2.788   1.315   2.114  0.3306 -0.4569 -0.3782
 1021SOL    HW112827   2.840   1.400   2.121  1.5441 -1.2081 -0.2286
 1021SOL    HW212828   2.818   1.265   2.033 -1.5185  0.0053 -1.3767
 1022SOL     OW12829   4.410   1.243   1.025  0.0392  0.1118 -0.0175
 1022SOL    HW112830   4.475   1.318   1.023  0.1615 -0.0232 -2.3679
 1022SOL    HW212831   4.411   1.200   1.116  1.3392  1.7279  0.7484
 1023SOL     OW12832   3.701   3.599   2.562  0.3443  0.0485  0.2899
 1023SOL    HW112833   3.796   3.590   2.592  0.2990 -0.2132  0.3617
 1023SOL    HW212834   3.641   3.585   2.641  0.2679  1.0116  0.4014
 1024SOL     OW12835   3.176   0.100   2.326  0.6438  0.0092  0.0846
 1024SOL    HW112836   3.194   0.107   2.228  0.6766 -0.4560  0.0569
 1024SOL    HW212837   3.108   0.028   2.342 -0.0618  0.7271  0.3203
 1025SOL     OW12838   2.629   5.194   2.542 -0.1605 -0.3927 -0.2206
 1025SOL    HW112839   2.694   5.138   2.491  0.0431  0.1861 -0.5861
 1025SOL    HW212840   2.634   5.169   2.639  0.2846 -0.6641 -0.3109
 1026SOL     OW12841   2.867   8.593   1.327 -0.3222 -0.4690 -0.0293
 1026SOL    HW112842   2.861   8.683   1.284 -0.9822 -0.7995 -0.6294
 1026SOL    HW212843   2.793   8.583   1.394  1.2347  0.3953  1.8700
 1027SOL     OW12844   2.859   1.362   1.176  0.3408  0.0803 -0.2755
 1027SOL    HW112845   2.770   1.377   1.219  0.3343 -0.3584 -0.1284
 1027SOL    HW212846   2.869   1.421   1.096 -0.2961 -0.2568 -0.6002
 1028SOL     OW12847   2.945   0.332   2.574 -0.2610 -0.6800 -0.2053
 1028SOL    HW112848   2.869   0.309   2.513 -0.9868 -0.0368  0.4505
 1028SOL    HW212849   3.022   0.366   2.520 -0.5752 -0.9574 -0.8344
 1029SOL     OW12850   3.226   9.746   2.061  0.0990  0.3591  0.8292
 1029SOL    HW112851   3.134   9.713   2.082 -0.1830  2.1636  2.5365
 1029SOL    HW212852   3.290   9.714   2.131  0.7612 -0.6732 -0.2110
 1030SOL     OW12853   3.346   3.600   1.002 -1.0403 -0.1678  0.2206
 1030SOL    HW112854   3.336   3.611   1.101  0.6652 -1.0214  0.5038
 1030SOL    HW212855   3.430   3.549   0.982 -0.6845  1.1042 -1.7189
 1031SOL     OW12856   2.610   6.169   2.262  0.4424 -0.0457 -0.8090
 1031SOL    HW112857   2.622   6.083   2.211  2.6260  0.8979 -1.9608
 1031SOL    HW212858   2.532   6.219   2.224  1.3989  0.1563 -2.5801
 1032SOL     OW12859   2.379   9.770   1.675  0.0207  0.1948  0.6784
 1032SOL    HW112860   2.451   9.701   1.671 -1.5308 -1.3369 -1.9945
 1032SOL    HW212861   2.307   9.739   1.737  0.7488  0.8672  1.8839
 1033SOL     OW12862   3.334   8.511   1.222  0.5382 -0.3343  0.3438
 1033SOL    HW112863   3.286   8.549   1.142  1.3733 -1.3473 -0.6451
 1033SOL    HW212864   3.394   8.437   1.193  2.4056  0.6280  1.6203
 1034SOL     OW12865   2.671   1.956   0.673  0.2554 -0.2794  0.2539
 1034SOL    HW112866   2.769   1.962   0.689  0.0942  0.3568  1.0186
 1034SOL    HW212867   2.625   1.925   0.757 -0.4427  1.6951  0.6383
 1035SOL     OW12868   3.405   4.329   1.761 -0.0850  0.1437  0.5203
 1035SOL    HW112869   3.331   4.317   1.827 -1.4772  0.8165 -0.8967
 1035SOL    HW212870   3.427   4.426   1.753  0.8725 -0.0442  0.8399
 1036SOL     OW12871   3.189   7.808   0.624  0.1705 -0.2965 -0.3846
 1036SOL    HW112872   3.250   7.763   0.559  0.7417 -0.2479  0.1186
 1036SOL    HW212873   3.207   7.906   0.625 -1.2278 -0.0075 -1.6466
 1037SOL     OW12874   2.906   0.899   0.585 -0.6251  0.2086  0.3151
 1037SOL    HW112875   2.850   0.860   0.512 -1.9121  0.6151  1.0623
 1037SOL    HW212876   2.960   0.826   0.627  0.3227  0.0209 -1.1998
 1038SOL     OW12877   3.302   2.840   0.495  0.0927 -0.2376 -0.2625
 1038SOL    HW112878   3.317   2.773   0.568 -1.2141 -0.7422 -0.4494
 1038SOL    HW212879   3.244   2.914   0.529 -1.0161 -0.7806 -0.9634
 1039SOL     OW12880   2.808   8.368   0.479 -0.1409 -0.0233  0.4453
 1039SOL    HW112881   2.761   8.452   0.508  0.2979 -0.2033  1.7465
 1039SOL    HW212882   2.783   8.346   0.385 -1.7263  0.5410  0.7113
 1040SOL     OW12883   2.973   1.994   0.615 -0.2397 -0.6142  0.1219
 1040SOL    HW112884   2.995   1.923   0.548 -0.1922 -0.0537 -0.4640
 1040SOL    HW212885   2.962   2.082   0.568  1.1135  0.0408  1.0136
 1041SOL     OW12886   4.114   3.396   0.376 -0.1595 -0.0585 -0.1276
 1041SOL    HW112887   4.084   3.326   0.442 -1.0260 -1.2528 -1.7401
 1041SOL    HW212888   4.206   3.374   0.344 -0.5967 -0.7406 -0.9581
 1042SOL     OW12889   4.779   2.937   1.115  0.1315  0.0359 -0.1083
 1042SOL    HW112890   4.819   2.934   1.024 -1.1146  1.6904 -0.7398
 1042SOL    HW212891   4.709   2.866   1.123 -0.5300  0.6048 -0.8165
 1043SOL     OW12892   3.029   1.128   0.445  0.3242  0.2815 -0.2110
 1043SOL    HW112893   3.109   1.134   0.505 -1.2923  0.8298  1.9555
 1043SOL    HW212894   2.967   1.058   0.479 -1.8344  2.3555  0.2763
 1044SOL     OW12895   2.932   9.194   2.267 -0.1405  0.3665  0.2379
 1044SOL    HW112896   2.906   9.265   2.332 -0.1038  0.0510  0.5986
 1044SOL    HW212897   3.030   9.173   2.278  0.3177  1.6994 -1.2543
 1045SOL     OW12898   4.107   2.803   1.703  0.0851 -0.6496  0.2378
 1045SOL    HW112899   4.053   2.759   1.775  1.5451  0.1109  1.8603
 1045SOL    HW212900   4.198   2.762   1.699  1.2839  1.7294  1.4006
 1046SOL     OW12901   2.637   3.601   0.485  0.6955  0.3116 -0.3439
 1046SOL    HW112902   2.695   3.668   0.439 -1.3270  1.3136 -1.4945
 1046SOL    HW212903   2.615   3.527   0.422  1.3835 -0.4922  0.3484
 1047SOL     OW12904   3.230   3.644   1.237 -0.7345  0.1249 -0.3765
 1047SOL    HW112905   3.158   3.701   1.198 -0.2465  0.7980 -0.3024
 1047SOL    HW212906   3.198   3.603   1.322 -0.8441  0.8535 -0.0657
 1048SOL     OW12907   2.625   3.097   0.452 -0.1911 -0.1952 -0.1986
 1048SOL    HW112908   2.638   3.144   0.540  0.7938 -1.0413  0.1112
 1048SOL    HW212909   2.578   3.010   0.468  2.1205 -1.4743 -0.2052
 1049SOL     OW12910   2.716   2.472   1.079 -0.0959  0.5033  0.2136
 1049SOL    HW112911   2.666   2.494   0.995  0.5615 -1.4475 -0.7242
 1049SOL    HW212912   2.780   2.397   1.061  1.3958  1.2989  2.0050
 1050SOL     OW12913   3.737   4.499   1.541  0.9364  0.3446  0.4933
 1050SOL    HW112914   3.828   4.457   1.539  1.0134  0.5291 -1.2418
 1050SOL    HW212915   3.744   4.595   1.512 -0.2392 -0.6069 -3.2786
 1051SOL     OW12916   2.877   7.596   1.099  0.0283  0.1400 -0.5737
 1051SOL    HW112917   2.907   7.674   1.046  0.0115 -0.2575 -1.1698
 1051SOL    HW212918   2.882   7.513   1.043 -0.0350 -0.2706  0.0224
 1052SOL     OW12919   2.541   1.439   2.511  0.0666  0.0731  0.1258
 1052SOL    HW112920   2.526   1.528   2.556  1.1268  0.7050 -0.7456
 1052SOL    HW212921   2.541   1.452   2.412  2.9228 -0.4456  0.0421
 1053SOL     OW12922   2.714   8.777   0.529  0.2081 -0.1826  0.4285
 1053SOL    HW112923   2.673   8.864   0.502  0.2114  0.6008  2.7636
 1053SOL    HW212924   2.814   8.785   0.527  0.2322 -0.7603 -1.2137
 1054SOL     OW12925   2.614   3.905   0.164  0.2874 -0.2772 -0.3386
 1054SOL    HW112926   2.540   3.949   0.215 -1.2582 -0.3272 -2.4539
 1054SOL    HW212927   2.624   3.950   0.075  1.0941 -1.8970 -1.0844
 1055SOL     OW12928   3.353   2.303   1.441 -0.0747 -0.3741 -0.2802
 1055SOL    HW112929   3.367   2.204   1.441  2.3381 -0.0619 -0.0381
 1055SOL    HW212930   3.361   2.338   1.535 -1.4681 -0.0166 -0.2890
 1056SOL     OW12931   4.049   4.638   1.452  0.0783 -0.0111 -0.4175
 1056SOL    HW112932   4.042   4.539   1.443 -1.5906  0.1490 -1.2077
 1056SOL    HW212933   4.036   4.681   1.362 -0.2646  0.9507  0.0743
 1057SOL     OW12934   2.860   2.985   0.160  0.3606  0.9372  0.0864
 1057SOL    HW112935   2.762   2.986   0.177  0.4041  1.3776  0.3368
 1057SOL    HW212936   2.878   2.980   0.062  0.1025 -2.0696  0.1475
 1058SOL     OW12937   3.805   0.673   0.627 -0.1901 -0.0085 -0.6202
 1058SOL    HW112938   3.726   0.671   0.688 -1.2859  1.0420 -1.9678
 1058SOL    HW212939   3.843   0.581   0.619 -0.5167 -0.2972  1.0047
 1059SOL     OW12940   2.747   5.100   0.158  0.0815 -0.3037  0.2658
 1059SOL    HW112941   2.841   5.083   0.188  0.5674 -0.9002 -1.5836
 1059SOL    HW212942   2.711   5.179   0.208  1.6281  0.0565  0.8479
 1060SOL     OW12943   4.017   8.500   0.012 -0.0557 -0.8343 -0.6853
 1060SOL    HW112944   4.015   8.517   0.110 -2.6448 -1.7573 -0.5285
 1060SOL    HW212945   4.027   8.587  -0.037  0.4092 -0.2839  0.3829
 1061SOL     OW12946   2.634   9.515   0.745 -0.1854  0.3248 -0.6216
 1061SOL    HW112947   2.553   9.459   0.764 -0.3930  0.3863 -1.3247
 1061SOL    HW212948   2.714   9.474   0.790 -0.3948 -0.3723 -0.8716
 1062SOL     OW12949   3.522   0.262   2.191  0.5498  0.6405  0.4359
 1062SOL    HW112950   3.539   0.167   2.164 -0.2358  0.7306 -0.4207
 1062SOL    HW212951   3.514   0.268   2.290  0.3096 -0.2414  0.4707
 1063SOL     OW12952   2.946   8.355   2.118  0.1798  0.1853 -0.1200
 1063SOL    HW112953   2.891   8.385   2.196  2.4080  2.8168  0.5247
 1063SOL    HW212954   3.036   8.324   2.150 -0.0655 -1.8935 -1.3623
 1064SOL     OW12955   2.949   5.307   1.085 -0.1786 -0.1717 -0.0685
 1064SOL    HW112956   2.990   5.216   1.080 -0.2827 -0.1252 -2.1241
 1064SOL    HW212957   2.857   5.305   1.045 -0.6765  0.5810  0.9987
 1065SOL     OW12958   3.293   4.682   2.166 -0.1481 -0.2980  0.1072
 1065SOL    HW112959   3.376   4.680   2.221  0.2040 -1.6136 -0.4426
 1065SOL    HW212960   3.303   4.748   2.092  1.2463 -1.9258 -1.2004
 1066SOL     OW12961   2.519   9.449   1.192 -0.1828  0.2210  0.2305
 1066SOL    HW112962   2.581   9.527   1.184 -1.0908  1.1962  2.4180
 1066SOL    HW212963   2.427   9.477   1.165 -0.5184 -0.0808  1.0552
 1067SOL     OW12964   2.901   2.285   0.665  0.3179 -0.0285  0.4510
 1067SOL    HW112965   2.948   2.371   0.683 -0.4460  0.3729  0.5541
 1067SOL    HW212966   2.849   2.258   0.746  0.7296 -0.7003  0.4934
 1068SOL     OW12967   2.736   4.154   2.616  0.4615  0.3308  0.1812
 1068SOL    HW112968   2.759   4.229   2.554  0.5828  0.6998  0.6690
 1068SOL    HW212969   2.809   4.143   2.684  1.0269 -1.0271 -0.6285
 1069SOL     OW12970   3.104   4.271   2.663 -0.3909  0.4040 -0.3254
 1069SOL    HW112971   3.120   4.224   2.576 -0.2972  0.3255 -0.2656
 1069SOL    HW212972   3.086   4.203   2.735 -0.0802  0.4499 -0.2024
 1070SOL     OW12973   4.117   3.255   1.713  0.0196 -0.1767 -0.2230
 1070SOL    HW112974   4.130   3.243   1.812 -0.7240  0.9119  0.0208
 1070SOL    HW212975   4.144   3.171   1.665  0.2579 -0.7626  0.9172
 1071SOL     OW12976   4.023   0.768   1.631  0.8233 -0.2009 -0.3957
 1071SOL    HW112977   4.059   0.861   1.626  0.2123  0.0264 -0.5449
 1071SOL    HW212978   3.982   0.753   1.721  2.4745 -0.8988  0.2721
 1072SOL     OW12979   2.608   4.371   1.261  0.1641 -0.3163 -0.3364
 1072SOL    HW112980   2.697   4.326   1.259 -0.1262 -0.8189 -2.8788
 1072SOL    HW212981   2.543   4.320   1.205 -1.5293  0.4775  0.8596
 1073SOL     OW12982   2.592   3.591   1.536  0.2525 -0.5873  0.3341
 1073SOL    HW112983   2.544   3.582   1.449 -0.0799  2.5371  0.1434
 1073SOL    HW212984   2.526   3.597   1.611  0.5113 -1.8122  0.6828
 1074SOL     OW12985   2.446   8.224   1.357  0.1014  0.8597  0.8867
 1074SOL    HW112986   2.407   8.282   1.286 -1.1132  0.7726  1.4744
 1074SOL    HW212987   2.545   8.219   1.344 -0.2226 -0.2349 -1.6160
 1075SOL     OW12988   3.181   1.911   1.816 -0.0320  0.1949 -0.1410
 1075SOL    HW112989   3.171   1.929   1.914  0.4389  0.1050 -0.0730
 1075SOL    HW212990   3.274   1.934   1.787 -0.3938  0.9288 -0.7258
 1076SOL     OW12991   2.846   3.861   1.235  0.0260 -0.5249 -0.0000
 1076SOL    HW112992   2.895   3.815   1.161 -0.7852 -2.9653  0.9108
 1076SOL    HW212993   2.911   3.902   1.298  0.7373  0.8643 -1.6066
 1077SOL     OW12994   2.787   1.676   1.906 -0.4644  0.3896 -0.3739
 1077SOL    HW112995   2.698   1.633   1.920 -0.0123 -0.7143 -0.7713
 1077SOL    HW212996   2.829   1.696   1.995 -1.0798  0.8498 -0.1903
 1078SOL     OW12997   4.650   2.005   2.514 -0.5522  0.5561  0.0053
 1078SOL    HW112998   4.717   2.040   2.448 -0.3124  2.4090  1.2036
 1078SOL    HW212999   4.696   1.985   2.600 -1.2338  0.1327  0.2726
 1079SOL     OW13000   2.765   5.314   2.093  0.3965  0.2733 -0.6069
 1079SOL    HW113001   2.716   5.391   2.133 -1.3768 -0.3038 -1.6381
 1079SOL    HW213002   2.743   5.230   2.144  2.1687  0.3803  0.3916
 1080SOL     OW13003   3.312   4.355   1.350  0.4337  0.4996  0.3354
 1080SOL    HW113004   3.374   4.287   1.309 -0.9912 -0.0219 -0.9894
 1080SOL    HW213005   3.279   4.320   1.438 -1.3719 -1.1799 -0.9701
 1081SOL     OW13006   2.702   6.399   0.983  0.0245  0.5337  0.1941
 1081SOL    HW113007   2.753   6.396   1.069  0.3279  0.8602  0.0266
 1081SOL    HW213008   2.672   6.307   0.959 -0.2899  0.4792  0.7837
 1082SOL     OW13009   2.754   7.822   0.499  0.1427 -0.9028  0.5413
 1082SOL    HW113010   2.799   7.749   0.550 -0.5683 -0.7025  1.4712
 1082SOL    HW213011   2.772   7.910   0.544 -0.7293 -0.7589  0.6145
 1083SOL     OW13012   3.904   3.934   1.630  0.1127  0.1522  0.2929
 1083SOL    HW113013   3.872   4.012   1.684  0.4512  0.3861  0.1551
 1083SOL    HW213014   3.953   3.968   1.549  1.0805 -0.2128  0.7300
 1084SOL     OW13015   4.581   2.705   1.254  0.5086 -0.0013 -0.2437
 1084SOL    HW113016   4.522   2.747   1.185 -0.1793  0.5009  0.6434
 1084SOL    HW213017   4.564   2.747   1.343  3.0352  0.9409 -0.1720
 1085SOL     OW13018   3.071   4.019   1.332 -0.4534 -0.4339  0.2568
 1085SOL    HW113019   3.165   4.019   1.298  0.0368  2.0915  1.5293
 1085SOL    HW213020   3.070   3.995   1.429 -1.2157 -1.1325  0.0899
 1086SOL     OW13021   3.800   1.084   2.274 -0.0660  1.0237 -0.1337
 1086SOL    HW113022   3.813   1.176   2.236 -1.3483  0.9297 -0.8182
 1086SOL    HW213023   3.758   1.025   2.205  1.4409 -0.3006  0.0379
 1087SOL     OW13024   3.158   9.555   2.650 -0.3018  0.1567 -0.2008
 1087SOL    HW113025   3.064   9.581   2.669  0.1698  2.1299 -0.3428
 1087SOL    HW213026   3.175   9.559   2.552  0.0340  0.2732 -0.1427
 1088SOL     OW13027   3.606   2.018   0.926 -0.1021 -0.0852  0.8055
 1088SOL    HW113028   3.604   1.945   0.857 -0.3685  0.7340 -0.0670
 1088SOL    HW213029   3.512   2.048   0.945  0.1273  1.3320 -0.2495
 1089SOL     OW13030   2.877   0.531   0.342  0.3927  0.0090  0.4701
 1089SOL    HW113031   2.902   0.504   0.435 -0.1925  0.9683  0.9188
 1089SOL    HW213032   2.864   0.631   0.338 -1.0710 -0.1806 -0.2718
 1090SOL     OW13033   2.410   6.398   2.601  0.1220  0.0256 -0.2674
 1090SOL    HW113034   2.503   6.407   2.638  0.2263 -0.9560 -0.2823
 1090SOL    HW213035   2.348   6.371   2.674 -0.5049  2.4685  0.1461
 1091SOL     OW13036   2.957   3.502   2.223 -0.0429  0.1898 -0.3643
 1091SOL    HW113037   3.034   3.527   2.164 -0.3440  1.0578 -0.3939
 1091SOL    HW213038   2.933   3.579   2.281  0.1820 -0.6180  0.8323
 1092SOL     OW13039   2.713   3.398   2.089 -0.3806  0.5351  0.0309
 1092SOL    HW113040   2.644   3.470   2.093 -1.0035 -0.1160  1.2872
 1092SOL    HW213041   2.785   3.417   2.155 -0.0010  0.5530 -0.3855
 1093SOL     OW13042   3.694   9.640   2.240 -0.2396 -0.5753  0.0163
 1093SOL    HW113043   3.733   9.607   2.327  1.0094 -0.9163 -0.6622
 1093SOL    HW213044   3.715   9.737   2.230 -0.0838 -0.6169 -0.0622
 1094SOL     OW13045   4.121   4.367   2.531  0.2192  0.0027 -0.0694
 1094SOL    HW113046   4.063   4.337   2.456  0.2059  0.6769 -0.3369
 1094SOL    HW213047   4.065   4.378   2.614  0.2674 -0.9118  0.0860
 1095SOL     OW13048   3.270   2.847   1.067  0.8664  0.5963  0.2387
 1095SOL    HW113049   3.228   2.882   1.151 -0.5194  1.2631 -0.7140
 1095SOL    HW213050   3.267   2.918   0.997  1.8661 -0.0163 -0.4321
 1096SOL     OW13051   3.305   9.522   1.170 -0.4279  0.3461  0.2305
 1096SOL    HW113052   3.241   9.451   1.200 -0.7422 -0.0027 -1.2254
 1096SOL    HW213053   3.260   9.611   1.171 -0.3386  0.3809  1.0974
 1097SOL     OW13054   2.973   3.003   0.835 -0.5380  0.1993  0.3200
 1097SOL    HW113055   3.035   3.063   0.885 -0.7335  0.7025 -0.0270
 1097SOL    HW213056   2.966   3.034   0.740 -1.0071 -0.0931  0.2565
 1098SOL     OW13057   3.159   5.026   0.041 -0.3255  0.7759  0.3216
 1098SOL    HW113058   3.136   5.012   0.137 -0.1209  1.4481  0.4741
 1098SOL    HW213059   3.108   4.962  -0.016 -0.6328  0.5447  0.8578
 1099SOL     OW13060   2.463   3.289   1.713 -0.0925  0.2968 -0.2920
 1099SOL    HW113061   2.526   3.247   1.778 -0.6314  0.4567  0.3374
 1099SOL    HW213062   2.495   3.271   1.619  1.7384  1.6986  0.0418
 1100SOL     OW13063   3.423   1.505   1.812 -0.1158 -0.5114  0.2069
 1100SOL    HW113064   3.473   1.429   1.770  0.1663 -0.3179  0.1887
 1100SOL    HW213065   3.476   1.589   1.800  0.1449 -0.5177  1.2701
 1101SOL     OW13066   2.761   3.858   0.786  0.1045 -0.1070 -0.6993
 1101SOL    HW113067   2.809   3.775   0.815 -0.0188 -0.1023 -0.4790
 1101SOL    HW213068   2.783   3.878   0.691  2.6429  1.3744  0.1655
 1102SOL     OW13069   3.189   0.063   1.455  0.1408  0.6957  0.3039
 1102SOL    HW113070   3.250   0.005   1.509 -2.2498 -1.2069  1.0424
 1102SOL    HW213071   3.156   0.139   1.512  1.2751  1.3638  0.0906
 1103SOL     OW13072   2.940   9.691   2.086 -0.3396 -0.3603  0.0234
 1103SOL    HW113073   2.931   9.712   1.988  0.1839  1.3429  0.3350
 1103SOL    HW213074   2.975   9.597   2.096  1.4017  0.0836 -1.4771
 1104SOL     OW13075   3.521   2.040   0.325  0.2221  0.1256 -0.2990
 1104SOL    HW113076   3.597   2.088   0.370 -1.0036  2.2589 -0.4562
 1104SOL    HW213077   3.496   2.087   0.241 -1.7340 -0.1308  0.1081
 1105SOL     OW13078   2.989   6.696   1.148 -0.3278  0.0569  0.4233
 1105SOL    HW113079   3.018   6.601   1.134 -1.9278 -0.4572  0.4338
 1105SOL    HW213080   2.986   6.743   1.060  1.1772  0.3169  0.5045
 1106SOL     OW13081   2.752   6.701   1.273  0.0247  0.1563  0.4008
 1106SOL    HW113082   2.731   6.796   1.295  1.5245  0.1456  1.9195
 1106SOL    HW213083   2.833   6.698   1.214  0.2732 -0.2137  0.7655
 1107SOL     OW13084   2.338   9.471   1.604  1.1760 -0.1969 -0.0377
 1107SOL    HW113085   2.313   9.534   1.530 -0.4315  0.5086  1.0749
 1107SOL    HW213086   2.414   9.413   1.574  0.3632 -0.1234 -2.3435
 1108SOL     OW13087   3.268   8.706   1.421  0.5493  0.0512  0.2402
 1108SOL    HW113088   3.179   8.693   1.464 -0.1423  2.2925 -0.4295
 1108SOL    HW213089   3.301   8.618   1.386 -1.5432 -0.7579  0.2080
 1109SOL     OW13090   3.064   0.623   1.713 -0.2292  0.3917  0.1982
 1109SOL    HW113091   3.136   0.584   1.656  0.6882  1.7804  0.3818
 1109SOL    HW213092   2.975   0.609   1.669  0.0762 -1.7590  0.2050
 1110SOL     OW13093   3.100   7.585   0.235 -0.0503 -0.3066 -0.0917
 1110SOL    HW113094   3.035   7.577   0.159 -1.8636 -0.6128  1.4289
 1110SOL    HW213095   3.097   7.679   0.271 -1.6749 -0.9839  1.6624
 1111SOL     OW13096   3.321   3.345   0.321  0.0412 -0.3915  0.1439
 1111SOL    HW113097   3.291   3.342   0.416 -0.6680  0.9967 -0.0174
 1111SOL    HW213098   3.380   3.424   0.307  1.8869 -1.7821 -0.0903
 1112SOL     OW13099   3.176   8.539   0.991 -0.4516  0.2161  0.2617
 1112SOL    HW113100   3.260   8.522   0.940 -0.4125  0.3827  0.2684
 1112SOL    HW213101   3.099   8.494   0.946 -0.3638  0.0928  0.2360
 1113SOL     OW13102   2.955   1.494   0.450 -0.1738 -0.2750 -0.1503
 1113SOL    HW113103   3.050   1.467   0.442 -0.0140  0.5308 -1.0259
 1113SOL    HW213104   2.901   1.448   0.379 -0.6102 -1.4479  0.9114
 1114SOL     OW13105   3.165   9.002   1.949  0.4946  0.2135  0.4748
 1114SOL    HW113106   3.078   9.051   1.952  0.1994 -0.0901 -2.0182
 1114SOL    HW213107   3.154   8.911   1.988  0.5342  1.3310  3.2041
 1115SOL     OW13108   3.596   0.620   0.810  0.1135 -0.1592 -0.1804
 1115SOL    HW113109   3.629   0.526   0.814  0.3481 -0.1685 -1.9690
 1115SOL    HW213110   3.501   0.623   0.842  0.4617 -0.8086  0.9579
 1116SOL     OW13111   3.994   4.423   0.081  0.9336 -0.2320  0.1117
 1116SOL    HW113112   3.930   4.354   0.116  0.3423 -0.9991 -2.4283
 1116SOL    HW213113   4.063   4.443   0.151 -0.2286 -1.6965  1.7180
 1117SOL     OW13114   2.903   3.435   0.451 -0.0415  0.4880 -0.4621
 1117SOL    HW113115   2.872   3.398   0.363 -1.3824  0.3396  0.0636
 1117SOL    HW213116   2.824   3.470   0.502  0.5752 -0.4987  1.1849
 1118SOL     OW13117   3.761   2.384   1.122 -0.3023 -0.3804 -0.2204
 1118SOL    HW113118   3.698   2.412   1.195  0.2521  1.2866 -0.3789
 1118SOL    HW213119   3.726   2.416   1.034 -0.4894 -1.5939 -0.6020
 1119SOL     OW13120   4.001   1.191   1.200  0.0657 -0.1415  0.3045
 1119SOL    HW113121   4.050   1.239   1.127  1.4848 -1.9591 -0.0036
 1119SOL    HW213122   3.922   1.143   1.161 -0.6590  0.9734  0.4074
 1120SOL     OW13123   3.058   7.410   2.587 -0.5944 -0.2835 -0.1694
 1120SOL    HW113124   3.132   7.477   2.590 -0.6739 -0.2333  0.6565
 1120SOL    HW213125   2.985   7.436   2.650 -0.1974 -1.6521  0.8820
 1121SOL     OW13126   3.851   1.746   0.429  0.5723  0.2614 -0.2564
 1121SOL    HW113127   3.806   1.729   0.517 -0.2195 -0.1042 -0.7258
 1121SOL    HW213128   3.932   1.802   0.444  0.1962  0.5819  0.6557
 1122SOL     OW13129   3.898   3.978   2.107  0.1459  0.0507  0.2702
 1122SOL    HW113130   3.913   3.923   2.025  1.3690  0.9908 -0.1635
 1122SOL    HW213131   3.986   4.004   2.147 -0.4476 -2.3094  3.2290
 1123SOL     OW13132   3.869   0.940   2.481 -0.3870 -0.3779 -0.3155
 1123SOL    HW113133   3.798   0.935   2.552 -0.7123  0.1792 -0.6036
 1123SOL    HW213134   3.836   0.996   2.405  0.5288  0.2128 -0.2738
 1124SOL     OW13135   4.015   2.410   2.000 -0.0960  0.2784 -0.0320
 1124SOL    HW113136   4.055   2.460   1.923 -2.5117 -0.0640 -1.5631
 1124SOL    HW213137   3.935   2.459   2.034 -0.2147 -0.5954  0.9708
 1125SOL     OW13138   3.835   3.011   1.078  0.3533 -0.1331 -0.0891
 1125SOL    HW113139   3.840   3.016   0.978 -0.2930  0.7597 -0.0801
 1125SOL    HW213140   3.818   3.102   1.115 -2.1497 -0.8463  0.6537
 1126SOL     OW13141   2.934   3.130   0.597  0.1479 -0.6172 -0.2471
 1126SOL    HW113142   2.975   3.161   0.511  0.0722 -0.7303 -0.3260
 1126SOL    HW213143   2.938   3.203   0.665 -2.2469  0.4508 -1.1897
 1127SOL     OW13144   4.099   2.580   1.369 -0.4879 -0.5447  0.1061
 1127SOL    HW113145   4.118   2.498   1.316 -0.6522 -1.3085  1.2164
 1127SOL    HW213146   4.060   2.555   1.457  0.0542  0.6951  0.7161
 1128SOL     OW13147   3.113   4.926   1.662  0.0960 -0.0030 -0.0319
 1128SOL    HW113148   3.039   4.952   1.599 -0.8744 -1.6018  0.4334
 1128SOL    HW213149   3.193   4.897   1.610 -0.0321  0.5309 -0.5314
 1129SOL     OW13150   4.230   3.377   1.518  0.8992  0.1779 -0.3247
 1129SOL    HW113151   4.192   3.326   1.595  0.0839 -0.6826 -1.2804
 1129SOL    HW213152   4.198   3.336   1.432 -3.3406  4.8356 -1.2033
 1130SOL     OW13153   3.200   0.822   0.181 -0.4330 -0.4112 -0.2374
 1130SOL    HW113154   3.171   0.767   0.103 -1.1733  0.2509 -0.4372
 1130SOL    HW213155   3.142   0.903   0.188 -0.1320 -0.2751  0.7819
 1131SOL     OW13156   3.956   8.595   0.281  0.1805 -0.2760  0.3093
 1131SOL    HW113157   3.858   8.579   0.269  0.7415 -2.3071 -1.7755
 1131SOL    HW213158   3.995   8.522   0.336  0.4163  0.9547  1.8164
 1132SOL     OW13159   3.212   4.143   2.443 -0.9211  0.0693 -0.0701
 1132SOL    HW113160   3.269   4.087   2.502 -1.6705  0.1516  0.7325
 1132SOL    HW213161   3.218   4.109   2.349  0.0456 -0.2319  0.0936
 1133SOL     OW13162   4.533   1.564   2.298 -1.1503 -0.4669 -0.4288
 1133SOL    HW113163   4.495   1.532   2.211 -0.3980 -0.4821 -0.7479
 1133SOL    HW213164   4.514   1.662   2.308 -1.6796 -0.5689 -0.3702
 1134SOL     OW13165   2.711   8.158   1.299 -0.7051 -0.2944 -0.0981
 1134SOL    HW113166   2.795   8.213   1.295 -0.4647 -0.5669  1.0432
 1134SOL    HW213167   2.733   8.068   1.335 -1.5821 -0.2108  0.6304
 1135SOL     OW13168   2.561   3.797   1.925 -0.4658 -0.1774  0.5842
 1135SOL    HW113169   2.506   3.810   1.842  0.5034 -3.0964 -0.5960
 1135SOL    HW213170   2.648   3.846   1.915  1.0193 -3.0991 -1.5976
 1136SOL     OW13171   3.463   0.624   2.283  0.0685 -0.1805 -0.1045
 1136SOL    HW113172   3.552   0.636   2.239  0.1294 -1.3961 -0.3431
 1136SOL    HW213173   3.467   0.660   2.376  1.1966 -1.3044  0.3098
 1137SOL     OW13174   3.570   1.299   0.427 -0.2514  0.3610 -0.2802
 1137SOL    HW113175   3.474   1.323   0.437 -0.6734 -0.9803 -0.9837
 1137SOL    HW213176   3.600   1.321   0.334 -0.4991 -1.3297 -0.7641
 1138SOL     OW13177   3.917   4.289   2.359 -0.1683  0.1882  0.5896
 1138SOL    HW113178   3.820   4.309   2.342  0.1657  1.3804  0.0687
 1138SOL    HW213179   3.927   4.191   2.380 -1.8531  0.5369  3.3293
 1139SOL     OW13180   3.413   1.804   0.065  0.5256 -0.1389  0.4759
 1139SOL    HW113181   3.441   1.724   0.013 -0.1038  0.4203 -0.7622
 1139SOL    HW213182   3.459   1.885   0.027 -1.1266  0.4903 -0.2318
 1140SOL     OW13183   2.680   7.538   2.550  0.2672  0.0312 -0.1821
 1140SOL    HW113184   2.605   7.473   2.564  0.1365  0.4460  1.1059
 1140SOL    HW213185   2.727   7.517   2.464  0.3193 -1.8434  0.2893
 1141SOL     OW13186   2.666   5.724   2.604 -0.0717 -0.5744  0.0653
 1141SOL    HW113187   2.595   5.756   2.541 -0.9518 -1.6895  0.4759
 1141SOL    HW213188   2.623   5.673   2.679  1.2110 -1.8542 -0.0505
 1142SOL     OW13189   3.261   1.381   1.211 -0.0959 -0.2845  0.6140
 1142SOL    HW113190   3.193   1.454   1.216  1.2588  1.0212  0.6349
 1142SOL    HW213191   3.226   1.299   1.256 -1.4993  0.4820  0.9498
 1143SOL     OW13192   3.654   3.421   1.611 -0.6095  0.2271 -0.3539
 1143SOL    HW113193   3.580   3.416   1.543 -1.7172 -0.7474  0.8967
 1143SOL    HW213194   3.713   3.341   1.601 -0.6808  0.1647 -0.2776
 1144SOL     OW13195   3.257   3.491   2.451  0.3946 -0.0410 -0.3798
 1144SOL    HW113196   3.186   3.560   2.448 -0.1631 -0.5915 -0.0068
 1144SOL    HW213197   3.245   3.427   2.375 -1.1838 -1.7457  1.2478
 1145SOL     OW13198   3.398   9.370   0.447 -0.0664  0.3740 -0.4525
 1145SOL    HW113199   3.498   9.380   0.456 -0.1650 -0.7992  2.4662
 1145SOL    HW213200   3.354   9.411   0.527 -1.7997 -1.3539 -0.5131
 1146SOL     OW13201   4.135   4.006   0.039  0.4958  0.0187  0.8132
 1146SOL    HW113202   4.208   4.058  -0.004  0.4714  0.3375  1.1561
 1146SOL    HW213203   4.075   4.068   0.091 -1.7326  0.1990 -1.8560
 1147SOL     OW13204   2.731   8.247   0.255 -0.1595 -0.5195  0.1713
 1147SOL    HW113205   2.787   8.264   0.174  3.0381 -0.8640  2.2299
 1147SOL    HW213206   2.762   8.163   0.299 -0.7485  0.5459  2.6791
 1148SOL     OW13207   3.430   3.524   0.659 -0.4147 -0.0908  0.2573
 1148SOL    HW113208   3.445   3.468   0.578  0.3952 -0.2019  0.4792
 1148SOL    HW213209   3.391   3.612   0.633  0.7453  0.2523 -0.3449
 1149SOL     OW13210   2.973   7.721   2.441  0.1564 -0.2302 -0.2539
 1149SOL    HW113211   2.892   7.742   2.497  0.1777 -0.9319  0.0460
 1149SOL    HW213212   2.979   7.787   2.366 -0.5371  0.0013 -0.1171
 1150SOL     OW13213   3.444   7.510   0.890 -0.3876 -0.3281  0.1803
 1150SOL    HW113214   3.503   7.451   0.835  0.0019  0.6339 -0.4562
 1150SOL    HW213215   3.354   7.469   0.899  0.3813 -1.8647  1.2373
 1151SOL     OW13216   3.117   1.139   2.509  0.4964 -0.4017  0.6828
 1151SOL    HW113217   3.062   1.134   2.426 -1.3999 -0.5746  1.9413
 1151SOL    HW213218   3.213   1.157   2.484 -0.2485  0.7135 -1.4702
 1152SOL     OW13219   3.750   1.013   0.250 -0.6654 -0.2835 -0.2803
 1152SOL    HW113220   3.744   0.935   0.312  0.5551 -0.2287 -0.0680
 1152SOL    HW213221   3.661   1.057   0.243 -1.3810 -1.7232 -0.4465
 1153SOL     OW13222   2.508   1.381   1.767  0.5598  0.4571  0.0177
 1153SOL    HW113223   2.434   1.418   1.710  0.1096  0.0298  0.3161
 1153SOL    HW213224   2.553   1.307   1.718 -0.3344 -0.4312  0.5209
 1154SOL     OW13225   3.409   0.668   1.980 -0.1204  0.2339  0.2822
 1154SOL    HW113226   3.326   0.670   2.036 -1.1172 -0.9310 -1.0789
 1154SOL    HW213227   3.487   0.696   2.034 -1.1754 -0.1076  2.0248
 1155SOL     OW13228   3.486   9.991   2.116  0.1307  0.0253 -0.5531
 1155SOL    HW113229   3.386   9.992   2.120  0.1096 -0.4628 -0.7817
 1155SOL    HW213230   3.515  10.007   2.021  0.2096 -1.6123 -0.8232
 1156SOL     OW13231   3.241   8.054   2.570 -0.2747  0.0710  0.7055
 1156SOL    HW113232   3.295   7.994   2.511 -1.7531  1.0920 -1.7445
 1156SOL    HW213233   3.299   8.088   2.644  1.2511 -2.3081  0.6762
 1157SOL     OW13234   2.359   2.596   1.156  0.0529 -0.2466  0.0810
 1157SOL    HW113235   2.269   2.589   1.198  0.3041  2.7195  1.2661
 1157SOL    HW213236   2.425   2.544   1.210 -0.7561 -1.6557 -0.2668
 1158SOL     OW13237   4.033   2.676   2.389  0.9920  0.4947 -0.0708
 1158SOL    HW113238   3.944   2.719   2.374  0.6548 -0.3930 -0.6607
 1158SOL    HW213239   4.064   2.696   2.482 -1.1596 -1.5293  1.1388
 1159SOL     OW13240   2.940   3.394   0.030 -0.2279 -0.0419  0.0663
 1159SOL    HW113241   3.000   3.315   0.028  1.0373  0.8717  0.8259
 1159SOL    HW213242   2.874   3.389  -0.045  0.2824 -1.4493 -0.2968
 1160SOL     OW13243   3.516   3.540   1.817 -0.2458 -0.1165  0.3780
 1160SOL    HW113244   3.550   3.633   1.835 -1.0555  0.3022 -0.2507
 1160SOL    HW213245   3.585   3.489   1.765  0.6590 -0.2255  1.6562
 1161SOL     OW13246   3.409   1.016   2.210  0.8408  0.9512  0.5188
 1161SOL    HW113247   3.506   0.996   2.207  0.1399 -2.7615  0.9824
 1161SOL    HW213248   3.375   1.034   2.117  1.3990 -0.6605 -0.0012
 1162SOL     OW13249   4.020   2.129   1.651  0.7161 -0.6044  0.0798
 1162SOL    HW113250   4.028   2.081   1.739 -0.9071 -1.0027  0.0229
 1162SOL    HW213251   3.946   2.088   1.597  1.4730 -0.1458 -1.3393
 1163SOL     OW13252   2.498   4.407   0.461 -0.0813  0.0202  0.5236
 1163SOL    HW113253   2.584   4.418   0.511  1.3599 -0.9703 -1.6386
 1163SOL    HW213254   2.488   4.483   0.396  0.2943 -1.0533 -0.8067
 1164SOL     OW13255   2.335   1.747   1.882  0.0665  0.0426  0.1275
 1164SOL    HW113256   2.245   1.703   1.892  0.3724 -0.4359  0.7770
 1164SOL    HW213257   2.335   1.804   1.800 -0.9556  0.3354  0.3233
 1165SOL     OW13258   3.093   1.100   2.043 -0.2195 -0.0699  0.4225
 1165SOL    HW113259   3.114   1.007   2.014  0.8086 -0.2467  1.7075
 1165SOL    HW213260   3.175   1.156   2.039 -1.3831  1.5113 -2.9434
 1166SOL     OW13261   3.579   2.221   0.741 -0.3319  0.2956  0.0768
 1166SOL    HW113262   3.587   2.154   0.815  2.2937 -0.9367 -1.2576
 1166SOL    HW213263   3.482   2.236   0.720 -1.0238 -1.4529  1.8336
 1167SOL     OW13264   3.370   8.351   0.567 -0.0564  0.0879 -0.3572
 1167SOL    HW113265   3.445   8.352   0.632  1.3841 -0.4966 -1.9694
 1167SOL    HW213266   3.393   8.406   0.487 -0.7405 -1.2291 -1.4972
 1168SOL     OW13267   2.732   2.941   1.299 -0.6371  0.0039  0.2628
 1168SOL    HW113268   2.647   2.910   1.341 -1.8399  1.0489 -1.3298
 1168SOL    HW213269   2.770   2.867   1.242 -1.1027 -0.0786  0.0562
 1169SOL     OW13270   2.517   8.914   1.253 -0.3478  0.1392  0.5496
 1169SOL    HW113271   2.521   8.962   1.165  0.5293 -0.7411  0.1032
 1169SOL    HW213272   2.593   8.848   1.259 -0.7891 -0.2783  1.6890
 1170SOL     OW13273   3.365   9.187   0.004  0.4130 -0.1534  0.4333
 1170SOL    HW113274   3.358   9.232   0.093  1.3410  0.3892  0.2306
 1170SOL    HW213275   3.408   9.097   0.015  2.0957  0.6168  0.3113
 1171SOL     OW13276   2.367   3.315   2.067  0.2676 -0.7679 -0.0506
 1171SOL    HW113277   2.429   3.270   2.131 -0.1372  0.2523  1.0764
 1171SOL    HW213278   2.305   3.247   2.027  0.1350 -1.3272  1.0900
 1172SOL     OW13279   4.519   2.661   0.242 -0.5506  0.0149  0.0278
 1172SOL    HW113280   4.426   2.633   0.263  0.0471 -1.4534  0.7839
 1172SOL    HW213281   4.582   2.618   0.306  0.5512  1.9655  0.2950
 1173SOL     OW13282   3.662   1.400   0.162 -0.1592 -0.0898 -0.0902
 1173SOL    HW113283   3.667   1.499   0.172 -0.9269  0.2213 -2.3281
 1173SOL    HW213284   3.746   1.366   0.119 -0.6822 -0.1393 -1.0882
 1174SOL     OW13285   2.437   7.036   0.627 -0.2216  0.2549  0.3397
 1174SOL    HW113286   2.468   7.104   0.561 -0.7040  0.4693  0.3378
 1174SOL    HW213287   2.461   7.066   0.720  0.1882  0.0943  0.2882
 1175SOL     OW13288   3.805   2.955   0.036 -0.0712  0.1160  0.0511
 1175SOL    HW113289   3.855   3.017  -0.024  0.1272 -0.0641  0.0286
 1175SOL    HW213290   3.713   2.941  -0.000 -0.3900  1.0264  0.4868
 1176SOL     OW13291   2.987   8.560   0.743  0.1589  0.2665  0.0812
 1176SOL    HW113292   3.028   8.483   0.694  0.5210  0.8929 -0.6078
 1176SOL    HW213293   3.006   8.645   0.694 -0.7475  0.7298  0.5242
 1177SOL     OW13294   3.216   3.811   2.438 -0.5779  0.0015  0.1131
 1177SOL    HW113295   3.288   3.774   2.379 -0.8965  0.1810 -0.3876
 1177SOL    HW213296   3.127   3.792   2.398 -0.8508 -1.0077  1.1827
 1178SOL     OW13297   3.309   2.370   0.329  0.2419  0.0559  0.0645
 1178SOL    HW113298   3.251   2.391   0.250  0.3712  0.2201  0.0136
 1178SOL    HW213299   3.363   2.450   0.354  1.6823 -0.5649 -0.9321
 1179SOL     OW13300   2.661   5.500   1.325  0.0805 -0.3922 -0.2113
 1179SOL    HW113301   2.622   5.408   1.320 -1.1716  0.1248 -0.2247
 1179SOL    HW213302   2.759   5.494   1.344  0.2026 -1.7487 -1.2002
 1180SOL     OW13303   3.645   3.217   2.645 -0.2023  0.4221  0.1194
 1180SOL    HW113304   3.681   3.155   2.576 -0.4395 -1.8228  1.9464
 1180SOL    HW213305   3.559   3.257   2.613 -0.0508 -0.1971 -1.0803
 1181SOL     OW13306   2.994   0.773   2.262  0.0946 -0.7230  0.4133
 1181SOL    HW113307   3.033   0.837   2.328  1.8504 -1.0396 -0.2972
 1181SOL    HW213308   2.917   0.725   2.304  1.3726 -1.1327  2.3327
 1182SOL     OW13309   3.078   5.408   2.472  0.3225  0.6380 -0.0711
 1182SOL    HW113310   3.049   5.469   2.546  1.9692  1.6279 -0.2161
 1182SOL    HW213311   3.057   5.451   2.384  1.4594  0.9969 -0.1734
 1183SOL     OW13312   2.772   9.924   0.901 -0.3471 -0.4618 -0.2921
 1183SOL    HW113313   2.716   9.990   0.951 -0.2172 -0.1536 -0.5488
 1183SOL    HW213314   2.867   9.933   0.929 -0.3795 -0.7768 -0.0788
 1184SOL     OW13315   3.123   3.824   0.010  0.2087  0.5662 -0.1783
 1184SOL    HW113316   3.050   3.758   0.020 -0.2483  1.3095  1.4117
 1184SOL    HW213317   3.160   3.818  -0.083 -1.6888  0.0223 -0.9192
 1185SOL     OW13318   3.575   2.909   2.591 -0.0830  0.5273  0.1828
 1185SOL    HW113319   3.493   2.930   2.645 -0.6066  1.8908 -1.1030
 1185SOL    HW213320   3.548   2.863   2.507  0.7444 -1.6918  1.0879
 1186SOL     OW13321   2.592   6.073   1.655 -0.1892 -0.3351  0.1728
 1186SOL    HW113322   2.611   6.078   1.556 -0.6652 -0.0399  0.0930
 1186SOL    HW213323   2.605   5.979   1.686 -0.0225 -0.4289 -0.1670
 1187SOL     OW13324   3.219   9.731   0.652 -0.3130  0.0956 -0.6517
 1187SOL    HW113325   3.237   9.804   0.718 -1.8789  0.4549 -0.6037
 1187SOL    HW213326   3.248   9.761   0.561  1.5813 -0.2930 -0.2062
 1188SOL     OW13327   2.538   0.399   1.501 -0.0604 -0.0043  0.5111
 1188SOL    HW113328   2.581   0.434   1.584  0.9805 -0.1602  0.0386
 1188SOL    HW213329   2.460   0.341   1.526  0.5052 -0.3948  1.3978
 1189SOL     OW13330   2.582   9.267   2.395 -0.4211  0.3471  0.3786
 1189SOL    HW113331   2.574   9.193   2.462  0.1824 -0.5569 -0.5380
 1189SOL    HW213332   2.653   9.245   2.329 -2.8765 -0.0853 -2.2052
 1190SOL     OW13333   2.885   9.098   1.984  0.1671 -0.0046  0.3912
 1190SOL    HW113334   2.905   9.115   2.080  0.6282 -0.1358  0.3166
 1190SOL    HW213335   2.799   9.046   1.976  0.6951 -0.9409  0.7785
 1191SOL     OW13336   5.126   3.144   1.418  0.2590  0.3354 -0.0280
 1191SOL    HW113337   5.086   3.079   1.354 -0.3073  0.9227 -0.2847
 1191SOL    HW213338   5.225   3.145   1.408  0.2391 -0.2381 -0.2599
 1192SOL     OW13339   3.844   8.843   0.406  0.0211  0.3024  0.1910
 1192SOL    HW113340   3.808   8.902   0.334  1.9152 -0.1107 -1.1217
 1192SOL    HW213341   3.884   8.761   0.366  0.0667 -0.4924  1.7974
 1193SOL     OW13342   2.736   0.074   0.493 -0.6776  0.1097 -0.0039
 1193SOL    HW113343   2.821   0.027   0.469 -0.0213  1.4369 -0.3140
 1193SOL    HW213344   2.697   0.032   0.575  1.0879  0.5009  1.0501
 1194SOL     OW13345   2.913   5.428   1.335 -0.0930  0.1029  0.1213
 1194SOL    HW113346   2.920   5.363   1.259 -1.8717  1.2276 -1.0325
 1194SOL    HW213347   3.005   5.449   1.368  1.0018  1.8617 -3.7121
 1195SOL     OW13348   3.494   7.650   1.597  0.5346 -0.1001 -0.0503
 1195SOL    HW113349   3.578   7.599   1.615  0.5530  0.5945  1.9880
 1195SOL    HW213350   3.416   7.588   1.601  0.7256 -0.3055  0.4814
 1196SOL     OW13351   2.698   2.190   0.846 -0.4588 -0.2782  0.0657
 1196SOL    HW113352   2.712   2.125   0.921 -0.9193 -0.0613  0.3403
 1196SOL    HW213353   2.696   2.141   0.759 -1.8838 -0.7670  0.3611
 1197SOL     OW13354   3.300   3.227   1.583 -0.2307 -0.1222  0.2127
 1197SOL    HW113355   3.337   3.174   1.659  1.3562 -0.1464 -0.5690
 1197SOL    HW213356   3.292   3.169   1.502 -1.6292 -0.0184  0.2536
 1198SOL     OW13357   3.544   0.136   1.877  0.0666  0.1015 -0.3291
 1198SOL    HW113358   3.513   0.108   1.787 -1.4292  0.7170 -0.0258
 1198SOL    HW213359   3.496   0.220   1.905 -0.1351 -0.5486  1.3828
 1199SOL     OW13360   3.488   8.586   0.488  0.2556  0.4678 -0.3109
 1199SOL    HW113361   3.506   8.646   0.566 -0.6192 -0.9775  1.0380
 1199SOL    HW213362   3.418   8.627   0.430  0.2835  1.1495  0.1313
 1200SOL     OW13363   2.865   8.322   0.028 -0.0127 -0.2047  0.2864
 1200SOL    HW113364   2.895   8.417   0.016 -1.4507  0.3881  1.2044
 1200SOL    HW213365   2.917   8.263  -0.033  0.4062  1.2687 -0.8305
 1201SOL     OW13366   2.467   4.260   1.060  0.0112  0.9925  0.1132
 1201SOL    HW113367   2.482   4.318   0.980  1.6831  0.3705 -0.0406
 1201SOL    HW213368   2.438   4.169   1.031 -0.9877  1.2424  0.2935
 1202SOL     OW13369   2.430   1.126   0.831 -0.5374  0.2948  0.0637
 1202SOL    HW113370   2.415   1.078   0.745 -0.4472  0.5865 -0.1147
 1202SOL    HW213371   2.526   1.153   0.838 -0.3355 -0.5859  0.6957
 1203SOL     OW13372   2.472   7.228   0.357 -0.3673 -0.4927 -0.1839
 1203SOL    HW113373   2.540   7.292   0.321 -0.6864  0.1576  0.3380
 1203SOL    HW213374   2.455   7.156   0.290  1.0374 -0.8239 -0.1958
 1204SOL     OW13375   3.977   8.833   0.653 -0.0898  0.2708 -0.3345
 1204SOL    HW113376   4.074   8.816   0.636 -0.0237 -0.2678  0.5335
 1204SOL    HW213377   3.933   8.864   0.569  0.7795  0.2638 -0.7952
 1205SOL     OW13378   3.571   1.734   1.750  0.4154 -0.1754  0.5301
 1205SOL    HW113379   3.591   1.678   1.669 -0.6600  0.5958 -0.2761
 1205SOL    HW213380   3.639   1.807   1.757  1.5553 -1.2935  1.3311
 1206SOL     OW13381   2.810   3.925   2.191 -0.2182  0.4698 -0.1263
 1206SOL    HW113382   2.791   3.932   2.093 -2.0795 -1.5839  0.0373
 1206SOL    HW213383   2.765   4.001   2.239 -2.0891 -0.3147 -0.5624
 1207SOL     OW13384   2.917   1.174   1.476 -0.4742 -0.1464 -0.4296
 1207SOL    HW113385   2.971   1.197   1.395 -1.8125 -0.4532 -1.4222
 1207SOL    HW213386   2.928   1.246   1.545 -0.1847  0.6686 -1.3093
 1208SOL     OW13387   3.146   3.541   0.821 -0.1890 -0.2938  0.8672
 1208SOL    HW113388   3.188   3.586   0.900  1.8293 -1.1062  0.2944
 1208SOL    HW213389   3.093   3.608   0.769  1.5094  1.0891  0.8681
 1209SOL     OW13390   3.980   4.740   1.711  0.1177  0.7650 -0.4596
 1209SOL    HW113391   4.004   4.721   1.616  0.3767 -1.2894  0.0031
 1209SOL    HW213392   4.064   4.755   1.764  0.3037 -2.9731  0.4326
 1210SOL     OW13393   4.100   3.665   0.376 -0.3219  0.3020  0.3478
 1210SOL    HW113394   4.160   3.705   0.445 -1.3770  1.5695  0.5475
 1210SOL    HW213395   4.087   3.568   0.396  1.2237  0.1449  0.6036
 1211SOL     OW13396   2.445   8.838   1.763  0.1114  0.3540 -0.3190
 1211SOL    HW113397   2.385   8.789   1.825  0.4585  1.2652  0.7424
 1211SOL    HW213398   2.445   8.936   1.785  0.5696  0.6246 -1.4659
 1212SOL     OW13399   4.414   3.997   0.602  0.0306  0.2774 -0.2380
 1212SOL    HW113400   4.467   4.018   0.684 -1.1047  0.7525  0.3887
 1212SOL    HW213401   4.417   4.076   0.540 -0.1699  0.4133 -0.0765
 1213SOL     OW13402   3.598   3.207   0.593 -0.4689  0.2730  0.1608
 1213SOL    HW113403   3.549   3.194   0.507 -1.3473  0.7313  0.5946
 1213SOL    HW213404   3.697   3.210   0.574 -0.7871  4.1946 -1.3427
 1214SOL     OW13405   2.681   3.495   1.135  0.7142  0.2696  0.0443
 1214SOL    HW113406   2.645   3.584   1.107 -0.1561 -0.4055 -0.9932
 1214SOL    HW213407   2.609   3.443   1.182  0.8271 -0.4089 -0.5202
 1215SOL     OW13408   2.910   3.903   0.557 -0.3514 -0.2084 -0.6382
 1215SOL    HW113409   2.880   3.856   0.475  1.2256  0.2874 -1.5285
 1215SOL    HW213410   2.936   3.997   0.534 -2.2037  0.7050  0.8741
 1216SOL     OW13411   3.504   9.327   1.291 -0.4889 -0.0303 -0.6233
 1216SOL    HW113412   3.414   9.333   1.334  0.3471  0.7061  1.0586
 1216SOL    HW213413   3.517   9.406   1.231 -0.4335  0.5955  0.1988
 1217SOL     OW13414   3.078   0.269   1.608 -0.1358 -0.3928  0.2313
 1217SOL    HW113415   2.997   0.270   1.549  0.9469  0.0848 -1.2669
 1217SOL    HW213416   3.049   0.251   1.703 -2.0736  0.5285 -0.1471
 1218SOL     OW13417   2.523   3.424   2.344 -0.0989  0.4490 -0.0311
 1218SOL    HW113418   2.523   3.489   2.269  2.8371 -1.1649 -1.5181
 1218SOL    HW213419   2.518   3.331   2.307 -0.8376 -0.2981  1.8866
 1219SOL     OW13420   3.548   0.358   0.213  0.5663  0.6312 -0.4124
 1219SOL    HW113421   3.544   0.453   0.184 -0.8287  1.2203  1.6251
 1219SOL    HW213422   3.472   0.307   0.172  0.5836  0.6818 -0.5070
 1220SOL     OW13423   3.477   8.891   1.428  0.0663 -0.3703 -0.3886
 1220SOL    HW113424   3.498   8.918   1.334 -3.9962  1.8663 -0.7896
 1220SOL    HW213425   3.412   8.815   1.427 -0.6118  0.1905  0.5716
 1221SOL     OW13426   2.263   5.374   0.595  0.3731  0.1370 -0.0423
 1221SOL    HW113427   2.195   5.327   0.652 -0.3657  1.0492 -0.1533
 1221SOL    HW213428   2.341   5.313   0.579  0.2300 -0.4213  1.2752
 1222SOL     OW13429   3.487   4.194   1.207 -0.6337  0.5197 -0.2635
 1222SOL    HW113430   3.473   4.214   1.110  0.0260  0.6033 -0.3417
 1222SOL    HW213431   3.584   4.199   1.229 -0.7342  0.0606  0.3083
 1223SOL     OW13432   4.891   1.905   2.326 -1.0507 -0.0736 -0.2363
 1223SOL    HW113433   4.842   1.884   2.242  0.8654 -0.4423 -1.2927
 1223SOL    HW213434   4.888   2.004   2.342 -0.3341  0.1553 -1.4374
 1224SOL     OW13435   2.863   7.987   1.047  0.2790 -0.2014  0.2687
 1224SOL    HW113436   2.904   7.999   1.137 -2.6602 -2.5619  2.0176
 1224SOL    HW213437   2.793   8.057   1.033 -0.2132 -0.6466  0.4446
 1225SOL     OW13438   3.036   9.290   0.216  0.3392  0.0160 -0.1673
 1225SOL    HW113439   3.046   9.385   0.244  0.1449 -0.3154  1.0704
 1225SOL    HW213440   2.946   9.256   0.245 -0.3550 -0.0041 -2.2534
 1226SOL     OW13441   2.083   7.039   1.841  0.0161 -0.1533 -0.2160
 1226SOL    HW113442   2.047   7.107   1.777 -1.3046  0.6995  1.3946
 1226SOL    HW213443   2.129   7.085   1.917  0.9659 -1.1269 -0.1859
 1227SOL     OW13444   3.692   4.028   0.506 -1.0835  0.2024 -0.4313
 1227SOL    HW113445   3.765   3.973   0.464 -0.8973  0.0459  0.0925
 1227SOL    HW213446   3.606   4.012   0.458 -1.4174 -1.8915  0.8013
 1228SOL     OW13447   3.014   3.764   1.038 -0.0291 -0.0274  0.4019
 1228SOL    HW113448   3.046   3.848   0.995 -0.9863  0.7262  1.1367
 1228SOL    HW213449   3.004   3.692   0.969 -0.3367  0.8068 -0.4203
 1229SOL     OW13450   2.674   9.654   1.086  0.2363  0.5642  0.0861
 1229SOL    HW113451   2.708   9.747   1.079  1.4564  0.2330  1.3275
 1229SOL    HW213452   2.741   9.597   1.134 -0.8418 -0.7596  0.0695
 1230SOL     OW13453   3.456   2.732   2.315  0.1604 -0.5377 -0.5765
 1230SOL    HW113454   3.462   2.647   2.263  1.2429  0.0364 -1.4248
 1230SOL    HW213455   3.362   2.764   2.316 -0.3146 -1.9096  0.0373
 1231SOL     OW13456   3.991   2.577   0.675 -0.5555  0.3472 -0.8516
 1231SOL    HW113457   3.931   2.539   0.745 -1.5667  1.2531 -1.2115
 1231SOL    HW213458   3.943   2.577   0.587  0.0709  0.8335 -1.1980
 1232SOL     OW13459   2.329   7.957   1.624  0.2081 -0.1061 -0.3568
 1232SOL    HW113460   2.336   8.052   1.594  0.1235 -0.2146 -0.7308
 1232SOL    HW213461   2.362   7.896   1.552  0.4678 -0.3522 -0.0338
 1233SOL     OW13462   2.814   0.966   1.675  0.3435 -0.1218 -0.1224
 1233SOL    HW113463   2.850   1.007   1.592  2.3674 -2.3729 -0.4157
 1233SOL    HW213464   2.844   0.871   1.681 -1.4084 -0.5806  2.2024
 1234SOL     OW13465   3.184   0.076   0.350  0.4240  0.1026 -0.5386
 1234SOL    HW113466   3.106   0.078   0.413  1.0144 -2.2493  0.3007
 1234SOL    HW213467   3.211   0.169   0.328 -1.1605  0.9553  0.9915
 1235SOL     OW13468   3.359   8.818   0.261 -0.3368 -0.5738 -0.2973
 1235SOL    HW113469   3.455   8.834   0.285 -0.2602 -1.8986  0.3430
 1235SOL    HW213470   3.315   8.905   0.239  0.9381  0.0755 -0.3174
 1236SOL     OW13471   2.616   7.368   1.045 -0.5037 -0.2569  0.2314
 1236SOL    HW113472   2.590   7.462   1.069  0.2423 -0.1775  0.7639
 1236SOL    HW213473   2.557   7.334   0.972 -1.3687  0.3065  0.6585
 1237SOL     OW13474   3.383   2.153   0.954  0.3871  0.1562 -0.4159
 1237SOL    HW113475   3.342   2.151   0.863 -3.1598 -0.9848  1.1210
 1237SOL    HW213476   3.356   2.238   1.001 -1.4851 -1.2424  1.1247
 1238SOL     OW13477   3.002   6.617   0.015  0.2309  0.3199 -0.8433
 1238SOL    HW113478   3.070   6.685  -0.011  1.0024 -0.1991 -0.2210
 1238SOL    HW213479   2.982   6.558  -0.063  1.9829 -0.7688 -0.5072
 1239SOL     OW13480   2.589   8.153   2.553 -0.7369 -0.4319 -0.9177
 1239SOL    HW113481   2.644   8.125   2.474 -0.7630  0.4156 -1.2409
 1239SOL    HW213482   2.624   8.239   2.589 -0.2873 -1.1654  0.4378
 1240SOL     OW13483   3.188   9.529   2.370  0.6832 -0.4474 -0.3554
 1240SOL    HW113484   3.100   9.513   2.324  0.3723  1.6882 -0.5442
 1240SOL    HW213485   3.261   9.533   2.302  0.7816 -1.1712 -0.2953
 1241SOL     OW13486   3.920   8.149   0.457  0.3197  0.3083 -0.6980
 1241SOL    HW113487   3.976   8.094   0.520  0.9386 -0.0321 -1.5399
 1241SOL    HW213488   3.965   8.155   0.369 -0.8893  0.1867 -1.3387
 1242SOL     OW13489   2.782   2.179   0.172 -0.1164 -0.2624 -0.0593
 1242SOL    HW113490   2.777   2.191   0.271  0.3748  1.0389 -0.1809
 1242SOL    HW213491   2.867   2.220   0.138  0.7349 -2.5617 -0.7511
 1243SOL     OW13492   2.993   6.726   1.911  0.5621 -0.4632  0.2547
 1243SOL    HW113493   3.060   6.652   1.905  1.0037 -0.0731  0.3387
 1243SOL    HW213494   3.003   6.775   1.997 -2.2663 -2.6932  1.9544
 1244SOL     OW13495   4.370   1.471   2.038  0.3553 -0.1644 -0.0816
 1244SOL    HW113496   4.287   1.422   2.063 -0.2767 -0.2865 -2.3192
 1244SOL    HW213497   4.397   1.447   1.945  1.5397  1.7073 -0.2648
 1245SOL     OW13498   3.301   7.450   0.081  0.3456  0.0116  0.3046
 1245SOL    HW113499   3.288   7.522   0.013  0.1745 -0.4049 -0.1046
 1245SOL    HW213500   3.231   7.460   0.153 -2.0787 -1.9591 -1.6764
 1246SOL     OW13501   2.604   1.691   1.200 -0.6903  0.4024 -0.3340
 1246SOL    HW113502   2.532   1.626   1.175  2.0653 -2.6646 -0.7013
 1246SOL    HW213503   2.654   1.657   1.280  1.2937  1.6700 -0.9710
 1247SOL     OW13504   2.566   7.830   0.725 -0.5375 -0.4006 -0.1294
 1247SOL    HW113505   2.623   7.750   0.705  2.7576  1.8944 -0.3376
 1247SOL    HW213506   2.535   7.826   0.820 -1.0197 -2.2817 -0.3511
 1248SOL     OW13507   3.429   0.556   1.719  0.1265  0.2444 -0.0091
 1248SOL    HW113508   3.437   0.481   1.785 -3.0076 -0.8763 -0.7643
 1248SOL    HW213509   3.406   0.641   1.767 -2.1210 -0.5570  0.4204
 1249SOL     OW13510   4.108   0.441   1.294  0.2623 -0.2817 -0.2909
 1249SOL    HW113511   4.023   0.459   1.244 -0.0766  0.0523  0.4036
 1249SOL    HW213512   4.141   0.526   1.336  1.8507 -0.0383 -1.9628
 1250SOL     OW13513   2.927   1.266   2.684 -0.5230 -0.0172  0.3560
 1250SOL    HW113514   2.863   1.312   2.623  0.5060  3.4898  1.8155
 1250SOL    HW213515   3.008   1.239   2.632 -0.6632  0.8149 -0.3132
 1251SOL     OW13516   3.437   1.983   1.717 -0.0884 -0.5406  0.3085
 1251SOL    HW113517   3.464   1.887   1.722  0.4234 -0.3484  1.3724
 1251SOL    HW213518   3.487   2.035   1.787  1.3191  0.8979 -1.7088
 1252SOL     OW13519   3.282   1.137   1.542  0.5440 -0.5645 -0.0601
 1252SOL    HW113520   3.246   1.223   1.580 -0.3967 -0.4501 -1.1815
 1252SOL    HW213521   3.380   1.148   1.524  0.4646  0.2342 -0.0611
 1253SOL     OW13522   3.276   8.566   0.305  0.3456  0.1681  0.0041
 1253SOL    HW113523   3.302   8.644   0.249 -0.3237  1.2247  1.1306
 1253SOL    HW213524   3.214   8.507   0.254 -0.2573  1.1135 -0.3677
 1254SOL     OW13525   2.737   9.688   2.277 -0.3720  0.2630  0.4050
 1254SOL    HW113526   2.658   9.749   2.273 -1.6155 -1.3174 -0.0221
 1254SOL    HW213527   2.800   9.710   2.203 -1.4739  0.1618 -0.5871
 1255SOL     OW13528   2.891   0.123   0.039  0.1571 -0.2016 -0.3870
 1255SOL    HW113529   2.901   0.209  -0.011  0.6608 -1.1587 -1.9950
 1255SOL    HW213530   2.834   0.137   0.119 -0.2488  1.5046 -0.9514
 1256SOL     OW13531   3.432   3.737   2.299 -0.3945  0.9029  0.0759
 1256SOL    HW113532   3.495   3.659   2.293 -2.3676 -0.8013  0.9097
 1256SOL    HW213533   3.479   3.820   2.270  2.4536 -0.1981  1.3501
 1257SOL     OW13534   3.096   3.062   0.343 -0.2136  0.2523  0.0822
 1257SOL    HW113535   3.140   3.111   0.268  1.5130 -0.2400  0.7403
 1257SOL    HW213536   3.019   3.009   0.307  0.3206  0.3538 -1.2664
 1258SOL     OW13537   3.154   7.542   0.900 -0.2961 -0.1533  0.6133
 1258SOL    HW113538   3.129   7.459   0.951 -2.9736  0.7495  0.8305
 1258SOL    HW213539   3.105   7.620   0.938 -0.3290  0.9703 -1.6982
 1259SOL     OW13540   2.843   0.626   2.412  0.7618 -1.2199 -1.0066
 1259SOL    HW113541   2.855   0.531   2.382  1.3758 -1.8984  1.2028
 1259SOL    HW213542   2.760   0.634   2.467  1.1889 -0.7002 -0.4171
  10.00000  10.00000   2.68132
